<event>
11    1  0.8037748E-009  0.1408026E+03  0.7561462E-02  0.1106665E+00
         22   -1    0    0    0    0  0.00000000000E+00  0.00000000000E+00  0.12802319363E+03  0.12802319363E+03  0.00000000000E+00 0. -1.
         22   -1    0    0    0    0 -0.00000000000E+00 -0.00000000000E+00 -0.28726831033E+03  0.28726831033E+03  0.00000000000E+00 0. -1.
        -24    2    1    2    0    0 -0.36514576285E+02  0.43756395037E+02 -0.12775727525E+03  0.16166440145E+03  0.81027902162E+02 0.  0.
         25    2    1    2    0    0  0.79131971572E+02 -0.57641032936E+02 -0.21813939350E+02  0.16034038469E+03  0.12509529732E+03 0.  0.
         24    2    1    2    0    0 -0.42617395286E+02  0.13884637900E+02 -0.96739020965E+01  0.93286717824E+02  0.81239164139E+02 0.  0.
        -13    1    5    5    0    0 -0.34177663106E+02 -0.20593972060E+02 -0.32175518865E+02  0.51259031934E+02  0.00000000000E+00 0.  1.
         14    1    5    5    0    0 -0.84397321802E+01  0.34478609960E+02  0.22501616769E+02  0.42027685890E+02  0.00000000000E+00 0. -1.
         11    1    3    3    0    0 -0.38967964575E+02  0.31856244546E+02 -0.13728703111E+03  0.14622260937E+03  0.00000000000E+00 0. -1.
        -12    1    3    3    0    0  0.24533882897E+01  0.11900150491E+02  0.95297558621E+01  0.15441792079E+02  0.00000000000E+00 0.  1.
          5    1    4    4  501    0  0.89249283450E+02 -0.88711378268E+02 -0.17346808585E+02  0.12709652788E+03  0.41800000000E+01 0. -1.
         -5    1    4    4    0  501 -0.10117311878E+02  0.31070345331E+02 -0.44671307652E+01  0.33243856815E+02  0.41800000000E+01 0. -1.
</event>
<event>
11    1  0.8037748E-009  0.1474282E+03  0.7561462E-02  0.1099536E+00
         22   -1    0    0    0    0  0.00000000000E+00  0.00000000000E+00  0.39989091744E+03  0.39989091744E+03  0.00000000000E+00 0. -1.
         22   -1    0    0    0    0 -0.00000000000E+00 -0.00000000000E+00 -0.12110279598E+04  0.12110279598E+04  0.00000000000E+00 0. -1.
        -24    2    1    2    0    0 -0.81501534829E+02 -0.31518289073E+02 -0.62224611517E+03  0.63313884359E+03  0.77708845684E+02 0.  0.
         25    2    1    2    0    0  0.20462331651E+02  0.83578708447E+02 -0.56490802076E+03  0.58495647056E+03  0.12509553552E+03 0.  0.
         24    2    1    2    0    0  0.61039203178E+02 -0.52060419374E+02  0.37601709352E+03  0.39282356314E+03  0.80532139854E+02 0.  0.
        -13    1    5    5    0    0  0.51004504136E+01 -0.41723180527E+02  0.26256950721E+03  0.26591273851E+03  0.00000000000E+00 0.  1.
         14    1    5    5    0    0  0.55938752764E+02 -0.10337238847E+02  0.11344758631E+03  0.12691082463E+03  0.00000000000E+00 0. -1.
         13    1    3    3    0    0 -0.46201293736E+02  0.74617486397E+01 -0.46463206543E+03  0.46698307620E+03  0.00000000000E+00 0. -1.
        -14    1    3    3    0    0 -0.35300241093E+02 -0.38980037712E+02 -0.15761404974E+03  0.16615576739E+03  0.00000000000E+00 0.  1.
          5    1    4    4  501    0  0.83400604505E+00  0.11055913018E+03 -0.34001588854E+03  0.35756439098E+03  0.41800000000E+01 0.  1.
         -5    1    4    4    0  501  0.19628325606E+02 -0.26980421738E+02 -0.22489213221E+03  0.22739207958E+03  0.41800000000E+01 0.  1.
</event>
<event>
11    1  0.8037748E-009  0.2117552E+03  0.7561462E-02  0.1046509E+00
         22   -1    0    0    0    0  0.00000000000E+00  0.00000000000E+00  0.71301121186E+03  0.71301121186E+03  0.00000000000E+00 0.  1.
         22   -1    0    0    0    0 -0.00000000000E+00 -0.00000000000E+00 -0.29082168475E+03  0.29082168475E+03  0.00000000000E+00 0.  1.
         24    2    1    2    0    0  0.84157399619E+02  0.12562093193E+03 -0.13351953221E+03  0.21688942061E+03  0.79689828983E+02 0.  0.
         25    2    1    2    0    0 -0.16702158730E+03 -0.21997022964E+03  0.11951979678E+03  0.32590977720E+03  0.12509631689E+03 0.  0.
        -24    2    1    2    0    0  0.82864187681E+02  0.94349297709E+02  0.43618926255E+03  0.46103369880E+03  0.80763451441E+02 0.  0.
        -13    1    3    3    0    0  0.79165666218E+02  0.83317021240E+02 -0.13092464122E+03  0.17421306040E+03  0.00000000000E+00 0.  1.
         14    1    3    3    0    0  0.49917334018E+01  0.42303910687E+02 -0.25948909934E+01  0.42676360214E+02  0.00000000000E+00 0. -1.
         13    1    5    5    0    0  0.37706971236E+02  0.62255194288E+02  0.12251140928E+03  0.14250112385E+03  0.00000000000E+00 0. -1.
        -14    1    5    5    0    0  0.45157216445E+02  0.32094103421E+02  0.31367785327E+03  0.31853257495E+03  0.00000000000E+00 0.  1.
          5    1    4    4  501    0  0.49401581404E+01 -0.45088504004E+01 -0.16642274617E+02  0.18416639183E+02  0.41800000000E+01 0. -1.
         -5    1    4    4    0  501 -0.17196174544E+03 -0.21546137924E+03  0.13616207140E+03  0.30749313801E+03  0.41800000000E+01 0. -1.
</event>
<event>
11    1  0.8037748E-009  0.1350813E+03  0.7561462E-02  0.1113179E+00
         22   -1    0    0    0    0  0.00000000000E+00  0.00000000000E+00  0.36055392557E+03  0.36055392557E+03  0.00000000000E+00 0.  1.
         22   -1    0    0    0    0 -0.00000000000E+00 -0.00000000000E+00 -0.33768385734E+03  0.33768385734E+03  0.00000000000E+00 0. -1.
        -24    2    1    2    0    0 -0.24759277060E+02 -0.42630455574E+02 -0.26962987917E+03  0.28525344205E+03  0.78986561604E+02 0.  0.
         25    2    1    2    0    0  0.25851129254E+02  0.68397217888E+02  0.43848544469E+02  0.15137800931E+03  0.12508455761E+03 0.  0.
         24    2    1    2    0    0 -0.10918521941E+01 -0.25766762314E+02  0.24865140294E+03  0.26160633155E+03  0.77105345741E+02 0.  0.
        -13    1    5    5    0    0 -0.78173842652E+01  0.30383494378E+00  0.22678891748E+03  0.22692381299E+03  0.00000000000E+00 0.  1.
         14    1    5    5    0    0  0.67255320711E+01 -0.26070597258E+02  0.21862485466E+02  0.34682518561E+02  0.00000000000E+00 0. -1.
         13    1    3    3    0    0 -0.38737847695E+02 -0.77853787952E+01 -0.21721451774E+03  0.22077902908E+03  0.00000000000E+00 0. -1.
        -14    1    3    3    0    0  0.13978570635E+02 -0.34845076779E+02 -0.52415361439E+02  0.64474412967E+02  0.00000000000E+00 0.  1.
          5    1    4    4  501    0  0.59983163556E+02  0.22473398185E+02  0.63928245509E+02  0.90594296233E+02  0.41800000000E+01 0. -1.
         -5    1    4    4    0  501 -0.34132034303E+02  0.45923819703E+02 -0.20079701040E+02  0.60783713079E+02  0.41800000000E+01 0. -1.
</event>
<event>
11    1  0.8037748E-009  0.1815563E+03  0.7561462E-02  0.1068391E+00
         22   -1    0    0    0    0  0.00000000000E+00  0.00000000000E+00  0.52249976129E+03  0.52249976129E+03  0.00000000000E+00 0.  1.
         22   -1    0    0    0    0 -0.00000000000E+00 -0.00000000000E+00 -0.38807934643E+03  0.38807934643E+03  0.00000000000E+00 0. -1.
         24    2    1    2    0    0 -0.26316092658E+02  0.23467720999E+01 -0.10112090636E+03  0.13452256326E+03  0.84692610362E+02 0.  0.
         25    2    1    2    0    0  0.10367639739E+03 -0.10778716975E+03 -0.22082849102E+03  0.29458255264E+03  0.12508712377E+03 0.  0.
        -24    2    1    2    0    0 -0.77360304731E+02  0.10544039765E+03  0.45636981225E+03  0.48147399182E+03  0.80258987425E+02 0.  0.
        -11    1    3    3    0    0  0.30566908011E+02 -0.62132634162E+01 -0.35069888954E+02  0.46934396969E+02  0.00000000000E+00 0.  1.
         12    1    3    3    0    0 -0.56883000669E+02  0.85600355161E+01 -0.66051017409E+02  0.87588166289E+02  0.00000000000E+00 0. -1.
         13    1    5    5    0    0 -0.87340060929E+01  0.15238358327E+02  0.85507692778E+01  0.19534740392E+02  0.00000000000E+00 0. -1.
        -14    1    5    5    0    0 -0.68626298638E+02  0.90202039327E+02  0.44781904297E+03  0.46193925143E+03  0.00000000000E+00 0.  1.
          5    1    4    4  501    0  0.70759717664E+01  0.24351005814E+02 -0.59069437240E+02  0.64418255770E+02  0.41800000000E+01 0.  1.
         -5    1    4    4    0  501  0.96600425622E+02 -0.13213817557E+03 -0.16175905378E+03  0.23016429687E+03  0.41800000000E+01 0.  1.
</event>
<event>
11    1  0.8037748E-009  0.2017337E+03  0.7561462E-02  0.1053304E+00
         22   -1    0    0    0    0  0.00000000000E+00  0.00000000000E+00  0.18771192359E+04  0.18771192359E+04  0.00000000000E+00 0. -1.
         22   -1    0    0    0    0 -0.00000000000E+00 -0.00000000000E+00 -0.11727664293E+04  0.11727664293E+04  0.00000000000E+00 0.  1.
         24    2    1    2    0    0 -0.88906732431E+02  0.60822206138E+02 -0.11382887703E+04  0.11463973277E+04  0.83197118271E+02 0.  0.
         25    2    1    2    0    0  0.21056862993E+03 -0.12574897271E+03  0.74437247780E+03  0.79365675373E+03  0.12509478406E+03 0.  0.
        -24    2    1    2    0    0 -0.12166189750E+03  0.64926766577E+02  0.10982690992E+04  0.11098315837E+04  0.80709526816E+02 0.  0.
        -13    1    3    3    0    0 -0.82925922195E+02  0.13153935031E+02 -0.84955857386E+03  0.85369754890E+03  0.00000000000E+00 0.  1.
         14    1    3    3    0    0 -0.59808102355E+01  0.47668271107E+02 -0.28873019646E+03  0.29269977880E+03  0.00000000000E+00 0. -1.
         11    1    5    5    0    0 -0.12430273806E+03  0.62630174012E+02  0.10974444476E+04  0.11062359716E+04  0.00000000000E+00 0. -1.
        -12    1    5    5    0    0  0.26408405687E+01  0.22965925647E+01  0.82465162252E+00  0.35956121337E+01  0.00000000000E+00 0.  1.
          5    1    4    4  501    0  0.14949943753E+03 -0.33878366384E+02  0.31533980531E+03  0.35064867139E+03  0.41800000000E+01 0. -1.
         -5    1    4    4    0  501  0.61069192401E+02 -0.91870606331E+02  0.42903267248E+03  0.44300808235E+03  0.41800000000E+01 0. -1.
</event>
<event>
11    1  0.8037748E-009  0.1323249E+03  0.7561462E-02  0.1116445E+00
         22   -1    0    0    0    0  0.00000000000E+00  0.00000000000E+00  0.80841238966E+03  0.80841238966E+03  0.00000000000E+00 0.  1.
         22   -1    0    0    0    0 -0.00000000000E+00 -0.00000000000E+00 -0.42020878306E+03  0.42020878306E+03  0.00000000000E+00 0.  1.
         24    2    1    2    0    0 -0.48500064742E+02 -0.20325056959E+02 -0.38994644134E+03  0.40129749035E+03  0.78842148828E+02 0.  0.
         25    2    1    2    0    0  0.46075904585E+02  0.58946078708E+02  0.24851591408E+03  0.28810590447E+03  0.12508886225E+03 0.  0.
        -24    2    1    2    0    0  0.24241601566E+01 -0.38621021748E+02  0.52963413386E+03  0.53921777791E+03  0.93520245858E+02 0.  0.
        -13    1    3    3    0    0 -0.64103401819E+02 -0.18102504667E+02 -0.36963259118E+03  0.37558647375E+03  0.00000000000E+00 0.  1.
         14    1    3    3    0    0  0.15603337077E+02 -0.22225522920E+01 -0.20313850153E+02  0.25711016601E+02  0.00000000000E+00 0. -1.
         11    1    5    5    0    0 -0.25287635983E+02  0.53481509758E+01  0.45717679237E+02  0.52518315350E+02  0.00000000000E+00 0. -1.
        -12    1    5    5    0    0  0.27711796139E+02 -0.43969172724E+02  0.48391645462E+03  0.48669946256E+03  0.00000000000E+00 0.  1.
          5    1    4    4  501    0 -0.23576008265E+02 -0.22004655268E+02  0.27427961147E+02  0.42541726244E+02  0.41800000000E+01 0. -1.
         -5    1    4    4    0  501  0.69651912850E+02  0.80950733976E+02  0.22108795293E+03  0.24556417822E+03  0.41800000000E+01 0. -1.
</event>
<event>
11    1  0.8037748E-009  0.1370698E+03  0.7561462E-02  0.1110875E+00
         22   -1    0    0    0    0  0.00000000000E+00  0.00000000000E+00  0.11226980719E+04  0.11226980719E+04  0.00000000000E+00 0.  1.
         22   -1    0    0    0    0 -0.00000000000E+00 -0.00000000000E+00 -0.43104629171E+03  0.43104629171E+03  0.00000000000E+00 0.  1.
         24    2    1    2    0    0  0.24423336347E+02 -0.13808146271E+02 -0.35586580512E+03  0.36597473350E+03  0.80683765666E+02 0.  0.
         25    2    1    2    0    0 -0.38453887988E+02 -0.40675843194E+02  0.12575690848E+01  0.13705042621E+03  0.12509201462E+03 0.  0.
        -24    2    1    2    0    0  0.14030551641E+02  0.54483989465E+02  0.10462600163E+04  0.10507192040E+04  0.78647710882E+02 0.  0.
        -13    1    3    3    0    0  0.26178120089E+02  0.14177533095E+01 -0.34755007364E+03  0.34853745521E+03  0.00000000000E+00 0.  1.
         14    1    3    3    0    0 -0.17547837418E+01 -0.15225899580E+02 -0.83157314782E+01  0.17437278286E+02  0.00000000000E+00 0. -1.
         13    1    5    5    0    0  0.31657451538E+02 -0.57542819753E+01  0.26603136472E+03  0.26797013456E+03  0.00000000000E+00 0. -1.
        -14    1    5    5    0    0 -0.17626899897E+02  0.60238271440E+02  0.78022865155E+03  0.78274906940E+03  0.00000000000E+00 0.  1.
          5    1    4    4  501    0 -0.22892160165E+02 -0.83977275386E+02  0.15905847282E+02  0.88581612968E+02  0.41800000000E+01 0.  1.
         -5    1    4    4    0  501 -0.15561727823E+02  0.43301432192E+02 -0.14648278197E+02  0.48468813240E+02  0.41800000000E+01 0.  1.
</event>
<event>
11    1  0.8037748E-009  0.1472434E+03  0.7561462E-02  0.1099729E+00
         22   -1    0    0    0    0  0.00000000000E+00  0.00000000000E+00  0.12909828173E+03  0.12909828173E+03  0.00000000000E+00 0. -1.
         22   -1    0    0    0    0 -0.00000000000E+00 -0.00000000000E+00 -0.64931694442E+03  0.64931694442E+03  0.00000000000E+00 0. -1.
         24    2    1    2    0    0 -0.76402744842E+02 -0.34737925682E+02 -0.52121370173E+03  0.53395114873E+03  0.79975017705E+02 0.  0.
         25    2    1    2    0    0  0.20922661886E+02  0.29458319961E+02 -0.43153506931E+02  0.13716909948E+03  0.12509031256E+03 0.  0.
        -24    2    1    2    0    0  0.55480082956E+02  0.52796057211E+01  0.44148545972E+02  0.10729497794E+03  0.80356731760E+02 0.  0.
        -11    1    3    3    0    0  0.10583711289E+02 -0.10640095069E+02 -0.21926873595E+02  0.26570930608E+02  0.00000000000E+00 0.  1.
         12    1    3    3    0    0 -0.86986456131E+02 -0.24097830613E+02 -0.49928682814E+03  0.50738021812E+03  0.00000000000E+00 0. -1.
         11    1    5    5    0    0  0.18623554906E+02 -0.30268736314E+02 -0.55106658135E+01  0.35963879561E+02  0.00000000000E+00 0. -1.
        -12    1    5    5    0    0  0.36856528050E+02  0.35548342035E+02  0.49659211786E+02  0.71331098383E+02  0.00000000000E+00 0.  1.
          5    1    4    4  501    0  0.15088935869E+02 -0.47973467561E+02 -0.54807122136E+01  0.50760616444E+02  0.41800000000E+01 0.  1.
         -5    1    4    4    0  501  0.58337260175E+01  0.77431787521E+02 -0.37672794718E+02  0.86408483032E+02  0.41800000000E+01 0.  1.
</event>
<event>
11    1  0.8037748E-009  0.1593059E+03  0.7561462E-02  0.1087732E+00
         22   -1    0    0    0    0  0.00000000000E+00  0.00000000000E+00  0.22827533816E+03  0.22827533816E+03  0.00000000000E+00 0. -1.
         22   -1    0    0    0    0 -0.00000000000E+00 -0.00000000000E+00 -0.40962005542E+03  0.40962005542E+03  0.00000000000E+00 0.  1.
        -24    2    1    2    0    0  0.40109737286E+02 -0.85090310169E+02 -0.26716355728E+03  0.29443832702E+03  0.80426427074E+02 0.  0.
         25    2    1    2    0    0 -0.67612420385E+02  0.10102451050E+03 -0.51442195330E+02  0.18185719022E+03  0.12509335339E+03 0.  0.
         24    2    1    2    0    0  0.27502683099E+02 -0.15934200329E+02  0.13726103535E+03  0.16159987634E+03  0.79143110176E+02 0.  0.
        -13    1    5    5    0    0 -0.16075036039E+02 -0.74187046992E+01  0.39196259464E+00  0.17708687070E+02  0.00000000000E+00 0.  1.
         14    1    5    5    0    0  0.43577719138E+02 -0.85154956302E+01  0.13686907276E+03  0.14389118927E+03  0.00000000000E+00 0. -1.
         13    1    3    3    0    0  0.33794751705E+02 -0.28306060152E+02 -0.37814052007E+02  0.58079435374E+02  0.00000000000E+00 0. -1.
        -14    1    3    3    0    0  0.63149855814E+01 -0.56784250017E+02 -0.22934950527E+03  0.23635889165E+03  0.00000000000E+00 0.  1.
          5    1    4    4  501    0 -0.99425294170E+01 -0.27526212115E+02 -0.24396007845E+02  0.38329934039E+02  0.41800000000E+01 0.  1.
         -5    1    4    4    0  501 -0.57669890968E+02  0.12855072261E+03 -0.27046187485E+02  0.14352725618E+03  0.41800000000E+01 0.  1.
</event>
<event>
11    1  0.8037748E-009  0.1548104E+03  0.7561462E-02  0.1092062E+00
         22   -1    0    0    0    0  0.00000000000E+00  0.00000000000E+00  0.79444023223E+02  0.79444023223E+02  0.00000000000E+00 0.  1.
         22   -1    0    0    0    0 -0.00000000000E+00 -0.00000000000E+00 -0.14809596964E+04  0.14809596964E+04  0.00000000000E+00 0.  1.
        -24    2    1    2    0    0  0.70620397452E+02 -0.59730096705E+02 -0.12569286470E+04  0.12628413051E+04  0.79646803881E+02 0.  0.
         25    2    1    2    0    0 -0.15788363178E+02  0.92834881349E+02 -0.11180111367E+03  0.19240128715E+03  0.12510467087E+03 0.  0.
         24    2    1    2    0    0 -0.54832034274E+02 -0.33104784644E+02 -0.32785912585E+02  0.10516112739E+03  0.76690728914E+02 0.  0.
        -13    1    5    5    0    0 -0.32986187320E+02 -0.35397899872E+02 -0.55454746834E+02  0.73595711938E+02  0.00000000000E+00 0.  1.
         14    1    5    5    0    0 -0.21845846955E+02  0.22931152280E+01  0.22668834249E+02  0.31565415455E+02  0.00000000000E+00 0. -1.
         11    1    3    3    0    0  0.49315257852E+02 -0.40585768839E+02 -0.37155037375E+03  0.37699984022E+03  0.00000000000E+00 0. -1.
        -12    1    3    3    0    0  0.21305139600E+02 -0.19144327866E+02 -0.88537827320E+03  0.88584146489E+03  0.00000000000E+00 0.  1.
          5    1    4    4  501    0  0.24710420719E+02  0.59347204412E+02  0.46339546257E+01  0.64588245828E+02  0.41800000000E+01 0. -1.
         -5    1    4    4    0  501 -0.40498783896E+02  0.33487676936E+02 -0.11643506829E+03  0.12781304132E+03  0.41800000000E+01 0. -1.
</event>
<event>
11    1  0.8037748E-009  0.1898968E+03  0.7561462E-02  0.1061907E+00
         22   -1    0    0    0    0  0.00000000000E+00  0.00000000000E+00  0.58448038519E+03  0.58448038519E+03  0.00000000000E+00 0. -1.
         22   -1    0    0    0    0 -0.00000000000E+00 -0.00000000000E+00 -0.48294058331E+03  0.48294058331E+03  0.00000000000E+00 0.  1.
        -24    2    1    2    0    0 -0.37697238584E+02  0.10055207531E+02 -0.34712039754E+03  0.35779572774E+03  0.77479180499E+02 0.  0.
         25    2    1    2    0    0  0.10582691622E+03 -0.13245097929E+03 -0.22464000838E+02  0.21188406482E+03  0.12509047718E+03 0.  0.
         24    2    1    2    0    0 -0.68129677639E+02  0.12239577176E+03  0.47112420025E+03  0.49774117593E+03  0.78523170031E+02 0.  0.
        -11    1    5    5    0    0 -0.44284249917E+02  0.76494967141E+02  0.16410073131E+03  0.18639105345E+03  0.00000000000E+00 0.  1.
         12    1    5    5    0    0 -0.23845427722E+02  0.45900804616E+02  0.30702346894E+03  0.31135012248E+03  0.00000000000E+00 0. -1.
         11    1    3    3    0    0 -0.44667119221E+02  0.22935014907E+01 -0.90358209771E+02  0.10082171275E+03  0.00000000000E+00 0. -1.
        -12    1    3    3    0    0  0.69698806364E+01  0.77617060401E+01 -0.25676218777E+03  0.25697401500E+03  0.00000000000E+00 0.  1.
          5    1    4    4  501    0  0.57698189467E+02 -0.59562659934E+02 -0.73282137473E+02  0.11074536378E+03  0.41800000000E+01 0.  1.
         -5    1    4    4    0  501  0.48128726757E+02 -0.72888319354E+02  0.50818136635E+02  0.10113870104E+03  0.41800000000E+01 0.  1.
</event>
<event>
11    1  0.8037748E-009  0.1614011E+03  0.7561462E-02  0.1085767E+00
         22   -1    0    0    0    0  0.00000000000E+00  0.00000000000E+00  0.10796211755E+04  0.10796211755E+04  0.00000000000E+00 0. -1.
         22   -1    0    0    0    0 -0.00000000000E+00 -0.00000000000E+00 -0.12756254657E+04  0.12756254657E+04  0.00000000000E+00 0.  1.
        -24    2    1    2    0    0 -0.86566440981E+02  0.52113108837E+02 -0.11470229631E+04  0.11544769093E+04  0.83341055221E+02 0.  0.
         25    2    1    2    0    0  0.11620171856E+03 -0.34765345841E+02 -0.61226617073E+02  0.18468332912E+03  0.12509102584E+03 0.  0.
         24    2    1    2    0    0 -0.29635277582E+02 -0.17347762996E+02  0.10122452899E+04  0.10160864028E+04  0.81313322199E+02 0.  0.
        -13    1    5    5    0    0  0.19417607814E+02 -0.18742170204E+01  0.77169727343E+02  0.79597254983E+02  0.00000000000E+00 0.  1.
         14    1    5    5    0    0 -0.49052885396E+02 -0.15473545976E+02  0.93507556258E+03  0.93648914779E+03  0.00000000000E+00 0. -1.
         13    1    3    3    0    0 -0.58889584842E+02 -0.12738963762E+01 -0.32782934509E+03  0.33307909799E+03  0.00000000000E+00 0. -1.
        -14    1    3    3    0    0 -0.27676856139E+02  0.53387005214E+02 -0.81919361797E+03  0.82139781131E+03  0.00000000000E+00 0.  1.
          5    1    4    4  501    0  0.13008586042E+03 -0.24045186650E+02 -0.12757921871E+02  0.13296894018E+03  0.41800000000E+01 0. -1.
         -5    1    4    4    0  501 -0.13884141859E+02 -0.10720159191E+02 -0.48468695202E+02  0.51714388934E+02  0.41800000000E+01 0. -1.
</event>
<event>
11    1  0.8037748E-009  0.3749560E+03  0.7561462E-02  0.9726686E-01
         22   -1    0    0    0    0  0.00000000000E+00  0.00000000000E+00  0.19164869369E+04  0.19164869369E+04  0.00000000000E+00 0. -1.
         22   -1    0    0    0    0 -0.00000000000E+00 -0.00000000000E+00 -0.18751427659E+03  0.18751427659E+03  0.00000000000E+00 0. -1.
         24    2    1    2    0    0  0.26890660328E+03 -0.55732153171E+02  0.16970603561E+03  0.33227267276E+03  0.78664835603E+02 0.  0.
         25    2    1    2    0    0 -0.17689429104E+02  0.34919455298E+03  0.39407712910E+03  0.54147377282E+03  0.12508921308E+03 0.  0.
        -24    2    1    2    0    0 -0.25121717417E+03 -0.29346239981E+03  0.11651894956E+04  0.12302547679E+04  0.81424717592E+02 0.  0.
        -13    1    3    3    0    0  0.11115017032E+03 -0.62748392438E+02  0.80540536158E+02  0.15092547525E+03  0.00000000000E+00 0.  1.
         14    1    3    3    0    0  0.15775643296E+03  0.70162392670E+01  0.89165499448E+02  0.18134719751E+03  0.00000000000E+00 0. -1.
         11    1    5    5    0    0 -0.19015349513E+03 -0.25716257893E+03  0.10132555699E+04  0.10625336671E+04  0.00000000000E+00 0. -1.
        -12    1    5    5    0    0 -0.61063679042E+02 -0.36299820886E+02  0.15193392570E+03  0.16772110086E+03  0.00000000000E+00 0.  1.
          5    1    4    4  501    0 -0.54180191291E+02  0.11934037397E+03  0.92308881163E+02  0.16036215242E+03  0.41800000000E+01 0. -1.
         -5    1    4    4    0  501  0.36490762187E+02  0.22985417901E+03  0.30176824794E+03  0.38111162039E+03  0.41800000000E+01 0. -1.
</event>
<event>
11    1  0.8037748E-009  0.1598096E+03  0.7561462E-02  0.1087256E+00
         22   -1    0    0    0    0  0.00000000000E+00  0.00000000000E+00  0.20078334287E+04  0.20078334287E+04  0.00000000000E+00 0.  1.
         22   -1    0    0    0    0 -0.00000000000E+00 -0.00000000000E+00 -0.10154120859E+03  0.10154120859E+03  0.00000000000E+00 0. -1.
         24    2    1    2    0    0 -0.90680606640E+02 -0.35516178693E+02 -0.41776771606E+02  0.13503738447E+03  0.83698418085E+02 0.  0.
         25    2    1    2    0    0  0.10941408774E+03  0.91405480446E+02  0.80921963840E+03  0.83115052223E+03  0.12509341702E+03 0.  0.
        -24    2    1    2    0    0 -0.18733481099E+02 -0.55889301753E+02  0.11388493533E+04  0.11431867306E+04  0.80146703493E+02 0.  0.
        -11    1    3    3    0    0 -0.50451977750E+02  0.22359201532E+02 -0.32239187019E+02  0.63911666633E+02  0.00000000000E+00 0.  1.
         12    1    3    3    0    0 -0.40228628890E+02 -0.57875380226E+02 -0.95375845871E+01  0.71125717841E+02  0.00000000000E+00 0. -1.
         13    1    5    5    0    0  0.32037624016E+01  0.19949729411E+02  0.27219945712E+03  0.27294834723E+03  0.00000000000E+00 0. -1.
        -14    1    5    5    0    0 -0.21937243501E+02 -0.75839031164E+02  0.86664989621E+03  0.87023838337E+03  0.00000000000E+00 0.  1.
          5    1    4    4  501    0  0.13622622126E+03  0.83864204138E+02  0.72094877957E+03  0.73849536441E+03  0.41800000000E+01 0.  1.
         -5    1    4    4    0  501 -0.26812133516E+02  0.75412763076E+01  0.88270858831E+02  0.92655157821E+02  0.41800000000E+01 0.  1.
</event>
<event>
11    1  0.8037748E-009  0.1490107E+03  0.7561462E-02  0.1097894E+00
         22   -1    0    0    0    0  0.00000000000E+00  0.00000000000E+00  0.14761243262E+03  0.14761243262E+03  0.00000000000E+00 0.  1.
         22   -1    0    0    0    0 -0.00000000000E+00 -0.00000000000E+00 -0.20914505904E+04  0.20914505904E+04  0.00000000000E+00 0. -1.
        -24    2    1    2    0    0 -0.70196813105E+02  0.37639671134E+02 -0.18670614876E+04  0.18703985478E+04  0.78280213558E+02 0.  0.
         25    2    1    2    0    0  0.90723984146E+02 -0.56049459788E+02 -0.17431803628E+03  0.23960315470E+03  0.12510200129E+03 0.  0.
         24    2    1    2    0    0 -0.20527171041E+02  0.18409788654E+02  0.97541366106E+02  0.12906132049E+03  0.79888805694E+02 0.  0.
        -11    1    5    5    0    0 -0.31771764868E+02  0.28841621737E+02  0.10393444188E+03  0.11244399671E+03  0.00000000000E+00 0.  1.
         12    1    5    5    0    0  0.11244593827E+02 -0.10431833083E+02 -0.63930757720E+01  0.16617323780E+02  0.00000000000E+00 0. -1.
         13    1    3    3    0    0 -0.53608113444E+02  0.59079193265E+02 -0.15939343104E+04  0.15959294366E+04  0.00000000000E+00 0. -1.
        -14    1    3    3    0    0 -0.16588699661E+02 -0.21439522132E+02 -0.27312717722E+03  0.27446911120E+03  0.00000000000E+00 0.  1.
          5    1    4    4  501    0 -0.71374716858E+01 -0.65423230803E+02 -0.72679265478E+02  0.98137101349E+02  0.41800000000E+01 0.  1.
         -5    1    4    4    0  501  0.97861455832E+02  0.93737710155E+01 -0.10163877080E+03  0.14146605335E+03  0.41800000000E+01 0.  1.
</event>
<event>
11    1  0.8037748E-009  0.1431458E+03  0.7561462E-02  0.1104096E+00
         22   -1    0    0    0    0  0.00000000000E+00  0.00000000000E+00  0.14616916080E+04  0.14616916080E+04  0.00000000000E+00 0. -1.
         22   -1    0    0    0    0 -0.00000000000E+00 -0.00000000000E+00 -0.14161848724E+03  0.14161848724E+03  0.00000000000E+00 0. -1.
         24    2    1    2    0    0 -0.17027361463E+02  0.46554725019E+02 -0.10455492367E+03  0.14100649466E+03  0.80584278934E+02 0.  0.
         25    2    1    2    0    0  0.72388414835E+02 -0.29912720159E+00  0.32387520273E+03  0.35465813450E+03  0.12508826224E+03 0.  0.
        -24    2    1    2    0    0 -0.55361053372E+02 -0.46255597818E+02  0.11007528417E+04  0.11076454661E+04  0.10008612996E+03 0.  0.
        -11    1    3    3    0    0 -0.22632398755E+02 -0.14115696657E+02 -0.59573810551E+02  0.65272637981E+02  0.00000000000E+00 0.  1.
         12    1    3    3    0    0  0.56050372917E+01  0.60670421676E+02 -0.44981113124E+02  0.75733856678E+02  0.00000000000E+00 0. -1.
         13    1    5    5    0    0 -0.60110043688E+02 -0.59795359225E+02  0.53218708709E+03  0.53889868992E+03  0.00000000000E+00 0. -1.
        -14    1    5    5    0    0  0.47489903161E+01  0.13539761407E+02  0.56856575462E+03  0.56874677614E+03  0.00000000000E+00 0.  1.
          5    1    4    4  501    0  0.59753791102E+02 -0.17490488029E+02  0.50109126493E+02  0.80030179810E+02  0.41800000000E+01 0.  1.
         -5    1    4    4    0  501  0.12634623733E+02  0.17191360828E+02  0.27376607623E+03  0.27462795469E+03  0.41800000000E+01 0.  1.
</event>
<event>
11    1  0.8037748E-009  0.1611554E+03  0.7561462E-02  0.1085996E+00
         22   -1    0    0    0    0  0.00000000000E+00  0.00000000000E+00  0.22014884534E+03  0.22014884534E+03  0.00000000000E+00 0. -1.
         22   -1    0    0    0    0 -0.00000000000E+00 -0.00000000000E+00 -0.19245917973E+04  0.19245917973E+04  0.00000000000E+00 0.  1.
        -24    2    1    2    0    0 -0.36030820059E+02 -0.38687596642E+02 -0.17288781442E+04  0.17315062475E+04  0.79368114753E+02 0.  0.
         25    2    1    2    0    0  0.13058166563E+03  0.10997958589E+02 -0.12236773260E+03  0.21861879917E+03  0.12509113029E+03 0.  0.
         24    2    1    2    0    0 -0.94550845572E+02  0.27689638053E+02  0.14680292480E+03  0.19461559596E+03  0.81348343609E+02 0.  0.
        -11    1    5    5    0    0 -0.20377652461E+02  0.15763705785E+02 -0.40609730796E+01  0.26081308292E+02  0.00000000000E+00 0.  1.
         12    1    5    5    0    0 -0.74173193112E+02  0.11925932268E+02  0.15086389788E+03  0.16853428767E+03  0.00000000000E+00 0. -1.
         13    1    3    3    0    0 -0.19981108970E+02  0.92505442447E+01 -0.13167556711E+03  0.13350382863E+03  0.00000000000E+00 0. -1.
        -14    1    3    3    0    0 -0.16049711089E+02 -0.47938140886E+02 -0.15972025771E+04  0.15980024189E+04  0.00000000000E+00 0.  1.
          5    1    4    4  501    0  0.61450135291E+02 -0.45498632870E+02 -0.13489986740E+02  0.77754079395E+02  0.41800000000E+01 0.  1.
         -5    1    4    4    0  501  0.69131530340E+02  0.56496591459E+02 -0.10887774586E+03  0.14086471977E+03  0.41800000000E+01 0.  1.
</event>
<event>
11    1  0.8037748E-009  0.1610052E+03  0.7561462E-02  0.1086136E+00
         22   -1    0    0    0    0  0.00000000000E+00  0.00000000000E+00  0.85069981846E+03  0.85069981846E+03  0.00000000000E+00 0.  1.
         22   -1    0    0    0    0 -0.00000000000E+00 -0.00000000000E+00 -0.10036436991E+04  0.10036436991E+04  0.00000000000E+00 0.  1.
         24    2    1    2    0    0 -0.56862730257E+02 -0.84335683535E+02 -0.92426859291E+03  0.93325063833E+03  0.79614348559E+02 0.  0.
         25    2    1    2    0    0  0.10854019178E+03  0.38157800967E+02  0.30474717956E+02  0.17266974734E+03  0.12509653155E+03 0.  0.
        -24    2    1    2    0    0 -0.51677461526E+02  0.46177882568E+02  0.74084999432E+03  0.74842313189E+03  0.80470574781E+02 0.  0.
        -11    1    3    3    0    0 -0.55948020909E+02 -0.23534557259E+02 -0.62009377080E+03  0.62305725340E+03  0.00000000000E+00 0.  1.
         12    1    3    3    0    0 -0.91470934759E+00 -0.60801126277E+02 -0.30417482211E+03  0.31019338493E+03  0.00000000000E+00 0. -1.
         13    1    5    5    0    0 -0.28165259424E+02 -0.14436154269E+02  0.11736259102E+03  0.12155518154E+03  0.00000000000E+00 0. -1.
        -14    1    5    5    0    0 -0.23512202102E+02  0.60614036837E+02  0.62348740330E+03  0.62686795035E+03  0.00000000000E+00 0.  1.
          5    1    4    4  501    0  0.71206627872E+02  0.96820811988E+01 -0.44120041254E+02  0.84428531845E+02  0.41800000000E+01 0. -1.
         -5    1    4    4    0  501  0.37333563910E+02  0.28475719768E+02  0.74594759210E+02  0.88241215495E+02  0.41800000000E+01 0. -1.
</event>
<event>
11    1  0.8037748E-009  0.1342992E+03  0.7561462E-02  0.1114097E+00
         22   -1    0    0    0    0  0.00000000000E+00  0.00000000000E+00  0.13311916041E+03  0.13311916041E+03  0.00000000000E+00 0. -1.
         22   -1    0    0    0    0 -0.00000000000E+00 -0.00000000000E+00 -0.50977048783E+03  0.50977048783E+03  0.00000000000E+00 0.  1.
         24    2    1    2    0    0 -0.28802668146E+02 -0.45586521542E+02 -0.34027768903E+03  0.35381858189E+03  0.80566485587E+02 0.  0.
         25    2    1    2    0    0 -0.24485114325E+02  0.34669432483E+02 -0.10495766429E+03  0.16872489316E+03  0.12510191008E+03 0.  0.
        -24    2    1    2    0    0  0.53287782471E+02  0.10917089060E+02  0.68584025898E+02  0.12034617319E+03  0.82587300477E+02 0.  0.
        -13    1    3    3    0    0 -0.21562375312E+02 -0.58885260683E+02 -0.32903972689E+03  0.33496201549E+03  0.00000000000E+00 0.  1.
         14    1    3    3    0    0 -0.72402928339E+01  0.13298739141E+02 -0.11237962144E+02  0.18856566395E+02  0.00000000000E+00 0. -1.
         13    1    5    5    0    0  0.63624540884E+02 -0.19641358185E+02  0.44500246428E+02  0.80088308050E+02  0.00000000000E+00 0. -1.
        -14    1    5    5    0    0 -0.10336758414E+02  0.30558447244E+02  0.24083779469E+02  0.40257865145E+02  0.00000000000E+00 0.  1.
          5    1    4    4  501    0  0.22327544597E+02 -0.28126625486E+02 -0.77679260573E+02  0.85680605928E+02  0.41800000000E+01 0.  1.
         -5    1    4    4    0  501 -0.46812658922E+02  0.62796057969E+02 -0.27278403715E+02  0.83044287227E+02  0.41800000000E+01 0.  1.
</event>
<event>
11    1  0.8037748E-009  0.1275846E+03  0.7561462E-02  0.1122273E+00
         22   -1    0    0    0    0  0.00000000000E+00  0.00000000000E+00  0.20661537563E+03  0.20661537563E+03  0.00000000000E+00 0.  1.
         22   -1    0    0    0    0 -0.00000000000E+00 -0.00000000000E+00 -0.83456921290E+03  0.83456921290E+03  0.00000000000E+00 0. -1.
        -24    2    1    2    0    0 -0.21536301297E+01  0.12942994773E+02 -0.68634386000E+03  0.69112109688E+03  0.80051965381E+02 0.  0.
         25    2    1    2    0    0  0.17077326163E+02  0.80565337263E+01 -0.10587754510E+03  0.16496693706E+03  0.12508993948E+03 0.  0.
         24    2    1    2    0    0 -0.14923696033E+02 -0.20999528500E+02  0.16426756784E+03  0.18509655459E+03  0.81321607071E+02 0.  0.
        -11    1    5    5    0    0 -0.12223098643E+01 -0.30009732586E+02  0.16591859716E+03  0.16861512084E+03  0.00000000000E+00 0.  1.
         12    1    5    5    0    0 -0.13701386169E+02  0.90102040861E+01 -0.16510293238E+01  0.16481433750E+02  0.00000000000E+00 0. -1.
         13    1    3    3    0    0 -0.25372488385E+02 -0.23311894131E+02 -0.40981021987E+03  0.41125615362E+03  0.00000000000E+00 0. -1.
        -14    1    3    3    0    0  0.23218858256E+02  0.36254888904E+02 -0.27653364013E+03  0.27986494327E+03  0.00000000000E+00 0.  1.
          5    1    4    4  501    0  0.41380105648E+02  0.48888788270E+02 -0.20876406339E+02  0.67496099914E+02  0.41800000000E+01 0.  1.
         -5    1    4    4    0  501 -0.24302779485E+02 -0.40832254544E+02 -0.85001138764E+02  0.97470837141E+02  0.41800000000E+01 0.  1.
</event>
<event>
11    1  0.8037748E-009  0.1528199E+03  0.7561462E-02  0.1094032E+00
         22   -1    0    0    0    0  0.00000000000E+00  0.00000000000E+00  0.85351428993E+02  0.85351428993E+02  0.00000000000E+00 0. -1.
         22   -1    0    0    0    0 -0.00000000000E+00 -0.00000000000E+00 -0.77465568694E+03  0.77465568694E+03  0.00000000000E+00 0.  1.
         24    2    1    2    0    0 -0.88103364518E+02 -0.11630777269E+02 -0.53007195641E+03  0.54341264498E+03  0.80147026932E+02 0.  0.
         25    2    1    2    0    0  0.85411144084E+02 -0.21032962594E+02 -0.16942083582E+03  0.22822967674E+03  0.12509163315E+03 0.  0.
        -24    2    1    2    0    0  0.26922204342E+01  0.32663739863E+02  0.10188534293E+02  0.88364794215E+02  0.81427038955E+02 0.  0.
        -11    1    3    3    0    0 -0.76144294620E+02 -0.40112856360E+02 -0.33338255303E+03  0.34431224421E+03  0.00000000000E+00 0.  1.
         12    1    3    3    0    0 -0.11959069898E+02  0.28482079091E+02 -0.19668940338E+03  0.19910040076E+03  0.00000000000E+00 0. -1.
         11    1    5    5    0    0 -0.10195835427E+02  0.36684858757E+02  0.40253109995E+02  0.55408002909E+02  0.00000000000E+00 0. -1.
        -12    1    5    5    0    0  0.12888055861E+02 -0.40211188946E+01 -0.30064575702E+02  0.32956791306E+02  0.00000000000E+00 0.  1.
          5    1    4    4  501    0  0.71401907942E+02 -0.69911031175E+02 -0.94580025317E+02  0.13765405307E+03  0.41800000000E+01 0. -1.
         -5    1    4    4    0  501  0.14009236141E+02  0.48878068581E+02 -0.74840810506E+02  0.90575623667E+02  0.41800000000E+01 0. -1.
</event>
<event>
11    1  0.8037748E-009  0.1639737E+03  0.7561462E-02  0.1083398E+00
         22   -1    0    0    0    0  0.00000000000E+00  0.00000000000E+00  0.11172678744E+04  0.11172678744E+04  0.00000000000E+00 0.  1.
         22   -1    0    0    0    0 -0.00000000000E+00 -0.00000000000E+00 -0.18906501793E+03  0.18906501793E+03  0.00000000000E+00 0.  1.
         24    2    1    2    0    0 -0.13329377207E+02  0.63991546609E+01 -0.14981589091E+03  0.17444268777E+03  0.88129612893E+02 0.  0.
         25    2    1    2    0    0 -0.69049340978E+02 -0.75053734364E+02  0.28264933330E+03  0.32548412938E+03  0.12509355830E+03 0.  0.
        -24    2    1    2    0    0  0.82378718185E+02  0.68654579703E+02  0.79536941408E+03  0.80640607518E+03  0.78603744909E+02 0.  0.
        -11    1    3    3    0    0 -0.14026162044E+02  0.17771238789E+02 -0.15850522993E+03  0.16011389092E+03  0.00000000000E+00 0.  1.
         12    1    3    3    0    0  0.69678483712E+00 -0.11372084128E+02  0.86893390188E+01  0.14328796848E+02  0.00000000000E+00 0. -1.
         13    1    5    5    0    0  0.38377783842E+01 -0.89561905475E+01  0.23829338178E+03  0.23849251077E+03  0.00000000000E+00 0. -1.
        -14    1    5    5    0    0  0.78540939800E+02  0.77610770250E+02  0.55707603230E+03  0.56791356441E+03  0.00000000000E+00 0.  1.
          5    1    4    4  501    0 -0.43175589723E+02 -0.74567758069E+02  0.28630270220E+03  0.29901704262E+03  0.41800000000E+01 0.  1.
         -5    1    4    4    0  501 -0.25873751255E+02 -0.48597629479E+00 -0.36533688964E+01  0.26467086755E+02  0.41800000000E+01 0.  1.
</event>
<event>
11    1  0.8037748E-009  0.1526824E+03  0.7561462E-02  0.1094169E+00
         22   -1    0    0    0    0  0.00000000000E+00  0.00000000000E+00  0.39050997964E+03  0.39050997964E+03  0.00000000000E+00 0. -1.
         22   -1    0    0    0    0 -0.00000000000E+00 -0.00000000000E+00 -0.57350410737E+03  0.57350410737E+03  0.00000000000E+00 0.  1.
         24    2    1    2    0    0 -0.41872630637E+02  0.47517496924E+02 -0.35251401469E+03  0.36701634187E+03  0.80147582217E+02 0.  0.
         25    2    1    2    0    0  0.10082927675E+03 -0.10799212155E+03 -0.15721612126E+03  0.24938576051E+03  0.12508999717E+03 0.  0.
        -24    2    1    2    0    0 -0.58956646110E+02  0.60474624629E+02  0.32673600821E+03  0.34761198464E+03  0.83334305416E+02 0.  0.
        -13    1    3    3    0    0 -0.57405452227E+02  0.59382934672E+02 -0.28716891827E+03  0.29881048592E+03  0.00000000000E+00 0.  1.
         14    1    3    3    0    0  0.15532821590E+02 -0.11865437747E+02 -0.65345096417E+02  0.68205855946E+02  0.00000000000E+00 0. -1.
         11    1    5    5    0    0 -0.59649175704E+02  0.73181140409E+02  0.21076086036E+03  0.23094077971E+03  0.00000000000E+00 0. -1.
        -12    1    5    5    0    0  0.69252959378E+00 -0.12706515780E+02  0.11597514786E+03  0.11667120493E+03  0.00000000000E+00 0.  1.
          5    1    4    4  501    0 -0.21377253787E+02  0.80048219926E+01 -0.88310127022E+01  0.24829888037E+02  0.41800000000E+01 0.  1.
         -5    1    4    4    0  501  0.12220653053E+03 -0.11599694355E+03 -0.14838510856E+03  0.22455587247E+03  0.41800000000E+01 0.  1.
</event>
<event>
11    1  0.8037748E-009  0.1792120E+03  0.7561462E-02  0.1070282E+00
         22   -1    0    0    0    0  0.00000000000E+00  0.00000000000E+00  0.11872353966E+04  0.11872353966E+04  0.00000000000E+00 0. -1.
         22   -1    0    0    0    0 -0.00000000000E+00 -0.00000000000E+00 -0.16839884887E+03  0.16839884887E+03  0.00000000000E+00 0.  1.
         24    2    1    2    0    0  0.12322053538E+03 -0.25772346989E+01 -0.64757237719E+02  0.16093205734E+03  0.80719791655E+02 0.  0.
         25    2    1    2    0    0 -0.14387566590E+03  0.88130322449E+02  0.16178948414E+03  0.26512480114E+03  0.12509261380E+03 0.  0.
        -24    2    1    2    0    0  0.20655130524E+02 -0.85553087750E+02  0.92180430136E+03  0.92957738703E+03  0.81516766603E+02 0.  0.
        -13    1    3    3    0    0  0.80586687695E+02 -0.34413084885E+02 -0.62579986594E+02  0.10767882506E+03  0.00000000000E+00 0.  1.
         14    1    3    3    0    0  0.42633847683E+02  0.31835850186E+02 -0.21772511252E+01  0.53253232276E+02  0.00000000000E+00 0. -1.
         11    1    5    5    0    0  0.10249791856E+02 -0.10086499170E+03  0.79018782052E+03  0.79666529765E+03  0.00000000000E+00 0. -1.
        -12    1    5    5    0    0  0.10405338668E+02  0.15311903947E+02  0.13161648083E+03  0.13291208937E+03  0.00000000000E+00 0.  1.
          5    1    4    4  501    0 -0.16073539958E+03  0.78187844301E+02  0.16677298628E+03  0.24449930272E+03  0.41800000000E+01 0. -1.
         -5    1    4    4    0  501  0.16859733682E+02  0.99424781477E+01 -0.49835021438E+01  0.20625498422E+02  0.41800000000E+01 0. -1.
</event>
<event>
11    1  0.9324124E-009  0.1721251E+03  0.7561462E-02  0.1076197E+00
         22   -1    0    0    0    0  0.00000000000E+00  0.00000000000E+00  0.22873718009E+04  0.22873718009E+04  0.00000000000E+00 0. -1.
         22   -1    0    0    0    0 -0.00000000000E+00 -0.00000000000E+00 -0.20982998713E+03  0.20982998713E+03  0.00000000000E+00 0.  1.
         24    2    1    2    0    0  0.74357452721E+01 -0.75555868939E+02 -0.15073011436E+03  0.18624138570E+03  0.78754725153E+02 0.  0.
         25    2    1    2    0    0  0.10715483081E+03  0.10184005820E+03  0.20252984530E+03  0.28021180761E+03  0.12508702438E+03 0.  0.
        -24    2    1    2    0    0 -0.11459057608E+03 -0.26284189261E+02  0.20257420828E+04  0.20307485947E+04  0.80541977021E+02 0.  0.
        -13    1    3    3    0    0  0.31843238979E+01 -0.27266950969E+02 -0.13109751097E+03  0.13394097176E+03  0.00000000000E+00 0.  1.
         14    1    3    3    0    0  0.42514213743E+01 -0.48288917969E+02 -0.19632603390E+02  0.52300413939E+02  0.00000000000E+00 0. -1.
         11    1    5    5    0    0 -0.10858250933E+03 -0.44843193668E+02  0.14788880084E+04  0.14835467012E+04  0.00000000000E+00 0. -1.
        -12    1    5    5    0    0 -0.60080667470E+01  0.18559004407E+02  0.54685407443E+03  0.54720189348E+03  0.00000000000E+00 0.  1.
          5    1    4    4  501    0 -0.10543679134E+01  0.80872182730E+02  0.64559072897E+02  0.10357011115E+03  0.41800000000E+01 0. -1.
         -5    1    4    4    0  501  0.10820919872E+03  0.20967875470E+02  0.13797077240E+03  0.17664169645E+03  0.41800000000E+01 0. -1.
</event>
<event>
11    1  0.8037748E-009  0.1576237E+03  0.7561462E-02  0.1089334E+00
         22   -1    0    0    0    0  0.00000000000E+00  0.00000000000E+00  0.98534566196E+02  0.98534566196E+02  0.00000000000E+00 0.  1.
         22   -1    0    0    0    0 -0.00000000000E+00 -0.00000000000E+00 -0.24105380093E+04  0.24105380093E+04  0.00000000000E+00 0.  1.
         24    2    1    2    0    0 -0.20542272393E+02 -0.98981227144E+02 -0.21664182022E+04  0.21703275117E+04  0.82063467921E+02 0.  0.
         25    2    1    2    0    0  0.39328808298E+01  0.40985688238E+02 -0.18863290730E+03  0.23005539918E+03  0.12509124183E+03 0.  0.
        -24    2    1    2    0    0  0.16609391563E+02  0.57995538906E+02  0.43047666368E+02  0.10868966468E+03  0.79504636394E+02 0.  0.
        -13    1    3    3    0    0 -0.17529457729E+02 -0.10677003837E+03 -0.21372567862E+04  0.21399938535E+04  0.00000000000E+00 0.  1.
         14    1    3    3    0    0 -0.30128146642E+01  0.77888112282E+01 -0.29161415991E+02  0.30333658123E+02  0.00000000000E+00 0. -1.
         13    1    5    5    0    0  0.17686259827E+02  0.54623522987E+02 -0.76019409946E+01  0.57916513682E+02  0.00000000000E+00 0. -1.
        -14    1    5    5    0    0 -0.10768682638E+01  0.33720159188E+01  0.50649607363E+02  0.50773151001E+02  0.00000000000E+00 0.  1.
          5    1    4    4  501    0 -0.83509322645E+01  0.27725447645E+02  0.97263726394E+01  0.30830394768E+02  0.41800000000E+01 0. -1.
         -5    1    4    4    0  501  0.12283813094E+02  0.13260240593E+02 -0.19835927994E+03  0.19922500441E+03  0.41800000000E+01 0. -1.
</event>
<event>
11    1  0.8037748E-009  0.1492859E+03  0.7561462E-02  0.1097611E+00
         22   -1    0    0    0    0  0.00000000000E+00  0.00000000000E+00  0.47680093460E+03  0.47680093460E+03  0.00000000000E+00 0.  1.
         22   -1    0    0    0    0 -0.00000000000E+00 -0.00000000000E+00 -0.13786454496E+04  0.13786454496E+04  0.00000000000E+00 0. -1.
         24    2    1    2    0    0 -0.80763633932E+02 -0.16146925231E+02 -0.13319730240E+04  0.13368243356E+04  0.78509106868E+02 0.  0.
         25    2    1    2    0    0  0.37662726971E+02  0.17011055368E+02  0.74641519352E+02  0.15141618707E+03  0.12509056035E+03 0.  0.
        -24    2    1    2    0    0  0.43100906961E+02 -0.86413013657E+00  0.35548698966E+03  0.36720586150E+03  0.81306272824E+02 0.  0.
        -11    1    3    3    0    0  0.34651741279E+01 -0.27919902815E+02 -0.27508770514E+03  0.27652264631E+03  0.00000000000E+00 0.  1.
         12    1    3    3    0    0 -0.84228808060E+02  0.11772977584E+02 -0.10568853189E+04  0.10603016893E+04  0.00000000000E+00 0. -1.
         11    1    5    5    0    0  0.35669101093E+02 -0.53681663359E+01  0.50307760860E+02  0.61902930346E+02  0.00000000000E+00 0. -1.
        -12    1    5    5    0    0  0.74318058681E+01  0.45040361993E+01  0.30517922880E+03  0.30530293116E+03  0.00000000000E+00 0.  1.
          5    1    4    4  501    0  0.58559679071E+02  0.28207067703E+02 -0.77380739041E+01  0.65591347516E+02  0.41800000000E+01 0. -1.
         -5    1    4    4    0  501 -0.20896952099E+02 -0.11196012335E+02  0.82379593256E+02  0.85824839553E+02  0.41800000000E+01 0. -1.
</event>
<event>
11    1  0.8037748E-009  0.1469635E+03  0.7561462E-02  0.1100022E+00
         22   -1    0    0    0    0  0.00000000000E+00  0.00000000000E+00  0.31395836681E+03  0.31395836681E+03  0.00000000000E+00 0.  1.
         22   -1    0    0    0    0 -0.00000000000E+00 -0.00000000000E+00 -0.65212545151E+03  0.65212545151E+03  0.00000000000E+00 0. -1.
        -24    2    1    2    0    0  0.11457051010E+02 -0.57943886012E+02 -0.48648114530E+03  0.49693219164E+03  0.82395026648E+02 0.  0.
         25    2    1    2    0    0  0.60064130458E+02  0.22908223398E+02 -0.11572587786E+03  0.18212854901E+03  0.12508334458E+03 0.  0.
         24    2    1    2    0    0 -0.71521181467E+02  0.35035662614E+02  0.26403993845E+03  0.28702307768E+03  0.79513401182E+02 0.  0.
        -11    1    5    5    0    0 -0.61792832809E+02  0.58782822620E+02  0.22136724941E+03  0.23722823089E+03  0.00000000000E+00 0.  1.
         12    1    5    5    0    0 -0.97283486583E+01 -0.23747160006E+02  0.42672689044E+02  0.49794846784E+02  0.00000000000E+00 0. -1.
         11    1    3    3    0    0  0.37724976969E+02 -0.22108477146E+02 -0.36445316660E+03  0.36706684581E+03  0.00000000000E+00 0. -1.
        -12    1    3    3    0    0 -0.26267925959E+02 -0.35835408866E+02 -0.12202797870E+03  0.12986534583E+03  0.00000000000E+00 0.  1.
          5    1    4    4  501    0  0.47759767262E+02 -0.17409932033E+02 -0.12819626769E+03  0.13797049160E+03  0.41800000000E+01 0. -1.
         -5    1    4    4    0  501  0.12304363196E+02  0.40318155432E+02  0.12470389838E+02  0.44158057405E+02  0.41800000000E+01 0. -1.
</event>
<event>
11    1  0.8037748E-009  0.1458611E+03  0.7561462E-02  0.1101185E+00
         22   -1    0    0    0    0  0.00000000000E+00  0.00000000000E+00  0.57706866920E+03  0.57706866920E+03  0.00000000000E+00 0. -1.
         22   -1    0    0    0    0 -0.00000000000E+00 -0.00000000000E+00 -0.77494092101E+03  0.77494092101E+03  0.00000000000E+00 0. -1.
         24    2    1    2    0    0  0.34895978711E+02 -0.64996421190E+02 -0.70861198411E+03  0.71706655400E+03  0.81309499710E+02 0.  0.
         25    2    1    2    0    0 -0.23909271592E+02  0.11535399486E+03  0.71764027794E+02  0.18621331375E+03  0.12508846922E+03 0.  0.
        -24    2    1    2    0    0 -0.10986707119E+02 -0.50357573673E+02  0.43897570451E+03  0.44872972246E+03  0.77473232188E+02 0.  0.
        -11    1    3    3    0    0  0.39104482287E+02 -0.12179168074E+02 -0.50553007773E+03  0.50718650629E+03  0.00000000000E+00 0.  1.
         12    1    3    3    0    0 -0.42085035757E+01 -0.52817253115E+02 -0.20308190639E+03  0.20988004772E+03  0.00000000000E+00 0. -1.
         13    1    5    5    0    0  0.56224759590E+01 -0.79592418686E+01  0.33593087576E+03  0.33607218726E+03  0.00000000000E+00 0. -1.
        -14    1    5    5    0    0 -0.16609183078E+02 -0.42398331805E+02  0.10304482876E+03  0.11265753519E+03  0.00000000000E+00 0.  1.
          5    1    4    4  501    0 -0.43459321323E+02  0.12499232021E+03  0.87771109845E+02  0.15884908827E+03  0.41800000000E+01 0. -1.
         -5    1    4    4    0  501  0.19550049731E+02 -0.96383253484E+01 -0.16007082050E+02  0.27364225474E+02  0.41800000000E+01 0. -1.
</event>
<event>
11    1  0.8037748E-009  0.1352222E+03  0.7561462E-02  0.1113014E+00
         22   -1    0    0    0    0  0.00000000000E+00  0.00000000000E+00  0.25424797134E+03  0.25424797134E+03  0.00000000000E+00 0.  1.
         22   -1    0    0    0    0 -0.00000000000E+00 -0.00000000000E+00 -0.13483906462E+03  0.13483906462E+03  0.00000000000E+00 0. -1.
         24    2    1    2    0    0  0.84145175681E+02 -0.30754184772E+02  0.23304600923E+02  0.12268773090E+03  0.80516733770E+02 0.  0.
         25    2    1    2    0    0  0.62350863498E+01  0.22496268833E+02  0.44108880710E+02  0.13467833436E+03  0.12509077494E+03 0.  0.
        -24    2    1    2    0    0 -0.90380262030E+02  0.82579159389E+01  0.51995425085E+02  0.13172097071E+03  0.80063131057E+02 0.  0.
        -11    1    3    3    0    0  0.60864613931E+02  0.16753180702E+02  0.29012294350E+02  0.69475776469E+02  0.00000000000E+00 0.  1.
         12    1    3    3    0    0  0.23280561750E+02 -0.47507365474E+02 -0.57076934273E+01  0.53211954427E+02  0.00000000000E+00 0. -1.
         11    1    5    5    0    0 -0.23672223917E+01  0.87352339070E+01 -0.17417643800E+02  0.19628610975E+02  0.00000000000E+00 0. -1.
        -12    1    5    5    0    0 -0.88013039639E+02 -0.47731796817E+00  0.69413068885E+02  0.11209235973E+03  0.00000000000E+00 0.  1.
          5    1    4    4  501    0 -0.45510839108E+02 -0.10609027023E+02  0.54847794837E+02  0.72177149633E+02  0.41800000000E+01 0.  1.
         -5    1    4    4    0  501  0.51745925458E+02  0.33105295856E+02 -0.10738914127E+02  0.62501184723E+02  0.41800000000E+01 0.  1.
</event>
<event>
11    1  0.8037748E-009  0.1560062E+03  0.7561462E-02  0.1090895E+00
         22   -1    0    0    0    0  0.00000000000E+00  0.00000000000E+00  0.15062602537E+04  0.15062602537E+04  0.00000000000E+00 0.  1.
         22   -1    0    0    0    0 -0.00000000000E+00 -0.00000000000E+00 -0.18298304211E+04  0.18298304211E+04  0.00000000000E+00 0.  1.
         24    2    1    2    0    0  0.54701559513E+02  0.42412435600E+02 -0.17559699607E+04  0.17594320568E+04  0.85904507449E+02 0.  0.
         25    2    1    2    0    0 -0.28107189827E+02 -0.13077174721E+03  0.51260776157E+02  0.19017283727E+03  0.12508707716E+03 0.  0.
        -24    2    1    2    0    0 -0.26594369686E+02  0.88359311610E+02  0.13811390171E+04  0.13864857807E+04  0.79266683417E+02 0.  0.
        -11    1    3    3    0    0  0.76190380548E+02  0.40768294635E+02 -0.15294611896E+04  0.15319003096E+04  0.00000000000E+00 0.  1.
         12    1    3    3    0    0 -0.21488821034E+02  0.16441409647E+01 -0.22650877105E+03  0.22753174721E+03  0.00000000000E+00 0. -1.
         13    1    5    5    0    0  0.15695854972E+02  0.74234900554E+02  0.95969586937E+03  0.96269067826E+03  0.00000000000E+00 0. -1.
        -14    1    5    5    0    0 -0.42290224659E+02  0.14124411056E+02  0.42144314776E+03  0.42379510247E+03  0.00000000000E+00 0.  1.
          5    1    4    4  501    0 -0.49313000230E+00 -0.37493110361E+02  0.80168188833E+02  0.88602411945E+02  0.41800000000E+01 0. -1.
         -5    1    4    4    0  501 -0.27614059825E+02 -0.93278636849E+02 -0.28907412676E+02  0.10157042532E+03  0.41800000000E+01 0. -1.
</event>
<event>
11    1  0.1252950E-008  0.1784385E+03  0.7561462E-02  0.1070913E+00
         22   -1    0    0    0    0  0.00000000000E+00  0.00000000000E+00  0.51847854547E+03  0.51847854547E+03  0.00000000000E+00 0. -1.
         22   -1    0    0    0    0 -0.00000000000E+00 -0.00000000000E+00 -0.14068200480E+04  0.14068200480E+04  0.00000000000E+00 0.  1.
        -24    2    1    2    0    0  0.19048061274E+02 -0.35790058330E+02 -0.11531431711E+04  0.11566330212E+04  0.80106278091E+02 0.  0.
         25    2    1    2    0    0  0.77611290172E+02 -0.49674577003E+02 -0.21504389251E+03  0.26529601282E+03  0.12508805997E+03 0.  0.
         24    2    1    2    0    0 -0.96659351447E+02  0.85464635334E+02  0.47984556107E+03  0.50336955946E+03  0.80510352104E+02 0.  0.
        -11    1    5    5    0    0  0.61635195906E+01  0.18866914034E+02  0.22982901537E+02  0.30367139838E+02  0.00000000000E+00 0.  1.
         12    1    5    5    0    0 -0.10282287104E+03  0.66597721300E+02  0.45686265953E+03  0.47300241962E+03  0.00000000000E+00 0. -1.
         11    1    3    3    0    0 -0.34632260251E+01 -0.14956793153E+02 -0.36871623907E+02  0.39940158305E+02  0.00000000000E+00 0. -1.
        -12    1    3    3    0    0  0.22511287299E+02 -0.20833265178E+02 -0.11162715472E+04  0.11166928629E+04  0.00000000000E+00 0.  1.
          5    1    4    4  501    0  0.60997167485E+02  0.20558693510E+02 -0.39971237545E+02  0.75884692468E+02  0.41800000000E+01 0.  1.
         -5    1    4    4    0  501  0.16614122687E+02 -0.70233270514E+02 -0.17507265497E+03  0.18941132035E+03  0.41800000000E+01 0.  1.
</event>
<event>
11    1  0.8037748E-009  0.1688287E+03  0.7561462E-02  0.1079056E+00
         22   -1    0    0    0    0  0.00000000000E+00  0.00000000000E+00  0.65441909790E+03  0.65441909790E+03  0.00000000000E+00 0.  1.
         22   -1    0    0    0    0 -0.00000000000E+00 -0.00000000000E+00 -0.45169287474E+03  0.45169287474E+03  0.00000000000E+00 0.  1.
        -24    2    1    2    0    0  0.24179522376E+02 -0.10220060297E+02 -0.39754082360E+03  0.40629901395E+03  0.79693684677E+02 0.  0.
         25    2    1    2    0    0 -0.62574566073E+02  0.11281791218E+03  0.16553075697E+03  0.24431968373E+03  0.12509284044E+03 0.  0.
         24    2    1    2    0    0  0.38395043697E+02 -0.10259785189E+03  0.43473628979E+03  0.45549327495E+03  0.80485919712E+02 0.  0.
        -13    1    5    5    0    0  0.25164923658E+02 -0.10403382451E+03  0.42676089606E+03  0.43997860451E+03  0.00000000000E+00 0.  1.
         14    1    5    5    0    0  0.13230120038E+02  0.14359726260E+01  0.79753937355E+01  0.15514670440E+02  0.00000000000E+00 0. -1.
         13    1    3    3    0    0 -0.68831266245E+01  0.12023238013E+02 -0.10516334664E+02  0.17393360205E+02  0.00000000000E+00 0. -1.
        -14    1    3    3    0    0  0.31062649000E+02 -0.22243298310E+02 -0.38702448894E+03  0.38890565375E+03  0.00000000000E+00 0.  1.
          5    1    4    4  501    0 -0.80443485079E+02  0.38682254469E+02  0.41185673109E+02  0.98393105307E+02  0.41800000000E+01 0.  1.
         -5    1    4    4    0  501  0.17868919006E+02  0.74135657715E+02  0.12434508386E+03  0.14592657843E+03  0.41800000000E+01 0.  1.
</event>
<event>
11    1  0.8037748E-009  0.1361416E+03  0.7561462E-02  0.1111945E+00
         22   -1    0    0    0    0  0.00000000000E+00  0.00000000000E+00  0.40468704227E+03  0.40468704227E+03  0.00000000000E+00 0. -1.
         22   -1    0    0    0    0 -0.00000000000E+00 -0.00000000000E+00 -0.14282713856E+04  0.14282713856E+04  0.00000000000E+00 0. -1.
        -24    2    1    2    0    0  0.50455098891E+02 -0.23107662981E+02 -0.12330034876E+04  0.12367254531E+04  0.78182892962E+02 0.  0.
         25    2    1    2    0    0 -0.30571443515E+02  0.12293878580E+02 -0.16668919997E+03  0.21099068493E+03  0.12508408025E+03 0.  0.
         24    2    1    2    0    0 -0.19883655376E+02  0.10813784401E+02  0.37610834422E+03  0.38524228989E+03  0.80261059311E+02 0.  0.
        -11    1    5    5    0    0 -0.38096646408E+02  0.35120496130E+02  0.20420307167E+03  0.21067438904E+03  0.00000000000E+00 0.  1.
         12    1    5    5    0    0  0.18212991032E+02 -0.24306711729E+02  0.17190527255E+03  0.17456790085E+03  0.00000000000E+00 0. -1.
         11    1    3    3    0    0  0.50747294068E+02  0.67856712777E+01 -0.10540030432E+04  0.10552458237E+04  0.00000000000E+00 0. -1.
        -12    1    3    3    0    0 -0.29219517724E+00 -0.29893334259E+02 -0.17900044434E+03  0.18147962939E+03  0.00000000000E+00 0.  1.
          5    1    4    4  501    0 -0.37559045246E+02  0.56667426974E+02 -0.46121874962E+02  0.82259217780E+02  0.41800000000E+01 0.  1.
         -5    1    4    4    0  501  0.69876017316E+01 -0.44373548394E+02 -0.12056732501E+03  0.12873146715E+03  0.41800000000E+01 0.  1.
</event>
<event>
11    1  0.8037748E-009  0.2217230E+03  0.7561462E-02  0.1040143E+00
         22   -1    0    0    0    0  0.00000000000E+00  0.00000000000E+00  0.58745593246E+02  0.58745593246E+02  0.00000000000E+00 0.  1.
         22   -1    0    0    0    0 -0.00000000000E+00 -0.00000000000E+00 -0.25505485521E+04  0.25505485521E+04  0.00000000000E+00 0.  1.
         24    2    1    2    0    0  0.66440845499E+02 -0.17176242470E+03 -0.19835220834E+04  0.19936524181E+04  0.79833530060E+02 0.  0.
         25    2    1    2    0    0 -0.62006725736E+01  0.18594044394E+03 -0.44380490834E+03  0.49721404659E+03  0.12508682757E+03 0.  0.
        -24    2    1    2    0    0 -0.60240172926E+02 -0.14178019238E+02 -0.64475967163E+02  0.11842768066E+03  0.77705022631E+02 0.  0.
        -13    1    3    3    0    0  0.84808691169E+01 -0.10357827743E+03 -0.79462588432E+03  0.80139296274E+03  0.00000000000E+00 0.  1.
         14    1    3    3    0    0  0.57959976382E+02 -0.68184147271E+02 -0.11888961990E+04  0.11922594554E+04  0.00000000000E+00 0. -1.
         13    1    5    5    0    0  0.48106532752E+01 -0.13295102504E+02  0.11628471785E+02  0.18306378440E+02  0.00000000000E+00 0. -1.
        -14    1    5    5    0    0 -0.65050826201E+02 -0.88291673312E+00 -0.76104438948E+02  0.10012130222E+03  0.00000000000E+00 0.  1.
          5    1    4    4  501    0 -0.64338932048E+02  0.75689394292E+02 -0.20191920295E+03  0.22507158752E+03  0.41800000000E+01 0. -1.
         -5    1    4    4    0  501  0.58138259475E+02  0.11025104965E+03 -0.24188570539E+03  0.27214245908E+03  0.41800000000E+01 0. -1.
</event>
<event>
11    1  0.8037748E-009  0.1416120E+03  0.7561462E-02  0.1105772E+00
         22   -1    0    0    0    0  0.00000000000E+00  0.00000000000E+00  0.20253728286E+04  0.20253728286E+04  0.00000000000E+00 0.  1.
         22   -1    0    0    0    0 -0.00000000000E+00 -0.00000000000E+00 -0.48034274101E+03  0.48034274101E+03  0.00000000000E+00 0. -1.
        -24    2    1    2    0    0 -0.85643980190E+01  0.11348958263E+03 -0.44778662833E+03  0.46965396645E+03  0.84313400003E+02 0.  0.
         25    2    1    2    0    0 -0.12081324164E+02 -0.68009062346E+01  0.18842969680E+03  0.22659751901E+03  0.12509386184E+03 0.  0.
         24    2    1    2    0    0  0.20645722183E+02 -0.10668867639E+03  0.18043870191E+04  0.18094640841E+04  0.80864315608E+02 0.  0.
        -13    1    5    5    0    0 -0.14774121268E+02 -0.95600406956E+02  0.14192340524E+04  0.14225269797E+04  0.00000000000E+00 0.  1.
         14    1    5    5    0    0  0.35419843450E+02 -0.11088269436E+02  0.38515296671E+03  0.38693710444E+03  0.00000000000E+00 0. -1.
         11    1    3    3    0    0 -0.15465552080E+02 -0.38097362416E+01 -0.12755102070E+03  0.12854166746E+03  0.00000000000E+00 0. -1.
        -12    1    3    3    0    0  0.69011540607E+01  0.11729931887E+03 -0.32023560762E+03  0.34111229899E+03  0.00000000000E+00 0.  1.
          5    1    4    4  501    0 -0.45923978550E+02  0.10445231905E+02  0.18175715181E+03  0.18780641445E+03  0.41800000000E+01 0. -1.
         -5    1    4    4    0  501  0.33842654386E+02 -0.17246138140E+02  0.66725449880E+01  0.38791104564E+02  0.41800000000E+01 0. -1.
</event>
<event>
11    1  0.8037748E-009  0.1470883E+03  0.7561462E-02  0.1099892E+00
         22   -1    0    0    0    0  0.00000000000E+00  0.00000000000E+00  0.39034001004E+03  0.39034001004E+03  0.00000000000E+00 0.  1.
         22   -1    0    0    0    0 -0.00000000000E+00 -0.00000000000E+00 -0.18793128730E+03  0.18793128730E+03  0.00000000000E+00 0.  1.
         24    2    1    2    0    0  0.52826005434E+02 -0.47684105225E+02 -0.97558785127E+02  0.14572426526E+03  0.81568892282E+02 0.  0.
         25    2    1    2    0    0 -0.60358290661E+02  0.98198173983E+02  0.78400733710E+02  0.18729777210E+03  0.12509106987E+03 0.  0.
        -24    2    1    2    0    0  0.75322852272E+01 -0.50514068757E+02  0.22156677415E+03  0.24524925998E+03  0.91907331862E+02 0.  0.
        -13    1    3    3    0    0  0.63755873020E+02 -0.59147143971E+02 -0.62020855572E+02  0.10681658350E+03  0.00000000000E+00 0.  1.
         14    1    3    3    0    0 -0.10929867587E+02  0.11463038746E+02 -0.35537929555E+02  0.38907681758E+02  0.00000000000E+00 0. -1.
         13    1    5    5    0    0 -0.28678872205E+01  0.40825998034E+01 -0.77921069126E+01  0.92525309187E+01  0.00000000000E+00 0. -1.
        -14    1    5    5    0    0  0.10400172448E+02 -0.54596668561E+02  0.22935888107E+03  0.23599672906E+03  0.00000000000E+00 0.  1.
          5    1    4    4  501    0 -0.19588063984E+01 -0.24739118363E+02 -0.75481037157E+01  0.26273697296E+02  0.41800000000E+01 0.  1.
         -5    1    4    4    0  501 -0.58399484263E+02  0.12293729235E+03  0.85948837426E+02  0.16102407480E+03  0.41800000000E+01 0.  1.
</event>
<event>
11    1  0.8037748E-009  0.1272638E+03  0.7561462E-02  0.1122677E+00
         22   -1    0    0    0    0  0.00000000000E+00  0.00000000000E+00  0.36990999899E+04  0.36990999899E+04  0.00000000000E+00 0.  1.
         22   -1    0    0    0    0 -0.00000000000E+00 -0.00000000000E+00 -0.14829406635E+02  0.14829406635E+02  0.00000000000E+00 0. -1.
         24    2    1    2    0    0  0.26699633499E+02  0.16674136511E+02  0.22048785674E+03  0.23501451843E+03  0.75006877337E+02 0.  0.
         25    2    1    2    0    0 -0.31811944258E+02 -0.37611548937E+02  0.64216500047E+03  0.65608693480E+03  0.12509016660E+03 0.  0.
        -24    2    1    2    0    0  0.51123107587E+01  0.20937412426E+02  0.28216177261E+04  0.28228279433E+04  0.79790315935E+02 0.  0.
        -11    1    3    3    0    0  0.39341867326E+02 -0.88497497923E+00  0.20413455770E+03  0.20789296129E+03  0.00000000000E+00 0.  1.
         12    1    3    3    0    0 -0.12642233826E+02  0.17559111490E+02  0.16353299031E+02  0.27121557139E+02  0.00000000000E+00 0. -1.
         11    1    5    5    0    0 -0.31344108544E+02  0.14599868148E+02  0.66966069949E+03  0.67055280309E+03  0.00000000000E+00 0. -1.
        -12    1    5    5    0    0  0.36456419303E+02  0.63375442786E+01  0.21519570266E+04  0.21522751402E+04  0.00000000000E+00 0.  1.
          5    1    4    4  501    0  0.46025086881E+02 -0.90395196352E+01  0.15845936029E+03  0.16530838697E+03  0.41800000000E+01 0. -1.
         -5    1    4    4    0  501 -0.77837031139E+02 -0.28572029302E+02  0.48370564018E+03  0.49077854783E+03  0.41800000000E+01 0. -1.
</event>
<event>
11    1  0.8037748E-009  0.1507602E+03  0.7561462E-02  0.1096105E+00
         22   -1    0    0    0    0  0.00000000000E+00  0.00000000000E+00  0.92904969057E+03  0.92904969057E+03  0.00000000000E+00 0.  1.
         22   -1    0    0    0    0 -0.00000000000E+00 -0.00000000000E+00 -0.37046432440E+03  0.37046432440E+03  0.00000000000E+00 0.  1.
        -24    2    1    2    0    0  0.85712900062E+02 -0.68247154945E+01 -0.33415283514E+03  0.35476357761E+03  0.82497277472E+02 0.  0.
         25    2    1    2    0    0 -0.47716892035E+02  0.19520429116E+02  0.17299348973E+03  0.21961850502E+03  0.12509033265E+03 0.  0.
         24    2    1    2    0    0 -0.37996008027E+02 -0.12695713622E+02  0.71974471158E+03  0.72513193234E+03  0.78606562514E+02 0.  0.
        -13    1    5    5    0    0 -0.47917423255E+00  0.24899008601E+02  0.41855240254E+03  0.41929262325E+03  0.00000000000E+00 0.  1.
         14    1    5    5    0    0 -0.37516833795E+02 -0.37594722223E+02  0.30119230904E+03  0.30583930909E+03  0.00000000000E+00 0. -1.
         13    1    3    3    0    0  0.14413578378E+02  0.15764140482E+02 -0.12974630165E+02  0.24992006617E+02  0.00000000000E+00 0. -1.
        -14    1    3    3    0    0  0.71299321685E+02 -0.22588855977E+02 -0.32117820497E+03  0.32977157099E+03  0.00000000000E+00 0.  1.
          5    1    4    4  501    0 -0.23388496718E+02  0.44070551518E+02  0.76482981357E+01  0.50647844517E+02  0.41800000000E+01 0.  1.
         -5    1    4    4    0  501 -0.24328395317E+02 -0.24550122401E+02  0.16534519160E+03  0.16897066051E+03  0.41800000000E+01 0.  1.
</event>
<event>
11    1  0.8037748E-009  0.1904799E+03  0.7561462E-02  0.1061468E+00
         22   -1    0    0    0    0  0.00000000000E+00  0.00000000000E+00  0.73777987399E+03  0.73777987399E+03  0.00000000000E+00 0. -1.
         22   -1    0    0    0    0 -0.00000000000E+00 -0.00000000000E+00 -0.57775960593E+03  0.57775960593E+03  0.00000000000E+00 0.  1.
        -24    2    1    2    0    0  0.89275081340E+02 -0.11156705203E+03 -0.51241712833E+03  0.53763585336E+03  0.77870085225E+02 0.  0.
         25    2    1    2    0    0 -0.90730934861E+02  0.12585128913E+03  0.15059418834E+03  0.24981923455E+03  0.12514148341E+03 0.  0.
         24    2    1    2    0    0  0.14558535209E+01 -0.14284237099E+02  0.52184320804E+03  0.52808439201E+03  0.79665754095E+02 0.  0.
        -13    1    5    5    0    0 -0.15826397065E+02  0.27381903841E+02  0.13681660192E+03  0.14042444966E+03  0.00000000000E+00 0.  1.
         14    1    5    5    0    0  0.17282250585E+02 -0.41666140940E+02  0.38502660612E+03  0.38765994235E+03  0.00000000000E+00 0. -1.
         11    1    3    3    0    0 -0.14055196556E+01 -0.49180178733E+02 -0.11126972814E+03  0.12166189981E+03  0.00000000000E+00 0. -1.
        -12    1    3    3    0    0  0.90680600996E+02 -0.62386873301E+02 -0.40114740019E+03  0.41597395355E+03  0.00000000000E+00 0.  1.
          5    1    4    4  501    0 -0.74663081957E+02  0.13388733089E+03  0.72597236087E+02  0.16967092935E+03  0.41800000000E+01 0.  1.
         -5    1    4    4    0  501 -0.16067852904E+02 -0.80360417559E+01  0.77996952257E+02  0.80148305194E+02  0.41800000000E+01 0.  1.
</event>
<event>
11    1  0.8037748E-009  0.1269171E+03  0.7561462E-02  0.1123116E+00
         22   -1    0    0    0    0  0.00000000000E+00  0.00000000000E+00  0.14688909532E+04  0.14688909532E+04  0.00000000000E+00 0. -1.
         22   -1    0    0    0    0 -0.00000000000E+00 -0.00000000000E+00 -0.74433086301E+02  0.74433086301E+02  0.00000000000E+00 0. -1.
         24    2    1    2    0    0 -0.15114911878E+02  0.14226855858E+02 -0.36250971001E+02  0.91060770534E+02  0.80913948384E+02 0.  0.
         25    2    1    2    0    0  0.31303788241E+02 -0.14955024173E+02  0.45647202261E+03  0.47457160065E+03  0.12509163368E+03 0.  0.
        -24    2    1    2    0    0 -0.16188876363E+02  0.72816831555E+00  0.97423681529E+03  0.97769166831E+03  0.80504758075E+02 0.  0.
        -13    1    3    3    0    0 -0.93538871720E+01 -0.71435711295E+01  0.24077539469E+02  0.26800255980E+02  0.00000000000E+00 0.  1.
         14    1    3    3    0    0 -0.57610247057E+01  0.21370426987E+02 -0.60328510470E+02  0.64260514554E+02  0.00000000000E+00 0. -1.
         13    1    5    5    0    0 -0.26337777492E+02  0.26681604246E+02  0.82648029013E+03  0.82733019799E+03  0.00000000000E+00 0. -1.
        -14    1    5    5    0    0  0.10148901129E+02 -0.25953435930E+02  0.14775652515E+03  0.15036147032E+03  0.00000000000E+00 0.  1.
          5    1    4    4  501    0  0.37022830491E+02  0.47215078151E+02  0.30156535365E+03  0.30750461542E+03  0.41800000000E+01 0. -1.
         -5    1    4    4    0  501 -0.57190422504E+01 -0.62170102324E+02  0.15490666896E+03  0.16706698523E+03  0.41800000000E+01 0. -1.
</event>
<event>
11    1  0.8037748E-009  0.1636706E+03  0.7561462E-02  0.1083675E+00
         22   -1    0    0    0    0  0.00000000000E+00  0.00000000000E+00  0.71331148301E+03  0.71331148301E+03  0.00000000000E+00 0.  1.
         22   -1    0    0    0    0 -0.00000000000E+00 -0.00000000000E+00 -0.17078776712E+03  0.17078776712E+03  0.00000000000E+00 0.  1.
         24    2    1    2    0    0  0.53652399203E+01  0.20852387192E+02 -0.12558939180E+03  0.15112935921E+03  0.81263645193E+02 0.  0.
         25    2    1    2    0    0 -0.66547175072E+02 -0.98206541611E+02  0.33117172561E+03  0.37335647369E+03  0.12508914134E+03 0.  0.
        -24    2    1    2    0    0  0.61181935151E+02  0.77354154419E+02  0.33694138209E+03  0.35961341724E+03  0.77880809574E+02 0.  0.
        -13    1    3    3    0    0  0.21675685539E+02 -0.24230113622E+02 -0.30215492400E+02  0.44383665134E+02  0.00000000000E+00 0.  1.
         14    1    3    3    0    0 -0.16310445618E+02  0.45082500815E+02 -0.95373899403E+02  0.10674569407E+03  0.00000000000E+00 0. -1.
         11    1    5    5    0    0 -0.15514169577E+02  0.23408686466E+02  0.12057910402E+03  0.12380620495E+03  0.00000000000E+00 0. -1.
        -12    1    5    5    0    0  0.76696104728E+02  0.53945467952E+02  0.21636227807E+03  0.23580721228E+03  0.00000000000E+00 0.  1.
          5    1    4    4  501    0 -0.35472842394E+02 -0.11739463645E+03  0.18046445085E+03  0.21823087232E+03  0.41800000000E+01 0.  1.
         -5    1    4    4    0  501 -0.31074332678E+02  0.19188094840E+02  0.15070727476E+03  0.15512560137E+03  0.41800000000E+01 0.  1.
</event>
<event>
11    1  0.8037748E-009  0.2119632E+03  0.7561462E-02  0.1046372E+00
         22   -1    0    0    0    0  0.00000000000E+00  0.00000000000E+00  0.56988486881E+03  0.56988486881E+03  0.00000000000E+00 0. -1.
         22   -1    0    0    0    0 -0.00000000000E+00 -0.00000000000E+00 -0.97582282699E+03  0.97582282699E+03  0.00000000000E+00 0.  1.
        -24    2    1    2    0    0 -0.14031683224E+03 -0.74713007659E+01 -0.78318481149E+03  0.79971926706E+03  0.80173707733E+02 0.  0.
         25    2    1    2    0    0  0.18004220726E+03 -0.15556641672E+03 -0.55791031643E+02  0.27454733558E+03  0.12508994307E+03 0.  0.
         24    2    1    2    0    0 -0.39725375024E+02  0.16303771748E+03  0.43303788496E+03  0.47144109316E+03  0.81089406040E+02 0.  0.
        -11    1    5    5    0    0 -0.49934310791E+01  0.20936280243E+02  0.98256578793E+01  0.23660214223E+02  0.00000000000E+00 0.  1.
         12    1    5    5    0    0 -0.34731943945E+02  0.14210143724E+03  0.42321222708E+03  0.44778087894E+03  0.00000000000E+00 0. -1.
         13    1    3    3    0    0 -0.74609617124E+02 -0.24757076639E+00 -0.21247298485E+03  0.22519197488E+03  0.00000000000E+00 0. -1.
        -14    1    3    3    0    0 -0.65707215115E+02 -0.72237299995E+01 -0.57071182664E+03  0.57452729218E+03  0.00000000000E+00 0.  1.
          5    1    4    4  501    0  0.18280211266E+03 -0.12610273592E+03 -0.80001374071E+02  0.23608516398E+03  0.41800000000E+01 0. -1.
         -5    1    4    4    0  501 -0.27599053923E+01 -0.29463680795E+02  0.24210342428E+02  0.38462171601E+02  0.41800000000E+01 0. -1.
</event>
<event>
11    1  0.8037748E-009  0.1637929E+03  0.7561462E-02  0.1083563E+00
         22   -1    0    0    0    0  0.00000000000E+00  0.00000000000E+00  0.79926142284E+03  0.79926142284E+03  0.00000000000E+00 0. -1.
         22   -1    0    0    0    0 -0.00000000000E+00 -0.00000000000E+00 -0.13248194417E+04  0.13248194417E+04  0.00000000000E+00 0.  1.
        -24    2    1    2    0    0  0.33672016448E+02 -0.48160647322E+02 -0.12679189598E+04  0.12717689487E+04  0.79526835687E+02 0.  0.
         25    2    1    2    0    0 -0.13486528185E+03  0.33615103998E+02  0.13352244696E+03  0.22977172807E+03  0.12509270047E+03 0.  0.
         24    2    1    2    0    0  0.10119326540E+03  0.14545543325E+02  0.60883849398E+03  0.62254018778E+03  0.80126923363E+02 0.  0.
        -13    1    5    5    0    0  0.14398767059E+00 -0.13383032902E+02  0.20091392225E+03  0.20135920753E+03  0.00000000000E+00 0.  1.
         14    1    5    5    0    0  0.10104927773E+03  0.27928576227E+02  0.40792457173E+03  0.42118098025E+03  0.00000000000E+00 0. -1.
         11    1    3    3    0    0  0.32278135901E+02  0.15053726814E+02 -0.47368026696E+03  0.47501735553E+03  0.00000000000E+00 0. -1.
        -12    1    3    3    0    0  0.13938805468E+01 -0.63214374136E+02 -0.79423869284E+03  0.79675159316E+03  0.00000000000E+00 0.  1.
          5    1    4    4  501    0  0.70192493702E+01 -0.22238637298E+02  0.51246448814E+02  0.56457929174E+02  0.41800000000E+01 0.  1.
         -5    1    4    4    0  501 -0.14188453122E+03  0.55853741296E+02  0.82275998149E+02  0.17331379889E+03  0.41800000000E+01 0.  1.
</event>
<event>
11    1  0.8037748E-009  0.1554946E+03  0.7561462E-02  0.1091393E+00
         22   -1    0    0    0    0  0.00000000000E+00  0.00000000000E+00  0.55083728913E+03  0.55083728913E+03  0.00000000000E+00 0. -1.
         22   -1    0    0    0    0 -0.00000000000E+00 -0.00000000000E+00 -0.12324116909E+04  0.12324116909E+04  0.00000000000E+00 0. -1.
        -24    2    1    2    0    0  0.29053885751E+02  0.93716113904E+02 -0.10727059343E+04  0.10802539554E+04  0.81386413943E+02 0.  0.
         25    2    1    2    0    0 -0.32748757500E+02 -0.38446221528E+02 -0.12177161536E+03  0.18173210284E+03  0.12509051853E+03 0.  0.
         24    2    1    2    0    0  0.36948717493E+01 -0.55269892376E+02  0.51290314792E+03  0.52126292178E+03  0.74679189895E+02 0.  0.
        -13    1    5    5    0    0 -0.32381075042E+02 -0.18581260432E+02  0.14277555655E+03  0.14757593573E+03  0.00000000000E+00 0.  1.
         14    1    5    5    0    0  0.36075946792E+02 -0.36688631945E+02  0.37012759137E+03  0.37368698605E+03  0.00000000000E+00 0. -1.
         13    1    3    3    0    0  0.44086828180E+02  0.77511532996E+02 -0.10067764176E+04  0.10107177852E+04  0.00000000000E+00 0. -1.
        -14    1    3    3    0    0 -0.15032942429E+02  0.16204580908E+02 -0.65929516657E+02  0.69536170208E+02  0.00000000000E+00 0.  1.
          5    1    4    4  501    0  0.34191119578E+02  0.10875762609E+02 -0.81717034549E+02  0.89344619345E+02  0.41800000000E+01 0. -1.
         -5    1    4    4    0  501 -0.66939877079E+02 -0.49321984137E+02 -0.40054580812E+02  0.92387483495E+02  0.41800000000E+01 0. -1.
</event>
<event>
11    1  0.8037748E-009  0.1572778E+03  0.7561462E-02  0.1089666E+00
         22   -1    0    0    0    0  0.00000000000E+00  0.00000000000E+00  0.50055589447E+03  0.50055589447E+03  0.00000000000E+00 0.  1.
         22   -1    0    0    0    0 -0.00000000000E+00 -0.00000000000E+00 -0.11214588414E+04  0.11214588414E+04  0.00000000000E+00 0.  1.
         24    2    1    2    0    0  0.93764259813E+02  0.14817654402E+02 -0.10770158559E+04  0.10842131408E+04  0.80893024661E+02 0.  0.
         25    2    1    2    0    0 -0.12748981066E+03 -0.57896459530E+02  0.32540865697E+03  0.37569122147E+03  0.12508975982E+03 0.  0.
        -24    2    1    2    0    0  0.33725550847E+02  0.43078805128E+02  0.13070425206E+03  0.16211037358E+03  0.78758970811E+02 0.  0.
        -11    1    3    3    0    0  0.73290777642E+02  0.32078445963E+02 -0.98857694328E+03  0.99180892190E+03  0.00000000000E+00 0.  1.
         12    1    3    3    0    0  0.20473482171E+02 -0.17260791561E+02 -0.88438912660E+02  0.92404218897E+02  0.00000000000E+00 0. -1.
         11    1    5    5    0    0  0.11716382857E+02  0.88496607931E+01 -0.85779230074E+01  0.17005025332E+02  0.00000000000E+00 0. -1.
        -12    1    5    5    0    0  0.22009167990E+02  0.34229144335E+02  0.13928217507E+03  0.14510534825E+03  0.00000000000E+00 0.  1.
          5    1    4    4  501    0 -0.20016637266E+02 -0.22300523195E+02 -0.90532454567E+00  0.30269970511E+02  0.41800000000E+01 0.  1.
         -5    1    4    4    0  501 -0.10747317339E+03 -0.35595936335E+02  0.32631398152E+03  0.34542125096E+03  0.41800000000E+01 0.  1.
</event>
<event>
11    1  0.8037748E-009  0.1772257E+03  0.7561462E-02  0.1071909E+00
         22   -1    0    0    0    0  0.00000000000E+00  0.00000000000E+00  0.22197436058E+04  0.22197436058E+04  0.00000000000E+00 0. -1.
         22   -1    0    0    0    0 -0.00000000000E+00 -0.00000000000E+00 -0.87504032535E+02  0.87504032535E+02  0.00000000000E+00 0. -1.
        -24    2    1    2    0    0  0.79633622851E+02  0.71135199251E+02  0.62721442483E+02  0.15435583122E+03  0.92141265593E+02 0.  0.
         25    2    1    2    0    0 -0.18202063323E+03 -0.64113516202E+02  0.29713350025E+03  0.37573526058E+03  0.12508643088E+03 0.  0.
         24    2    1    2    0    0  0.10238701038E+03 -0.70216830496E+01  0.17723846306E+04  0.17771565465E+04  0.80035669582E+02 0.  0.
        -13    1    5    5    0    0  0.10322801785E+03 -0.23423148692E+01  0.11187954330E+04  0.11235500572E+04  0.00000000000E+00 0.  1.
         14    1    5    5    0    0 -0.84100746177E+00 -0.46793681805E+01  0.65358919759E+03  0.65360648940E+03  0.00000000000E+00 0. -1.
         13    1    3    3    0    0  0.82212116561E+02  0.80043607287E+02  0.27578930449E+02  0.11801020541E+03  0.00000000000E+00 0. -1.
        -14    1    3    3    0    0 -0.25784937098E+01 -0.89084080360E+01  0.35142512035E+02  0.36345625812E+02  0.00000000000E+00 0.  1.
          5    1    4    4  501    0 -0.99821045695E+02 -0.98526667084E+02  0.19292880674E+03  0.23855972451E+03  0.41800000000E+01 0. -1.
         -5    1    4    4    0  501 -0.82199587540E+02  0.34413150882E+02  0.10420469351E+03  0.13717553607E+03  0.41800000000E+01 0. -1.
</event>
<event>
11    1  0.8037748E-009  0.1437947E+03  0.7561462E-02  0.1103393E+00
         22   -1    0    0    0    0  0.00000000000E+00  0.00000000000E+00  0.13831303019E+03  0.13831303019E+03  0.00000000000E+00 0. -1.
         22   -1    0    0    0    0 -0.00000000000E+00 -0.00000000000E+00 -0.12999392969E+04  0.12999392969E+04  0.00000000000E+00 0. -1.
        -24    2    1    2    0    0 -0.17982282558E+02 -0.54696280176E+01 -0.10270319401E+04  0.10302462350E+04  0.79116493287E+02 0.  0.
         25    2    1    2    0    0  0.85889383868E+02  0.18764285482E+02 -0.22253442449E+03  0.26999566786E+03  0.12508799267E+03 0.  0.
         24    2    1    2    0    0 -0.67907101310E+02 -0.13294657465E+02  0.87940097870E+02  0.13801042419E+03  0.80779292192E+02 0.  0.
        -13    1    5    5    0    0  0.29140662669E+01 -0.68482664977E+01 -0.12735951425E+02  0.14751101482E+02  0.00000000000E+00 0.  1.
         14    1    5    5    0    0 -0.70821167577E+02 -0.64463909671E+01  0.10067604930E+03  0.12325932271E+03  0.00000000000E+00 0. -1.
         11    1    3    3    0    0 -0.45071131464E+01 -0.38953287075E+02 -0.72600018765E+03  0.72705841933E+03  0.00000000000E+00 0. -1.
        -12    1    3    3    0    0 -0.13475169412E+02  0.33483659057E+02 -0.30103175241E+03  0.30318781567E+03  0.00000000000E+00 0.  1.
          5    1    4    4  501    0 -0.21612735183E+02  0.48389328546E+01 -0.12346411941E+00  0.22539148978E+02  0.41800000000E+01 0.  1.
         -5    1    4    4    0  501  0.10750211905E+03  0.13925352628E+02 -0.22241096037E+03  0.24745651888E+03  0.41800000000E+01 0.  1.
</event>
<event>
11    1  0.8037748E-009  0.1735003E+03  0.7561462E-02  0.1075025E+00
         22   -1    0    0    0    0  0.00000000000E+00  0.00000000000E+00  0.14374522029E+04  0.14374522029E+04  0.00000000000E+00 0.  1.
         22   -1    0    0    0    0 -0.00000000000E+00 -0.00000000000E+00 -0.73456297786E+02  0.73456297786E+02  0.00000000000E+00 0. -1.
        -24    2    1    2    0    0 -0.12079305719E+03 -0.16136968036E+02  0.25958345157E+02  0.14814494670E+03  0.80135667133E+02 0.  0.
         25    2    1    2    0    0  0.10621764229E+03  0.13118140489E+02  0.69146960111E+03  0.71079703024E+03  0.12509170952E+03 0.  0.
         24    2    1    2    0    0  0.14575414903E+02  0.30188275466E+01  0.64656795883E+03  0.65196652372E+03  0.82393365250E+02 0.  0.
        -13    1    5    5    0    0 -0.19629160933E+01 -0.11603990041E+01  0.62229431056E+03  0.62229848828E+03  0.00000000000E+00 0.  1.
         14    1    5    5    0    0  0.16538330997E+02  0.41792265507E+01  0.24273648266E+02  0.29668035440E+02  0.00000000000E+00 0. -1.
         13    1    3    3    0    0 -0.59906897102E+02 -0.40840691495E+02 -0.10084481432E+02  0.73201742929E+02  0.00000000000E+00 0. -1.
        -14    1    3    3    0    0 -0.60886160092E+02  0.24703723459E+02  0.36042826588E+02  0.74943203774E+02  0.00000000000E+00 0.  1.
          5    1    4    4  501    0  0.11324948533E+03 -0.32260810788E+02  0.46650442113E+03  0.48115491598E+03  0.41800000000E+01 0.  1.
         -5    1    4    4    0  501 -0.70318430413E+01  0.45378951277E+02  0.22496517999E+03  0.22964211426E+03  0.41800000000E+01 0.  1.
</event>
<event>
11    1  0.8037748E-009  0.1419635E+03  0.7561462E-02  0.1105385E+00
         22   -1    0    0    0    0  0.00000000000E+00  0.00000000000E+00  0.65446787118E+03  0.65446787118E+03  0.00000000000E+00 0.  1.
         22   -1    0    0    0    0 -0.00000000000E+00 -0.00000000000E+00 -0.11208262074E+04  0.11208262074E+04  0.00000000000E+00 0.  1.
         24    2    1    2    0    0 -0.88801733597E+01 -0.52341671159E+02 -0.10711718507E+04  0.10756169039E+04  0.82000501233E+02 0.  0.
         25    2    1    2    0    0  0.74862387180E+02  0.41525820901E+02  0.93196040602E+02  0.17793523440E+03  0.12508666932E+03 0.  0.
        -24    2    1    2    0    0 -0.65982213821E+02  0.10815850259E+02  0.51161747387E+03  0.52174194028E+03  0.77405280930E+02 0.  0.
        -11    1    3    3    0    0  0.28123640982E+02 -0.12514386666E+02 -0.67870098466E+03  0.67939868680E+03  0.00000000000E+00 0.  1.
         12    1    3    3    0    0 -0.37003814342E+02 -0.39827284493E+02 -0.39247086607E+03  0.39621821712E+03  0.00000000000E+00 0. -1.
         13    1    5    5    0    0  0.20501063831E+01 -0.84353009267E+01  0.46113650235E+01  0.98296452269E+01  0.00000000000E+00 0. -1.
        -14    1    5    5    0    0 -0.68032320204E+02  0.19251151186E+02  0.50700610885E+03  0.51191229505E+03  0.00000000000E+00 0.  1.
          5    1    4    4  501    0  0.46577987037E+02  0.73159481454E+02  0.10245726865E+03  0.13430109047E+03  0.41800000000E+01 0.  1.
         -5    1    4    4    0  501  0.28284400143E+02 -0.31633660554E+02 -0.92612280487E+01  0.43634143929E+02  0.41800000000E+01 0.  1.
</event>
<event>
11    1  0.8037748E-009  0.1641037E+03  0.7561462E-02  0.1083280E+00
         22   -1    0    0    0    0  0.00000000000E+00  0.00000000000E+00  0.10140722432E+04  0.10140722432E+04  0.00000000000E+00 0. -1.
         22   -1    0    0    0    0 -0.00000000000E+00 -0.00000000000E+00 -0.48502474210E+03  0.48502474210E+03  0.00000000000E+00 0. -1.
         24    2    1    2    0    0 -0.56372038975E+02 -0.95405266253E+02 -0.38146565248E+03  0.40403819127E+03  0.73829833925E+02 0.  0.
         25    2    1    2    0    0 -0.39192607992E+02  0.10383301408E+03 -0.85998474242E+01  0.16744954958E+03  0.12509212184E+03 0.  0.
        -24    2    1    2    0    0  0.95564646967E+02 -0.84277478297E+01  0.91911300096E+03  0.92760924440E+03  0.80539264211E+02 0.  0.
        -13    1    3    3    0    0 -0.13485687095E+02 -0.71602292113E+02 -0.14201129873E+03  0.15961190732E+03  0.00000000000E+00 0.  1.
         14    1    3    3    0    0 -0.42886351880E+02 -0.23802974140E+02 -0.23945435375E+03  0.24442628395E+03  0.00000000000E+00 0. -1.
         13    1    5    5    0    0  0.86069232088E+02 -0.38051243099E+02  0.70158817939E+03  0.70787130417E+03  0.00000000000E+00 0. -1.
        -14    1    5    5    0    0  0.94954148785E+01  0.29623495269E+02  0.21752482157E+03  0.21973794023E+03  0.00000000000E+00 0.  1.
          5    1    4    4  501    0  0.94915042656E+01 -0.25377532299E+02  0.73700688630E+01  0.28388344683E+02  0.41800000000E+01 0. -1.
         -5    1    4    4    0  501 -0.48684112257E+02  0.12921054638E+03 -0.15969916287E+02  0.13906120490E+03  0.41800000000E+01 0. -1.
</event>
<event>
11    1  0.8037748E-009  0.2088786E+03  0.7561462E-02  0.1048417E+00
         22   -1    0    0    0    0  0.00000000000E+00  0.00000000000E+00  0.37959031893E+03  0.37959031893E+03  0.00000000000E+00 0. -1.
         22   -1    0    0    0    0 -0.00000000000E+00 -0.00000000000E+00 -0.52849578094E+03  0.52849578094E+03  0.00000000000E+00 0. -1.
         24    2    1    2    0    0  0.37696596301E+02  0.44882685277E+02 -0.29658881236E+03  0.31212745058E+03  0.77608845983E+02 0.  0.
         25    2    1    2    0    0 -0.18148501435E+03  0.37816545584E+02 -0.13323397361E+03  0.26031873732E+03  0.12509057408E+03 0.  0.
        -24    2    1    2    0    0  0.14378841804E+03 -0.82699230861E+02  0.28091732396E+03  0.33563991197E+03  0.78900796282E+02 0.  0.
        -13    1    3    3    0    0 -0.56028502208E+01 -0.16161378937E+02 -0.10599102269E+03  0.10736237232E+03  0.00000000000E+00 0.  1.
         14    1    3    3    0    0  0.43299446522E+02  0.61044064214E+02 -0.19059778968E+03  0.20476507826E+03  0.00000000000E+00 0. -1.
         11    1    5    5    0    0  0.14947882812E+03 -0.69293090149E+02  0.23165666605E+03  0.28427146062E+03  0.00000000000E+00 0. -1.
        -12    1    5    5    0    0 -0.56904100749E+01 -0.13406140712E+02  0.49260657915E+02  0.51368451347E+02  0.00000000000E+00 0.  1.
          5    1    4    4  501    0 -0.50319741331E+02 -0.45667270336E+02 -0.42266860051E+02  0.80134485748E+02  0.41800000000E+01 0. -1.
         -5    1    4    4    0  501 -0.13116527301E+03  0.83483815920E+02 -0.90967113562E+02  0.18018425157E+03  0.41800000000E+01 0. -1.
</event>
<event>
11    1  0.8037748E-009  0.1376081E+03  0.7561462E-02  0.1110259E+00
         22   -1    0    0    0    0  0.00000000000E+00  0.00000000000E+00  0.69579076026E+03  0.69579076026E+03  0.00000000000E+00 0.  1.
         22   -1    0    0    0    0 -0.00000000000E+00 -0.00000000000E+00 -0.77718345945E+03  0.77718345945E+03  0.00000000000E+00 0.  1.
         24    2    1    2    0    0 -0.19730123405E+02  0.28113763617E+02 -0.66475114992E+03  0.67059145380E+03  0.81358128717E+02 0.  0.
         25    2    1    2    0    0  0.14749083485E+02  0.30033483648E+02 -0.66020896948E+02  0.14535471628E+03  0.12509871745E+03 0.  0.
        -24    2    1    2    0    0  0.49810399196E+01 -0.58147247266E+02  0.64937934768E+03  0.65702804963E+03  0.81156686001E+02 0.  0.
        -13    1    3    3    0    0 -0.39836275515E+01  0.31120588487E+02 -0.84786052618E+02  0.90404839665E+02  0.00000000000E+00 0.  1.
         14    1    3    3    0    0 -0.15746495853E+02 -0.30068248691E+01 -0.57996509730E+03  0.58018661413E+03  0.00000000000E+00 0. -1.
         13    1    5    5    0    0  0.53793445980E+01  0.86653634830E+01  0.10405486837E+02  0.14570519171E+02  0.00000000000E+00 0. -1.
        -14    1    5    5    0    0 -0.39830467839E+00 -0.66812610749E+02  0.63897386084E+03  0.64245753046E+03  0.00000000000E+00 0.  1.
          5    1    4    4  501    0 -0.28208387717E+02  0.64970740935E+02 -0.21372836308E+02  0.74102502300E+02  0.41800000000E+01 0.  1.
         -5    1    4    4    0  501  0.42957471202E+02 -0.34937257287E+02 -0.44648060640E+02  0.71252213985E+02  0.41800000000E+01 0.  1.
</event>
<event>
11    1  0.8037748E-009  0.1381532E+03  0.7561462E-02  0.1109638E+00
         22   -1    0    0    0    0  0.00000000000E+00  0.00000000000E+00  0.15547240654E+04  0.15547240654E+04  0.00000000000E+00 0. -1.
         22   -1    0    0    0    0 -0.00000000000E+00 -0.00000000000E+00 -0.77656403389E+03  0.77656403389E+03  0.00000000000E+00 0. -1.
        -24    2    1    2    0    0 -0.23187019186E+02  0.21582361320E+02 -0.67211908713E+03  0.67775557776E+03  0.81271887656E+02 0.  0.
         25    2    1    2    0    0 -0.34528373728E+02 -0.33485911749E+02 -0.55121426778E+02  0.14491187528E+03  0.12509022755E+03 0.  0.
         24    2    1    2    0    0  0.57715392914E+02  0.11903550429E+02  0.15054005454E+04  0.15086206462E+04  0.78947394367E+02 0.  0.
        -13    1    5    5    0    0  0.58684355047E+02  0.78363512433E+01  0.54421414937E+03  0.54742515680E+03  0.00000000000E+00 0.  1.
         14    1    5    5    0    0 -0.96896213305E+00  0.40671991858E+01  0.96118639601E+03  0.96119548941E+03  0.00000000000E+00 0. -1.
         11    1    3    3    0    0 -0.15748760850E+02  0.30304061062E+02 -0.66067789063E+03  0.66156000087E+03  0.00000000000E+00 0. -1.
        -12    1    3    3    0    0 -0.74382583360E+01 -0.87216997422E+01 -0.11441196501E+02  0.16195576891E+02  0.00000000000E+00 0.  1.
          5    1    4    4  501    0 -0.20897221989E+01 -0.25293659015E+02 -0.91655775377E+02  0.95196584420E+02  0.41800000000E+01 0.  1.
         -5    1    4    4    0  501 -0.32438651529E+02 -0.81922527336E+01  0.36534348599E+02  0.49715290861E+02  0.41800000000E+01 0.  1.
</event>
<event>
11    1  0.8037748E-009  0.1274268E+03  0.7561462E-02  0.1122472E+00
         22   -1    0    0    0    0  0.00000000000E+00  0.00000000000E+00  0.30798587216E+04  0.30798587216E+04  0.00000000000E+00 0. -1.
         22   -1    0    0    0    0 -0.00000000000E+00 -0.00000000000E+00 -0.12224440888E+03  0.12224440888E+03  0.00000000000E+00 0.  1.
         24    2    1    2    0    0 -0.17043377656E+02 -0.17604164914E+02 -0.10140284452E+03  0.13163825829E+03  0.80285184343E+02 0.  0.
         25    2    1    2    0    0  0.93737612198E+01  0.92851339496E+01  0.78814113516E+03  0.79811531810E+03  0.12509009132E+03 0.  0.
        -24    2    1    2    0    0  0.76696164358E+01  0.83190309646E+01  0.22708760221E+04  0.22723495541E+04  0.81034307712E+02 0.  0.
        -13    1    3    3    0    0  0.19775193209E+02 -0.20150079617E+02 -0.87926992555E+02  0.92348470452E+02  0.00000000000E+00 0.  1.
         14    1    3    3    0    0 -0.36818570865E+02  0.25459147032E+01 -0.13475851963E+02  0.39289787838E+02  0.00000000000E+00 0. -1.
         13    1    5    5    0    0 -0.11084444568E+02 -0.32773911607E+02  0.12431812527E+04  0.12436625834E+04  0.00000000000E+00 0. -1.
        -14    1    5    5    0    0  0.18754061004E+02  0.41092942572E+02  0.10276947694E+04  0.10286869707E+04  0.00000000000E+00 0.  1.
          5    1    4    4  501    0 -0.46950649795E+02  0.37922526288E+02  0.45553813754E+03  0.45953775543E+03  0.41800000000E+01 0.  1.
         -5    1    4    4    0  501  0.56324411014E+02 -0.28637392338E+02  0.33260299762E+03  0.33857756267E+03  0.41800000000E+01 0.  1.
</event>
<event>
11    1  0.8037748E-009  0.1280924E+03  0.7561462E-02  0.1121635E+00
         22   -1    0    0    0    0  0.00000000000E+00  0.00000000000E+00  0.90569461303E+03  0.90569461303E+03  0.00000000000E+00 0. -1.
         22   -1    0    0    0    0 -0.00000000000E+00 -0.00000000000E+00 -0.18441067110E+03  0.18441067110E+03  0.00000000000E+00 0. -1.
         24    2    1    2    0    0 -0.13415725567E+01  0.57845927467E+01 -0.14852351361E+03  0.16887752852E+03  0.80156872540E+02 0.  0.
         25    2    1    2    0    0 -0.22793852828E+02 -0.18636266942E+02  0.15454472773E+03  0.20100370614E+03  0.12510614230E+03 0.  0.
        -24    2    1    2    0    0  0.24135425385E+02  0.12851674195E+02  0.71526272781E+03  0.72022404947E+03  0.79838758446E+02 0.  0.
        -13    1    3    3    0    0  0.15087446759E+02  0.39820501213E+02 -0.78759231628E+02  0.89533903820E+02  0.00000000000E+00 0.  1.
         14    1    3    3    0    0 -0.16429019316E+02 -0.34035908467E+02 -0.69764281979E+02  0.79343624702E+02  0.00000000000E+00 0. -1.
         13    1    5    5    0    0  0.33481870046E+02  0.12899255989E+02  0.70650523711E+03  0.70741577342E+03  0.00000000000E+00 0. -1.
        -14    1    5    5    0    0 -0.93464446614E+01 -0.47581793410E-01  0.87574906997E+01  0.12808276043E+02  0.00000000000E+00 0.  1.
          5    1    4    4  501    0 -0.36801550046E+02  0.68179625793E+01  0.16545618320E+03  0.16968812468E+03  0.41800000000E+01 0.  1.
         -5    1    4    4    0  501  0.14007697218E+02 -0.25454229521E+02 -0.10911455466E+02  0.31315581461E+02  0.41800000000E+01 0.  1.
</event>
<event>
11    1  0.8037748E-009  0.1541199E+03  0.7561462E-02  0.1092742E+00
         22   -1    0    0    0    0  0.00000000000E+00  0.00000000000E+00  0.83621545004E+02  0.83621545004E+02  0.00000000000E+00 0.  1.
         22   -1    0    0    0    0 -0.00000000000E+00 -0.00000000000E+00 -0.47899819320E+03  0.47899819320E+03  0.00000000000E+00 0. -1.
         24    2    1    2    0    0  0.79066848976E+02 -0.41659389866E+02 -0.24252914646E+03  0.27066459370E+03  0.80323496109E+02 0.  0.
         25    2    1    2    0    0 -0.62080332421E+02  0.75224702989E+02 -0.10794384909E+03  0.19186849040E+03  0.12509564117E+03 0.  0.
        -24    2    1    2    0    0 -0.16986516555E+02 -0.33565313123E+02 -0.44903652637E+02  0.10008665410E+03  0.81153116509E+02 0.  0.
        -13    1    3    3    0    0  0.60645005294E+02 -0.52057972087E+02 -0.10732296498E+03  0.13381355663E+03  0.00000000000E+00 0.  1.
         14    1    3    3    0    0  0.18421843682E+02  0.10398582221E+02 -0.13520618148E+03  0.13685103707E+03  0.00000000000E+00 0. -1.
         11    1    5    5    0    0 -0.81977447675E+01  0.74876838163E+01 -0.55652575706E+02  0.56749252074E+02  0.00000000000E+00 0. -1.
        -12    1    5    5    0    0 -0.87887717877E+01 -0.41052996940E+02  0.10748923069E+02  0.43337402026E+02  0.00000000000E+00 0.  1.
          5    1    4    4  501    0 -0.23968519913E+02 -0.71958162716E+01  0.21798819675E+02  0.33450420892E+02  0.41800000000E+01 0.  1.
         -5    1    4    4    0  501 -0.38111812508E+02  0.82420519260E+02 -0.12974266877E+03  0.15841806951E+03  0.41800000000E+01 0.  1.
</event>
<event>
11    1  0.8037748E-009  0.1567429E+03  0.7561462E-02  0.1090181E+00
         22   -1    0    0    0    0  0.00000000000E+00  0.00000000000E+00  0.67677248087E+03  0.67677248087E+03  0.00000000000E+00 0. -1.
         22   -1    0    0    0    0 -0.00000000000E+00 -0.00000000000E+00 -0.13791424449E+03  0.13791424449E+03  0.00000000000E+00 0.  1.
        -24    2    1    2    0    0 -0.40065929671E+02 -0.71204777069E+02 -0.38485760162E+02  0.12086329607E+03  0.80320505500E+02 0.  0.
         25    2    1    2    0    0  0.83089364976E+02  0.12854370388E+03  0.13700601384E+03  0.24051165745E+03  0.12509149915E+03 0.  0.
         24    2    1    2    0    0 -0.43023435305E+02 -0.57338926811E+02  0.44033798270E+03  0.45331177184E+03  0.80344601390E+02 0.  0.
        -13    1    5    5    0    0  0.14901902312E+02 -0.36408235755E+02  0.25477520144E+03  0.25779454919E+03  0.00000000000E+00 0.  1.
         14    1    5    5    0    0 -0.57925337617E+02 -0.20930691056E+02  0.18556278126E+03  0.19551722265E+03  0.00000000000E+00 0. -1.
         13    1    3    3    0    0 -0.83428532026E+01 -0.74829833260E+02 -0.45769798947E+02  0.88113458909E+02  0.00000000000E+00 0. -1.
        -14    1    3    3    0    0 -0.31723076468E+02  0.36250561911E+01  0.72840387858E+01  0.32749837161E+02  0.00000000000E+00 0.  1.
          5    1    4    4  501    0 -0.10134542791E+02  0.56284643209E+02  0.10266508882E+03  0.11759363452E+03  0.41800000000E+01 0. -1.
         -5    1    4    4    0  501  0.93223907767E+02  0.72259060671E+02  0.34340925028E+02  0.12291802293E+03  0.41800000000E+01 0. -1.
</event>
<event>
11    1  0.8037748E-009  0.1331544E+03  0.7561462E-02  0.1115453E+00
         22   -1    0    0    0    0  0.00000000000E+00  0.00000000000E+00  0.63145861008E+03  0.63145861008E+03  0.00000000000E+00 0. -1.
         22   -1    0    0    0    0 -0.00000000000E+00 -0.00000000000E+00 -0.11260841436E+03  0.11260841436E+03  0.00000000000E+00 0.  1.
        -24    2    1    2    0    0 -0.79472781543E+01 -0.49794738509E+02 -0.62424141843E+02  0.11350430721E+03  0.80273152777E+02 0.  0.
         25    2    1    2    0    0 -0.10196147735E+02  0.87922305884E+01  0.18508336959E+03  0.22379732940E+03  0.12509247060E+03 0.  0.
         24    2    1    2    0    0  0.18143425889E+02  0.41002507920E+02  0.39619096798E+03  0.40676538784E+03  0.80500981857E+02 0.  0.
        -13    1    5    5    0    0 -0.25673236612E+02 -0.45361808770E+01  0.74610330281E+02  0.79034128070E+02  0.00000000000E+00 0.  1.
         14    1    5    5    0    0  0.43816662501E+02  0.45538688797E+02  0.32158063770E+03  0.32773125977E+03  0.00000000000E+00 0. -1.
         11    1    3    3    0    0 -0.82161051962E+01  0.17810032707E+02  0.25001995074E+01  0.19772522530E+02  0.00000000000E+00 0. -1.
        -12    1    3    3    0    0  0.26882704189E+00 -0.67604771216E+02 -0.64924341351E+02  0.93731784678E+02  0.00000000000E+00 0.  1.
          5    1    4    4  501    0 -0.45305713850E+02  0.93322375623E+00  0.12136401546E+02  0.47098229866E+02  0.41800000000E+01 0. -1.
         -5    1    4    4    0  501  0.35109566115E+02  0.78590068321E+01  0.17294696804E+03  0.17669909953E+03  0.41800000000E+01 0. -1.
</event>
<event>
11    1  0.8037748E-009  0.2754015E+03  0.7561462E-02  0.1011175E+00
         22   -1    0    0    0    0  0.00000000000E+00  0.00000000000E+00  0.25464828880E+03  0.25464828880E+03  0.00000000000E+00 0. -1.
         22   -1    0    0    0    0 -0.00000000000E+00 -0.00000000000E+00 -0.45180620786E+03  0.45180620786E+03  0.00000000000E+00 0. -1.
        -24    2    1    2    0    0  0.15008849933E+00  0.10290060247E+02 -0.35864298162E+02  0.88430520078E+02  0.80173568788E+02 0.  0.
         25    2    1    2    0    0  0.18657143137E+01  0.23777373364E+03 -0.22383684338E+03  0.34969966646E+03  0.12508834867E+03 0.  0.
         24    2    1    2    0    0 -0.20158028130E+01 -0.24806379388E+03  0.62543222475E+02  0.26832431013E+03  0.80910885738E+02 0.  0.
        -13    1    5    5    0    0 -0.28619678803E+02 -0.10395344119E+03  0.56325868462E+02  0.12164706083E+03  0.00000000000E+00 0.  1.
         14    1    5    5    0    0  0.26603875990E+02 -0.14411035269E+03  0.62173540133E+01  0.14667724930E+03  0.00000000000E+00 0. -1.
         11    1    3    3    0    0 -0.35100390819E+02  0.22953734048E+02 -0.10625073388E+02  0.43264344753E+02  0.00000000000E+00 0. -1.
        -12    1    3    3    0    0  0.35250479319E+02 -0.12663673800E+02 -0.25239224775E+02  0.45166175326E+02  0.00000000000E+00 0.  1.
          5    1    4    4  501    0 -0.34420072697E+02  0.22823317897E+03 -0.19517034021E+03  0.30229796474E+03  0.41800000000E+01 0. -1.
         -5    1    4    4    0  501  0.36285787011E+02  0.95405546675E+01 -0.28666503166E+02  0.47401701722E+02  0.41800000000E+01 0. -1.
</event>
<event>
11    1  0.8037748E-009  0.1546188E+03  0.7561462E-02  0.1092251E+00
         22   -1    0    0    0    0  0.00000000000E+00  0.00000000000E+00  0.27796129711E+03  0.27796129711E+03  0.00000000000E+00 0.  1.
         22   -1    0    0    0    0 -0.00000000000E+00 -0.00000000000E+00 -0.51229449235E+03  0.51229449235E+03  0.00000000000E+00 0. -1.
         24    2    1    2    0    0 -0.34246173371E+02 -0.80305372736E+02 -0.30743021626E+03  0.32716527276E+03  0.70014459600E+02 0.  0.
         25    2    1    2    0    0 -0.57951404918E+02  0.90198251939E+02 -0.14075044326E+03  0.21669067128E+03  0.12510023883E+03 0.  0.
        -24    2    1    2    0    0  0.92197578290E+02 -0.98928792028E+01  0.21384746428E+03  0.24639984542E+03  0.79899207388E+02 0.  0.
        -11    1    3    3    0    0 -0.22732134749E+02 -0.68592189565E+02 -0.12802949291E+03  0.14701424922E+03  0.00000000000E+00 0.  1.
         12    1    3    3    0    0 -0.11514038622E+02 -0.11713183172E+02 -0.17940072334E+03  0.18015102354E+03  0.00000000000E+00 0. -1.
         11    1    5    5    0    0  0.23738286905E+02 -0.32484165608E+02  0.34119859557E+02  0.52753124046E+02  0.00000000000E+00 0. -1.
        -12    1    5    5    0    0  0.68459291385E+02  0.22591286405E+02  0.17972760472E+03  0.19364672137E+03  0.00000000000E+00 0.  1.
          5    1    4    4  501    0 -0.94305783134E+02  0.81445401094E+02 -0.91196441081E+02  0.15447070064E+03  0.41800000000E+01 0.  1.
         -5    1    4    4    0  501  0.36354378216E+02  0.87528508457E+01 -0.49554002183E+02  0.62219970634E+02  0.41800000000E+01 0.  1.
</event>
<event>
11    1  0.8037748E-009  0.1403777E+03  0.7561462E-02  0.1107137E+00
         22   -1    0    0    0    0  0.00000000000E+00  0.00000000000E+00  0.10995508931E+03  0.10995508931E+03  0.00000000000E+00 0. -1.
         22   -1    0    0    0    0 -0.00000000000E+00 -0.00000000000E+00 -0.55453344643E+03  0.55453344643E+03  0.00000000000E+00 0. -1.
        -24    2    1    2    0    0  0.26129774928E+02 -0.38003766820E+02 -0.39867977821E+03  0.40894213111E+03  0.78492353863E+02 0.  0.
         25    2    1    2    0    0 -0.80052323821E+02  0.11183742008E+02 -0.52115526005E+02  0.15778320648E+03  0.12508421788E+03 0.  0.
         24    2    1    2    0    0  0.53922548893E+02  0.26820024812E+02  0.62169470974E+01  0.97763198140E+02  0.76759608320E+02 0.  0.
        -11    1    5    5    0    0 -0.13272455094E+01  0.31243593209E+02 -0.19296830002E+02  0.36746310636E+02  0.00000000000E+00 0.  1.
         12    1    5    5    0    0  0.55249794402E+02 -0.44235683971E+01  0.25513777099E+02  0.61016887504E+02  0.00000000000E+00 0. -1.
         11    1    3    3    0    0  0.50576005646E+02 -0.27526225609E+02 -0.18884934124E+03  0.19743277117E+03  0.00000000000E+00 0. -1.
        -12    1    3    3    0    0 -0.24446230718E+02 -0.10477541211E+02 -0.20983043696E+03  0.21150935994E+03  0.00000000000E+00 0.  1.
          5    1    4    4  501    0 -0.78943698155E+02 -0.44375481995E+02 -0.17952707121E+02  0.92417871505E+02  0.41800000000E+01 0. -1.
         -5    1    4    4    0  501 -0.11086256660E+01  0.55559224003E+02 -0.34162818883E+02  0.65365334977E+02  0.41800000000E+01 0. -1.
</event>
<event>
11    1  0.8037748E-009  0.1532869E+03  0.7561462E-02  0.1093567E+00
         22   -1    0    0    0    0  0.00000000000E+00  0.00000000000E+00  0.20108968880E+03  0.20108968880E+03  0.00000000000E+00 0. -1.
         22   -1    0    0    0    0 -0.00000000000E+00 -0.00000000000E+00 -0.18204972414E+04  0.18204972414E+04  0.00000000000E+00 0. -1.
        -24    2    1    2    0    0 -0.83282458839E+02  0.19273882841E+02 -0.14128678882E+04  0.14176937470E+04  0.79702197713E+02 0.  0.
         25    2    1    2    0    0  0.11167544880E+03 -0.12561182893E+02 -0.37684075766E+03  0.41265569514E+03  0.12508627790E+03 0.  0.
         24    2    1    2    0    0 -0.28392989962E+02 -0.67126999478E+01  0.17030109322E+03  0.19123748809E+03  0.81963969401E+02 0.  0.
        -13    1    5    5    0    0  0.29119636917E+02 -0.25063959132E+01  0.61858125076E+02  0.68415370441E+02  0.00000000000E+00 0.  1.
         14    1    5    5    0    0 -0.57512626880E+02 -0.42063040346E+01  0.10844296814E+03  0.12282211765E+03  0.00000000000E+00 0. -1.
         11    1    3    3    0    0 -0.82790557049E+02  0.58075918550E+01 -0.13749511847E+04  0.13774537251E+04  0.00000000000E+00 0. -1.
        -12    1    3    3    0    0 -0.49190179019E+00  0.13466290986E+02 -0.37916703461E+02  0.40240021889E+02  0.00000000000E+00 0.  1.
          5    1    4    4  501    0  0.34985914051E+02  0.55301665355E+02 -0.15372736812E+03  0.16712828750E+03  0.41800000000E+01 0.  1.
         -5    1    4    4    0  501  0.76689534750E+02 -0.67862848248E+02 -0.22311338954E+03  0.24552740764E+03  0.41800000000E+01 0.  1.
</event>
<event>
11    1  0.8037748E-009  0.1463583E+03  0.7561462E-02  0.1100659E+00
         22   -1    0    0    0    0  0.00000000000E+00  0.00000000000E+00  0.39579735628E+04  0.39579735628E+04  0.00000000000E+00 0.  1.
         22   -1    0    0    0    0 -0.00000000000E+00 -0.00000000000E+00 -0.69317190305E+03  0.69317190305E+03  0.00000000000E+00 0. -1.
        -24    2    1    2    0    0 -0.58159250040E+02  0.48506574483E+02 -0.55642391552E+03  0.56684978382E+03  0.77302765295E+02 0.  0.
         25    2    1    2    0    0  0.78567849394E+02 -0.26533405368E+02 -0.88145039555E+02  0.17405488796E+03  0.12509447416E+03 0.  0.
         24    2    1    2    0    0 -0.20408599354E+02 -0.21973169115E+02  0.39093706148E+04  0.39102407940E+04  0.76844859233E+02 0.  0.
        -11    1    5    5    0    0 -0.22173140890E+02 -0.34078159742E+02  0.37950098222E+04  0.37952275979E+04  0.00000000000E+00 0.  1.
         12    1    5    5    0    0  0.17645415358E+01  0.12104990626E+02  0.11436079263E+03  0.11501319619E+03  0.00000000000E+00 0. -1.
         13    1    3    3    0    0 -0.27409840603E+02  0.24252763454E+02 -0.47591988368E+03  0.47732507956E+03  0.00000000000E+00 0. -1.
        -14    1    3    3    0    0 -0.30749409438E+02  0.24253811029E+02 -0.80504031841E+02  0.89524704260E+02  0.00000000000E+00 0.  1.
          5    1    4    4  501    0 -0.15998638610E+02 -0.49906636843E+02 -0.31771523419E+02  0.61429072423E+02  0.41800000000E+01 0. -1.
         -5    1    4    4    0  501  0.94566488004E+02  0.23373231475E+02 -0.56373516136E+02  0.11262581553E+03  0.41800000000E+01 0. -1.
</event>
<event>
11    1  0.8037748E-009  0.2071672E+03  0.7561462E-02  0.1049568E+00
         22   -1    0    0    0    0  0.00000000000E+00  0.00000000000E+00  0.14891812929E+04  0.14891812929E+04  0.00000000000E+00 0.  1.
         22   -1    0    0    0    0 -0.00000000000E+00 -0.00000000000E+00 -0.55311400943E+03  0.55311400943E+03  0.00000000000E+00 0.  1.
         24    2    1    2    0    0  0.19318996588E+02 -0.48956593870E+02 -0.38688241619E+03  0.39909150654E+03  0.82619942641E+02 0.  0.
         25    2    1    2    0    0 -0.14970996070E+03 -0.53273266554E+02 -0.87824039764E+02  0.22047975555E+03  0.12508855817E+03 0.  0.
        -24    2    1    2    0    0  0.13039096411E+03  0.10222986042E+03  0.14107737394E+04  0.14227240402E+04  0.80052501153E+02 0.  0.
        -13    1    3    3    0    0 -0.48975131882E+01 -0.40658628767E+02 -0.35865429687E+03  0.36098478415E+03  0.00000000000E+00 0.  1.
         14    1    3    3    0    0  0.24216509777E+02 -0.82979651037E+01 -0.28228119329E+02  0.38106722392E+02  0.00000000000E+00 0. -1.
         11    1    5    5    0    0  0.44854204988E+01 -0.12265217560E+02  0.71697847691E+02  0.72877540589E+02  0.00000000000E+00 0. -1.
        -12    1    5    5    0    0  0.12590554361E+03  0.11449507798E+03  0.13390758917E+04  0.13498464996E+04  0.00000000000E+00 0.  1.
          5    1    4    4  501    0 -0.10029180771E+03  0.30290024737E+02 -0.50613797638E+02  0.11642663443E+03  0.41800000000E+01 0. -1.
         -5    1    4    4    0  501 -0.49418152985E+02 -0.83563291291E+02 -0.37210242126E+02  0.10405312112E+03  0.41800000000E+01 0. -1.
</event>
<event>
11    1  0.8037748E-009  0.1643997E+03  0.7561462E-02  0.1083011E+00
         22   -1    0    0    0    0  0.00000000000E+00  0.00000000000E+00  0.32853412977E+04  0.32853412977E+04  0.00000000000E+00 0. -1.
         22   -1    0    0    0    0 -0.00000000000E+00 -0.00000000000E+00 -0.58696214264E+03  0.58696214264E+03  0.00000000000E+00 0.  1.
         24    2    1    2    0    0  0.80544233361E+02 -0.57972923531E+01 -0.53961599273E+03  0.55174408574E+03  0.81945923690E+02 0.  0.
         25    2    1    2    0    0 -0.14909783940E+03  0.84799987291E+02  0.24331353276E+03  0.32290950045E+03  0.12509143337E+03 0.  0.
        -24    2    1    2    0    0  0.68553606036E+02 -0.79002694938E+02  0.29946816150E+04  0.29976498541E+04  0.82738442597E+02 0.  0.
        -11    1    3    3    0    0  0.93542264084E+02 -0.49980266757E+01 -0.51880649768E+03  0.52719571079E+03  0.00000000000E+00 0.  1.
         12    1    3    3    0    0 -0.12998030723E+02 -0.79926567739E+00 -0.20809495052E+02  0.24548374948E+02  0.00000000000E+00 0. -1.
         13    1    5    5    0    0  0.12718618244E+02 -0.74616828602E+02  0.19492261211E+04  0.19506952364E+04  0.00000000000E+00 0. -1.
        -14    1    5    5    0    0  0.55834987792E+02 -0.43858663358E+01  0.10454554939E+04  0.10469546177E+04  0.00000000000E+00 0.  1.
          5    1    4    4  501    0 -0.15675879730E+03  0.46146496165E+02  0.22774232928E+03  0.28033348103E+03  0.41800000000E+01 0.  1.
         -5    1    4    4    0  501  0.76609579045E+01  0.38653491125E+02  0.15571203478E+02  0.42576019424E+02  0.41800000000E+01 0.  1.
</event>
<event>
11    1  0.8037748E-009  0.1879448E+03  0.7561462E-02  0.1063392E+00
         22   -1    0    0    0    0  0.00000000000E+00  0.00000000000E+00  0.25115126120E+03  0.25115126120E+03  0.00000000000E+00 0.  1.
         22   -1    0    0    0    0 -0.00000000000E+00 -0.00000000000E+00 -0.16407122920E+04  0.16407122920E+04  0.00000000000E+00 0.  1.
        -24    2    1    2    0    0  0.13799815696E+03  0.48114344920E+02 -0.14385212203E+04  0.14480916644E+04  0.79168717800E+02 0.  0.
         25    2    1    2    0    0 -0.84354560769E+02 -0.54556417880E+02 -0.15160534085E+03  0.22073279599E+03  0.12508674269E+03 0.  0.
         24    2    1    2    0    0 -0.53643596192E+02  0.64420729600E+01  0.20056553036E+03  0.22303909276E+03  0.81245118094E+02 0.  0.
        -13    1    5    5    0    0 -0.70173824909E+02  0.15774990050E+02  0.18500193722E+03  0.19849164413E+03  0.00000000000E+00 0.  1.
         14    1    5    5    0    0  0.16530228717E+02 -0.93329170900E+01  0.15563593135E+02  0.24547448628E+02  0.00000000000E+00 0. -1.
         11    1    3    3    0    0  0.54745352194E+02  0.60766771555E+02 -0.74537602720E+03  0.74985003570E+03  0.00000000000E+00 0. -1.
        -12    1    3    3    0    0  0.83252804767E+02 -0.12652426635E+02 -0.69314519309E+03  0.69824162874E+03  0.00000000000E+00 0.  1.
          5    1    4    4  501    0  0.14772610995E+02 -0.54785470920E+02 -0.80888593076E+02  0.98894462683E+02  0.41800000000E+01 0. -1.
         -5    1    4    4    0  501 -0.99127171764E+02  0.22905304031E+00 -0.70716747778E+02  0.12183833331E+03  0.41800000000E+01 0. -1.
</event>
<event>
11    1  0.1261552E-008  0.1761493E+03  0.7561462E-02  0.1072801E+00
         22   -1    0    0    0    0  0.00000000000E+00  0.00000000000E+00  0.32647004694E+03  0.32647004694E+03  0.00000000000E+00 0. -1.
         22   -1    0    0    0    0 -0.00000000000E+00 -0.00000000000E+00 -0.12375558385E+04  0.12375558385E+04  0.00000000000E+00 0.  1.
         24    2    1    2    0    0 -0.49180462823E+02  0.73418728149E+02 -0.70851281809E+03  0.71872279102E+03  0.82237518049E+02 0.  0.
         25    2    1    2    0    0  0.69567884512E+02 -0.19292347625E+03 -0.47733615105E+03  0.53437473925E+03  0.12508957834E+03 0.  0.
        -24    2    1    2    0    0 -0.20387421690E+02  0.11950474810E+03  0.27476317762E+03  0.31092835513E+03  0.80527054277E+02 0.  0.
        -11    1    3    3    0    0 -0.27213277997E+02  0.89362505425E+02 -0.53316631466E+03  0.54128785222E+03  0.00000000000E+00 0.  1.
         12    1    3    3    0    0 -0.21967184826E+02 -0.15943777275E+02 -0.17534650343E+03  0.17743493880E+03  0.00000000000E+00 0. -1.
         13    1    5    5    0    0 -0.25419618008E+01  0.55229411284E+02  0.21286364052E+03  0.21992653068E+03  0.00000000000E+00 0. -1.
        -14    1    5    5    0    0 -0.17845459889E+02  0.64275336816E+02  0.61899537095E+02  0.91001824454E+02  0.00000000000E+00 0.  1.
          5    1    4    4  501    0  0.62314412194E+02 -0.11311225036E+03 -0.15300711852E+03  0.20026511895E+03  0.41800000000E+01 0. -1.
         -5    1    4    4    0  501  0.72534723180E+01 -0.79811225884E+02 -0.32432903253E+03  0.33410962030E+03  0.41800000000E+01 0. -1.
</event>
<event>
11    1  0.8037748E-009  0.1401220E+03  0.7561462E-02  0.1107422E+00
         22   -1    0    0    0    0  0.00000000000E+00  0.00000000000E+00  0.67660901234E+03  0.67660901234E+03  0.00000000000E+00 0. -1.
         22   -1    0    0    0    0 -0.00000000000E+00 -0.00000000000E+00 -0.53880693736E+03  0.53880693736E+03  0.00000000000E+00 0. -1.
         24    2    1    2    0    0 -0.81365747074E+01 -0.60438266645E+02 -0.29076107601E+03  0.30781364045E+03  0.80549649278E+02 0.  0.
         25    2    1    2    0    0  0.60721172584E+02  0.24566155197E+02 -0.21370676996E+03  0.25614209579E+03  0.12509049894E+03 0.  0.
        -24    2    1    2    0    0 -0.52584597876E+02  0.35872111448E+02  0.64226992095E+03  0.65146021348E+03  0.88531407260E+02 0.  0.
        -11    1    3    3    0    0  0.24318935380E+02 -0.43730263340E+02 -0.24076429314E+03  0.24590890874E+03  0.00000000000E+00 0.  1.
         12    1    3    3    0    0 -0.32455510087E+02 -0.16708003304E+02 -0.49996782874E+02  0.61904731703E+02  0.00000000000E+00 0. -1.
         11    1    5    5    0    0 -0.40715107217E+02 -0.23623041573E+02  0.33134028964E+03  0.33466723112E+03  0.00000000000E+00 0. -1.
        -12    1    5    5    0    0 -0.11869490660E+02  0.59495153021E+02  0.31092963131E+03  0.31679298235E+03  0.00000000000E+00 0.  1.
          5    1    4    4  501    0 -0.36930964625E+00 -0.11166429151E+02  0.13567952338E+02  0.18066191082E+02  0.41800000000E+01 0. -1.
         -5    1    4    4    0  501  0.61090482230E+02  0.35732584347E+02 -0.22727472230E+03  0.23807590470E+03  0.41800000000E+01 0. -1.
</event>
<event>
11    1  0.8317071E-009  0.1743777E+03  0.7561462E-02  0.1074284E+00
         22   -1    0    0    0    0  0.00000000000E+00  0.00000000000E+00  0.10621508700E+04  0.10621508700E+04  0.00000000000E+00 0.  1.
         22   -1    0    0    0    0 -0.00000000000E+00 -0.00000000000E+00 -0.23483438862E+04  0.23483438862E+04  0.00000000000E+00 0. -1.
         24    2    1    2    0    0 -0.36082579402E+01  0.45882300496E+02 -0.19627753213E+04  0.19649535328E+04  0.80232280017E+02 0.  0.
         25    2    1    2    0    0 -0.11616703084E+03 -0.65901907633E+02 -0.35731027219E+03  0.40144221359E+03  0.12508948698E+03 0.  0.
        -24    2    1    2    0    0  0.11977528878E+03  0.20019607137E+02  0.10338925773E+04  0.10440990099E+04  0.80386420715E+02 0.  0.
        -13    1    3    3    0    0  0.25385126998E+02  0.55014738111E+02 -0.14635516371E+04  0.14648052501E+04  0.00000000000E+00 0.  1.
         14    1    3    3    0    0 -0.28993384938E+02 -0.91324376145E+01 -0.49922368422E+03  0.50014828269E+03  0.00000000000E+00 0. -1.
         13    1    5    5    0    0  0.35182089398E+02  0.16091291080E+02  0.11543073116E+03  0.12174137653E+03  0.00000000000E+00 0. -1.
        -14    1    5    5    0    0  0.84593199385E+02  0.39283160568E+01  0.91846184617E+03  0.92235763341E+03  0.00000000000E+00 0.  1.
          5    1    4    4  501    0 -0.92985343010E+02 -0.12604043254E+02 -0.31690772528E+03  0.33053458921E+03  0.41800000000E+01 0. -1.
         -5    1    4    4    0  501 -0.23181687833E+02 -0.53297864379E+02 -0.40402546908E+02  0.70907624377E+02  0.41800000000E+01 0. -1.
</event>
<event>
11    1  0.8037748E-009  0.1627121E+03  0.7561462E-02  0.1084554E+00
         22   -1    0    0    0    0  0.00000000000E+00  0.00000000000E+00  0.93750326434E+03  0.93750326434E+03  0.00000000000E+00 0. -1.
         22   -1    0    0    0    0 -0.00000000000E+00 -0.00000000000E+00 -0.32490492070E+03  0.32490492070E+03  0.00000000000E+00 0. -1.
         24    2    1    2    0    0  0.71452828959E+02  0.83026300663E+02 -0.24516695307E+03  0.28027958730E+03  0.80317736607E+02 0.  0.
         25    2    1    2    0    0 -0.57456632537E+02 -0.50720720578E+02  0.29878090948E+02  0.14971353731E+03  0.12509031464E+03 0.  0.
        -24    2    1    2    0    0 -0.13996196422E+02 -0.32305580085E+02  0.82788720576E+03  0.83241506042E+03  0.79234230837E+02 0.  0.
        -13    1    3    3    0    0  0.73547479798E+01 -0.14478819423E+02 -0.53271022449E+02  0.55691384994E+02  0.00000000000E+00 0.  1.
         14    1    3    3    0    0  0.64098080979E+02  0.97505120086E+02 -0.19189593062E+03  0.22458820231E+03  0.00000000000E+00 0. -1.
         13    1    5    5    0    0  0.22472141340E+02 -0.34630124912E+02  0.61745874197E+03  0.61883724898E+03  0.00000000000E+00 0. -1.
        -14    1    5    5    0    0 -0.36468337763E+02  0.23245448270E+01  0.21042846379E+03  0.21357781145E+03  0.00000000000E+00 0.  1.
          5    1    4    4  501    0 -0.39784623571E+02  0.38188205908E+02  0.45027215557E+01  0.55487856730E+02  0.41800000000E+01 0. -1.
         -5    1    4    4    0  501 -0.17672008966E+02 -0.88908926485E+02  0.25375369392E+02  0.94225680584E+02  0.41800000000E+01 0. -1.
</event>
<event>
11    1  0.8037748E-009  0.1300153E+03  0.7561462E-02  0.1119250E+00
         22   -1    0    0    0    0  0.00000000000E+00  0.00000000000E+00  0.99746099835E+03  0.99746099835E+03  0.00000000000E+00 0. -1.
         22   -1    0    0    0    0 -0.00000000000E+00 -0.00000000000E+00 -0.12067942383E+04  0.12067942383E+04  0.00000000000E+00 0. -1.
         24    2    1    2    0    0 -0.82788527615E+01 -0.34838252091E+02 -0.11684926641E+04  0.11733443796E+04  0.10039762794E+03 0.  0.
         25    2    1    2    0    0 -0.21018113143E+02  0.22480650518E+02  0.89648949314E+02  0.15694393012E+03  0.12508925758E+03 0.  0.
        -24    2    1    2    0    0  0.29296965904E+02  0.12357601574E+02  0.86951047487E+03  0.87396692696E+03  0.82211319068E+02 0.  0.
        -13    1    3    3    0    0 -0.29005543460E+02  0.26058765173E+02 -0.30951902240E+03  0.31196539234E+03  0.00000000000E+00 0.  1.
         14    1    3    3    0    0  0.20726690698E+02 -0.60897017264E+02 -0.85897364175E+03  0.86137898723E+03  0.00000000000E+00 0. -1.
         13    1    5    5    0    0  0.55190138886E+02  0.15090226846E+02  0.71428697452E+03  0.71657487281E+03  0.00000000000E+00 0. -1.
        -14    1    5    5    0    0 -0.25893172982E+02 -0.27326252723E+01  0.15522350035E+03  0.15739205415E+03  0.00000000000E+00 0.  1.
          5    1    4    4  501    0 -0.18504331574E+02  0.73854102577E+02  0.62738761779E+02  0.98744434699E+02  0.41800000000E+01 0.  1.
         -5    1    4    4    0  501 -0.25137815688E+01 -0.51373452059E+02  0.26910187535E+02  0.58199495422E+02  0.41800000000E+01 0.  1.
</event>
<event>
11    1  0.8037748E-009  0.1850883E+03  0.7561462E-02  0.1065600E+00
         22   -1    0    0    0    0  0.00000000000E+00  0.00000000000E+00  0.92261131818E+03  0.92261131818E+03  0.00000000000E+00 0. -1.
         22   -1    0    0    0    0 -0.00000000000E+00 -0.00000000000E+00 -0.21233102182E+03  0.21233102182E+03  0.00000000000E+00 0. -1.
        -24    2    1    2    0    0 -0.38761502672E+02 -0.12721216164E+02 -0.15510575310E+03  0.17938236018E+03  0.80348945647E+02 0.  0.
         25    2    1    2    0    0 -0.87500153339E+02  0.78483718268E+02  0.17221993087E+03  0.24315130604E+03  0.12508749808E+03 0.  0.
         24    2    1    2    0    0  0.12626165601E+03 -0.65762502104E+02  0.69316611860E+03  0.71240867379E+03  0.82341593708E+02 0.  0.
        -11    1    5    5    0    0  0.70358206204E+02  0.91882900432E+01  0.30002156054E+03  0.30829797055E+03  0.00000000000E+00 0.  1.
         12    1    5    5    0    0  0.55903449807E+02 -0.74950792147E+02  0.39314455806E+03  0.40411070324E+03  0.00000000000E+00 0. -1.
         13    1    3    3    0    0 -0.50252216011E+02  0.20732400688E+02 -0.10186276291E+03  0.11546055655E+03  0.00000000000E+00 0. -1.
        -14    1    3    3    0    0  0.11490713339E+02 -0.33453616852E+02 -0.53242990196E+02  0.63921803624E+02  0.00000000000E+00 0.  1.
          5    1    4    4  501    0  0.24637859885E+02  0.49539289991E+02  0.49436510673E+02  0.74314240762E+02  0.41800000000E+01 0. -1.
         -5    1    4    4    0  501 -0.11213801322E+03  0.28944428277E+02  0.12278342019E+03  0.16883706528E+03  0.41800000000E+01 0. -1.
</event>
<event>
11    1  0.8037748E-009  0.1310440E+03  0.7561462E-02  0.1117993E+00
         22   -1    0    0    0    0  0.00000000000E+00  0.00000000000E+00  0.12626406968E+04  0.12626406968E+04  0.00000000000E+00 0. -1.
         22   -1    0    0    0    0 -0.00000000000E+00 -0.00000000000E+00 -0.66041858298E+02  0.66041858298E+02  0.00000000000E+00 0.  1.
         24    2    1    2    0    0 -0.35929891787E+02 -0.25967516898E+02 -0.41738208387E+00  0.93392203395E+02  0.82198907472E+02 0.  0.
         25    2    1    2    0    0  0.95152625441E+01  0.78324295786E+01  0.21172459474E+03  0.24624474184E+03  0.12512906013E+03 0.  0.
        -24    2    1    2    0    0  0.26414629243E+02  0.18135087319E+02  0.98529162589E+03  0.98904560991E+03  0.79906297688E+02 0.  0.
        -13    1    3    3    0    0 -0.13145933914E+02 -0.27943271377E+02 -0.38265012938E+02  0.49171670796E+02  0.00000000000E+00 0.  1.
         14    1    3    3    0    0 -0.22783957873E+02  0.19757544798E+01  0.37847630854E+02  0.44220532599E+02  0.00000000000E+00 0. -1.
         13    1    5    5    0    0 -0.24203116760E+01 -0.64591461889E+01  0.79430768940E+03  0.79433763848E+03  0.00000000000E+00 0. -1.
        -14    1    5    5    0    0  0.28834940919E+02  0.24594233508E+02  0.19098393649E+03  0.19470797143E+03  0.00000000000E+00 0.  1.
          5    1    4    4  501    0 -0.14271253839E+02 -0.43319620509E+02  0.16971014675E+03  0.17578186629E+03  0.41800000000E+01 0.  1.
         -5    1    4    4    0  501  0.23786516383E+02  0.51152050088E+02  0.42014447997E+02  0.70462875547E+02  0.41800000000E+01 0.  1.
</event>
<event>
11    1  0.8037748E-009  0.1524535E+03  0.7561462E-02  0.1094398E+00
         22   -1    0    0    0    0  0.00000000000E+00  0.00000000000E+00  0.20111557955E+03  0.20111557955E+03  0.00000000000E+00 0.  1.
         22   -1    0    0    0    0 -0.00000000000E+00 -0.00000000000E+00 -0.49063377803E+03  0.49063377803E+03  0.00000000000E+00 0.  1.
         24    2    1    2    0    0 -0.20352971143E+02 -0.15181693317E+02 -0.29427622509E+03  0.30687882650E+03  0.83254971327E+02 0.  0.
         25    2    1    2    0    0 -0.68471014846E+02  0.24627397879E+02 -0.13639639147E+03  0.19886113889E+03  0.12508792250E+03 0.  0.
        -24    2    1    2    0    0  0.88823985989E+02 -0.94457045620E+01  0.14115441808E+03  0.18600939220E+03  0.81829104962E+02 0.  0.
        -11    1    3    3    0    0 -0.37754910606E+02 -0.88304763392E+00 -0.27394802093E+03  0.27653884215E+03  0.00000000000E+00 0.  1.
         12    1    3    3    0    0  0.17401939463E+02 -0.14298645683E+02 -0.20328204163E+02  0.30339984343E+02  0.00000000000E+00 0. -1.
         11    1    5    5    0    0  0.76404406793E+01 -0.27062469497E+02  0.82985801698E+01  0.29319277308E+02  0.00000000000E+00 0. -1.
        -12    1    5    5    0    0  0.81183545310E+02  0.17616764935E+02  0.13285583791E+03  0.15669011489E+03  0.00000000000E+00 0.  1.
          5    1    4    4  501    0  0.19460853286E+02  0.49402539236E+02 -0.50189972707E+02  0.73183614654E+02  0.41800000000E+01 0. -1.
         -5    1    4    4    0  501 -0.87931868132E+02 -0.24775141356E+02 -0.86206418767E+02  0.12567752424E+03  0.41800000000E+01 0. -1.
</event>
<event>
11    1  0.8037748E-009  0.1550790E+03  0.7561462E-02  0.1091799E+00
         22   -1    0    0    0    0  0.00000000000E+00  0.00000000000E+00  0.23505065929E+03  0.23505065929E+03  0.00000000000E+00 0.  1.
         22   -1    0    0    0    0 -0.00000000000E+00 -0.00000000000E+00 -0.13119518427E+04  0.13119518427E+04  0.00000000000E+00 0.  1.
         24    2    1    2    0    0  0.29845194931E+02  0.89836661545E+02 -0.11095823473E+04  0.11163769442E+04  0.78505634122E+02 0.  0.
         25    2    1    2    0    0 -0.71403282538E+02 -0.42921378738E+02 -0.15563271663E+03  0.21635443985E+03  0.12508807956E+03 0.  0.
        -24    2    1    2    0    0  0.41558087607E+02 -0.46915282807E+02  0.18831388051E+03  0.21427111799E+03  0.80758132759E+02 0.  0.
        -13    1    3    3    0    0  0.46593671686E+02  0.44692602762E+02 -0.84393359974E+03  0.84639962178E+03  0.00000000000E+00 0.  1.
         14    1    3    3    0    0 -0.16748476755E+02  0.45144058783E+02 -0.26564874759E+03  0.26997732241E+03  0.00000000000E+00 0. -1.
         11    1    5    5    0    0 -0.58604027417E+01  0.18071823788E+02  0.19267721198E+02  0.27058828790E+02  0.00000000000E+00 0. -1.
        -12    1    5    5    0    0  0.47418490348E+02 -0.64987106595E+02  0.16904615931E+03  0.18721228920E+03  0.00000000000E+00 0.  1.
          5    1    4    4  501    0 -0.24896399558E+02 -0.73008506491E+02 -0.37622552131E+02  0.85924394440E+02  0.41800000000E+01 0.  1.
         -5    1    4    4    0  501 -0.46506882979E+02  0.30087127753E+02 -0.11801016450E+03  0.13043004541E+03  0.41800000000E+01 0.  1.
</event>
<event>
11    1  0.8037748E-009  0.1313659E+03  0.7561462E-02  0.1117602E+00
         22   -1    0    0    0    0  0.00000000000E+00  0.00000000000E+00  0.25953773418E+03  0.25953773418E+03  0.00000000000E+00 0. -1.
         22   -1    0    0    0    0 -0.00000000000E+00 -0.00000000000E+00 -0.16787779006E+04  0.16787779006E+04  0.00000000000E+00 0. -1.
         24    2    1    2    0    0  0.71298082267E+01 -0.27635795804E+02 -0.66963033060E+03  0.67498043412E+03  0.79870115920E+02 0.  0.
         25    2    1    2    0    0  0.13998930610E+02 -0.67321828013E+01 -0.99427153330E+03  0.10022297722E+04  0.12508933610E+03 0.  0.
        -24    2    1    2    0    0 -0.21128738836E+02  0.34367978606E+02  0.24466169750E+03  0.26110542844E+03  0.81787022058E+02 0.  0.
        -11    1    3    3    0    0  0.31483918516E+02 -0.22007633005E+02 -0.15309262332E+03  0.15783828544E+03  0.00000000000E+00 0.  1.
         12    1    3    3    0    0 -0.24354110289E+02 -0.56281627995E+01 -0.51653770728E+03  0.51714214869E+03  0.00000000000E+00 0. -1.
         13    1    5    5    0    0 -0.29689915608E+01  0.40391887194E+02  0.45050667686E+02  0.60579552004E+02  0.00000000000E+00 0. -1.
        -14    1    5    5    0    0 -0.18159747276E+02 -0.60239085884E+01  0.19961102981E+03  0.20052587643E+03  0.00000000000E+00 0.  1.
          5    1    4    4  501    0 -0.55698758337E+02 -0.24254164267E+01 -0.41473572176E+03  0.41848706746E+03  0.41800000000E+01 0. -1.
         -5    1    4    4    0  501  0.69697688947E+02 -0.43067663746E+01 -0.57953581154E+03  0.58374270474E+03  0.41800000000E+01 0. -1.
</event>
<event>
11    1  0.8037748E-009  0.1447459E+03  0.7561462E-02  0.1102372E+00
         22   -1    0    0    0    0  0.00000000000E+00  0.00000000000E+00  0.38296870048E+03  0.38296870048E+03  0.00000000000E+00 0.  1.
         22   -1    0    0    0    0 -0.00000000000E+00 -0.00000000000E+00 -0.97107044982E+03  0.97107044982E+03  0.00000000000E+00 0. -1.
         24    2    1    2    0    0 -0.55402413349E+02  0.66953501087E+02 -0.85642442239E+03  0.86455590786E+03  0.80261621232E+02 0.  0.
         25    2    1    2    0    0  0.10175541232E+03 -0.91204500839E+01 -0.33247822210E+02  0.16489544534E+03  0.12509094159E+03 0.  0.
        -24    2    1    2    0    0 -0.46352998969E+02 -0.57833051003E+02  0.30157049526E+03  0.32458779710E+03  0.94441580412E+02 0.  0.
        -11    1    3    3    0    0 -0.54872821782E+02  0.52320930546E+02 -0.35913753066E+03  0.36705350056E+03  0.00000000000E+00 0.  1.
         12    1    3    3    0    0 -0.52959156648E+00  0.14632570541E+02 -0.49728689173E+03  0.49750240730E+03  0.00000000000E+00 0. -1.
         13    1    5    5    0    0  0.15766996931E+02 -0.54336154150E+01  0.54914813179E+01  0.17557868201E+02  0.00000000000E+00 0. -1.
        -14    1    5    5    0    0 -0.62119995899E+02 -0.52399435588E+02  0.29607901394E+03  0.30702992889E+03  0.00000000000E+00 0.  1.
          5    1    4    4  501    0  0.20231163528E+01  0.40009166323E+02 -0.35394279345E+02  0.53619528159E+02  0.41800000000E+01 0.  1.
         -5    1    4    4    0  501  0.99732295964E+02 -0.49129616407E+02  0.21464571355E+01  0.11127591718E+03  0.41800000000E+01 0.  1.
</event>
<event>
11    1  0.8037748E-009  0.1591023E+03  0.7561462E-02  0.1087925E+00
         22   -1    0    0    0    0  0.00000000000E+00  0.00000000000E+00  0.14834961217E+03  0.14834961217E+03  0.00000000000E+00 0. -1.
         22   -1    0    0    0    0 -0.00000000000E+00 -0.00000000000E+00 -0.10054108477E+04  0.10054108477E+04  0.00000000000E+00 0. -1.
        -24    2    1    2    0    0 -0.46320566423E+02  0.93833393302E+01 -0.81393493297E+03  0.81911426544E+03  0.78895264801E+02 0.  0.
         25    2    1    2    0    0 -0.56674790887E+02  0.23958850120E+02 -0.11623381286E+03  0.18150464916E+03  0.12509028737E+03 0.  0.
         24    2    1    2    0    0  0.10299535731E+03 -0.33342189450E+02  0.73107510270E+02  0.15314154529E+03  0.79924211667E+02 0.  0.
        -11    1    5    5    0    0  0.20515138255E+01  0.15853897172E+02  0.27766244998E+02  0.32039337163E+02  0.00000000000E+00 0.  1.
         12    1    5    5    0    0  0.10094384348E+03 -0.49196086623E+02  0.45341265272E+02  0.12110220812E+03  0.00000000000E+00 0. -1.
         13    1    3    3    0    0 -0.38608466247E+02  0.36041281158E+02 -0.69416252094E+03  0.69616894005E+03  0.00000000000E+00 0. -1.
        -14    1    3    3    0    0 -0.77121001752E+01 -0.26657941828E+02 -0.11977241203E+03  0.12294532539E+03  0.00000000000E+00 0.  1.
          5    1    4    4  501    0 -0.66323751826E+02 -0.16514564329E+02 -0.12431607430E+02  0.69595891794E+02  0.41800000000E+01 0. -1.
         -5    1    4    4    0  501  0.96489609395E+01  0.40473414449E+02 -0.10380220543E+03  0.11190875737E+03  0.41800000000E+01 0. -1.
</event>
<event>
11    1  0.8037748E-009  0.3244768E+03  0.7561462E-02  0.9903332E-01
         22   -1    0    0    0    0  0.00000000000E+00  0.00000000000E+00  0.25827577713E+03  0.25827577713E+03  0.00000000000E+00 0. -1.
         22   -1    0    0    0    0 -0.00000000000E+00 -0.00000000000E+00 -0.17134058456E+04  0.17134058456E+04  0.00000000000E+00 0. -1.
        -24    2    1    2    0    0 -0.23952154610E+03  0.17226872076E+03 -0.14151614528E+04  0.14480507115E+04  0.84391009801E+02 0.  0.
         25    2    1    2    0    0  0.22800812195E+03 -0.27088940431E+03 -0.37894308073E+02  0.37742858913E+03  0.12509032045E+03 0.  0.
         24    2    1    2    0    0  0.11513424156E+02  0.98620683552E+02 -0.20743076146E+01  0.14620232207E+03  0.10729500485E+03 0.  0.
        -13    1    5    5    0    0  0.30103924886E+02 -0.13170951860E+02 -0.75643733006E+00  0.32867802845E+02  0.00000000000E+00 0.  1.
         14    1    5    5    0    0 -0.18590500729E+02  0.11179163541E+03 -0.13178702845E+01  0.11333451922E+03  0.00000000000E+00 0. -1.
         13    1    3    3    0    0 -0.21833725866E+03  0.17913418004E+03 -0.12574550674E+04  0.12887798336E+04  0.00000000000E+00 0. -1.
        -14    1    3    3    0    0 -0.21184287443E+02 -0.68654592849E+01 -0.15770638542E+03  0.15927087797E+03  0.00000000000E+00 0.  1.
          5    1    4    4  501    0 -0.33770239269E+01 -0.41570234274E+02 -0.29982076485E+02  0.51535288672E+02  0.41800000000E+01 0. -1.
         -5    1    4    4    0  501  0.23138514588E+03 -0.22931917003E+03 -0.79122315887E+01  0.32589330046E+03  0.41800000000E+01 0. -1.
</event>
<event>
11    1  0.8037748E-009  0.2002097E+03  0.7561462E-02  0.1054375E+00
         22   -1    0    0    0    0  0.00000000000E+00  0.00000000000E+00  0.15564368517E+03  0.15564368517E+03  0.00000000000E+00 0. -1.
         22   -1    0    0    0    0 -0.00000000000E+00 -0.00000000000E+00 -0.13119629186E+04  0.13119629186E+04  0.00000000000E+00 0. -1.
        -24    2    1    2    0    0 -0.12831114667E+03 -0.41281231775E+02 -0.98236584605E+03  0.99464263838E+03  0.78124465639E+02 0.  0.
         25    2    1    2    0    0  0.93615472358E+01 -0.10070668881E+03 -0.21104330513E+03  0.26536115527E+03  0.12509112818E+03 0.  0.
         24    2    1    2    0    0  0.11894959943E+03  0.14198792058E+03  0.37089917743E+02  0.20760281014E+03  0.86102775711E+02 0.  0.
        -11    1    5    5    0    0  0.29813365729E+02  0.54224408148E+02  0.53038131303E+02  0.81499488264E+02  0.00000000000E+00 0.  1.
         12    1    5    5    0    0  0.89136233700E+02  0.87763512433E+02 -0.15948213560E+02  0.12610332188E+03  0.00000000000E+00 0. -1.
         11    1    3    3    0    0 -0.10519680259E+03 -0.26851032349E+02 -0.92250305607E+03  0.92886986907E+03  0.00000000000E+00 0. -1.
        -12    1    3    3    0    0 -0.23114344072E+02 -0.14430199426E+02 -0.59862789983E+02  0.65772769304E+02  0.00000000000E+00 0.  1.
          5    1    4    4  501    0  0.66488562112E+02 -0.65390544621E+02 -0.11570303070E+03  0.14866511336E+03  0.41800000000E+01 0.  1.
         -5    1    4    4    0  501 -0.57127014876E+02 -0.35316144185E+02 -0.95340274433E+02  0.11669604191E+03  0.41800000000E+01 0.  1.
</event>
<event>
11    1  0.8037748E-009  0.4047584E+03  0.7561462E-02  0.9635821E-01
         22   -1    0    0    0    0  0.00000000000E+00  0.00000000000E+00  0.25120847848E+03  0.25120847848E+03  0.00000000000E+00 0.  1.
         22   -1    0    0    0    0 -0.00000000000E+00 -0.00000000000E+00 -0.16867146341E+04  0.16867146341E+04  0.00000000000E+00 0.  1.
        -24    2    1    2    0    0 -0.27514935596E+02  0.43105360971E+03 -0.11070797252E+04  0.11912143854E+04  0.82473680501E+02 0.  0.
         25    2    1    2    0    0  0.68372000980E+02 -0.31374988815E+03 -0.44145826295E+03  0.56004028942E+03  0.12508399185E+03 0.  0.
         24    2    1    2    0    0 -0.40857065384E+02 -0.11730372157E+03  0.11303183246E+03  0.18666843780E+03  0.81482805771E+02 0.  0.
        -11    1    5    5    0    0 -0.62894964921E+02 -0.60051864762E+02  0.71568537012E+02  0.11262352580E+03  0.00000000000E+00 0.  1.
         12    1    5    5    0    0  0.22037899537E+02 -0.57251856804E+02  0.41463295448E+02  0.74044911999E+02  0.00000000000E+00 0. -1.
         13    1    3    3    0    0 -0.18747278309E+02  0.62421103632E+02 -0.10658597641E+03  0.12493368237E+03  0.00000000000E+00 0. -1.
        -14    1    3    3    0    0 -0.87676572871E+01  0.36863250608E+03 -0.10004937487E+04  0.10662807030E+04  0.00000000000E+00 0.  1.
          5    1    4    4  501    0  0.53962127650E+02 -0.26244886635E+03 -0.42792333915E+03  0.50490313453E+03  0.41800000000E+01 0. -1.
         -5    1    4    4    0  501  0.14409873330E+02 -0.51301021798E+02 -0.13534923796E+02  0.55137154887E+02  0.41800000000E+01 0. -1.
</event>
<event>
11    1  0.8037748E-009  0.1853935E+03  0.7561462E-02  0.1065362E+00
         22   -1    0    0    0    0  0.00000000000E+00  0.00000000000E+00  0.50733030077E+03  0.50733030077E+03  0.00000000000E+00 0.  1.
         22   -1    0    0    0    0 -0.00000000000E+00 -0.00000000000E+00 -0.28459112342E+03  0.28459112342E+03  0.00000000000E+00 0.  1.
        -24    2    1    2    0    0  0.55266545319E+01  0.13160270342E+03 -0.18879102076E+03  0.24269759587E+03  0.76878202796E+02 0.  0.
         25    2    1    2    0    0 -0.37055938954E+02 -0.17146508345E+03  0.13154114459E+03  0.25243560274E+03  0.12508894178E+03 0.  0.
         24    2    1    2    0    0  0.31529284422E+02  0.39862380035E+02  0.27998905353E+03  0.29678822558E+03  0.84298728507E+02 0.  0.
        -13    1    5    5    0    0  0.96267083930E+00  0.48869571946E+02  0.24343831595E+03  0.24829695018E+03  0.00000000000E+00 0.  1.
         14    1    5    5    0    0  0.30566613583E+02 -0.90071919113E+01  0.36550737581E+02  0.48491275399E+02  0.00000000000E+00 0. -1.
         13    1    3    3    0    0  0.35508088843E+02  0.30000513771E+02 -0.53698295494E+02  0.71023673087E+02  0.00000000000E+00 0. -1.
        -14    1    3    3    0    0 -0.29981434312E+02  0.10160218965E+03 -0.13509272527E+03  0.17167392278E+03  0.00000000000E+00 0.  1.
          5    1    4    4  501    0 -0.53562676825E+02 -0.17858309955E+03  0.90191469591E+02  0.20715418745E+03  0.41800000000E+01 0. -1.
         -5    1    4    4    0  501  0.16506737871E+02  0.71180160932E+01  0.41349674995E+02  0.45281415287E+02  0.41800000000E+01 0. -1.
</event>
<event>
11    1  0.8037748E-009  0.1644398E+03  0.7561462E-02  0.1082974E+00
         22   -1    0    0    0    0  0.00000000000E+00  0.00000000000E+00  0.11085889086E+04  0.11085889086E+04  0.00000000000E+00 0.  1.
         22   -1    0    0    0    0 -0.00000000000E+00 -0.00000000000E+00 -0.14199682599E+04  0.14199682599E+04  0.00000000000E+00 0. -1.
        -24    2    1    2    0    0 -0.10931091918E+03 -0.42418670928E+00 -0.13633479435E+04  0.13701224149E+04  0.81047886156E+02 0.  0.
         25    2    1    2    0    0  0.39149707696E+02  0.25692139933E+02  0.38352637595E+02  0.13896482758E+03  0.12509001890E+03 0.  0.
         24    2    1    2    0    0  0.70161211482E+02 -0.25267953224E+02  0.10136159545E+04  0.10194699260E+04  0.79627644558E+02 0.  0.
        -11    1    5    5    0    0  0.56923483288E+00  0.67489702656E+01  0.51144234945E+03  0.51148719382E+03  0.00000000000E+00 0.  1.
         12    1    5    5    0    0  0.69591976650E+02 -0.32016923490E+02  0.50217360508E+03  0.50798273223E+03  0.00000000000E+00 0. -1.
         13    1    3    3    0    0 -0.73722747970E+02  0.46059147555E+01 -0.12235645570E+04  0.12257921860E+04  0.00000000000E+00 0. -1.
        -14    1    3    3    0    0 -0.35588171209E+02 -0.50301014648E+01 -0.13978338643E+03  0.14433022889E+03  0.00000000000E+00 0.  1.
          5    1    4    4  501    0 -0.16189963617E+02  0.46985704799E+01 -0.38285948461E+02  0.42041381234E+02  0.41800000000E+01 0. -1.
         -5    1    4    4    0  501  0.55339671313E+02  0.20993569453E+02  0.76638586056E+02  0.96923446349E+02  0.41800000000E+01 0. -1.
</event>
<event>
11    1  0.8037748E-009  0.1725512E+03  0.7561462E-02  0.1075833E+00
         22   -1    0    0    0    0  0.00000000000E+00  0.00000000000E+00  0.83217055106E+03  0.83217055106E+03  0.00000000000E+00 0.  1.
         22   -1    0    0    0    0 -0.00000000000E+00 -0.00000000000E+00 -0.61550709477E+03  0.61550709477E+03  0.00000000000E+00 0. -1.
        -24    2    1    2    0    0 -0.44191763889E+02 -0.99478227622E+02 -0.55839938433E+03  0.57362797718E+03  0.73419030298E+02 0.  0.
         25    2    1    2    0    0  0.15393360278E+03  0.68812150005E+02  0.23631655465E+03  0.31610585783E+03  0.12508690299E+03 0.  0.
         24    2    1    2    0    0 -0.10974183889E+03  0.30666077617E+02  0.53874628597E+03  0.55794381083E+03  0.89833489749E+02 0.  0.
        -13    1    5    5    0    0 -0.59545777006E+02  0.61385586379E+02  0.34606801745E+03  0.35647855823E+03  0.00000000000E+00 0.  1.
         14    1    5    5    0    0 -0.50196061883E+02 -0.30719508762E+02  0.19267826852E+03  0.20146525260E+03  0.00000000000E+00 0. -1.
         13    1    3    3    0    0 -0.61109637800E+02 -0.95994623371E+02 -0.47258655397E+03  0.48609403055E+03  0.00000000000E+00 0. -1.
        -14    1    3    3    0    0  0.16917873911E+02 -0.34836042508E+01 -0.85812830366E+02  0.87533946624E+02  0.00000000000E+00 0.  1.
          5    1    4    4  501    0  0.15992832855E+03  0.89732107482E+02  0.18652840513E+03  0.26160894424E+03  0.41800000000E+01 0.  1.
         -5    1    4    4    0  501 -0.59947257749E+01 -0.20919957477E+02  0.49788149520E+02  0.54496913588E+02  0.41800000000E+01 0.  1.
</event>
<event>
11    1  0.8037748E-009  0.1443081E+03  0.7561462E-02  0.1102841E+00
         22   -1    0    0    0    0  0.00000000000E+00  0.00000000000E+00  0.12617215322E+04  0.12617215322E+04  0.00000000000E+00 0. -1.
         22   -1    0    0    0    0 -0.00000000000E+00 -0.00000000000E+00 -0.85534601039E+02  0.85534601039E+02  0.00000000000E+00 0. -1.
         24    2    1    2    0    0 -0.69684410322E+02  0.18314861027E+02 -0.15133963740E+02  0.10957904312E+03  0.81161435767E+02 0.  0.
         25    2    1    2    0    0  0.69631622148E+02 -0.16131099211E+02  0.21920866975E+03  0.26231446320E+03  0.12509061333E+03 0.  0.
        -24    2    1    2    0    0  0.52788174529E-01 -0.21837618156E+01  0.97211222518E+03  0.97536262696E+03  0.79531780547E+02 0.  0.
        -13    1    3    3    0    0 -0.38473074564E+02  0.42065173829E+02  0.16329073541E+02  0.59298355444E+02  0.00000000000E+00 0.  1.
         14    1    3    3    0    0 -0.31211335758E+02 -0.23750312802E+02 -0.31463037282E+02  0.50280687674E+02  0.00000000000E+00 0. -1.
         13    1    5    5    0    0  0.32622053875E+02 -0.19844542233E+02  0.33396083204E+03  0.33613664126E+03  0.00000000000E+00 0. -1.
        -14    1    5    5    0    0 -0.32569265701E+02  0.17660780418E+02  0.63815139314E+03  0.63922598570E+03  0.00000000000E+00 0.  1.
          5    1    4    4  501    0  0.49428449133E+02 -0.56932437875E+02  0.19800751335E+03  0.21191725227E+03  0.41800000000E+01 0.  1.
         -5    1    4    4    0  501  0.20203173014E+02  0.40801338664E+02  0.21201156406E+02  0.50397210931E+02  0.41800000000E+01 0.  1.
</event>
<event>
11    1  0.8037748E-009  0.1486443E+03  0.7561462E-02  0.1098272E+00
         22   -1    0    0    0    0  0.00000000000E+00  0.00000000000E+00  0.36877751010E+03  0.36877751010E+03  0.00000000000E+00 0. -1.
         22   -1    0    0    0    0 -0.00000000000E+00 -0.00000000000E+00 -0.29766380788E+03  0.29766380788E+03  0.00000000000E+00 0. -1.
         24    2    1    2    0    0  0.42645180790E+02 -0.79193109867E+00 -0.20858670347E+03  0.22788223970E+03  0.81256776397E+02 0.  0.
         25    2    1    2    0    0 -0.57581517261E+02 -0.76751598857E+02  0.24268119192E+02  0.15950887317E+03  0.12509076686E+03 0.  0.
        -24    2    1    2    0    0  0.14936336471E+02  0.77543529956E+02  0.25543228649E+03  0.27905020510E+03  0.79920402891E+02 0.  0.
        -11    1    3    3    0    0  0.35132797215E+02 -0.19786364522E+02 -0.35886473214E+02  0.53978260632E+02  0.00000000000E+00 0.  1.
         12    1    3    3    0    0  0.75123835754E+01  0.18994433424E+02 -0.17270023025E+03  0.17390397907E+03  0.00000000000E+00 0. -1.
         13    1    5    5    0    0  0.45459829467E+02  0.56922915225E+02  0.19631970528E+03  0.20939971598E+03  0.00000000000E+00 0. -1.
        -14    1    5    5    0    0 -0.30523492995E+02  0.20620614731E+02  0.59112581214E+02  0.69650489118E+02  0.00000000000E+00 0.  1.
          5    1    4    4  501    0 -0.32045988267E+02 -0.10163417514E+03  0.47500802894E+02  0.11674865994E+03  0.41800000000E+01 0. -1.
         -5    1    4    4    0  501 -0.25535528995E+02  0.24882576287E+02 -0.23232683702E+02  0.42760213233E+02  0.41800000000E+01 0. -1.
</event>
<event>
11    1  0.1324492E-008  0.1787030E+03  0.7561462E-02  0.1070697E+00
         22   -1    0    0    0    0  0.00000000000E+00  0.00000000000E+00  0.11447919510E+04  0.11447919510E+04  0.00000000000E+00 0. -1.
         22   -1    0    0    0    0 -0.00000000000E+00 -0.00000000000E+00 -0.47070553572E+03  0.47070553572E+03  0.00000000000E+00 0. -1.
        -24    2    1    2    0    0 -0.25834344268E+02  0.46021353057E+02 -0.29664941164E+03  0.31350098885E+03  0.86583013937E+02 0.  0.
         25    2    1    2    0    0 -0.88103157071E+02  0.14479944695E+02 -0.12352946339E+03  0.19719418258E+03  0.12511667448E+03 0.  0.
         24    2    1    2    0    0  0.11393750134E+03 -0.60501297752E+02  0.10942652903E+04  0.11048023153E+04  0.80805130074E+02 0.  0.
        -13    1    5    5    0    0  0.84879765843E+01  0.22228015693E+01  0.88074638038E+01  0.12432136259E+02  0.00000000000E+00 0.  1.
         14    1    5    5    0    0  0.10544952475E+03 -0.62724099321E+02  0.10854578265E+04  0.10923701790E+04  0.00000000000E+00 0. -1.
         11    1    3    3    0    0  0.19443868692E+02  0.24396518149E+02 -0.21791566119E+03  0.22013743325E+03  0.00000000000E+00 0. -1.
        -12    1    3    3    0    0 -0.45278212960E+02  0.21624834908E+02 -0.78733750449E+02  0.93363555595E+02  0.00000000000E+00 0.  1.
          5    1    4    4  501    0 -0.51749106503E+02  0.37886671177E+02  0.20598256753E+01  0.64304627816E+02  0.41800000000E+01 0.  1.
         -5    1    4    4    0  501 -0.36354050568E+02 -0.23406726482E+02 -0.12558928907E+03  0.13288955477E+03  0.41800000000E+01 0.  1.
</event>
<event>
11    1  0.8037748E-009  0.1395556E+03  0.7561462E-02  0.1108056E+00
         22   -1    0    0    0    0  0.00000000000E+00  0.00000000000E+00  0.26148559488E+03  0.26148559488E+03  0.00000000000E+00 0.  1.
         22   -1    0    0    0    0 -0.00000000000E+00 -0.00000000000E+00 -0.13237674344E+04  0.13237674344E+04  0.00000000000E+00 0. -1.
         24    2    1    2    0    0 -0.30981227439E+01 -0.66530389244E+02 -0.12336516124E+04  0.12380424688E+04  0.80105946274E+02 0.  0.
         25    2    1    2    0    0  0.60461720576E+02  0.33599936084E+02 -0.36037270908E+01  0.14298722191E+03  0.12509110049E+03 0.  0.
        -24    2    1    2    0    0 -0.57363597832E+02  0.32930453161E+02  0.17497349999E+03  0.20422333859E+03  0.81953945755E+02 0.  0.
        -13    1    3    3    0    0  0.12963557491E+02  0.59078495522E+01 -0.58298349140E+03  0.58315753253E+03  0.00000000000E+00 0.  1.
         14    1    3    3    0    0 -0.16061680235E+02 -0.72438238796E+02 -0.65066812100E+03  0.65488493623E+03  0.00000000000E+00 0. -1.
         11    1    5    5    0    0  0.19883599715E+02  0.42801914326E+01  0.19030404467E+02  0.27853794544E+02  0.00000000000E+00 0. -1.
        -12    1    5    5    0    0 -0.77247197547E+02  0.28650261728E+02  0.15594309552E+03  0.17636954405E+03  0.00000000000E+00 0.  1.
          5    1    4    4  501    0  0.59316983284E+02  0.58881217578E+02  0.39726128275E+02  0.92634442607E+02  0.41800000000E+01 0. -1.
         -5    1    4    4    0  501  0.11447372917E+01 -0.25281281494E+02 -0.43329855366E+02  0.50352779302E+02  0.41800000000E+01 0. -1.
</event>
<event>
11    1  0.8037748E-009  0.1274328E+03  0.7561462E-02  0.1122464E+00
         22   -1    0    0    0    0  0.00000000000E+00  0.00000000000E+00  0.51326610031E+03  0.51326610031E+03  0.00000000000E+00 0.  1.
         22   -1    0    0    0    0 -0.00000000000E+00 -0.00000000000E+00 -0.14627101764E+04  0.14627101764E+04  0.00000000000E+00 0.  1.
        -24    2    1    2    0    0 -0.16745653310E+02  0.17145773394E+02 -0.13642716878E+04  0.13668130424E+04  0.79788848432E+02 0.  0.
         25    2    1    2    0    0  0.22000971519E+02 -0.30859118271E+02 -0.47948760116E+02  0.13922097957E+03  0.12508824736E+03 0.  0.
         24    2    1    2    0    0 -0.52553182087E+01  0.13713344877E+02  0.46277637180E+03  0.46994225474E+03  0.80424363832E+02 0.  0.
        -11    1    5    5    0    0  0.12551277271E+02 -0.24988125622E+02  0.31236663754E+03  0.31361577963E+03  0.00000000000E+00 0.  1.
         12    1    5    5    0    0 -0.17806595480E+02  0.38701470499E+02  0.15040973426E+03  0.15632647512E+03  0.00000000000E+00 0. -1.
         13    1    3    3    0    0 -0.21922547948E+02  0.13391678798E+00 -0.98237189979E+02  0.10065367126E+03  0.00000000000E+00 0. -1.
        -14    1    3    3    0    0  0.51768946378E+01  0.17011856606E+02 -0.12660344978E+04  0.12661593712E+04  0.00000000000E+00 0.  1.
          5    1    4    4  501    0  0.63047982345E+02  0.15857295858E+02 -0.91026378021E+01  0.65778661621E+02  0.41800000000E+01 0. -1.
         -5    1    4    4    0  501 -0.41047010826E+02 -0.46716414129E+02 -0.38846122314E+02  0.73442317949E+02  0.41800000000E+01 0. -1.
</event>
<event>
11    1  0.8037748E-009  0.2018703E+03  0.7561462E-02  0.1053209E+00
         22   -1    0    0    0    0  0.00000000000E+00  0.00000000000E+00  0.74540046582E+03  0.74540046582E+03  0.00000000000E+00 0.  1.
         22   -1    0    0    0    0 -0.00000000000E+00 -0.00000000000E+00 -0.20111568384E+03  0.20111568384E+03  0.00000000000E+00 0.  1.
        -24    2    1    2    0    0  0.55984684944E+02 -0.13836964560E+03 -0.63535889017E+02  0.18034358892E+03  0.78781705359E+02 0.  0.
         25    2    1    2    0    0 -0.71487417102E+02  0.16989942726E+03  0.89387595930E+02  0.24003031145E+03  0.12509253344E+03 0.  0.
         24    2    1    2    0    0  0.15502732158E+02 -0.31529781662E+02  0.51843307506E+03  0.52614224929E+03  0.82573308859E+02 0.  0.
        -11    1    5    5    0    0  0.81278367371E+01 -0.53286672587E+02  0.46314753038E+03  0.46627370300E+03  0.00000000000E+00 0.  1.
         12    1    5    5    0    0  0.73748954210E+01  0.21756890925E+02  0.55285544677E+02  0.59868546294E+02  0.00000000000E+00 0. -1.
         13    1    3    3    0    0  0.25841695786E+02 -0.23931447101E+02 -0.50100541826E+02  0.61241911243E+02  0.00000000000E+00 0. -1.
        -14    1    3    3    0    0  0.30142989157E+02 -0.11443819850E+03 -0.13435347191E+02  0.11910167767E+03  0.00000000000E+00 0.  1.
          5    1    4    4  501    0 -0.88950543685E+02  0.17992741291E+03  0.72598198390E+02  0.21348078121E+03  0.41800000000E+01 0.  1.
         -5    1    4    4    0  501  0.17463126584E+02 -0.10027985647E+02  0.16789397540E+02  0.26549530240E+02  0.41800000000E+01 0.  1.
</event>
<event>
11    1  0.8037748E-009  0.1575599E+03  0.7561462E-02  0.1089395E+00
         22   -1    0    0    0    0  0.00000000000E+00  0.00000000000E+00  0.13638596442E+04  0.13638596442E+04  0.00000000000E+00 0. -1.
         22   -1    0    0    0    0 -0.00000000000E+00 -0.00000000000E+00 -0.42586343723E+03  0.42586343723E+03  0.00000000000E+00 0. -1.
        -24    2    1    2    0    0 -0.26538846619E+02  0.26824849064E+02 -0.38011031253E+03  0.38785555886E+03  0.67262188006E+02 0.  0.
         25    2    1    2    0    0 -0.70308217373E+02 -0.10901737333E+02  0.95365603365E+02  0.17264011205E+03  0.12509163311E+03 0.  0.
         24    2    1    2    0    0  0.96847063993E+02 -0.15923111731E+02  0.12227409161E+04  0.12292274105E+04  0.79194567448E+02 0.  0.
        -13    1    5    5    0    0  0.10409624100E+02 -0.20322612809E+02  0.79472872259E+02  0.82688005722E+02  0.00000000000E+00 0.  1.
         14    1    5    5    0    0  0.86437439893E+02  0.43995010779E+01  0.11432680439E+04  0.11465394048E+04  0.00000000000E+00 0. -1.
         13    1    3    3    0    0  0.14484314510E+02  0.20213043891E+01 -0.22573503989E+03  0.22620828737E+03  0.00000000000E+00 0. -1.
        -14    1    3    3    0    0 -0.41023161129E+02  0.24803544675E+02 -0.15437527264E+03  0.16164727149E+03  0.00000000000E+00 0.  1.
          5    1    4    4  501    0  0.23104025112E+02  0.33081167984E+02  0.25979529969E+02  0.48172274484E+02  0.41800000000E+01 0. -1.
         -5    1    4    4    0  501 -0.93412242485E+02 -0.43982905317E+02  0.69386073396E+02  0.12446783756E+03  0.41800000000E+01 0. -1.
</event>
<event>
11    1  0.8037748E-009  0.1785627E+03  0.7561462E-02  0.1070811E+00
         22   -1    0    0    0    0  0.00000000000E+00  0.00000000000E+00  0.81413271453E+02  0.81413271453E+02  0.00000000000E+00 0. -1.
         22   -1    0    0    0    0 -0.00000000000E+00 -0.00000000000E+00 -0.10555098618E+04  0.10555098618E+04  0.00000000000E+00 0.  1.
        -24    2    1    2    0    0 -0.72189329855E+02  0.81475295800E+02 -0.47923764684E+03  0.49802169277E+03  0.80668216436E+02 0.  0.
         25    2    1    2    0    0  0.17311721112E+03 -0.82624736898E+02 -0.44521133391E+03  0.50065699818E+03  0.12509149476E+03 0.  0.
         24    2    1    2    0    0 -0.10092788126E+03  0.11494410980E+01 -0.49647609552E+02  0.13824444226E+03  0.80367171471E+02 0.  0.
        -11    1    5    5    0    0  0.93287407669E+01  0.22277480692E+01  0.91753814937E+01  0.13273126659E+02  0.00000000000E+00 0.  1.
         12    1    5    5    0    0 -0.11025662203E+03 -0.10783069712E+01 -0.58822991046E+02  0.12497131560E+03  0.00000000000E+00 0. -1.
         11    1    3    3    0    0 -0.22775808191E+02 -0.61830850873E+01 -0.32947209707E+02  0.40527603031E+02  0.00000000000E+00 0. -1.
        -12    1    3    3    0    0 -0.49413521664E+02  0.87658380887E+02 -0.44629043714E+03  0.45749408974E+03  0.00000000000E+00 0.  1.
          5    1    4    4  501    0  0.13598339075E+03 -0.85264839392E+02 -0.22003942328E+03  0.27239015326E+03  0.41800000000E+01 0.  1.
         -5    1    4    4    0  501  0.37133820368E+02  0.26401024941E+01 -0.22517191063E+03  0.22826684492E+03  0.41800000000E+01 0.  1.
</event>
<event>
11    1  0.8037748E-009  0.1318158E+03  0.7561462E-02  0.1117058E+00
         22   -1    0    0    0    0  0.00000000000E+00  0.00000000000E+00  0.47373005935E+03  0.47373005935E+03  0.00000000000E+00 0. -1.
         22   -1    0    0    0    0 -0.00000000000E+00 -0.00000000000E+00 -0.34869827848E+03  0.34869827848E+03  0.00000000000E+00 0.  1.
        -24    2    1    2    0    0  0.40153565815E+02 -0.14001690016E+02 -0.30884817330E+03  0.32212739689E+03  0.81058679399E+02 0.  0.
         25    2    1    2    0    0 -0.21813350497E+02 -0.48829687260E+00  0.11860035557E+03  0.17375195133E+03  0.12509050945E+03 0.  0.
         24    2    1    2    0    0 -0.18340215318E+02  0.14489986889E+02  0.31527959860E+03  0.32654898961E+03  0.81772208644E+02 0.  0.
        -13    1    5    5    0    0 -0.11602337541E+02 -0.27961362112E+02  0.55334900422E+02  0.63074584519E+02  0.00000000000E+00 0.  1.
         14    1    5    5    0    0 -0.67378777765E+01  0.42451349001E+02  0.25994469817E+03  0.26347440509E+03  0.00000000000E+00 0. -1.
         13    1    3    3    0    0  0.62994744450E+02  0.29180064278E+01 -0.20796964318E+03  0.21732055833E+03  0.00000000000E+00 0. -1.
        -14    1    3    3    0    0 -0.22841178635E+02 -0.16919696444E+02 -0.10087853012E+03  0.10480683856E+03  0.00000000000E+00 0.  1.
          5    1    4    4  501    0 -0.19121390089E+02  0.60930985856E+02  0.47713329225E+02  0.79826353932E+02  0.41800000000E+01 0. -1.
         -5    1    4    4    0  501 -0.26919604079E+01 -0.61419282729E+02  0.70887026346E+02  0.93925597395E+02  0.41800000000E+01 0. -1.
</event>
<event>
11    1  0.8037748E-009  0.1456466E+03  0.7561462E-02  0.1101412E+00
         22   -1    0    0    0    0  0.00000000000E+00  0.00000000000E+00  0.18303487942E+03  0.18303487942E+03  0.00000000000E+00 0.  1.
         22   -1    0    0    0    0 -0.00000000000E+00 -0.00000000000E+00 -0.13769145461E+04  0.13769145461E+04  0.00000000000E+00 0. -1.
        -24    2    1    2    0    0  0.24448385350E+02 -0.64716649254E+02 -0.80803625412E+03  0.81491514700E+03  0.79863261885E+02 0.  0.
         25    2    1    2    0    0 -0.56351819615E+02  0.76047665871E+02 -0.54283630051E+03  0.56504616170E+03  0.12508853121E+03 0.  0.
         24    2    1    2    0    0  0.31903434265E+02 -0.11331016617E+02  0.15699288798E+03  0.17998811680E+03  0.81257210506E+02 0.  0.
        -13    1    5    5    0    0  0.31738482963E+02 -0.15155808797E+01  0.16455605884E+03  0.16759571828E+03  0.00000000000E+00 0.  1.
         14    1    5    5    0    0  0.16495130257E+00 -0.98154357372E+01 -0.75631708603E+01  0.12392398521E+02  0.00000000000E+00 0. -1.
         11    1    3    3    0    0  0.25992201555E+02 -0.82518080679E+02 -0.71134785510E+03  0.71658956114E+03  0.00000000000E+00 0. -1.
        -12    1    3    3    0    0 -0.15438162058E+01  0.17801431425E+02 -0.96688399020E+02  0.98325585857E+02  0.00000000000E+00 0.  1.
          5    1    4    4  501    0  0.10639282279E+02  0.61309660866E+02 -0.10718986414E+03  0.12401293568E+03  0.41800000000E+01 0. -1.
         -5    1    4    4    0  501 -0.66991101894E+02  0.14738005005E+02 -0.43564643638E+03  0.44103322602E+03  0.41800000000E+01 0. -1.
</event>
<event>
11    1  0.8037748E-009  0.1508160E+03  0.7561462E-02  0.1096048E+00
         22   -1    0    0    0    0  0.00000000000E+00  0.00000000000E+00  0.63161435417E+03  0.63161435417E+03  0.00000000000E+00 0.  1.
         22   -1    0    0    0    0 -0.00000000000E+00 -0.00000000000E+00 -0.32952892497E+03  0.32952892497E+03  0.00000000000E+00 0. -1.
        -24    2    1    2    0    0  0.29518949718E+02  0.79383137282E+02 -0.16989745657E+03  0.20598257067E+03  0.79941370991E+02 0.  0.
         25    2    1    2    0    0 -0.60496152762E+02 -0.64061484394E+02 -0.95965436542E+02  0.18060784944E+03  0.12508465928E+03 0.  0.
         24    2    1    2    0    0  0.30977203045E+02 -0.15321652888E+02  0.56794832230E+03  0.57455285902E+03  0.79695362741E+02 0.  0.
        -13    1    5    5    0    0  0.39036450849E+01  0.13890085600E+02  0.44665099062E+03  0.44688396742E+03  0.00000000000E+00 0.  1.
         14    1    5    5    0    0  0.27073557960E+02 -0.29211738489E+02  0.12129733169E+03  0.12766889160E+03  0.00000000000E+00 0. -1.
         13    1    3    3    0    0  0.49647067991E+02  0.75876692615E+02 -0.10920295487E+03  0.14194149920E+03  0.00000000000E+00 0. -1.
        -14    1    3    3    0    0 -0.20128118273E+02  0.35064446678E+01 -0.60694501698E+02  0.64041071475E+02  0.00000000000E+00 0.  1.
          5    1    4    4  501    0 -0.97952890594E+01 -0.52932976479E+02  0.16676756177E+02  0.56510479411E+02  0.41800000000E+01 0.  1.
         -5    1    4    4    0  501 -0.50700863703E+02 -0.11128507915E+02 -0.11264219272E+03  0.12409737003E+03  0.41800000000E+01 0.  1.
</event>
<event>
11    1  0.8037748E-009  0.1254828E+03  0.7561462E-02  0.1124947E+00
         22   -1    0    0    0    0  0.00000000000E+00  0.00000000000E+00  0.85852239638E+03  0.85852239638E+03  0.00000000000E+00 0. -1.
         22   -1    0    0    0    0 -0.00000000000E+00 -0.00000000000E+00 -0.36856755161E+03  0.36856755161E+03  0.00000000000E+00 0. -1.
        -24    2    1    2    0    0  0.14941663487E+00  0.10823646854E+02 -0.30769490800E+03  0.31915411482E+03  0.84059615398E+02 0.  0.
         25    2    1    2    0    0  0.24794621185E+02  0.41760862039E+01  0.24108666401E+02  0.12985044814E+03  0.12509075965E+03 0.  0.
         24    2    1    2    0    0 -0.24944037820E+02 -0.14999733058E+02  0.77354108637E+03  0.77808538503E+03  0.78764567394E+02 0.  0.
        -11    1    5    5    0    0 -0.46519456376E+02 -0.31283005644E+02  0.46635195600E+03  0.46970930705E+03  0.00000000000E+00 0.  1.
         12    1    5    5    0    0  0.21575418556E+02  0.16283272586E+02  0.30718913037E+03  0.30837607798E+03  0.00000000000E+00 0. -1.
         11    1    3    3    0    0  0.20479812406E+02 -0.43069645923E+01 -0.28298782931E+03  0.28376061072E+03  0.00000000000E+00 0. -1.
        -12    1    3    3    0    0 -0.20330395771E+02  0.15130611447E+02 -0.24707078694E+02  0.35393504101E+02  0.00000000000E+00 0.  1.
          5    1    4    4  501    0  0.99227070311E+01  0.48311266974E+02 -0.30358018192E+02  0.58064793980E+02  0.41800000000E+01 0.  1.
         -5    1    4    4    0  501  0.14871914154E+02 -0.44135180770E+02  0.54466684593E+02  0.71785654157E+02  0.41800000000E+01 0.  1.
</event>
<event>
11    1  0.8037748E-009  0.1747904E+03  0.7561462E-02  0.1073937E+00
         22   -1    0    0    0    0  0.00000000000E+00  0.00000000000E+00  0.49820866135E+03  0.49820866135E+03  0.00000000000E+00 0.  1.
         22   -1    0    0    0    0 -0.00000000000E+00 -0.00000000000E+00 -0.48751549983E+03  0.48751549983E+03  0.00000000000E+00 0. -1.
        -24    2    1    2    0    0 -0.10712630956E+02  0.54398998357E+02 -0.33135081194E+03  0.34564134807E+03  0.81243888640E+02 0.  0.
         25    2    1    2    0    0  0.13182161901E+03 -0.54093176060E+02 -0.70725243203E+02  0.20236932636E+03  0.12509305852E+03 0.  0.
         24    2    1    2    0    0 -0.12110898805E+03 -0.30582229650E+00  0.41276921667E+03  0.43771348675E+03  0.80914706574E+02 0.  0.
        -13    1    5    5    0    0 -0.12329238293E+03  0.14637795118E+02  0.39663667093E+03  0.41561511698E+03  0.00000000000E+00 0.  1.
         14    1    5    5    0    0  0.21833948748E+01 -0.14943617415E+02  0.16132545738E+02  0.22098369773E+02  0.00000000000E+00 0. -1.
         13    1    3    3    0    0  0.19467143891E+02  0.77960418046E+01 -0.22213850056E+03  0.22312611096E+03  0.00000000000E+00 0. -1.
        -14    1    3    3    0    0 -0.30179774847E+02  0.46602956552E+02 -0.10921231137E+03  0.12251523711E+03  0.00000000000E+00 0.  1.
          5    1    4    4  501    0  0.13814841248E+03 -0.73202087828E+02 -0.84359471490E+02  0.17770065380E+03  0.41800000000E+01 0.  1.
         -5    1    4    4    0  501 -0.63267934703E+01  0.19108911768E+02  0.13634228287E+02  0.24668672554E+02  0.41800000000E+01 0.  1.
</event>
<event>
11    1  0.8037748E-009  0.1789905E+03  0.7561462E-02  0.1070462E+00
         22   -1    0    0    0    0  0.00000000000E+00  0.00000000000E+00  0.28643329651E+03  0.28643329651E+03  0.00000000000E+00 0.  1.
         22   -1    0    0    0    0 -0.00000000000E+00 -0.00000000000E+00 -0.10747334033E+04  0.10747334033E+04  0.00000000000E+00 0.  1.
         24    2    1    2    0    0  0.12430047111E+03 -0.22226004564E+02 -0.88310843003E+03  0.89568055510E+03  0.80115886073E+02 0.  0.
         25    2    1    2    0    0 -0.14172287811E+03  0.14455893034E+02 -0.12729897904E+03  0.22835698756E+03  0.12509011424E+03 0.  0.
        -24    2    1    2    0    0  0.17422406999E+02  0.77701115299E+01  0.22210730229E+03  0.23712915713E+03  0.80837296664E+02 0.  0.
        -11    1    3    3    0    0  0.61057798192E+02  0.10526950423E+02 -0.62050200166E+03  0.62358768868E+03  0.00000000000E+00 0.  1.
         12    1    3    3    0    0  0.63242672920E+02 -0.32752954987E+02 -0.26260642837E+03  0.27209286642E+03  0.00000000000E+00 0. -1.
         11    1    5    5    0    0  0.88290326391E+01 -0.27073136387E+02  0.28735185482E+02  0.40455128425E+02  0.00000000000E+00 0. -1.
        -12    1    5    5    0    0  0.85933743598E+01  0.34843247917E+02  0.19337211681E+03  0.19667402871E+03  0.00000000000E+00 0.  1.
          5    1    4    4  501    0 -0.15090222085E+03  0.13518940143E+00 -0.66272846236E+02  0.16486679800E+03  0.41800000000E+01 0. -1.
         -5    1    4    4    0  501  0.91793427398E+01  0.14320703633E+02 -0.61026132808E+02  0.63490189566E+02  0.41800000000E+01 0. -1.
</event>
<event>
11    1  0.8468597E-009  0.1641888E+03  0.7561462E-02  0.1083202E+00
         22   -1    0    0    0    0  0.00000000000E+00  0.00000000000E+00  0.10033013909E+04  0.10033013909E+04  0.00000000000E+00 0.  1.
         22   -1    0    0    0    0 -0.00000000000E+00 -0.00000000000E+00 -0.10583013266E+04  0.10583013266E+04  0.00000000000E+00 0. -1.
         24    2    1    2    0    0  0.35429868362E+02  0.12201322473E+02 -0.86208692382E+03  0.86674060211E+03  0.81493921775E+02 0.  0.
         25    2    1    2    0    0  0.28331688066E+02  0.74032323382E+02 -0.15919777994E+03  0.21742337124E+03  0.12508205214E+03 0.  0.
        -24    2    1    2    0    0 -0.63761556427E+02 -0.86233645855E+02  0.96628476800E+03  0.97743874412E+03  0.10088839314E+03 0.  0.
        -13    1    3    3    0    0  0.39777508183E+02  0.42991619759E+02 -0.55241050401E+03  0.55550688066E+03  0.00000000000E+00 0.  1.
         14    1    3    3    0    0 -0.43476398212E+01 -0.30790297285E+02 -0.30967641981E+03  0.31123372145E+03  0.00000000000E+00 0. -1.
         13    1    5    5    0    0  0.15481456594E+02 -0.43201780728E+02  0.17074383692E+03  0.17680364024E+03  0.00000000000E+00 0. -1.
        -14    1    5    5    0    0 -0.79243013021E+02 -0.43031865127E+02  0.79554093109E+03  0.80063510388E+03  0.00000000000E+00 0.  1.
          5    1    4    4  501    0  0.37723067869E+02  0.71863847367E+02 -0.28228651218E+02  0.86033549023E+02  0.41800000000E+01 0.  1.
         -5    1    4    4    0  501 -0.93913798039E+01  0.21684760144E+01 -0.13096912872E+03  0.13138982222E+03  0.41800000000E+01 0.  1.
</event>
<event>
11    1  0.8037748E-009  0.1328330E+03  0.7561462E-02  0.1115836E+00
         22   -1    0    0    0    0  0.00000000000E+00  0.00000000000E+00  0.83637395770E+03  0.83637395770E+03  0.00000000000E+00 0.  1.
         22   -1    0    0    0    0 -0.00000000000E+00 -0.00000000000E+00 -0.20754884319E+04  0.20754884319E+04  0.00000000000E+00 0. -1.
         24    2    1    2    0    0 -0.39805678834E+02  0.17644391874E+02 -0.19029664691E+04  0.19051541144E+04  0.80218455116E+02 0.  0.
         25    2    1    2    0    0  0.79193099626E+02 -0.16642837841E+02 -0.13614389312E+03  0.20181906628E+03  0.12508894756E+03 0.  0.
        -24    2    1    2    0    0 -0.39387420792E+02 -0.10015540333E+01  0.79999588801E+03  0.80488920890E+03  0.79377866880E+02 0.  0.
        -13    1    3    3    0    0  0.13898299904E+02  0.13342602708E+02 -0.11896297227E+04  0.11897857223E+04  0.00000000000E+00 0.  1.
         14    1    3    3    0    0 -0.53703978738E+02  0.43017891665E+01 -0.71333674637E+03  0.71536839212E+03  0.00000000000E+00 0. -1.
         13    1    5    5    0    0  0.52733257332E+01  0.31610284960E+02  0.23100870431E+03  0.23322101009E+03  0.00000000000E+00 0. -1.
        -14    1    5    5    0    0 -0.44660746526E+02 -0.32611838994E+02  0.56898718370E+03  0.57166819882E+03  0.00000000000E+00 0.  1.
          5    1    4    4  501    0  0.93183820417E+02  0.75110147976E+01 -0.14470288265E+03  0.17232537938E+03  0.41800000000E+01 0. -1.
         -5    1    4    4    0  501 -0.13990720791E+02 -0.24153852639E+02  0.85589895257E+01  0.29493686905E+02  0.41800000000E+01 0. -1.
</event>
<event>
11    1  0.8037748E-009  0.1654391E+03  0.7561462E-02  0.1082070E+00
         22   -1    0    0    0    0  0.00000000000E+00  0.00000000000E+00  0.25727974406E+04  0.25727974406E+04  0.00000000000E+00 0. -1.
         22   -1    0    0    0    0 -0.00000000000E+00 -0.00000000000E+00 -0.25360375124E+03  0.25360375124E+03  0.00000000000E+00 0.  1.
         24    2    1    2    0    0 -0.10199158286E+03  0.35738786626E+02 -0.21201194198E+03  0.25090738414E+03  0.79535577143E+02 0.  0.
         25    2    1    2    0    0  0.12185355085E+03  0.11053808893E+02  0.34128321482E+03  0.38352647799E+03  0.12509137483E+03 0.  0.
        -24    2    1    2    0    0 -0.19861967988E+02 -0.46792595520E+02  0.21899224165E+04  0.21919673297E+04  0.79853236568E+02 0.  0.
        -13    1    3    3    0    0 -0.10286765817E+03  0.34815137330E+02 -0.13220659283E+03  0.17109188195E+03  0.00000000000E+00 0.  1.
         14    1    3    3    0    0  0.87607530801E+00  0.92364929597E+00 -0.79805349153E+02  0.79815502187E+02  0.00000000000E+00 0. -1.
         11    1    5    5    0    0 -0.29337055535E+02  0.26956005722E+01  0.14648670779E+04  0.14651632964E+04  0.00000000000E+00 0. -1.
        -12    1    5    5    0    0  0.94750875476E+01 -0.49488196092E+02  0.72505533863E+03  0.72680403336E+03  0.00000000000E+00 0.  1.
          5    1    4    4  501    0  0.13292984817E+03  0.27335195982E+02  0.20578506673E+03  0.24654111942E+03  0.41800000000E+01 0. -1.
         -5    1    4    4    0  501 -0.11076297323E+02 -0.16281387089E+02  0.13549814809E+03  0.13698535857E+03  0.41800000000E+01 0. -1.
</event>
<event>
11    1  0.8037748E-009  0.1683098E+03  0.7561462E-02  0.1079512E+00
         22   -1    0    0    0    0  0.00000000000E+00  0.00000000000E+00  0.55454260815E+03  0.55454260815E+03  0.00000000000E+00 0. -1.
         22   -1    0    0    0    0 -0.00000000000E+00 -0.00000000000E+00 -0.66112673965E+03  0.66112673965E+03  0.00000000000E+00 0.  1.
         24    2    1    2    0    0  0.17684275283E+02  0.42393558566E+02 -0.48865720307E+03  0.49752138137E+03  0.81435344937E+02 0.  0.
         25    2    1    2    0    0  0.24801458963E+02 -0.14469307881E+03 -0.99928676894E+02  0.21721965055E+03  0.12508971460E+03 0.  0.
        -24    2    1    2    0    0 -0.42485734246E+02  0.10229952024E+03  0.48200174847E+03  0.50092831587E+03  0.79581798520E+02 0.  0.
        -13    1    3    3    0    0  0.31868762080E+02 -0.13460627775E+02 -0.22463785246E+03  0.22728610000E+03  0.00000000000E+00 0.  1.
         14    1    3    3    0    0 -0.14184486797E+02  0.55854186341E+02 -0.26401935061E+03  0.27023528137E+03  0.00000000000E+00 0. -1.
         11    1    5    5    0    0 -0.53542092810E+02  0.64031145590E+02  0.41215201426E+03  0.42051875840E+03  0.00000000000E+00 0. -1.
        -12    1    5    5    0    0  0.11056358564E+02  0.38268374653E+02  0.69849734212E+02  0.80409557471E+02  0.00000000000E+00 0.  1.
          5    1    4    4  501    0 -0.50827037861E+02 -0.68850002230E+02 -0.44133211324E+02  0.96379060623E+02  0.41800000000E+01 0. -1.
         -5    1    4    4    0  501  0.75628496824E+02 -0.75843076579E+02 -0.55795465570E+02  0.12084058993E+03  0.41800000000E+01 0. -1.
</event>
<event>
11    1  0.8037748E-009  0.1448948E+03  0.7561462E-02  0.1102212E+00
         22   -1    0    0    0    0  0.00000000000E+00  0.00000000000E+00  0.19792984430E+04  0.19792984430E+04  0.00000000000E+00 0.  1.
         22   -1    0    0    0    0 -0.00000000000E+00 -0.00000000000E+00 -0.10186576916E+03  0.10186576916E+03  0.00000000000E+00 0.  1.
         24    2    1    2    0    0  0.37955488027E+02  0.38359852302E+02 -0.41205988098E+02  0.11266142227E+03  0.89903088221E+02 0.  0.
         25    2    1    2    0    0 -0.96623463648E+02 -0.75502534630E+02  0.30766993272E+03  0.35404024477E+03  0.12508789293E+03 0.  0.
        -24    2    1    2    0    0  0.58667975621E+02  0.37142682328E+02  0.16109687292E+04  0.16144625451E+04  0.80296655261E+02 0.  0.
        -11    1    3    3    0    0  0.64616408911E+02  0.41282269114E+02 -0.38219114164E+02  0.85675006455E+02  0.00000000000E+00 0.  1.
         12    1    3    3    0    0 -0.26660920883E+02 -0.29224168114E+01 -0.29868739346E+01  0.26986415810E+02  0.00000000000E+00 0. -1.
         11    1    5    5    0    0  0.34754718754E+02  0.16509635406E+02  0.23482245211E+03  0.23795386643E+03  0.00000000000E+00 0. -1.
        -12    1    5    5    0    0  0.23913256867E+02  0.20633046922E+02  0.13761462771E+04  0.13765086787E+04  0.00000000000E+00 0.  1.
          5    1    4    4  501    0 -0.26796550462E+02 -0.14424372212E+02  0.23262293083E+03  0.23464231924E+03  0.41800000000E+01 0. -1.
         -5    1    4    4    0  501 -0.69826913187E+02 -0.61078162418E+02  0.75047001889E+02  0.11939792554E+03  0.41800000000E+01 0. -1.
</event>
<event>
11    1  0.8037748E-009  0.1615416E+03  0.7561462E-02  0.1085636E+00
         22   -1    0    0    0    0  0.00000000000E+00  0.00000000000E+00  0.66603387380E+03  0.66603387380E+03  0.00000000000E+00 0.  1.
         22   -1    0    0    0    0 -0.00000000000E+00 -0.00000000000E+00 -0.24798252665E+03  0.24798252665E+03  0.00000000000E+00 0. -1.
        -24    2    1    2    0    0  0.50336170849E+01 -0.35360024901E+02 -0.20418013640E+03  0.22224115652E+03  0.80161929154E+02 0.  0.
         25    2    1    2    0    0  0.29193547846E+02 -0.73477488502E+02  0.21465618157E+03  0.26072288555E+03  0.12509173519E+03 0.  0.
         24    2    1    2    0    0 -0.34227164931E+02  0.10883751340E+03  0.40757530199E+03  0.43105235838E+03  0.81678673657E+02 0.  0.
        -13    1    5    5    0    0 -0.54598714936E+02  0.10409805114E+03  0.36758827744E+03  0.38592559598E+03  0.00000000000E+00 0.  1.
         14    1    5    5    0    0  0.20371550005E+02  0.47394622663E+01  0.39987024548E+02  0.45126762396E+02  0.00000000000E+00 0. -1.
         13    1    3    3    0    0  0.61089896437E+01 -0.18428354777E+02 -0.20435431691E+03  0.20527447687E+03  0.00000000000E+00 0. -1.
        -14    1    3    3    0    0 -0.10753725587E+01 -0.16931670124E+02  0.17418050773E+00  0.16966679645E+02  0.00000000000E+00 0.  1.
          5    1    4    4  501    0  0.20319863421E+02  0.30289925509E+02  0.25334768165E+02  0.44606045720E+02  0.41800000000E+01 0.  1.
         -5    1    4    4    0  501  0.88736844257E+01 -0.10376741401E+03  0.18932141340E+03  0.21611683983E+03  0.41800000000E+01 0.  1.
</event>
<event>
11    1  0.8037748E-009  0.2424210E+03  0.7561462E-02  0.1028016E+00
         22   -1    0    0    0    0  0.00000000000E+00  0.00000000000E+00  0.10129011040E+04  0.10129011040E+04  0.00000000000E+00 0.  1.
         22   -1    0    0    0    0 -0.00000000000E+00 -0.00000000000E+00 -0.33193825978E+03  0.33193825978E+03  0.00000000000E+00 0.  1.
        -24    2    1    2    0    0  0.24368790160E+02  0.21928264330E+02 -0.22920649772E+03  0.24634472245E+03  0.84115497810E+02 0.  0.
         25    2    1    2    0    0 -0.19288105231E+03  0.97295567339E+02  0.11817447403E+03  0.27619545950E+03  0.12509675364E+03 0.  0.
         24    2    1    2    0    0  0.16851226215E+03 -0.11922383167E+03  0.79199486795E+03  0.82229918186E+03  0.79431537162E+02 0.  0.
        -11    1    5    5    0    0  0.13474341190E+03 -0.10984381805E+03  0.52547453921E+03  0.55348436543E+03  0.00000000000E+00 0.  1.
         12    1    5    5    0    0  0.33768850250E+02 -0.93800136227E+01  0.26652032874E+03  0.26881481643E+03  0.00000000000E+00 0. -1.
         11    1    3    3    0    0  0.13062492486E+01  0.89899247937E+00 -0.20934339284E+03  0.20934939838E+03  0.00000000000E+00 0. -1.
        -12    1    3    3    0    0  0.23062540912E+02  0.21029271850E+02 -0.19863104879E+02  0.36995324073E+02  0.00000000000E+00 0.  1.
          5    1    4    4  501    0 -0.15180931905E+03  0.22388933769E+02  0.36186117549E+02  0.15771569741E+03  0.41800000000E+01 0.  1.
         -5    1    4    4    0  501 -0.41071733256E+02  0.74906633570E+02  0.81988356480E+02  0.11847976209E+03  0.41800000000E+01 0.  1.
</event>
<event>
11    1  0.8037748E-009  0.1545582E+03  0.7561462E-02  0.1092310E+00
         22   -1    0    0    0    0  0.00000000000E+00  0.00000000000E+00  0.10264819632E+04  0.10264819632E+04  0.00000000000E+00 0.  1.
         22   -1    0    0    0    0 -0.00000000000E+00 -0.00000000000E+00 -0.10042680541E+04  0.10042680541E+04  0.00000000000E+00 0. -1.
         24    2    1    2    0    0  0.51475356093E+02  0.74778887279E+02 -0.97963214675E+03  0.98737134454E+03  0.83554980702E+02 0.  0.
         25    2    1    2    0    0  0.14731099288E+02 -0.11931642226E+03  0.51269633574E+03  0.54125629037E+03  0.12508966895E+03 0.  0.
        -24    2    1    2    0    0 -0.66206455380E+02  0.44537534980E+02  0.48914972018E+03  0.50212238238E+03  0.80576369871E+02 0.  0.
        -13    1    3    3    0    0 -0.55920315308E+01  0.45672344225E+01 -0.55775632862E+01  0.91235771013E+01  0.00000000000E+00 0.  1.
         14    1    3    3    0    0  0.57067387624E+02  0.70211652856E+02 -0.97405458346E+03  0.97824776744E+03  0.00000000000E+00 0. -1.
         11    1    5    5    0    0 -0.86961513232E+00  0.24046847192E+02  0.32886751695E+02  0.40749791746E+02  0.00000000000E+00 0. -1.
        -12    1    5    5    0    0 -0.65336840248E+02  0.20490687789E+02  0.45626296849E+03  0.46137259064E+03  0.00000000000E+00 0.  1.
          5    1    4    4  501    0  0.67961163814E+02 -0.78957618515E+02  0.26785140158E+03  0.28742802758E+03  0.41800000000E+01 0.  1.
         -5    1    4    4    0  501 -0.53230064527E+02 -0.40358803744E+02  0.24484493416E+03  0.25382826280E+03  0.41800000000E+01 0.  1.
</event>
<event>
11    1  0.8037748E-009  0.1358299E+03  0.7561462E-02  0.1112306E+00
         22   -1    0    0    0    0  0.00000000000E+00  0.00000000000E+00  0.50960190531E+03  0.50960190531E+03  0.00000000000E+00 0.  1.
         22   -1    0    0    0    0 -0.00000000000E+00 -0.00000000000E+00 -0.11942097405E+03  0.11942097405E+03  0.00000000000E+00 0.  1.
         24    2    1    2    0    0 -0.50523494824E+02 -0.11389973664E+02 -0.59761523088E+02  0.11292109571E+03  0.80606322245E+02 0.  0.
         25    2    1    2    0    0  0.49781274519E+02  0.49311409916E+02  0.16832844580E+03  0.22112475605E+03  0.12510756024E+03 0.  0.
        -24    2    1    2    0    0  0.74222030452E+00 -0.37921436251E+02  0.28161400855E+03  0.29497702760E+03  0.79160664362E+02 0.  0.
        -13    1    3    3    0    0 -0.64997366187E+02  0.17196365334E+01 -0.65775218322E+02  0.92487805176E+02  0.00000000000E+00 0.  1.
         14    1    3    3    0    0  0.14473871363E+02 -0.13109610198E+02  0.60136952340E+01  0.20433290536E+02  0.00000000000E+00 0. -1.
         11    1    5    5    0    0  0.27829599589E+02 -0.37575104487E+02  0.89652772239E+02  0.10111377088E+03  0.00000000000E+00 0. -1.
        -12    1    5    5    0    0 -0.27087379284E+02 -0.34633176469E+00  0.19196123631E+03  0.19386325673E+03  0.00000000000E+00 0.  1.
          5    1    4    4  501    0 -0.41208518485E+02  0.89650182419E+01  0.36797366486E+02  0.56125147021E+02  0.41800000000E+01 0.  1.
         -5    1    4    4    0  501  0.90989793005E+02  0.40346391674E+02  0.13153107932E+03  0.16499960902E+03  0.41800000000E+01 0.  1.
</event>
<event>
11    1  0.8037748E-009  0.1378027E+03  0.7561462E-02  0.1110037E+00
         22   -1    0    0    0    0  0.00000000000E+00  0.00000000000E+00  0.70863487011E+03  0.70863487011E+03  0.00000000000E+00 0. -1.
         22   -1    0    0    0    0 -0.00000000000E+00 -0.00000000000E+00 -0.35289725502E+03  0.35289725502E+03  0.00000000000E+00 0.  1.
         24    2    1    2    0    0 -0.38517571838E+02 -0.46851368991E+02 -0.31507027870E+03  0.33094461740E+03  0.81095037763E+02 0.  0.
         25    2    1    2    0    0  0.11850901516E+02 -0.73763120247E+01  0.13142156814E+03  0.18196964809E+03  0.12508585214E+03 0.  0.
        -24    2    1    2    0    0  0.26666670322E+02  0.54227681015E+02  0.53938632566E+03  0.54861785964E+03  0.79951203362E+02 0.  0.
        -11    1    3    3    0    0  0.11366339516E+02 -0.35797591379E+02 -0.21836386709E+03  0.22157039439E+03  0.00000000000E+00 0.  1.
         12    1    3    3    0    0 -0.49883911354E+02 -0.11053777611E+02 -0.96706411618E+02  0.10937422301E+03  0.00000000000E+00 0. -1.
         13    1    5    5    0    0  0.26963586830E+01  0.70138372791E+02  0.41922480577E+03  0.42506011276E+03  0.00000000000E+00 0. -1.
        -14    1    5    5    0    0  0.23970311639E+02 -0.15910691776E+02  0.12016151989E+03  0.12355774688E+03  0.00000000000E+00 0.  1.
          5    1    4    4  501    0  0.30535718133E+02  0.55958845822E+01 -0.14292978538E+02  0.34431172528E+02  0.41800000000E+01 0. -1.
         -5    1    4    4    0  501 -0.18684816617E+02 -0.12972196607E+02  0.14571454668E+03  0.14753847556E+03  0.41800000000E+01 0. -1.
</event>
<event>
11    1  0.8037748E-009  0.2812998E+03  0.7561462E-02  0.1008432E+00
         22   -1    0    0    0    0  0.00000000000E+00  0.00000000000E+00  0.11639942771E+04  0.11639942771E+04  0.00000000000E+00 0. -1.
         22   -1    0    0    0    0 -0.00000000000E+00 -0.00000000000E+00 -0.79680555324E+03  0.79680555324E+03  0.00000000000E+00 0.  1.
        -24    2    1    2    0    0 -0.69204443062E+02  0.23773569517E+03 -0.69292104388E+03  0.74015907519E+03  0.79927265855E+02 0.  0.
         25    2    1    2    0    0  0.13074363134E+03 -0.30411232139E+03  0.34099269964E+03  0.49142698643E+03  0.12508501360E+03 0.  0.
         24    2    1    2    0    0 -0.61539188283E+02  0.66376626217E+02  0.71911706810E+03  0.72921376873E+03  0.80189991066E+02 0.  0.
        -11    1    5    5    0    0 -0.41619281815E+02 -0.67684237046E+01  0.33887802374E+03  0.34149127536E+03  0.00000000000E+00 0.  1.
         12    1    5    5    0    0 -0.19919906468E+02  0.73145049922E+02  0.38023904436E+03  0.38772249336E+03  0.00000000000E+00 0. -1.
         11    1    3    3    0    0 -0.22485859530E+02  0.72791682883E+02 -0.33149013064E+03  0.34013225323E+03  0.00000000000E+00 0. -1.
        -12    1    3    3    0    0 -0.46718583532E+02  0.16494401229E+03 -0.36143091324E+03  0.40002682196E+03  0.00000000000E+00 0.  1.
          5    1    4    4  501    0  0.12145983796E+03 -0.20617854294E+03  0.16811405533E+03  0.29247545504E+03  0.41800000000E+01 0. -1.
         -5    1    4    4    0  501  0.92837933857E+01 -0.97933778451E+02  0.17287864431E+03  0.19895153139E+03  0.41800000000E+01 0. -1.
</event>
<event>
11    1  0.8037748E-009  0.1647272E+03  0.7561462E-02  0.1082714E+00
         22   -1    0    0    0    0  0.00000000000E+00  0.00000000000E+00  0.15338029334E+04  0.15338029334E+04  0.00000000000E+00 0.  1.
         22   -1    0    0    0    0 -0.00000000000E+00 -0.00000000000E+00 -0.30031513447E+03  0.30031513447E+03  0.00000000000E+00 0.  1.
         24    2    1    2    0    0  0.10518301388E+03 -0.24421021893E+02 -0.25210307530E+03  0.28590219958E+03  0.80772857014E+02 0.  0.
         25    2    1    2    0    0 -0.73891469217E+02  0.93979231610E+02  0.23055436530E+03  0.28826312631E+03  0.12509304310E+03 0.  0.
        -24    2    1    2    0    0 -0.31291544661E+02 -0.69558209717E+02  0.12550365089E+04  0.12599527420E+04  0.80912100271E+02 0.  0.
        -13    1    3    3    0    0  0.11146500912E+03 -0.39659811292E+02 -0.21851555310E+03  0.24848822072E+03  0.00000000000E+00 0.  1.
         14    1    3    3    0    0 -0.62819952432E+01  0.15238789399E+02 -0.33587522202E+02  0.37413978862E+02  0.00000000000E+00 0. -1.
         11    1    5    5    0    0  0.12798158025E+02 -0.51224495869E+02  0.38457158969E+03  0.38817914604E+03  0.00000000000E+00 0. -1.
        -12    1    5    5    0    0 -0.44089702686E+02 -0.18333713847E+02  0.87046491921E+03  0.87177359591E+03  0.00000000000E+00 0.  1.
          5    1    4    4  501    0  0.13133356481E+01  0.14489485050E+02 -0.13805772844E+02  0.20487600918E+02  0.41800000000E+01 0. -1.
         -5    1    4    4    0  501 -0.75204804865E+02  0.79489746560E+02  0.24436013815E+03  0.26777552539E+03  0.41800000000E+01 0. -1.
</event>
<event>
11    1  0.8037748E-009  0.1546867E+03  0.7561462E-02  0.1092184E+00
         22   -1    0    0    0    0  0.00000000000E+00  0.00000000000E+00  0.23051319997E+04  0.23051319997E+04  0.00000000000E+00 0. -1.
         22   -1    0    0    0    0 -0.00000000000E+00 -0.00000000000E+00 -0.63974600793E+03  0.63974600793E+03  0.00000000000E+00 0. -1.
        -24    2    1    2    0    0  0.37961611349E+02 -0.82558510438E+02 -0.62059861662E+03  0.63256684637E+03  0.82104692913E+02 0.  0.
         25    2    1    2    0    0 -0.43622232836E+02  0.92658375661E+02  0.51949807436E+03  0.54407201083E+03  0.12509048695E+03 0.  0.
         24    2    1    2    0    0  0.56606214869E+01 -0.10099865223E+02  0.17664865340E+04  0.17682391504E+04  0.77852220931E+02 0.  0.
        -11    1    5    5    0    0  0.47745001059E+01 -0.14145444943E+02  0.62897012843E+02  0.64644595199E+02  0.00000000000E+00 0.  1.
         12    1    5    5    0    0  0.88612138100E+00  0.40455797197E+01  0.17035895212E+04  0.17035945552E+04  0.00000000000E+00 0. -1.
         11    1    3    3    0    0  0.48628817166E+02 -0.55440002173E+02 -0.56501690387E+03  0.56980914116E+03  0.00000000000E+00 0. -1.
        -12    1    3    3    0    0 -0.10667205817E+02 -0.27118508265E+02 -0.55581712754E+02  0.62757705209E+02  0.00000000000E+00 0.  1.
          5    1    4    4  501    0 -0.22690011945E+02  0.12257278331E+03  0.41205691420E+03  0.43051979838E+03  0.41800000000E+01 0.  1.
         -5    1    4    4    0  501 -0.20932220892E+02 -0.29914407654E+02  0.10744116016E+03  0.11355221245E+03  0.41800000000E+01 0.  1.
</event>
<event>
11    1  0.8037748E-009  0.4344508E+03  0.7561462E-02  0.9553244E-01
         22   -1    0    0    0    0  0.00000000000E+00  0.00000000000E+00  0.21233602496E+04  0.21233602496E+04  0.00000000000E+00 0.  1.
         22   -1    0    0    0    0 -0.00000000000E+00 -0.00000000000E+00 -0.12487469730E+04  0.12487469730E+04  0.00000000000E+00 0.  1.
        -24    2    1    2    0    0  0.99708917536E+02 -0.17741822533E+03 -0.40027713936E+03  0.45707532577E+03  0.85305159376E+02 0.  0.
         25    2    1    2    0    0  0.12291057211E+03  0.52584608879E+03 -0.70201411323E+03  0.89447913460E+03  0.12509192318E+03 0.  0.
         24    2    1    2    0    0 -0.22261948965E+03 -0.34842786346E+03  0.19769045292E+04  0.20205527622E+04  0.59334087289E+02 0.  0.
        -13    1    5    5    0    0 -0.91764095557E+02 -0.15688867773E+03  0.73254598841E+03  0.75475713416E+03  0.00000000000E+00 0.  1.
         14    1    5    5    0    0 -0.13085539409E+03 -0.19153918573E+03  0.12443585408E+04  0.12657956280E+04  0.00000000000E+00 0. -1.
         11    1    3    3    0    0  0.55617276576E+02 -0.59331517296E+02 -0.85503081921E+02  0.11800121786E+03  0.00000000000E+00 0. -1.
        -12    1    3    3    0    0  0.44091640960E+02 -0.11808670803E+03 -0.31477405744E+03  0.33907410791E+03  0.00000000000E+00 0.  1.
          5    1    4    4  501    0  0.13303956052E+03  0.34921018965E+03 -0.52251791969E+03  0.64240931657E+03  0.41800000000E+01 0. -1.
         -5    1    4    4    0  501 -0.10128988414E+02  0.17663589913E+03 -0.17949619354E+03  0.25206981803E+03  0.41800000000E+01 0. -1.
</event>
<event>
11    1  0.8037748E-009  0.1420784E+03  0.7561462E-02  0.1105260E+00
         22   -1    0    0    0    0  0.00000000000E+00  0.00000000000E+00  0.26879953656E+02  0.26879953656E+02  0.00000000000E+00 0.  1.
         22   -1    0    0    0    0 -0.00000000000E+00 -0.00000000000E+00 -0.10718231110E+04  0.10718231110E+04  0.00000000000E+00 0. -1.
        -24    2    1    2    0    0 -0.80980052854E+01  0.83432857295E+01 -0.43416464240E+03  0.44163922203E+03  0.80069205217E+02 0.  0.
         25    2    1    2    0    0  0.31776731641E+02 -0.66345905905E+02 -0.34281389659E+03  0.37226240871E+03  0.12508554408E+03 0.  0.
         24    2    1    2    0    0 -0.23678726356E+02  0.58002620176E+02 -0.26796461832E+03  0.28480143388E+03  0.73360984438E+02 0.  0.
        -13    1    5    5    0    0 -0.43017070742E+02  0.12828740249E+02 -0.16004545116E+03  0.16622151302E+03  0.00000000000E+00 0.  1.
         14    1    5    5    0    0  0.19338344387E+02  0.45173879926E+02 -0.10791916716E+03  0.11857992086E+03  0.00000000000E+00 0. -1.
         13    1    3    3    0    0  0.24302035265E+02  0.26958804038E+02 -0.30579773478E+03  0.30794418428E+03  0.00000000000E+00 0. -1.
        -14    1    3    3    0    0 -0.32400040551E+02 -0.18615518309E+02 -0.12836690762E+03  0.13369503776E+03  0.00000000000E+00 0.  1.
          5    1    4    4  501    0  0.25795591152E+02 -0.86179538951E+02 -0.33903822403E+03  0.35079440590E+03  0.41800000000E+01 0.  1.
         -5    1    4    4    0  501  0.59811404894E+01  0.19833633046E+02 -0.37756725596E+01  0.21468002810E+02  0.41800000000E+01 0.  1.
</event>
<event>
11    1  0.8037748E-009  0.3003670E+03  0.7561462E-02  0.1000036E+00
         22   -1    0    0    0    0  0.00000000000E+00  0.00000000000E+00  0.49094193294E+03  0.49094193294E+03  0.00000000000E+00 0. -1.
         22   -1    0    0    0    0 -0.00000000000E+00 -0.00000000000E+00 -0.10484709508E+04  0.10484709508E+04  0.00000000000E+00 0. -1.
        -24    2    1    2    0    0  0.33600391717E+02 -0.75741564815E+00 -0.54841157708E+03  0.55520809259E+03  0.79819848388E+02 0.  0.
         25    2    1    2    0    0 -0.22842128729E+03  0.18880589746E+03 -0.39293335069E+03  0.50780592803E+03  0.12508513521E+03 0.  0.
         24    2    1    2    0    0  0.19482089557E+03 -0.18804848181E+03  0.38381590992E+03  0.47639886312E+03  0.79522394387E+02 0.  0.
        -13    1    5    5    0    0  0.45016512720E+02 -0.54499297891E+01  0.50295356546E+02  0.67718616660E+02  0.00000000000E+00 0.  1.
         14    1    5    5    0    0  0.14980438285E+03 -0.18259855202E+03  0.33352055337E+03  0.40868024646E+03  0.00000000000E+00 0. -1.
         13    1    3    3    0    0  0.37334331549E+02  0.29126639619E+01 -0.54868872248E+03  0.54996513535E+03  0.00000000000E+00 0. -1.
        -14    1    3    3    0    0 -0.37339398324E+01 -0.36700796100E+01  0.27714540022E+00  0.52429572370E+01  0.00000000000E+00 0.  1.
          5    1    4    4  501    0 -0.95072295538E+02  0.47628598472E+02 -0.59506078383E+02  0.12192485610E+03  0.41800000000E+01 0.  1.
         -5    1    4    4    0  501 -0.13334899175E+03  0.14117729899E+03 -0.33342727231E+03  0.38588107192E+03  0.41800000000E+01 0.  1.
</event>
<event>
11    1  0.8037748E-009  0.2480447E+03  0.7561462E-02  0.1024946E+00
         22   -1    0    0    0    0  0.00000000000E+00  0.00000000000E+00  0.55115041555E+03  0.55115041555E+03  0.00000000000E+00 0. -1.
         22   -1    0    0    0    0 -0.00000000000E+00 -0.00000000000E+00 -0.58223557707E+03  0.58223557707E+03  0.00000000000E+00 0.  1.
         24    2    1    2    0    0 -0.70944595807E+02  0.19539606846E+03 -0.43546142222E+03  0.48979268083E+03  0.84008694262E+02 0.  0.
         25    2    1    2    0    0  0.12591247027E+03 -0.22769239479E+03  0.74343943325E+02  0.29811538051E+03  0.12509189169E+03 0.  0.
        -24    2    1    2    0    0 -0.54967874467E+02  0.32296326337E+02  0.33003231738E+03  0.34547793129E+03  0.79806958169E+02 0.  0.
        -11    1    3    3    0    0 -0.75316287738E+02  0.13989754682E+03 -0.25052754993E+03  0.29666128847E+03  0.00000000000E+00 0.  1.
         12    1    3    3    0    0  0.43716919308E+01  0.55498521640E+02 -0.18493387229E+03  0.19313139236E+03  0.00000000000E+00 0. -1.
         13    1    5    5    0    0  0.17159647062E+01  0.38172242536E+02  0.19829360099E+03  0.20194161738E+03  0.00000000000E+00 0. -1.
        -14    1    5    5    0    0 -0.56683839174E+02 -0.58759161982E+01  0.13173871639E+03  0.14353631391E+03  0.00000000000E+00 0.  1.
          5    1    4    4  501    0 -0.50628788486E+01 -0.89638544132E+02 -0.89925135168E+01  0.90327399142E+02  0.41800000000E+01 0.  1.
         -5    1    4    4    0  501  0.13097534912E+03 -0.13805385066E+03  0.83336456842E+02  0.20778798136E+03  0.41800000000E+01 0.  1.
</event>
<event>
11    1  0.8037748E-009  0.1428739E+03  0.7561462E-02  0.1104391E+00
         22   -1    0    0    0    0  0.00000000000E+00  0.00000000000E+00  0.92415291875E+03  0.92415291875E+03  0.00000000000E+00 0.  1.
         22   -1    0    0    0    0 -0.00000000000E+00 -0.00000000000E+00 -0.42821269774E+03  0.42821269774E+03  0.00000000000E+00 0.  1.
        -24    2    1    2    0    0 -0.25538702863E+02 -0.66211388843E+02 -0.39999696968E+03  0.41416977939E+03  0.80640294187E+02 0.  0.
         25    2    1    2    0    0 -0.81835697434E+01  0.10401150992E+02  0.21096344807E+03  0.24561763939E+03  0.12508914263E+03 0.  0.
         24    2    1    2    0    0  0.33722272606E+02  0.55810237851E+02  0.68497374262E+03  0.69257819770E+03  0.78889527363E+02 0.  0.
        -13    1    5    5    0    0  0.26613726938E+01  0.68305004970E+02  0.49117545899E+03  0.49590925392E+03  0.00000000000E+00 0.  1.
         14    1    5    5    0    0  0.31060899912E+02 -0.12494767119E+02  0.19379828363E+03  0.19666894378E+03  0.00000000000E+00 0. -1.
         13    1    3    3    0    0  0.23299434716E+01  0.15888155312E+02 -0.28723982908E+02  0.32907891302E+02  0.00000000000E+00 0. -1.
        -14    1    3    3    0    0 -0.27868646335E+02 -0.82099544155E+02 -0.37127298678E+03  0.38126188809E+03  0.00000000000E+00 0.  1.
          5    1    4    4  501    0 -0.25617578187E+02 -0.53120467764E+02  0.11229987791E+03  0.12691248712E+03  0.41800000000E+01 0.  1.
         -5    1    4    4    0  501  0.17434008444E+02  0.63521618756E+02  0.98663570163E+02  0.11870515228E+03  0.41800000000E+01 0.  1.
</event>
<event>
11    1  0.8037748E-009  0.1555454E+03  0.7561462E-02  0.1091343E+00
         22   -1    0    0    0    0  0.00000000000E+00  0.00000000000E+00  0.18625115916E+04  0.18625115916E+04  0.00000000000E+00 0.  1.
         22   -1    0    0    0    0 -0.00000000000E+00 -0.00000000000E+00 -0.31548768053E+02  0.31548768053E+02  0.00000000000E+00 0. -1.
         24    2    1    2    0    0 -0.21461552638E+02  0.82356902461E+02  0.16052400884E+03  0.19813023674E+03  0.79021362120E+02 0.  0.
         25    2    1    2    0    0 -0.11238117679E+02 -0.13990137524E+03  0.10125788161E+04  0.10298843623E+04  0.12508897162E+03 0.  0.
        -24    2    1    2    0    0  0.32699670317E+02  0.57544472775E+02  0.65785999855E+03  0.66604576055E+03  0.80352614603E+02 0.  0.
        -11    1    3    3    0    0  0.24020714895E+02  0.24007830915E+01  0.34367898103E+02  0.41998939553E+02  0.00000000000E+00 0.  1.
         12    1    3    3    0    0 -0.45482267533E+02  0.79956119369E+02  0.12615611073E+03  0.15613129718E+03  0.00000000000E+00 0. -1.
         11    1    5    5    0    0 -0.26047321097E+02  0.14518781836E+02  0.14430292642E+03  0.14735193428E+03  0.00000000000E+00 0. -1.
        -12    1    5    5    0    0  0.58746991414E+02  0.43025690939E+02  0.51355707213E+03  0.51869382628E+03  0.00000000000E+00 0.  1.
          5    1    4    4  501    0  0.15054727549E+02 -0.66444856040E+02  0.80824444377E+03  0.81112151803E+03  0.41800000000E+01 0.  1.
         -5    1    4    4    0  501 -0.26292845228E+02 -0.73456519195E+02  0.20433437236E+03  0.21876284431E+03  0.41800000000E+01 0.  1.
</event>
<event>
11    1  0.8037748E-009  0.1643316E+03  0.7561462E-02  0.1083073E+00
         22   -1    0    0    0    0  0.00000000000E+00  0.00000000000E+00  0.81167697323E+03  0.81167697323E+03  0.00000000000E+00 0.  1.
         22   -1    0    0    0    0 -0.00000000000E+00 -0.00000000000E+00 -0.78786181660E+03  0.78786181660E+03  0.00000000000E+00 0. -1.
        -24    2    1    2    0    0  0.79845997613E+02 -0.45399871776E+02 -0.73965427071E+03  0.74978872432E+03  0.81597544404E+02 0.  0.
         25    2    1    2    0    0 -0.13572683072E+02 -0.56017996684E+02  0.99060505252E+02  0.16965305610E+03  0.12508773747E+03 0.  0.
         24    2    1    2    0    0 -0.66273314541E+02  0.10141786846E+03  0.66440892208E+03  0.68009700941E+03  0.80093634055E+02 0.  0.
        -13    1    5    5    0    0 -0.81636617730E+02  0.10072245631E+03  0.58214160755E+03  0.59640456219E+03  0.00000000000E+00 0.  1.
         14    1    5    5    0    0  0.15363303189E+02  0.69541214466E+00  0.82267314528E+02  0.83692447226E+02  0.00000000000E+00 0. -1.
         11    1    3    3    0    0  0.85770668443E+02 -0.28369037986E+02 -0.70460587593E+03  0.71037373985E+03  0.00000000000E+00 0. -1.
        -12    1    3    3    0    0 -0.59246708300E+01 -0.17030833790E+02 -0.35048394778E+02  0.39414984467E+02  0.00000000000E+00 0.  1.
          5    1    4    4  501    0  0.21377789920E+02 -0.59400557791E+02 -0.12616693792E+01  0.63281121809E+02  0.41800000000E+01 0.  1.
         -5    1    4    4    0  501 -0.34950472991E+02  0.33825611075E+01  0.10032217463E+03  0.10637193429E+03  0.41800000000E+01 0.  1.
</event>
<event>
11    1  0.8037748E-009  0.4767383E+03  0.7561462E-02  0.9447057E-01
         22   -1    0    0    0    0  0.00000000000E+00  0.00000000000E+00  0.89147026342E+03  0.89147026342E+03  0.00000000000E+00 0. -1.
         22   -1    0    0    0    0 -0.00000000000E+00 -0.00000000000E+00 -0.59985557007E+03  0.59985557007E+03  0.00000000000E+00 0.  1.
         24    2    1    2    0    0  0.50696713052E+02 -0.47414686477E+03 -0.21974923154E+03  0.53106952721E+03  0.79747801757E+02 0.  0.
         25    2    1    2    0    0  0.22890246572E+03  0.42232413029E+03  0.21237087447E+03  0.53991105907E+03  0.12509417870E+03 0.  0.
        -24    2    1    2    0    0 -0.27959917877E+03  0.51822734478E+02  0.29899305042E+03  0.42034524720E+03  0.80199663764E+02 0.  0.
        -13    1    3    3    0    0  0.30779538272E+02 -0.10204546636E+03 -0.20605305967E+02  0.10855982597E+03  0.00000000000E+00 0.  1.
         14    1    3    3    0    0  0.19917174780E+02 -0.37210139841E+03 -0.19914392557E+03  0.42250970124E+03  0.00000000000E+00 0. -1.
         11    1    5    5    0    0 -0.15763779794E+03  0.63765608414E+02  0.20210887985E+03  0.26412824057E+03  0.00000000000E+00 0. -1.
        -12    1    5    5    0    0 -0.12196138083E+03 -0.11942873937E+02  0.96884170573E+02  0.15621700663E+03  0.00000000000E+00 0.  1.
          5    1    4    4  501    0  0.54000984449E+02  0.23042899951E+03  0.10240843590E+03  0.25791198166E+03  0.41800000000E+01 0. -1.
         -5    1    4    4    0  501  0.17490148127E+03  0.19189513078E+03  0.10996243856E+03  0.28199907741E+03  0.41800000000E+01 0. -1.
</event>
<event>
11    1  0.8037748E-009  0.1348600E+03  0.7561462E-02  0.1113438E+00
         22   -1    0    0    0    0  0.00000000000E+00  0.00000000000E+00  0.62950849643E+03  0.62950849643E+03  0.00000000000E+00 0. -1.
         22   -1    0    0    0    0 -0.00000000000E+00 -0.00000000000E+00 -0.48573622029E+03  0.48573622029E+03  0.00000000000E+00 0.  1.
        -24    2    1    2    0    0  0.42447735204E+02 -0.47082455849E+02 -0.25585685958E+03  0.27529089532E+03  0.79396325985E+02 0.  0.
         25    2    1    2    0    0  0.35488867968E+01  0.33383006034E+02 -0.19730203047E+03  0.23601429510E+03  0.12509051353E+03 0.  0.
         24    2    1    2    0    0 -0.45996622001E+02  0.13699449815E+02  0.59693116620E+03  0.60393952630E+03  0.78184206110E+02 0.  0.
        -13    1    5    5    0    0 -0.15670565970E+02  0.45302440353E+02  0.31457651202E+03  0.31820788748E+03  0.00000000000E+00 0.  1.
         14    1    5    5    0    0 -0.30326056031E+02 -0.31602990538E+02  0.28235465418E+03  0.28573163882E+03  0.00000000000E+00 0. -1.
         13    1    3    3    0    0 -0.38174084924E+01 -0.32708412247E+02 -0.30836401271E+02  0.45114260303E+02  0.00000000000E+00 0. -1.
        -14    1    3    3    0    0  0.46265143696E+02 -0.14374043602E+02 -0.22502045831E+03  0.23017663502E+03  0.00000000000E+00 0.  1.
          5    1    4    4  501    0  0.21094174616E+02  0.76482926554E+02 -0.97146094344E+02  0.12549676611E+03  0.41800000000E+01 0.  1.
         -5    1    4    4    0  501 -0.17545287819E+02 -0.43099920520E+02 -0.10015593613E+03  0.11051752900E+03  0.41800000000E+01 0.  1.
</event>
<event>
11    1  0.8037748E-009  0.1480294E+03  0.7561462E-02  0.1098910E+00
         22   -1    0    0    0    0  0.00000000000E+00  0.00000000000E+00  0.10943783445E+04  0.10943783445E+04  0.00000000000E+00 0.  1.
         22   -1    0    0    0    0 -0.00000000000E+00 -0.00000000000E+00 -0.98534902957E+02  0.98534902957E+02  0.00000000000E+00 0.  1.
        -24    2    1    2    0    0  0.71563210926E+02  0.12753178861E+01 -0.34977183516E+01  0.10968158867E+03  0.83035518099E+02 0.  0.
         25    2    1    2    0    0 -0.11401268067E+03 -0.63497265550E+02  0.17541439798E+03  0.25189129609E+03  0.12509284527E+03 0.  0.
         24    2    1    2    0    0  0.42449469743E+02  0.62221947664E+02  0.82392676191E+03  0.83134036269E+03  0.81227836392E+02 0.  0.
        -13    1    5    5    0    0  0.38461886284E+02  0.67355349104E+02  0.82017652971E+03  0.82383590577E+03  0.00000000000E+00 0.  1.
         14    1    5    5    0    0  0.39875834591E+01 -0.51334014403E+01  0.37502321978E+01  0.75044569243E+01  0.00000000000E+00 0. -1.
         13    1    3    3    0    0 -0.57134580523E+01 -0.22258484910E+02  0.14161510497E+02  0.26993186788E+02  0.00000000000E+00 0. -1.
        -14    1    3    3    0    0  0.77276668979E+02  0.23533802797E+02 -0.17659228848E+02  0.82688401883E+02  0.00000000000E+00 0.  1.
          5    1    4    4  501    0 -0.32858756843E+02 -0.31547299065E+02 -0.10109449170E+02  0.46846593708E+02  0.41800000000E+01 0. -1.
         -5    1    4    4    0  501 -0.81153923826E+02 -0.31949966485E+02  0.18552384715E+03  0.20504470238E+03  0.41800000000E+01 0. -1.
</event>
<event>
11    1  0.8037748E-009  0.1335912E+03  0.7561462E-02  0.1114934E+00
         22   -1    0    0    0    0  0.00000000000E+00  0.00000000000E+00  0.22677820614E+03  0.22677820614E+03  0.00000000000E+00 0. -1.
         22   -1    0    0    0    0 -0.00000000000E+00 -0.00000000000E+00 -0.12927690803E+04  0.12927690803E+04  0.00000000000E+00 0. -1.
         24    2    1    2    0    0  0.43064717784E+02  0.16577964201E+02 -0.11853951774E+04  0.11890860995E+04  0.81453216770E+02 0.  0.
         25    2    1    2    0    0 -0.79807867246E+02  0.12517481978E+02 -0.34428178706E+02  0.15283968990E+03  0.12509471728E+03 0.  0.
        -24    2    1    2    0    0  0.36743149462E+02 -0.29095446179E+02  0.15383248197E+03  0.17762149705E+03  0.75421215068E+02 0.  0.
        -11    1    3    3    0    0 -0.21830382612E+02  0.67842165759E+01 -0.16413851505E+03  0.16572279059E+03  0.00000000000E+00 0.  1.
         12    1    3    3    0    0  0.64895100396E+02  0.97937476254E+01 -0.10212566624E+04  0.10233633089E+04  0.00000000000E+00 0. -1.
         11    1    5    5    0    0  0.14686454436E+02 -0.26331312610E+02  0.15239172020E+03  0.15534563512E+03  0.00000000000E+00 0. -1.
        -12    1    5    5    0    0  0.22056695027E+02 -0.27641335691E+01  0.14407617759E+01  0.22275861922E+02  0.00000000000E+00 0.  1.
          5    1    4    4  501    0 -0.64126785888E+02  0.46608505383E+02 -0.66299530169E+02  0.10342967438E+03  0.41800000000E+01 0. -1.
         -5    1    4    4    0  501 -0.15681081358E+02 -0.34091023406E+02  0.31871351462E+02  0.49410015518E+02  0.41800000000E+01 0. -1.
</event>
<event>
11    1  0.8037748E-009  0.1438869E+03  0.7561462E-02  0.1103294E+00
         22   -1    0    0    0    0  0.00000000000E+00  0.00000000000E+00  0.14939211190E+03  0.14939211190E+03  0.00000000000E+00 0. -1.
         22   -1    0    0    0    0 -0.00000000000E+00 -0.00000000000E+00 -0.17492917991E+04  0.17492917991E+04  0.00000000000E+00 0.  1.
         24    2    1    2    0    0 -0.67551242025E+01  0.20130331899E+02 -0.12508363126E+04  0.12536350854E+04  0.80985088190E+02 0.  0.
         25    2    1    2    0    0  0.65912512153E+02  0.19741158802E+02 -0.46505072779E+03  0.48647114336E+03  0.12509125188E+03 0.  0.
        -24    2    1    2    0    0 -0.59157387950E+02 -0.39871490702E+02  0.11598735320E+03  0.15857768222E+03  0.81267969558E+02 0.  0.
        -11    1    3    3    0    0  0.18094347884E+02  0.21338771621E+02 -0.11258054095E+04  0.11261529953E+04  0.00000000000E+00 0.  1.
         12    1    3    3    0    0 -0.24849472086E+02 -0.12084397219E+01 -0.12503090307E+03  0.12748209017E+03  0.00000000000E+00 0. -1.
         13    1    5    5    0    0 -0.24093165648E+02  0.23581702820E+02  0.51478277108E+02  0.61535277303E+02  0.00000000000E+00 0. -1.
        -14    1    5    5    0    0 -0.35064222302E+02 -0.63453193521E+02  0.64509076089E+02  0.97042404915E+02  0.00000000000E+00 0.  1.
          5    1    4    4  501    0 -0.29827827091E+02 -0.60927605320E+01 -0.42656137886E+02  0.52572231255E+02  0.41800000000E+01 0. -1.
         -5    1    4    4    0  501  0.95740339243E+02  0.25833919334E+02 -0.42239458990E+03  0.43389891210E+03  0.41800000000E+01 0. -1.
</event>
<event>
11    1  0.8037748E-009  0.1532728E+03  0.7561462E-02  0.1093581E+00
         22   -1    0    0    0    0  0.00000000000E+00  0.00000000000E+00  0.23439664967E+04  0.23439664967E+04  0.00000000000E+00 0. -1.
         22   -1    0    0    0    0 -0.00000000000E+00 -0.00000000000E+00 -0.21683677557E+03  0.21683677557E+03  0.00000000000E+00 0.  1.
         24    2    1    2    0    0 -0.64831141326E+02  0.55619622214E+02 -0.16489580510E+03  0.20167217098E+03  0.78641075436E+02 0.  0.
         25    2    1    2    0    0  0.69991315986E+02 -0.13125261485E+03  0.26300396492E+03  0.32701739629E+03  0.12507301344E+03 0.  0.
        -24    2    1    2    0    0 -0.51601746598E+01  0.75632992634E+02  0.20290215613E+04  0.20321137050E+04  0.82526582459E+02 0.  0.
        -13    1    3    3    0    0 -0.23854819252E+02  0.35209314631E+02 -0.14613675180E+03  0.15219953503E+03  0.00000000000E+00 0.  1.
         14    1    3    3    0    0 -0.40976322075E+02  0.20410307584E+02 -0.18759053303E+02  0.49472635944E+02  0.00000000000E+00 0. -1.
         11    1    5    5    0    0  0.34300864736E+02  0.59406608198E+02  0.11300142822E+04  0.11320945068E+04  0.00000000000E+00 0. -1.
        -12    1    5    5    0    0 -0.39461039396E+02  0.16226384436E+02  0.89900727916E+03  0.90001919822E+03  0.00000000000E+00 0.  1.
          5    1    4    4  501    0  0.12288282764E+02 -0.10392885714E+03  0.76095715739E+02  0.12946134401E+03  0.41800000000E+01 0.  1.
         -5    1    4    4    0  501  0.57703033222E+02 -0.27323757710E+02  0.18690824918E+03  0.19755605228E+03  0.41800000000E+01 0.  1.
</event>
<event>
11    1  0.8037748E-009  0.1304322E+03  0.7561462E-02  0.1118739E+00
         22   -1    0    0    0    0  0.00000000000E+00  0.00000000000E+00  0.18356102078E+04  0.18356102078E+04  0.00000000000E+00 0.  1.
         22   -1    0    0    0    0 -0.00000000000E+00 -0.00000000000E+00 -0.20103241001E+04  0.20103241001E+04  0.00000000000E+00 0.  1.
        -24    2    1    2    0    0  0.47525399419E+01  0.31376587460E+02 -0.19980150538E+04  0.19999541712E+04  0.82130718180E+02 0.  0.
         25    2    1    2    0    0 -0.40623158902E+02 -0.21538021421E+02  0.44004214599E+03  0.45978167882E+03  0.12509186436E+03 0.  0.
         24    2    1    2    0    0  0.35870618961E+02 -0.98385660393E+01  0.13832590155E+04  0.13861984579E+04  0.82201957747E+02 0.  0.
        -13    1    5    5    0    0  0.40043741352E+02  0.39128443472E+01  0.13402170998E+04  0.13408209001E+04  0.00000000000E+00 0.  1.
         14    1    5    5    0    0 -0.41731223919E+01 -0.13751410386E+02  0.43041915699E+02  0.45377557726E+02  0.00000000000E+00 0. -1.
         11    1    3    3    0    0 -0.31595919951E+02 -0.98329127098E+01 -0.76446553437E+03  0.76518137821E+03  0.00000000000E+00 0. -1.
        -12    1    3    3    0    0  0.36348459893E+02  0.41209500170E+02 -0.12335495194E+04  0.12347727930E+04  0.00000000000E+00 0.  1.
          5    1    4    4  501    0  0.17021259793E+02 -0.32272164764E+02  0.35796472328E+02  0.51284264005E+02  0.41800000000E+01 0.  1.
         -5    1    4    4    0  501 -0.57644418695E+02  0.10734143343E+02  0.40424567366E+03  0.40849741482E+03  0.41800000000E+01 0.  1.
</event>
<event>
11    1  0.8037748E-009  0.1943040E+03  0.7561462E-02  0.1058626E+00
         22   -1    0    0    0    0  0.00000000000E+00  0.00000000000E+00  0.11193198405E+04  0.11193198405E+04  0.00000000000E+00 0. -1.
         22   -1    0    0    0    0 -0.00000000000E+00 -0.00000000000E+00 -0.12156600567E+04  0.12156600567E+04  0.00000000000E+00 0. -1.
         24    2    1    2    0    0  0.10195548395E+03  0.27798488528E+02 -0.11092655254E+04  0.11171609300E+04  0.80067851633E+02 0.  0.
         25    2    1    2    0    0 -0.21162010294E+03  0.66128122525E+02  0.74816509203E+02  0.26533241487E+03  0.12509110191E+03 0.  0.
        -24    2    1    2    0    0  0.10966461898E+03 -0.93926611054E+02  0.93810880001E+03  0.95248655242E+03  0.79586273659E+02 0.  0.
        -13    1    3    3    0    0  0.88115181615E+02  0.31650549689E+02 -0.56493827822E+03  0.57264413096E+03  0.00000000000E+00 0.  1.
         14    1    3    3    0    0  0.13840302338E+02 -0.38520611608E+01 -0.54432724722E+03  0.54451679901E+03  0.00000000000E+00 0. -1.
         13    1    5    5    0    0  0.76734644982E+02 -0.24376198818E+02  0.33763373202E+03  0.34710076607E+03  0.00000000000E+00 0. -1.
        -14    1    5    5    0    0  0.32929974000E+02 -0.69550412236E+02  0.60047506799E+03  0.60538578635E+03  0.00000000000E+00 0.  1.
          5    1    4    4  501    0 -0.15733073668E+03  0.96024250283E+02  0.83890860500E+02  0.20255558798E+03  0.41800000000E+01 0. -1.
         -5    1    4    4    0  501 -0.54289366253E+02 -0.29896127758E+02 -0.90743512964E+01  0.62776826891E+02  0.41800000000E+01 0. -1.
</event>
<event>
11    1  0.8037748E-009  0.1626393E+03  0.7561462E-02  0.1084621E+00
         22   -1    0    0    0    0  0.00000000000E+00  0.00000000000E+00  0.13092788110E+03  0.13092788110E+03  0.00000000000E+00 0.  1.
         22   -1    0    0    0    0 -0.00000000000E+00 -0.00000000000E+00 -0.46135245680E+03  0.46135245680E+03  0.00000000000E+00 0.  1.
        -24    2    1    2    0    0  0.52659344484E+02 -0.10990475623E+03 -0.22239867381E+03  0.26567518334E+03  0.79183779436E+02 0.  0.
         25    2    1    2    0    0  0.41789954707E+02  0.88138316248E+02 -0.12093116167E+03  0.19946590877E+03  0.12509012668E+03 0.  0.
         24    2    1    2    0    0 -0.94449299191E+02  0.21766439980E+02  0.12905259776E+02  0.12713924580E+03  0.81261270396E+02 0.  0.
        -11    1    5    5    0    0 -0.61352189569E+02 -0.24955963697E+02  0.20609304112E+02  0.69365947733E+02  0.00000000000E+00 0.  1.
         12    1    5    5    0    0 -0.33097109622E+02  0.46722403677E+02 -0.77040443362E+01  0.57773298070E+02  0.00000000000E+00 0. -1.
         13    1    3    3    0    0  0.43210626127E+02 -0.13350607986E+02 -0.97887858410E+02  0.10783056045E+03  0.00000000000E+00 0. -1.
        -14    1    3    3    0    0  0.94487183570E+01 -0.96554148242E+02 -0.12451081540E+03  0.15784462288E+03  0.00000000000E+00 0.  1.
          5    1    4    4  501    0  0.30824957951E+02 -0.21589686180E+02 -0.30438221980E+01  0.37987232534E+02  0.41800000000E+01 0. -1.
         -5    1    4    4    0  501  0.10964996756E+02  0.10972800243E+03 -0.11788733947E+03  0.16147867623E+03  0.41800000000E+01 0. -1.
</event>
<event>
11    1  0.1164523E-008  0.1478896E+03  0.7561462E-02  0.1099055E+00
         22   -1    0    0    0    0  0.00000000000E+00  0.00000000000E+00  0.83533775711E+03  0.83533775711E+03  0.00000000000E+00 0. -1.
         22   -1    0    0    0    0 -0.00000000000E+00 -0.00000000000E+00 -0.56787849859E+03  0.56787849859E+03  0.00000000000E+00 0. -1.
         24    2    1    2    0    0 -0.56182286714E+02  0.14982360736E+02 -0.29438629661E+03  0.31292601541E+03  0.88760796603E+02 0.  0.
         25    2    1    2    0    0  0.50943129757E+02 -0.93507831584E+02 -0.23388892883E+03  0.28581546721E+03  0.12509010045E+03 0.  0.
        -24    2    1    2    0    0  0.52391569570E+01  0.78525470848E+02  0.79573448397E+03  0.80447477308E+03  0.88275665983E+02 0.  0.
        -13    1    3    3    0    0 -0.59107759793E+02 -0.22694770800E+02 -0.13483858685E+03  0.14896383586E+03  0.00000000000E+00 0.  1.
         14    1    3    3    0    0  0.29254730794E+01  0.37677131536E+02 -0.15954770976E+03  0.16396217955E+03  0.00000000000E+00 0. -1.
         11    1    5    5    0    0  0.62638672036E+01  0.31843324630E+02  0.66251237490E+03  0.66330677688E+03  0.00000000000E+00 0. -1.
        -12    1    5    5    0    0 -0.10247102466E+01  0.46682146218E+02  0.13322210907E+03  0.14116799620E+03  0.00000000000E+00 0.  1.
          5    1    4    4  501    0 -0.22656036187E+02  0.16544817026E+02 -0.66937531425E+02  0.72698916494E+02  0.41800000000E+01 0. -1.
         -5    1    4    4    0  501  0.73599165944E+02 -0.11005264861E+03 -0.16695139741E+03  0.21311655072E+03  0.41800000000E+01 0. -1.
</event>
<event>
11    1  0.8037748E-009  0.1989314E+03  0.7561462E-02  0.1055282E+00
         22   -1    0    0    0    0  0.00000000000E+00  0.00000000000E+00  0.13750196797E+04  0.13750196797E+04  0.00000000000E+00 0.  1.
         22   -1    0    0    0    0 -0.00000000000E+00 -0.00000000000E+00 -0.16074891897E+04  0.16074891897E+04  0.00000000000E+00 0.  1.
         24    2    1    2    0    0  0.11730018933E+03 -0.10070100545E+03 -0.15736284272E+04  0.15836023516E+04  0.87120343960E+02 0.  0.
         25    2    1    2    0    0 -0.11806946824E+03  0.11036102555E+03  0.35651887297E+03  0.41094044878E+03  0.12508553221E+03 0.  0.
        -24    2    1    2    0    0  0.76927890252E+00 -0.96600201047E+01  0.98464004426E+03  0.98796606892E+03  0.80417838739E+02 0.  0.
        -11    1    3    3    0    0  0.77375010611E+02 -0.10250189006E+03 -0.13755505316E+04  0.13815327701E+04  0.00000000000E+00 0.  1.
         12    1    3    3    0    0  0.39925178723E+02  0.18008846142E+01 -0.19807789556E+03  0.20206958156E+03  0.00000000000E+00 0. -1.
         13    1    5    5    0    0  0.26004363188E+01  0.24459828194E+02  0.11253395432E+03  0.11519086916E+03  0.00000000000E+00 0. -1.
        -14    1    5    5    0    0 -0.18311574162E+01 -0.34119848299E+02  0.87210608995E+03  0.87277519975E+03  0.00000000000E+00 0.  1.
          5    1    4    4  501    0 -0.60138490739E+02 -0.89560239341E+01  0.57460734301E+02  0.83761905538E+02  0.41800000000E+01 0. -1.
         -5    1    4    4    0  501 -0.57930977498E+02  0.11931704949E+03  0.29905813867E+03  0.32717854324E+03  0.41800000000E+01 0. -1.
</event>
<event>
11    1  0.8037748E-009  0.1765892E+03  0.7561462E-02  0.1072436E+00
         22   -1    0    0    0    0  0.00000000000E+00  0.00000000000E+00  0.12381754136E+04  0.12381754136E+04  0.00000000000E+00 0.  1.
         22   -1    0    0    0    0 -0.00000000000E+00 -0.00000000000E+00 -0.60806712986E+03  0.60806712986E+03  0.00000000000E+00 0. -1.
        -24    2    1    2    0    0 -0.11040930988E+03  0.56832827398E+02 -0.57821320573E+03  0.59879375630E+03  0.93825717854E+02 0.  0.
         25    2    1    2    0    0  0.16229800728E+03 -0.39415798281E+02  0.81022530820E+03  0.83666326835E+03  0.12508447638E+03 0.  0.
         24    2    1    2    0    0 -0.51888697398E+02 -0.17417029117E+02  0.39809618126E+03  0.41078551879E+03  0.85254812756E+02 0.  0.
        -13    1    5    5    0    0 -0.46169403995E+02  0.23111619427E+02  0.30129382798E+03  0.30568567450E+03  0.00000000000E+00 0.  1.
         14    1    5    5    0    0 -0.57192934034E+01 -0.40528648544E+02  0.96802353277E+02  0.10509984429E+03  0.00000000000E+00 0. -1.
         11    1    3    3    0    0 -0.91136219933E+02  0.64161317098E+02 -0.56090940976E+03  0.57187573052E+03  0.00000000000E+00 0. -1.
        -12    1    3    3    0    0 -0.19273089947E+02 -0.73284897005E+01 -0.17303795969E+02  0.26918025788E+02  0.00000000000E+00 0.  1.
          5    1    4    4  501    0  0.54039219246E+02 -0.76734196770E+02  0.37979480224E+03  0.39124153458E+03  0.41800000000E+01 0.  1.
         -5    1    4    4    0  501  0.10825878803E+03  0.37318398490E+02  0.43043050596E+03  0.44542173377E+03  0.41800000000E+01 0.  1.
</event>
<event>
11    1  0.8037748E-009  0.1374565E+03  0.7561462E-02  0.1110432E+00
         22   -1    0    0    0    0  0.00000000000E+00  0.00000000000E+00  0.58260403077E+03  0.58260403077E+03  0.00000000000E+00 0.  1.
         22   -1    0    0    0    0 -0.00000000000E+00 -0.00000000000E+00 -0.79235473603E+03  0.79235473603E+03  0.00000000000E+00 0. -1.
         24    2    1    2    0    0 -0.24155045765E+02 -0.51146128690E+02 -0.72188952013E+03  0.72848701000E+03  0.79808845002E+02 0.  0.
         25    2    1    2    0    0  0.36620493966E+02  0.56673050895E+02  0.15179229483E+02  0.14293756121E+03  0.12509133511E+03 0.  0.
        -24    2    1    2    0    0 -0.12465448201E+02 -0.55269222053E+01  0.49695958538E+03  0.50353419559E+03  0.79949498795E+02 0.  0.
        -13    1    3    3    0    0  0.48042471543E+01 -0.30290947183E+01 -0.14495863713E+01  0.58615276320E+01  0.00000000000E+00 0.  1.
         14    1    3    3    0    0 -0.28959292919E+02 -0.48117033971E+02 -0.72043993376E+03  0.72262548236E+03  0.00000000000E+00 0. -1.
         11    1    5    5    0    0 -0.25701127950E+02 -0.27847790782E+02  0.12371856447E+03  0.12939215827E+03  0.00000000000E+00 0. -1.
        -12    1    5    5    0    0  0.13235679749E+02  0.22320868576E+02  0.37324102092E+03  0.37414203732E+03  0.00000000000E+00 0.  1.
          5    1    4    4  501    0  0.57112654081E+02  0.17362417405E+01  0.48765792723E+02  0.75235927132E+02  0.41800000000E+01 0. -1.
         -5    1    4    4    0  501 -0.20492160115E+02  0.54936809154E+02 -0.33586563240E+02  0.67701634076E+02  0.41800000000E+01 0. -1.
</event>
<event>
11    1  0.8037748E-009  0.1935271E+03  0.7561462E-02  0.1059198E+00
         22   -1    0    0    0    0  0.00000000000E+00  0.00000000000E+00  0.44647217951E+03  0.44647217951E+03  0.00000000000E+00 0. -1.
         22   -1    0    0    0    0 -0.00000000000E+00 -0.00000000000E+00 -0.27984373533E+04  0.27984373533E+04  0.00000000000E+00 0. -1.
         24    2    1    2    0    0  0.38878099626E+02  0.11694799122E+03 -0.23025568842E+04  0.23072435277E+04  0.80100884053E+02 0.  0.
         25    2    1    2    0    0 -0.11263365354E+03 -0.24021145893E+03 -0.43196110917E+03  0.52213548743E+03  0.12508869850E+03 0.  0.
        -24    2    1    2    0    0  0.73755553913E+02  0.12326346772E+03  0.38255281957E+03  0.41553051773E+03  0.75400180371E+02 0.  0.
        -11    1    3    3    0    0  0.31614121036E+02  0.30381426947E+01 -0.62657116976E+03  0.62737557630E+03  0.00000000000E+00 0.  1.
         12    1    3    3    0    0  0.72639785901E+01  0.11390984852E+03 -0.16759857145E+04  0.16798679514E+04  0.00000000000E+00 0. -1.
         13    1    5    5    0    0  0.82281350657E+02  0.98260004951E+02  0.35469448644E+03  0.37713847318E+03  0.00000000000E+00 0. -1.
        -14    1    5    5    0    0 -0.85257967437E+01  0.25003462767E+02  0.27858333128E+02  0.38392044555E+02  0.00000000000E+00 0.  1.
          5    1    4    4  501    0 -0.83710588096E+02 -0.21267706839E+03 -0.42326832451E+03  0.48105357800E+03  0.41800000000E+01 0.  1.
         -5    1    4    4    0  501 -0.28923065444E+02 -0.27534390545E+02 -0.86927846585E+01  0.41081909430E+02  0.41800000000E+01 0.  1.
</event>
<event>
11    1  0.8037748E-009  0.1408747E+03  0.7561462E-02  0.1106586E+00
         22   -1    0    0    0    0  0.00000000000E+00  0.00000000000E+00  0.24918592386E+04  0.24918592386E+04  0.00000000000E+00 0. -1.
         22   -1    0    0    0    0 -0.00000000000E+00 -0.00000000000E+00 -0.51168502195E+02  0.51168502195E+02  0.00000000000E+00 0.  1.
         24    2    1    2    0    0  0.25930889406E+02  0.43078874486E+00  0.11343639625E+02  0.83917332059E+02  0.78999011738E+02 0.  0.
         25    2    1    2    0    0  0.37969955842E+02 -0.20382649918E+02  0.30873555568E+03  0.33589106817E+03  0.12509195165E+03 0.  0.
        -24    2    1    2    0    0 -0.63900845248E+02  0.19951861173E+02  0.21206115411E+04  0.21232193406E+04  0.81152111177E+02 0.  0.
        -13    1    3    3    0    0  0.51623034068E+02 -0.12326160480E+02  0.90900228251E-02  0.53074211828E+02  0.00000000000E+00 0.  1.
         14    1    3    3    0    0 -0.25692144662E+02  0.12756949225E+02  0.11334549602E+02  0.30843120230E+02  0.00000000000E+00 0. -1.
         11    1    5    5    0    0 -0.74888820014E+02  0.14702022969E+02  0.20591058293E+04  0.20605196677E+04  0.00000000000E+00 0. -1.
        -12    1    5    5    0    0  0.10987974766E+02  0.52498382041E+01  0.61505711784E+02  0.62699672828E+02  0.00000000000E+00 0.  1.
          5    1    4    4  501    0  0.83553427797E+01 -0.27005794736E+02  0.31220713103E+01  0.28746207255E+02  0.41800000000E+01 0. -1.
         -5    1    4    4    0  501  0.29614613063E+02  0.66231448176E+01  0.30561348437E+03  0.30714486091E+03  0.41800000000E+01 0. -1.
</event>
<event>
11    1  0.8037748E-009  0.2237681E+03  0.7561462E-02  0.1038882E+00
         22   -1    0    0    0    0  0.00000000000E+00  0.00000000000E+00  0.12025849388E+04  0.12025849388E+04  0.00000000000E+00 0. -1.
         22   -1    0    0    0    0 -0.00000000000E+00 -0.00000000000E+00 -0.10683445170E+04  0.10683445170E+04  0.00000000000E+00 0. -1.
         24    2    1    2    0    0  0.18812218002E+03  0.10257931033E+02 -0.86491175327E+03  0.88882834091E+03  0.80301300660E+02 0.  0.
         25    2    1    2    0    0 -0.16549117773E+03 -0.67797734901E+02 -0.12608952986E+03  0.25205634732E+03  0.12509983980E+03 0.  0.
        -24    2    1    2    0    0 -0.22631002297E+02  0.57539803868E+02  0.11252417049E+04  0.11300447676E+04  0.83721508920E+02 0.  0.
        -13    1    3    3    0    0  0.10118860109E+03  0.24664320123E+02 -0.31164138569E+03  0.32858456287E+03  0.00000000000E+00 0.  1.
         14    1    3    3    0    0  0.86933578931E+02 -0.14406389090E+02 -0.55327036758E+03  0.56024377804E+03  0.00000000000E+00 0. -1.
         13    1    5    5    0    0 -0.51105719757E+01  0.50861521132E+02  0.10780988230E+04  0.10793100039E+04  0.00000000000E+00 0. -1.
        -14    1    5    5    0    0 -0.17520430322E+02  0.66782827360E+01  0.47142881944E+02  0.50734763791E+02  0.00000000000E+00 0.  1.
          5    1    4    4  501    0  0.92694055304E+01  0.19979531156E+02 -0.96029072265E+01  0.24388353190E+02  0.41800000000E+01 0.  1.
         -5    1    4    4    0  501 -0.17476058326E+03 -0.87777266057E+02 -0.11648662264E+03  0.22766799413E+03  0.41800000000E+01 0.  1.
</event>
<event>
11    1  0.8037748E-009  0.2130088E+03  0.7561462E-02  0.1045687E+00
         22   -1    0    0    0    0  0.00000000000E+00  0.00000000000E+00  0.87122804501E+03  0.87122804501E+03  0.00000000000E+00 0. -1.
         22   -1    0    0    0    0 -0.00000000000E+00 -0.00000000000E+00 -0.21053316583E+03  0.21053316583E+03  0.00000000000E+00 0. -1.
        -24    2    1    2    0    0  0.10005821775E+03  0.13773365841E+03 -0.10685411951E+03  0.21563335328E+03  0.78087979826E+02 0.  0.
         25    2    1    2    0    0 -0.13081401788E+03 -0.13106654520E+03  0.22755258085E+03  0.31893150379E+03  0.12508549281E+03 0.  0.
         24    2    1    2    0    0  0.30755800135E+02 -0.66671132073E+01  0.53999641784E+03  0.54719635377E+03  0.82688261896E+02 0.  0.
        -11    1    5    5    0    0  0.16813072939E+02 -0.31085196242E+02  0.95798515599E+02  0.10210937488E+03  0.00000000000E+00 0.  1.
         12    1    5    5    0    0  0.13942727196E+02  0.24418083035E+02  0.44419790224E+03  0.44508697889E+03  0.00000000000E+00 0. -1.
         11    1    3    3    0    0  0.83323908635E+02  0.61719723016E+02 -0.86875984859E+02  0.13527614241E+03  0.00000000000E+00 0. -1.
        -12    1    3    3    0    0  0.16734309114E+02  0.76013935393E+02 -0.19978134654E+02  0.80357210875E+02  0.00000000000E+00 0.  1.
          5    1    4    4  501    0 -0.81587562119E+02 -0.14928887844E+03  0.18361500569E+03  0.25035103801E+03  0.41800000000E+01 0.  1.
         -5    1    4    4    0  501 -0.49226455766E+02  0.18222333234E+02  0.43937575164E+02  0.68580465783E+02  0.41800000000E+01 0.  1.
</event>
<event>
11    1  0.8037748E-009  0.2226689E+03  0.7561462E-02  0.1039558E+00
         22   -1    0    0    0    0  0.00000000000E+00  0.00000000000E+00  0.75427880602E+03  0.75427880602E+03  0.00000000000E+00 0.  1.
         22   -1    0    0    0    0 -0.00000000000E+00 -0.00000000000E+00 -0.31006947126E+03  0.31006947126E+03  0.00000000000E+00 0.  1.
         24    2    1    2    0    0 -0.92186642904E+02 -0.15804917704E+03 -0.23470065461E+03  0.30736704529E+03  0.76890726116E+02 0.  0.
         25    2    1    2    0    0  0.10397846241E+03  0.16884615376E+03  0.37710672698E+03  0.44404690450E+03  0.12509046959E+03 0.  0.
        -24    2    1    2    0    0 -0.11791819508E+02 -0.10796976714E+02  0.30180326240E+03  0.31293432749E+03  0.81160719643E+02 0.  0.
        -13    1    3    3    0    0 -0.81927506828E+02 -0.66030606992E+02 -0.13726006237E+03  0.17295225398E+03  0.00000000000E+00 0.  1.
         14    1    3    3    0    0 -0.10259136076E+02 -0.92018570050E+02 -0.97440592240E+02  0.13441479131E+03  0.00000000000E+00 0. -1.
         11    1    5    5    0    0  0.18783259706E+02  0.73974651516E+01  0.18425934476E+02  0.27332186102E+02  0.00000000000E+00 0. -1.
        -12    1    5    5    0    0 -0.30575079214E+02 -0.18194441866E+02  0.28337732792E+03  0.28560214139E+03  0.00000000000E+00 0.  1.
          5    1    4    4  501    0 -0.15096922325E+02  0.38301670235E+02  0.15374062151E+03  0.15921239308E+03  0.41800000000E+01 0.  1.
         -5    1    4    4    0  501  0.11907538474E+03  0.13054448352E+03  0.22336610547E+03  0.28483451143E+03  0.41800000000E+01 0.  1.
</event>
<event>
11    1  0.8037748E-009  0.1581184E+03  0.7561462E-02  0.1088860E+00
         22   -1    0    0    0    0  0.00000000000E+00  0.00000000000E+00  0.64960610681E+02  0.64960610681E+02  0.00000000000E+00 0.  1.
         22   -1    0    0    0    0 -0.00000000000E+00 -0.00000000000E+00 -0.21116784556E+04  0.21116784556E+04  0.00000000000E+00 0.  1.
        -24    2    1    2    0    0  0.10210827335E+03  0.23393580241E+02 -0.14778784641E+04  0.14837369682E+04  0.79857855773E+02 0.  0.
         25    2    1    2    0    0 -0.75351019638E+02  0.12147892095E+02 -0.58022392438E+03  0.59843997147E+03  0.12508097213E+03 0.  0.
         24    2    1    2    0    0 -0.26757253711E+02 -0.35541472336E+02  0.11384543566E+02  0.94462126585E+02  0.82549007534E+02 0.  0.
        -13    1    5    5    0    0 -0.44238072651E+02 -0.52168182387E+02  0.15723473740E+01  0.68417823713E+02  0.00000000000E+00 0.  1.
         14    1    5    5    0    0  0.17480818940E+02  0.16626710051E+02  0.98121961924E+01  0.26044302872E+02  0.00000000000E+00 0. -1.
         13    1    3    3    0    0  0.17215322415E+02 -0.27596451109E+02 -0.39854292902E+03  0.39986797535E+03  0.00000000000E+00 0. -1.
        -14    1    3    3    0    0  0.84892950933E+02  0.50990031350E+02 -0.10793355350E+04  0.10838689928E+04  0.00000000000E+00 0.  1.
          5    1    4    4  501    0  0.15564224922E+02 -0.26841720358E+02 -0.29221117093E+03  0.29388358897E+03  0.41800000000E+01 0. -1.
         -5    1    4    4    0  501 -0.90915244559E+02  0.38989612453E+02 -0.28801275345E+03  0.30455638250E+03  0.41800000000E+01 0. -1.
</event>
<event>
11    1  0.8037748E-009  0.2416858E+03  0.7561462E-02  0.1028424E+00
         22   -1    0    0    0    0  0.00000000000E+00  0.00000000000E+00  0.11774700885E+04  0.11774700885E+04  0.00000000000E+00 0.  1.
         22   -1    0    0    0    0 -0.00000000000E+00 -0.00000000000E+00 -0.25822558746E+03  0.25822558746E+03  0.00000000000E+00 0.  1.
         24    2    1    2    0    0  0.18809345719E+02 -0.96287697871E+02 -0.94315039948E+02  0.15804765407E+03  0.80365552011E+02 0.  0.
         25    2    1    2    0    0 -0.73240911429E+02 -0.11163758788E+03 -0.49993638193E+02  0.18966949951E+03  0.12509185845E+03 0.  0.
        -24    2    1    2    0    0  0.54431565710E+02  0.20792528575E+03  0.10635531791E+04  0.10879785223E+04  0.79725657113E+02 0.  0.
        -11    1    3    3    0    0  0.19937238510E+02 -0.73969767960E+00  0.46443334549E+01  0.20484395654E+02  0.00000000000E+00 0.  1.
         12    1    3    3    0    0 -0.11278927911E+01 -0.95548000192E+02 -0.98959373403E+02  0.13756325842E+03  0.00000000000E+00 0. -1.
         11    1    5    5    0    0 -0.10769045033E+02  0.30712280894E+02  0.78310228225E+02  0.84803940789E+02  0.00000000000E+00 0. -1.
        -12    1    5    5    0    0  0.65200610744E+02  0.17721300485E+03  0.98524295092E+03  0.10031745815E+04  0.00000000000E+00 0.  1.
          5    1    4    4  501    0 -0.35609137078E+02  0.14886336943E+02 -0.42246372849E+02  0.57374577035E+02  0.41800000000E+01 0. -1.
         -5    1    4    4    0  501 -0.37631774351E+02 -0.12652392482E+03 -0.77472653438E+01  0.13229492247E+03  0.41800000000E+01 0. -1.
</event>
<event>
11    1  0.8037748E-009  0.1339343E+03  0.7561462E-02  0.1114527E+00
         22   -1    0    0    0    0  0.00000000000E+00  0.00000000000E+00  0.32973573664E+03  0.32973573664E+03  0.00000000000E+00 0. -1.
         22   -1    0    0    0    0 -0.00000000000E+00 -0.00000000000E+00 -0.18039931580E+04  0.18039931580E+04  0.00000000000E+00 0. -1.
         24    2    1    2    0    0 -0.48162035685E+02 -0.91406998770E+01 -0.17086491691E+04  0.17112516275E+04  0.80604065808E+02 0.  0.
         25    2    1    2    0    0  0.73014813691E+01  0.23162361618E+01 -0.41528128007E+02  0.13202539102E+03  0.12508973530E+03 0.  0.
        -24    2    1    2    0    0  0.40860554316E+02  0.68244637153E+01  0.27591987574E+03  0.29045187615E+03  0.80711562549E+02 0.  0.
        -11    1    3    3    0    0 -0.36838846038E+02  0.30246863543E+02 -0.12031699167E+04  0.12041137080E+04  0.00000000000E+00 0.  1.
         12    1    3    3    0    0 -0.11323189647E+02 -0.39387563420E+02 -0.50547925245E+03  0.50713791954E+03  0.00000000000E+00 0. -1.
         11    1    5    5    0    0  0.42603297209E+02  0.23276617605E+02  0.26753524360E+03  0.27190430012E+03  0.00000000000E+00 0. -1.
        -12    1    5    5    0    0 -0.17427428933E+01 -0.16452153889E+02  0.83846321443E+01  0.18547576030E+02  0.00000000000E+00 0.  1.
          5    1    4    4  501    0  0.57142680574E+02 -0.12186333049E+02 -0.52665645338E+02  0.78771411408E+02  0.41800000000E+01 0. -1.
         -5    1    4    4    0  501 -0.49841199205E+02  0.14502569211E+02  0.11137517331E+02  0.53253979609E+02  0.41800000000E+01 0. -1.
</event>
<event>
11    1  0.8037748E-009  0.1401370E+03  0.7561462E-02  0.1107406E+00
         22   -1    0    0    0    0  0.00000000000E+00  0.00000000000E+00  0.15997726451E+03  0.15997726451E+03  0.00000000000E+00 0.  1.
         22   -1    0    0    0    0 -0.00000000000E+00 -0.00000000000E+00 -0.11479073785E+04  0.11479073785E+04  0.00000000000E+00 0.  1.
        -24    2    1    2    0    0 -0.40112977955E+02 -0.46525409852E+02 -0.10147057709E+04  0.10197592516E+04  0.80668860128E+02 0.  0.
         25    2    1    2    0    0  0.88932701853E+02  0.68586463229E+02 -0.37270832036E+02  0.17218503523E+03  0.12508174542E+03 0.  0.
         24    2    1    2    0    0 -0.48819723898E+02 -0.22061053377E+02  0.64046488890E+02  0.11594035622E+03  0.80437291995E+02 0.  0.
        -13    1    5    5    0    0 -0.70383369212E+02 -0.23232051412E+02  0.42521314848E+02  0.85449453426E+02  0.00000000000E+00 0.  1.
         14    1    5    5    0    0  0.21563645313E+02  0.11709980355E+01  0.21525174042E+02  0.30490902793E+02  0.00000000000E+00 0. -1.
         11    1    3    3    0    0 -0.18066643322E+02 -0.33600605114E+02 -0.15333888364E+03  0.15801334596E+03  0.00000000000E+00 0. -1.
        -12    1    3    3    0    0 -0.22046334632E+02 -0.12924804738E+02 -0.86136688723E+03  0.86174590563E+03  0.00000000000E+00 0.  1.
          5    1    4    4  501    0  0.11869791918E+01  0.58420964602E+02  0.25344837527E+02  0.63829861459E+02  0.41800000000E+01 0.  1.
         -5    1    4    4    0  501  0.87745722661E+02  0.10165498627E+02 -0.62615669562E+02  0.10835517377E+03  0.41800000000E+01 0.  1.
</event>
<event>
11    1  0.8037748E-009  0.1499822E+03  0.7561462E-02  0.1096897E+00
         22   -1    0    0    0    0  0.00000000000E+00  0.00000000000E+00  0.21802033984E+03  0.21802033984E+03  0.00000000000E+00 0.  1.
         22   -1    0    0    0    0 -0.00000000000E+00 -0.00000000000E+00 -0.53804338068E+03  0.53804338068E+03  0.00000000000E+00 0.  1.
        -24    2    1    2    0    0  0.66033150139E+02  0.43927619674E+02 -0.43017045711E+03  0.44470889062E+03  0.80183305830E+02 0.  0.
         25    2    1    2    0    0 -0.11086290527E+03 -0.87098673712E+02  0.49147139563E+02  0.19477738021E+03  0.12508406689E+03 0.  0.
         24    2    1    2    0    0  0.44829755126E+02  0.43171054039E+02  0.61000276700E+02  0.11657744969E+03  0.77432687975E+02 0.  0.
        -13    1    5    5    0    0  0.51619135143E+02  0.22236492189E+01  0.53542767472E+02  0.74406368527E+02  0.00000000000E+00 0.  1.
         14    1    5    5    0    0 -0.67893800169E+01  0.40947404820E+02  0.74575092278E+01  0.42171081162E+02  0.00000000000E+00 0. -1.
         11    1    3    3    0    0  0.28090424999E+02 -0.19861161351E+02 -0.19791020692E+03  0.20087804188E+03  0.00000000000E+00 0. -1.
        -12    1    3    3    0    0  0.37942725140E+02  0.63788781025E+02 -0.23226025019E+03  0.24383084873E+03  0.00000000000E+00 0.  1.
          5    1    4    4  501    0 -0.66295063530E+02  0.20077610574E+02  0.35147708632E+02  0.77788043534E+02  0.41800000000E+01 0. -1.
         -5    1    4    4    0  501 -0.44567841735E+02 -0.10717628429E+03  0.13999430932E+02  0.11698933668E+03  0.41800000000E+01 0. -1.
</event>
<event>
11    1  0.8037748E-009  0.1741992E+03  0.7561462E-02  0.1074434E+00
         22   -1    0    0    0    0  0.00000000000E+00  0.00000000000E+00  0.55732883836E+03  0.55732883836E+03  0.00000000000E+00 0. -1.
         22   -1    0    0    0    0 -0.00000000000E+00 -0.00000000000E+00 -0.77978616574E+03  0.77978616574E+03  0.00000000000E+00 0. -1.
        -24    2    1    2    0    0 -0.11949200779E+02 -0.13979226969E+02 -0.69634371121E+03  0.70144282138E+03  0.82396998388E+02 0.  0.
         25    2    1    2    0    0  0.44926526846E+02 -0.10420498059E+03  0.34108239447E+02  0.17230904534E+03  0.12509981740E+03 0.  0.
         24    2    1    2    0    0 -0.32977326067E+02  0.11818420756E+03  0.43977814438E+03  0.46336313737E+03  0.79028917774E+02 0.  0.
        -11    1    5    5    0    0  0.74260190784E+01  0.97286397019E+02  0.25394730989E+03  0.27204599795E+03  0.00000000000E+00 0.  1.
         12    1    5    5    0    0 -0.40403345145E+02  0.20897810543E+02  0.18583083450E+03  0.19131713942E+03  0.00000000000E+00 0. -1.
         13    1    3    3    0    0 -0.34761751375E+02  0.68772665193E+00 -0.60885537146E+03  0.60984728882E+03  0.00000000000E+00 0. -1.
        -14    1    3    3    0    0  0.22812550596E+02 -0.14666953621E+02 -0.87488339745E+02  0.91595532558E+02  0.00000000000E+00 0.  1.
          5    1    4    4  501    0  0.17842043980E+02 -0.12997496372E+03  0.27632992240E+02  0.13413755770E+03  0.41800000000E+01 0. -1.
         -5    1    4    4    0  501  0.27084482866E+02  0.25769983123E+02  0.64752472071E+01  0.38171487640E+02  0.41800000000E+01 0. -1.
</event>
<event>
11    1  0.8037748E-009  0.1417980E+03  0.7561462E-02  0.1105567E+00
         22   -1    0    0    0    0  0.00000000000E+00  0.00000000000E+00  0.24933706199E+02  0.24933706199E+02  0.00000000000E+00 0. -1.
         22   -1    0    0    0    0 -0.00000000000E+00 -0.00000000000E+00 -0.19518471134E+04  0.19518471134E+04  0.00000000000E+00 0. -1.
         24    2    1    2    0    0  0.31679179233E+02  0.47827344308E+02 -0.10815414168E+04  0.10857718901E+04  0.76666392995E+02 0.  0.
         25    2    1    2    0    0 -0.91517581555E+02 -0.34862427806E+02 -0.67004485082E+03  0.68862053529E+03  0.12508909987E+03 0.  0.
        -24    2    1    2    0    0  0.59838402322E+02 -0.12964916502E+02 -0.17532713955E+03  0.20238839418E+03  0.80453295667E+02 0.  0.
        -13    1    3    3    0    0 -0.23971445620E+02  0.17972221645E+02 -0.47723321662E+03  0.47817274494E+03  0.00000000000E+00 0.  1.
         14    1    3    3    0    0  0.55650624852E+02  0.29855122663E+02 -0.60430820018E+03  0.60759914516E+03  0.00000000000E+00 0. -1.
         11    1    5    5    0    0  0.28929662989E+02 -0.39451501230E+02 -0.14064929362E+03  0.14891464047E+03  0.00000000000E+00 0. -1.
        -12    1    5    5    0    0  0.30908739333E+02  0.26486584728E+02 -0.34677845931E+02  0.53473753712E+02  0.00000000000E+00 0.  1.
          5    1    4    4  501    0  0.29155016686E+02  0.83377416660E+01 -0.13278687754E+03  0.13626943964E+03  0.41800000000E+01 0. -1.
         -5    1    4    4    0  501 -0.12067259824E+03 -0.43200169472E+02 -0.53725797328E+03  0.55235109564E+03  0.41800000000E+01 0. -1.
</event>
<event>
11    1  0.8037748E-009  0.1367193E+03  0.7561462E-02  0.1111278E+00
         22   -1    0    0    0    0  0.00000000000E+00  0.00000000000E+00  0.33276894952E+03  0.33276894952E+03  0.00000000000E+00 0. -1.
         22   -1    0    0    0    0 -0.00000000000E+00 -0.00000000000E+00 -0.16928754352E+03  0.16928754352E+03  0.00000000000E+00 0. -1.
        -24    2    1    2    0    0  0.38790010417E+02 -0.46392844567E+02 -0.98638120667E+02  0.13966330375E+03  0.78226585182E+02 0.  0.
         25    2    1    2    0    0 -0.16729862212E+02  0.24285385641E+02  0.58442127754E+02  0.14118587624E+03  0.12509316971E+03 0.  0.
         24    2    1    2    0    0 -0.22060148205E+02  0.22107458926E+02  0.20367739891E+03  0.22120731306E+03  0.80453729838E+02 0.  0.
        -11    1    5    5    0    0 -0.39458452213E+02  0.53263232751E+01  0.42538534013E+02  0.58265479030E+02  0.00000000000E+00 0.  1.
         12    1    5    5    0    0  0.17398304008E+02  0.16781135651E+02  0.16113886490E+03  0.16294183403E+03  0.00000000000E+00 0. -1.
         11    1    3    3    0    0  0.89305480102E+01 -0.31723358199E+02 -0.10106880684E+03  0.10630630207E+03  0.00000000000E+00 0. -1.
        -12    1    3    3    0    0  0.29859462407E+02 -0.14669486369E+02  0.24306861755E+01  0.33357001676E+02  0.00000000000E+00 0.  1.
          5    1    4    4  501    0  0.85079409055E+01  0.71474635830E+02  0.18959453207E+02  0.74551605559E+02  0.41800000000E+01 0. -1.
         -5    1    4    4    0  501 -0.25237803117E+02 -0.47189250189E+02  0.39482674547E+02  0.66634270679E+02  0.41800000000E+01 0. -1.
</event>
<event>
11    1  0.8037748E-009  0.1551764E+03  0.7561462E-02  0.1091704E+00
         22   -1    0    0    0    0  0.00000000000E+00  0.00000000000E+00  0.93758696844E+03  0.93758696844E+03  0.00000000000E+00 0.  1.
         22   -1    0    0    0    0 -0.00000000000E+00 -0.00000000000E+00 -0.22415216571E+03  0.22415216571E+03  0.00000000000E+00 0.  1.
         24    2    1    2    0    0  0.79718871071E+02  0.51198322349E+02 -0.15975946256E+03  0.20276012724E+03  0.81315537896E+02 0.  0.
         25    2    1    2    0    0 -0.58251493609E+02 -0.46623960857E+02  0.89914390868E+02  0.17115958027E+03  0.12507587297E+03 0.  0.
        -24    2    1    2    0    0 -0.21467377462E+02 -0.45743614924E+01  0.78327987442E+03  0.78781942664E+03  0.81549458810E+02 0.  0.
        -13    1    3    3    0    0  0.73564380889E+02  0.22649802668E+02 -0.15514993619E+03  0.17319421006E+03  0.00000000000E+00 0.  1.
         14    1    3    3    0    0  0.61544901812E+01  0.28548519682E+02 -0.46095263685E+01  0.29565917181E+02  0.00000000000E+00 0. -1.
         13    1    5    5    0    0 -0.27095637254E+01 -0.40377717730E+02  0.50507817776E+03  0.50669682008E+03  0.00000000000E+00 0. -1.
        -14    1    5    5    0    0 -0.18757813737E+02  0.35803356237E+02  0.27820169666E+03  0.28112260656E+03  0.00000000000E+00 0.  1.
          5    1    4    4  501    0 -0.25325375032E+02 -0.47854613659E+02 -0.18814649658E+02  0.57470880546E+02  0.41800000000E+01 0.  1.
         -5    1    4    4    0  501 -0.32926118576E+02  0.12306528022E+01  0.10872904053E+03  0.11368869972E+03  0.41800000000E+01 0.  1.
</event>
<event>
11    1  0.8037748E-009  0.1852034E+03  0.7561462E-02  0.1065510E+00
         22   -1    0    0    0    0  0.00000000000E+00  0.00000000000E+00  0.20721979011E+03  0.20721979011E+03  0.00000000000E+00 0.  1.
         22   -1    0    0    0    0 -0.00000000000E+00 -0.00000000000E+00 -0.79516286054E+03  0.79516286054E+03  0.00000000000E+00 0.  1.
        -24    2    1    2    0    0  0.80990938329E+01  0.17439255602E+02 -0.59327409152E+03  0.59899595978E+03  0.80326142755E+02 0.  0.
         25    2    1    2    0    0 -0.11924786674E+03  0.63173774829E+02 -0.10225891633E+03  0.21051214091E+03  0.12508995144E+03 0.  0.
         24    2    1    2    0    0  0.11114877291E+03 -0.80613030431E+02  0.10758993742E+03  0.19287454996E+03  0.82295121320E+02 0.  0.
        -13    1    5    5    0    0  0.70950311263E+02 -0.87545019105E+02  0.10144643884E+03  0.15162274563E+03  0.00000000000E+00 0.  1.
         14    1    5    5    0    0  0.40198461647E+02  0.69319886740E+01  0.61434985795E+01  0.41251804331E+02  0.00000000000E+00 0. -1.
         13    1    3    3    0    0  0.36597637429E+02 -0.84191885034E+01 -0.17660053275E+03  0.18054921204E+03  0.00000000000E+00 0. -1.
        -14    1    3    3    0    0 -0.28498543596E+02  0.25858444105E+02 -0.41667355876E+03  0.41844674774E+03  0.00000000000E+00 0.  1.
          5    1    4    4  501    0 -0.81644675485E+02  0.80256118947E+02 -0.17175712036E+02  0.11584202669E+03  0.41800000000E+01 0. -1.
         -5    1    4    4    0  501 -0.37603191259E+02 -0.17082344118E+02 -0.85083204296E+02  0.94670114221E+02  0.41800000000E+01 0. -1.
</event>
<event>
11    1  0.8037748E-009  0.1357551E+03  0.7561462E-02  0.1112393E+00
         22   -1    0    0    0    0  0.00000000000E+00  0.00000000000E+00  0.19808770285E+03  0.19808770285E+03  0.00000000000E+00 0. -1.
         22   -1    0    0    0    0 -0.00000000000E+00 -0.00000000000E+00 -0.13263526822E+04  0.13263526822E+04  0.00000000000E+00 0.  1.
        -24    2    1    2    0    0  0.46199368557E+02 -0.25227067065E+02 -0.12133845825E+04  0.12171738352E+04  0.80244709178E+02 0.  0.
         25    2    1    2    0    0 -0.70545993285E+02 -0.17692836648E+02 -0.39975589152E+02  0.15013655128E+03  0.12511259994E+03 0.  0.
         24    2    1    2    0    0  0.24346624728E+02  0.42919903713E+02  0.12509519234E+03  0.15712999858E+03  0.81278244560E+02 0.  0.
        -13    1    5    5    0    0 -0.16823592705E+02 -0.48591200276E+01  0.54312193740E+00  0.17519683227E+02  0.00000000000E+00 0.  1.
         14    1    5    5    0    0  0.41170217433E+02  0.47779023741E+02  0.12455207040E+03  0.13961031536E+03  0.00000000000E+00 0. -1.
         11    1    3    3    0    0 -0.20420649852E+02 -0.64375077086E+01 -0.49482099081E+03  0.49528401690E+03  0.00000000000E+00 0. -1.
        -12    1    3    3    0    0  0.66620018408E+02 -0.18789559357E+02 -0.71856359171E+03  0.72188981827E+03  0.00000000000E+00 0.  1.
          5    1    4    4  501    0 -0.44872187712E+02 -0.71716571227E+02 -0.21346903494E+02  0.87349542113E+02  0.41800000000E+01 0. -1.
         -5    1    4    4    0  501 -0.25673805573E+02  0.54023734579E+02 -0.18628685658E+02  0.62787009164E+02  0.41800000000E+01 0. -1.
</event>
<event>
11    1  0.8037748E-009  0.2122047E+03  0.7561462E-02  0.1046214E+00
         22   -1    0    0    0    0  0.00000000000E+00  0.00000000000E+00  0.12590485147E+03  0.12590485147E+03  0.00000000000E+00 0. -1.
         22   -1    0    0    0    0 -0.00000000000E+00 -0.00000000000E+00 -0.13426997569E+04  0.13426997569E+04  0.00000000000E+00 0. -1.
        -24    2    1    2    0    0 -0.41513204996E+02 -0.77477411553E+02 -0.99060338247E+03  0.99768209998E+03  0.79676946240E+02 0.  0.
         25    2    1    2    0    0  0.23958980114E+02  0.21604635521E+03 -0.12246472002E+03  0.27909641615E+03  0.12508853478E+03 0.  0.
         24    2    1    2    0    0  0.17554224883E+02 -0.13856894366E+03 -0.10372680291E+03  0.19182609220E+03  0.80799115403E+02 0.  0.
        -13    1    5    5    0    0  0.16366583809E+01 -0.16937039273E+02  0.13826161130E+02  0.21924978485E+02  0.00000000000E+00 0.  1.
         14    1    5    5    0    0  0.15917566502E+02 -0.12163190439E+03 -0.11755296404E+03  0.16990111372E+03  0.00000000000E+00 0. -1.
         11    1    3    3    0    0 -0.57480709638E+02 -0.27162703020E+02 -0.63625436060E+03  0.63942275202E+03  0.00000000000E+00 0. -1.
        -12    1    3    3    0    0  0.15967504642E+02 -0.50314708533E+02 -0.35434902187E+03  0.35825934796E+03  0.00000000000E+00 0.  1.
          5    1    4    4  501    0  0.65613854978E+01  0.17135482498E+03 -0.14623669030E+03  0.22540667650E+03  0.41800000000E+01 0.  1.
         -5    1    4    4    0  501  0.17397594616E+02  0.44691530231E+02  0.23771970280E+02  0.53689739651E+02  0.41800000000E+01 0.  1.
</event>
<event>
11    1  0.8037748E-009  0.1577351E+03  0.7561462E-02  0.1089227E+00
         22   -1    0    0    0    0  0.00000000000E+00  0.00000000000E+00  0.70368901350E+03  0.70368901350E+03  0.00000000000E+00 0. -1.
         22   -1    0    0    0    0 -0.00000000000E+00 -0.00000000000E+00 -0.77547504886E+03  0.77547504886E+03  0.00000000000E+00 0.  1.
         24    2    1    2    0    0 -0.44649288488E+02 -0.13623981398E+02 -0.61076168578E+03  0.61742097565E+03  0.77457423946E+02 0.  0.
         25    2    1    2    0    0  0.13879789685E+03  0.56442444822E+01 -0.99163935774E+02  0.21160197414E+03  0.12508075646E+03 0.  0.
        -24    2    1    2    0    0 -0.94148608365E+02  0.79797369160E+01  0.63813958620E+03  0.65014111258E+03  0.80831294271E+02 0.  0.
        -11    1    3    3    0    0 -0.41846480551E+02 -0.40404348843E+02 -0.30656174058E+03  0.31203163322E+03  0.00000000000E+00 0.  1.
         12    1    3    3    0    0 -0.28028079367E+01  0.26780367444E+02 -0.30419994520E+03  0.30538934243E+03  0.00000000000E+00 0. -1.
         11    1    5    5    0    0 -0.63705107546E+02 -0.20248032310E+02  0.53179803027E+03  0.53598271291E+03  0.00000000000E+00 0. -1.
        -12    1    5    5    0    0 -0.30443500819E+02  0.28227769226E+02  0.10634155593E+03  0.11415839967E+03  0.00000000000E+00 0.  1.
          5    1    4    4  501    0 -0.16385151966E+02 -0.15643882264E+02  0.48339938954E+01  0.23538142540E+02  0.41800000000E+01 0.  1.
         -5    1    4    4    0  501  0.15518304882E+03  0.21288126747E+02 -0.10399792967E+03  0.18806383160E+03  0.41800000000E+01 0.  1.
</event>
<event>
11    1  0.8037748E-009  0.2073047E+03  0.7561462E-02  0.1049475E+00
         22   -1    0    0    0    0  0.00000000000E+00  0.00000000000E+00  0.10969651223E+04  0.10969651223E+04  0.00000000000E+00 0. -1.
         22   -1    0    0    0    0 -0.00000000000E+00 -0.00000000000E+00 -0.99484699943E+03  0.99484699943E+03  0.00000000000E+00 0.  1.
        -24    2    1    2    0    0  0.50422476078E+02 -0.75571488700E+02 -0.93277760318E+03  0.94058104943E+03  0.79782062862E+02 0.  0.
         25    2    1    2    0    0 -0.20659152619E+03  0.51359010372E+02  0.26910597556E+03  0.36521945897E+03  0.12509764383E+03 0.  0.
         24    2    1    2    0    0  0.15616905011E+03  0.24212478327E+02  0.76578975051E+03  0.78601161335E+03  0.80033105672E+02 0.  0.
        -13    1    5    5    0    0  0.11143593403E+02 -0.69467288080E+01  0.12076230635E+02  0.17840181093E+02  0.00000000000E+00 0.  1.
         14    1    5    5    0    0  0.14502545671E+03  0.31159207135E+02  0.75371351988E+03  0.76817143225E+03  0.00000000000E+00 0. -1.
         13    1    3    3    0    0  0.33090880385E+01  0.17388598841E+01 -0.41033380614E+03  0.41035083301E+03  0.00000000000E+00 0. -1.
        -14    1    3    3    0    0  0.47113388039E+02 -0.77310348584E+02 -0.52244379705E+03  0.53023021642E+03  0.00000000000E+00 0.  1.
          5    1    4    4  501    0 -0.12275902408E+03 -0.32864161861E+02  0.12383164450E+03  0.17748684376E+03  0.41800000000E+01 0. -1.
         -5    1    4    4    0  501 -0.83832502109E+02  0.84223172234E+02  0.14527433106E+03  0.18773261521E+03  0.41800000000E+01 0. -1.
</event>
<event>
11    1  0.8037748E-009  0.1935575E+03  0.7561462E-02  0.1059175E+00
         22   -1    0    0    0    0  0.00000000000E+00  0.00000000000E+00  0.58377295476E+03  0.58377295476E+03  0.00000000000E+00 0. -1.
         22   -1    0    0    0    0 -0.00000000000E+00 -0.00000000000E+00 -0.42812275744E+03  0.42812275744E+03  0.00000000000E+00 0. -1.
        -24    2    1    2    0    0  0.14433702655E+03 -0.10601959095E+02 -0.33188050187E+03  0.37091033240E+03  0.80524706710E+02 0.  0.
         25    2    1    2    0    0 -0.17220437071E+03 -0.40630341370E+01  0.84443771789E+02  0.22902422887E+03  0.12510193156E+03 0.  0.
         24    2    1    2    0    0  0.27867344158E+02  0.14664993232E+02  0.40308692740E+03  0.41196115092E+03  0.79001695781E+02 0.  0.
        -13    1    5    5    0    0 -0.14964992287E+02  0.18047625754E+02  0.29065828678E+03  0.29160231046E+03  0.00000000000E+00 0.  1.
         14    1    5    5    0    0  0.42832336444E+02 -0.33826325215E+01  0.11242864062E+03  0.12035884047E+03  0.00000000000E+00 0. -1.
         13    1    3    3    0    0  0.83118766735E+02 -0.45078775282E+02 -0.20822600161E+03  0.22868951246E+03  0.00000000000E+00 0. -1.
        -14    1    3    3    0    0  0.61218259815E+02  0.34476816187E+02 -0.12365450026E+03  0.14222081993E+03  0.00000000000E+00 0.  1.
          5    1    4    4  501    0 -0.70978469298E+02 -0.81165866982E+01  0.10352419907E+03  0.12585131814E+03  0.41800000000E+01 0.  1.
         -5    1    4    4    0  501 -0.10122590141E+03  0.40535525611E+01 -0.19080427282E+02  0.10317291074E+03  0.41800000000E+01 0.  1.
</event>
<event>
11    1  0.8037748E-009  0.1530178E+03  0.7561462E-02  0.1093835E+00
         22   -1    0    0    0    0  0.00000000000E+00  0.00000000000E+00  0.10161050428E+04  0.10161050428E+04  0.00000000000E+00 0.  1.
         22   -1    0    0    0    0 -0.00000000000E+00 -0.00000000000E+00 -0.43517193166E+02  0.43517193166E+02  0.00000000000E+00 0. -1.
         24    2    1    2    0    0 -0.19787002347E+02 -0.21749283619E+02  0.91842475709E+02  0.12561875522E+03  0.80501394511E+02 0.  0.
         25    2    1    2    0    0 -0.64318590873E+02  0.54350827164E+02  0.25087355430E+03  0.29270516259E+03  0.12509148018E+03 0.  0.
        -24    2    1    2    0    0  0.84105593220E+02 -0.32601543544E+02  0.62987181958E+03  0.64129831811E+03  0.79927543842E+02 0.  0.
        -13    1    3    3    0    0  0.40359349437E+01 -0.39818425115E+02  0.86410548579E+02  0.95229085133E+02  0.00000000000E+00 0.  1.
         14    1    3    3    0    0 -0.23822937290E+02  0.18069141496E+02  0.54319271304E+01  0.30389670085E+02  0.00000000000E+00 0. -1.
         11    1    5    5    0    0 -0.23163907143E+01  0.19171711183E+02  0.12371407577E+03  0.12521219078E+03  0.00000000000E+00 0. -1.
        -12    1    5    5    0    0  0.86421983934E+02 -0.51773254728E+02  0.50615774381E+03  0.51608612734E+03  0.00000000000E+00 0.  1.
          5    1    4    4  501    0 -0.57572849709E+01  0.33258054186E+02  0.22088361874E+03  0.22348666610E+03  0.41800000000E+01 0. -1.
         -5    1    4    4    0  501 -0.58561305903E+02  0.21092772978E+02  0.29989935565E+02  0.69218496488E+02  0.41800000000E+01 0. -1.
</event>
<event>
11    1  0.8037748E-009  0.1691393E+03  0.7561462E-02  0.1078783E+00
         22   -1    0    0    0    0  0.00000000000E+00  0.00000000000E+00  0.90830658529E+03  0.90830658529E+03  0.00000000000E+00 0. -1.
         22   -1    0    0    0    0 -0.00000000000E+00 -0.00000000000E+00 -0.27299993323E+03  0.27299993323E+03  0.00000000000E+00 0.  1.
        -24    2    1    2    0    0  0.13441075171E+01  0.48641244019E+02 -0.20661948037E+03  0.22681083290E+03  0.79898479368E+02 0.  0.
         25    2    1    2    0    0 -0.11399366902E+03 -0.58445237840E+02  0.11093631906E+03  0.21062905523E+03  0.12508928658E+03 0.  0.
         24    2    1    2    0    0  0.11264956150E+03  0.98039938212E+01  0.73098981337E+03  0.74386663040E+03  0.78774453731E+02 0.  0.
        -13    1    5    5    0    0  0.38792215571E+02 -0.32121653312E+02  0.34400291490E+03  0.34767030656E+03  0.00000000000E+00 0.  1.
         14    1    5    5    0    0  0.73857345930E+02  0.41925647133E+02  0.38698689847E+03  0.39619632384E+03  0.00000000000E+00 0. -1.
         11    1    3    3    0    0  0.31945057149E+02  0.34892778883E+02 -0.17286307507E+03  0.17921951740E+03  0.00000000000E+00 0. -1.
        -12    1    3    3    0    0 -0.30600949632E+02  0.13748465136E+02 -0.33756405310E+02  0.47591315504E+02  0.00000000000E+00 0.  1.
          5    1    4    4  501    0  0.49981109963E+01 -0.46301501954E+02  0.69918820333E+02  0.84112567631E+02  0.41800000000E+01 0.  1.
         -5    1    4    4    0  501 -0.11899178001E+03 -0.12143735886E+02  0.41017498723E+02  0.12651648760E+03  0.41800000000E+01 0.  1.
</event>
<event>
11    1  0.8037748E-009  0.1611887E+03  0.7561462E-02  0.1085965E+00
         22   -1    0    0    0    0  0.00000000000E+00  0.00000000000E+00  0.36582654448E+03  0.36582654448E+03  0.00000000000E+00 0. -1.
         22   -1    0    0    0    0 -0.00000000000E+00 -0.00000000000E+00 -0.22846413792E+03  0.22846413792E+03  0.00000000000E+00 0.  1.
         24    2    1    2    0    0 -0.34675572540E+02  0.93968537265E+02 -0.11781151963E+03  0.17788628619E+03  0.87928922038E+02 0.  0.
         25    2    1    2    0    0  0.17182618436E+02 -0.10631958593E+03  0.17339401411E+02  0.16597476122E+03  0.12509144572E+03 0.  0.
        -24    2    1    2    0    0  0.17492954104E+02  0.12351048660E+02  0.23783452478E+03  0.25042963498E+03  0.75439969874E+02 0.  0.
        -13    1    3    3    0    0 -0.25497009656E+02  0.43576110173E+02 -0.11613814897E+03  0.12663745309E+03  0.00000000000E+00 0.  1.
         14    1    3    3    0    0 -0.91785628843E+01  0.50392427092E+02 -0.16733706604E+01  0.51248833101E+02  0.00000000000E+00 0. -1.
         13    1    5    5    0    0  0.20623188942E+02  0.39349239136E+02  0.92992040305E+02  0.10305919708E+03  0.00000000000E+00 0. -1.
        -14    1    5    5    0    0 -0.31302348376E+01 -0.26998190476E+02  0.14484248447E+03  0.14737043790E+03  0.00000000000E+00 0.  1.
          5    1    4    4  501    0 -0.35130651297E+02 -0.45817308698E+02 -0.37442044926E+02  0.68940318865E+02  0.41800000000E+01 0.  1.
         -5    1    4    4    0  501  0.52313269733E+02 -0.60502277227E+02  0.54781446338E+02  0.97034442353E+02  0.41800000000E+01 0.  1.
</event>
<event>
11    1  0.8037748E-009  0.1446672E+03  0.7561462E-02  0.1102456E+00
         22   -1    0    0    0    0  0.00000000000E+00  0.00000000000E+00  0.96142386285E+02  0.96142386285E+02  0.00000000000E+00 0.  1.
         22   -1    0    0    0    0 -0.00000000000E+00 -0.00000000000E+00 -0.14167369863E+04  0.14167369863E+04  0.00000000000E+00 0. -1.
         24    2    1    2    0    0 -0.31905827561E+02 -0.44820910776E+02 -0.11365663262E+04  0.11402965860E+04  0.73935069355E+02 0.  0.
         25    2    1    2    0    0  0.94721495300E+02  0.64312706543E+02 -0.20506370941E+03  0.26609648461E+03  0.12509167962E+03 0.  0.
        -24    2    1    2    0    0 -0.62815667739E+02 -0.19491795767E+02  0.21035435522E+02  0.10648630198E+03  0.81062350972E+02 0.  0.
        -11    1    3    3    0    0 -0.54575808978E+01  0.14158923387E+02 -0.63605707974E+02  0.65390720959E+02  0.00000000000E+00 0.  1.
         12    1    3    3    0    0 -0.26448246663E+02 -0.58979834163E+02 -0.10729606182E+04  0.10749058651E+04  0.00000000000E+00 0. -1.
         11    1    5    5    0    0 -0.19884540451E+02 -0.99981801804E+01 -0.31126755558E+02  0.38265303702E+02  0.00000000000E+00 0. -1.
        -12    1    5    5    0    0 -0.42931127288E+02 -0.94936155868E+01  0.52162191080E+02  0.68220998274E+02  0.00000000000E+00 0.  1.
          5    1    4    4  501    0  0.64113773464E+02  0.29039046484E+02 -0.17343943496E+02  0.72609413607E+02  0.41800000000E+01 0.  1.
         -5    1    4    4    0  501  0.30607721837E+02  0.35273660060E+02 -0.18771976592E+03  0.19348707100E+03  0.41800000000E+01 0.  1.
</event>
<event>
11    1  0.8037748E-009  0.1540518E+03  0.7561462E-02  0.1092809E+00
         22   -1    0    0    0    0  0.00000000000E+00  0.00000000000E+00  0.10840375397E+04  0.10840375397E+04  0.00000000000E+00 0. -1.
         22   -1    0    0    0    0 -0.00000000000E+00 -0.00000000000E+00 -0.58466739217E+02  0.58466739217E+02  0.00000000000E+00 0. -1.
         24    2    1    2    0    0  0.83828330220E+01 -0.37745039474E+02 -0.25507148642E+00  0.76801246873E+02  0.66358168792E+02 0.  0.
         25    2    1    2    0    0 -0.42676118271E+02 -0.56206605298E+02  0.36532914684E+03  0.39254706570E+03  0.12508948683E+03 0.  0.
        -24    2    1    2    0    0  0.34293285248E+02  0.93951644772E+02  0.66049672511E+03  0.67315596632E+03  0.82946308776E+02 0.  0.
        -11    1    3    3    0    0 -0.21164159959E+02  0.68821387891E+01 -0.57840841316E+01  0.22994371710E+02  0.00000000000E+00 0.  1.
         12    1    3    3    0    0  0.29546992981E+02 -0.44627178263E+02  0.55290126451E+01  0.53806875163E+02  0.00000000000E+00 0. -1.
         13    1    5    5    0    0  0.56436755765E+02  0.88248674225E+02  0.58379175809E+03  0.59311529462E+03  0.00000000000E+00 0. -1.
        -14    1    5    5    0    0 -0.22143470516E+02  0.57029705469E+01  0.76704967020E+02  0.80040671693E+02  0.00000000000E+00 0.  1.
          5    1    4    4  501    0  0.36332629615E+02 -0.35512920718E+02  0.21959857166E+03  0.22543786857E+03  0.41800000000E+01 0. -1.
         -5    1    4    4    0  501 -0.79008747886E+02 -0.20693684580E+02  0.14573057518E+03  0.16710919713E+03  0.41800000000E+01 0. -1.
</event>
<event>
11    1  0.8037748E-009  0.1463785E+03  0.7561462E-02  0.1100638E+00
         22   -1    0    0    0    0  0.00000000000E+00  0.00000000000E+00  0.23465985959E+03  0.23465985959E+03  0.00000000000E+00 0.  1.
         22   -1    0    0    0    0 -0.00000000000E+00 -0.00000000000E+00 -0.82590493233E+03  0.82590493233E+03  0.00000000000E+00 0. -1.
         24    2    1    2    0    0  0.15020719696E+02  0.75816307623E+02 -0.49848879228E+03  0.51023518819E+03  0.76649440441E+02 0.  0.
         25    2    1    2    0    0 -0.32561966955E+01 -0.72994506251E+02 -0.29700324822E+03  0.33044793904E+03  0.12508441229E+03 0.  0.
        -24    2    1    2    0    0 -0.11764523000E+02 -0.28218013720E+01  0.20424696776E+03  0.21988166469E+03  0.80527983117E+02 0.  0.
        -13    1    3    3    0    0  0.23982236354E+02  0.39410464248E+02 -0.10164857896E+03  0.11162780101E+03  0.00000000000E+00 0.  1.
         14    1    3    3    0    0 -0.89615166581E+01  0.36405843375E+02 -0.39684021332E+03  0.39860738719E+03  0.00000000000E+00 0. -1.
         13    1    5    5    0    0 -0.36089549302E+02 -0.13519662304E+02  0.48814500806E+02  0.62193989473E+02  0.00000000000E+00 0. -1.
        -14    1    5    5    0    0  0.24325026302E+02  0.10697860932E+02  0.15543246695E+03  0.15768767522E+03  0.00000000000E+00 0.  1.
          5    1    4    4  501    0 -0.41769863746E+02 -0.50572749079E+02 -0.27062743381E+03  0.27849417372E+03  0.41800000000E+01 0. -1.
         -5    1    4    4    0  501  0.38513667051E+02 -0.22421757172E+02 -0.26375814417E+02  0.51953765316E+02  0.41800000000E+01 0. -1.
</event>
<event>
11    1  0.8037748E-009  0.1349196E+03  0.7561462E-02  0.1113368E+00
         22   -1    0    0    0    0  0.00000000000E+00  0.00000000000E+00  0.11232353104E+04  0.11232353104E+04  0.00000000000E+00 0. -1.
         22   -1    0    0    0    0 -0.00000000000E+00 -0.00000000000E+00 -0.29565648795E+03  0.29565648795E+03  0.00000000000E+00 0.  1.
        -24    2    1    2    0    0 -0.23030672406E+02  0.51376779922E+02 -0.23099145108E+03  0.25144035610E+03  0.81824304560E+02 0.  0.
         25    2    1    2    0    0  0.19267511304E+01 -0.82783420446E+01  0.22828436189E+02  0.12743842919E+03  0.12508865823E+03 0.  0.
         24    2    1    2    0    0  0.21103921276E+02 -0.43098437877E+02  0.10357418373E+04  0.10400130130E+04  0.81012732846E+02 0.  0.
        -13    1    5    5    0    0  0.28316207241E+02  0.17369633102E+02  0.35066765219E+03  0.35223758181E+03  0.00000000000E+00 0.  1.
         14    1    5    5    0    0 -0.72122859658E+01 -0.60468070979E+02  0.68507418512E+03  0.68777543122E+03  0.00000000000E+00 0. -1.
         11    1    3    3    0    0  0.63311393136E+01  0.13063024854E+02 -0.18230024224E+03  0.18287729291E+03  0.00000000000E+00 0. -1.
        -12    1    3    3    0    0 -0.29361811720E+02  0.38313755068E+02 -0.48691208838E+02  0.68563063183E+02  0.00000000000E+00 0.  1.
          5    1    4    4  501    0  0.32868699304E+01  0.39972083037E+02 -0.34010475847E+02  0.52751832230E+02  0.41800000000E+01 0.  1.
         -5    1    4    4    0  501 -0.13601187999E+01 -0.48250425082E+02  0.56838912035E+02  0.74686596958E+02  0.41800000000E+01 0.  1.
</event>
<event>
11    1  0.8037748E-009  0.1449155E+03  0.7561462E-02  0.1102190E+00
         22   -1    0    0    0    0  0.00000000000E+00  0.00000000000E+00  0.13989780093E+03  0.13989780093E+03  0.00000000000E+00 0. -1.
         22   -1    0    0    0    0 -0.00000000000E+00 -0.00000000000E+00 -0.19323566736E+04  0.19323566736E+04  0.00000000000E+00 0.  1.
        -24    2    1    2    0    0  0.46587679221E+02 -0.26325828171E+01 -0.15072863073E+04  0.15102375527E+04  0.82025062514E+02 0.  0.
         25    2    1    2    0    0  0.26938731232E+02  0.20547513659E+02 -0.38917420171E+03  0.41018581384E+03  0.12509175450E+03 0.  0.
         24    2    1    2    0    0 -0.73526410453E+02 -0.17914930842E+02  0.10400163635E+03  0.15183110805E+03  0.80680029911E+02 0.  0.
        -13    1    5    5    0    0 -0.52465815560E+01  0.27876363038E+02  0.28462262833E+02  0.40183561811E+02  0.00000000000E+00 0.  1.
         14    1    5    5    0    0 -0.68279828897E+02 -0.45791293880E+02  0.75539373515E+02  0.11164754624E+03  0.00000000000E+00 0. -1.
         11    1    3    3    0    0  0.85009680608E+01  0.37596854832E+02 -0.69002478715E+03  0.69110056926E+03  0.00000000000E+00 0. -1.
        -12    1    3    3    0    0  0.38086711160E+02 -0.40229437649E+02 -0.81726152018E+03  0.81913698341E+03  0.00000000000E+00 0.  1.
          5    1    4    4  501    0  0.38448200223E+02  0.59906539157E+02 -0.33277715720E+03  0.34033096581E+03  0.41800000000E+01 0.  1.
         -5    1    4    4    0  501 -0.11509468991E+02 -0.39359025498E+02 -0.56397044510E+02  0.69854848035E+02  0.41800000000E+01 0.  1.
</event>
<event>
11    1  0.8037748E-009  0.1401864E+03  0.7561462E-02  0.1107350E+00
         22   -1    0    0    0    0  0.00000000000E+00  0.00000000000E+00  0.71815941259E+03  0.71815941259E+03  0.00000000000E+00 0.  1.
         22   -1    0    0    0    0 -0.00000000000E+00 -0.00000000000E+00 -0.17805670077E+04  0.17805670077E+04  0.00000000000E+00 0.  1.
        -24    2    1    2    0    0 -0.23533449609E+02  0.48752605815E+02 -0.17334395204E+04  0.17363434004E+04  0.84529246357E+02 0.  0.
         25    2    1    2    0    0  0.23484943702E+02  0.19380666558E+02  0.59707984657E+02  0.14191004713E+03  0.12508503199E+03 0.  0.
         24    2    1    2    0    0  0.48505907334E-01 -0.68133272373E+02  0.61132394066E+03  0.62047297271E+03  0.81410099428E+02 0.  0.
        -11    1    5    5    0    0 -0.20418419068E+02 -0.31695384839E+02  0.50230364028E+03  0.50371664286E+03  0.00000000000E+00 0.  1.
         12    1    5    5    0    0  0.20466924976E+02 -0.36437887534E+02  0.10902030038E+03  0.11675632985E+03  0.00000000000E+00 0. -1.
         11    1    3    3    0    0 -0.10233171384E+02  0.47043311057E+02 -0.40720651796E+03  0.41004260655E+03  0.00000000000E+00 0. -1.
        -12    1    3    3    0    0 -0.13300278225E+02  0.17092947588E+01 -0.13262330024E+04  0.13263007939E+04  0.00000000000E+00 0.  1.
          5    1    4    4  501    0  0.16371087634E+02 -0.21895569994E+02  0.87302481166E+02  0.91578513382E+02  0.41800000000E+01 0.  1.
         -5    1    4    4    0  501  0.71138560679E+01  0.41276236551E+02 -0.27594496508E+02  0.50331533749E+02  0.41800000000E+01 0.  1.
</event>
<event>
11    1  0.8037748E-009  0.2280840E+03  0.7561462E-02  0.1036268E+00
         22   -1    0    0    0    0  0.00000000000E+00  0.00000000000E+00  0.69896361181E+03  0.69896361181E+03  0.00000000000E+00 0. -1.
         22   -1    0    0    0    0 -0.00000000000E+00 -0.00000000000E+00 -0.19217114724E+04  0.19217114724E+04  0.00000000000E+00 0. -1.
        -24    2    1    2    0    0 -0.76471917207E+02 -0.10308456983E+02 -0.18480810984E+04  0.18514561283E+04  0.80819738640E+02 0.  0.
         25    2    1    2    0    0  0.13358020920E+03 -0.16331867962E+03  0.30232175414E+03  0.38930718408E+03  0.12507988305E+03 0.  0.
         24    2    1    2    0    0 -0.57108291995E+02  0.17362713660E+03  0.32301148375E+03  0.37991177182E+03  0.81171399864E+02 0.  0.
        -11    1    5    5    0    0  0.14065305325E+02  0.29588043007E+01  0.32583599454E+02  0.35612894998E+02  0.00000000000E+00 0.  1.
         12    1    5    5    0    0 -0.71173597320E+02  0.17066833230E+03  0.29042788429E+03  0.34429887682E+03  0.00000000000E+00 0. -1.
         11    1    3    3    0    0 -0.68518259482E+02 -0.23459261614E+02 -0.17871426413E+04  0.17886094904E+04  0.00000000000E+00 0. -1.
        -12    1    3    3    0    0 -0.79536577249E+01  0.13150804631E+02 -0.60938457143E+02  0.62846637878E+02  0.00000000000E+00 0.  1.
          5    1    4    4  501    0  0.65928029002E+02 -0.24688292956E+01  0.11933353026E+03  0.13642054087E+03  0.41800000000E+01 0. -1.
         -5    1    4    4    0  501  0.67652180201E+02 -0.16084985032E+03  0.18298822388E+03  0.25288664321E+03  0.41800000000E+01 0. -1.
</event>
<event>
11    1  0.8037748E-009  0.1530774E+03  0.7561462E-02  0.1093775E+00
         22   -1    0    0    0    0  0.00000000000E+00  0.00000000000E+00  0.60437255744E+02  0.60437255744E+02  0.00000000000E+00 0.  1.
         22   -1    0    0    0    0 -0.00000000000E+00 -0.00000000000E+00 -0.11080716837E+04  0.11080716837E+04  0.00000000000E+00 0.  1.
        -24    2    1    2    0    0  0.47327676675E+02 -0.77410570258E+02 -0.80321615761E+03  0.81196162582E+03  0.76767054082E+02 0.  0.
         25    2    1    2    0    0  0.16344503812E+02  0.90551950737E+02 -0.17644112696E+03  0.23504424961E+03  0.12509008515E+03 0.  0.
         24    2    1    2    0    0 -0.63672180487E+02 -0.13141380478E+02 -0.67977143336E+02  0.12150306397E+03  0.76910728043E+02 0.  0.
        -13    1    5    5    0    0 -0.37758296851E+02 -0.44696492750E+02 -0.49689872065E+02  0.76762939177E+02  0.00000000000E+00 0.  1.
         14    1    5    5    0    0 -0.25913883636E+02  0.31555112272E+02 -0.18287271271E+02  0.44740124789E+02  0.00000000000E+00 0. -1.
         11    1    3    3    0    0  0.23757335645E+02  0.69553911141E+01 -0.31326222460E+03  0.31423877836E+03  0.00000000000E+00 0. -1.
        -12    1    3    3    0    0  0.23570341030E+02 -0.84365961373E+02 -0.48995393302E+03  0.49772284747E+03  0.00000000000E+00 0.  1.
          5    1    4    4  501    0 -0.27160194924E+02  0.64393749410E+02 -0.16981327880E+03  0.18367975720E+03  0.41800000000E+01 0.  1.
         -5    1    4    4    0  501  0.43504698736E+02  0.26158201327E+02 -0.66278481676E+01  0.51364492406E+02  0.41800000000E+01 0.  1.
</event>
<event>
11    1  0.8037748E-009  0.1605179E+03  0.7561462E-02  0.1086591E+00
         22   -1    0    0    0    0  0.00000000000E+00  0.00000000000E+00  0.23240361484E+03  0.23240361484E+03  0.00000000000E+00 0. -1.
         22   -1    0    0    0    0 -0.00000000000E+00 -0.00000000000E+00 -0.62164044770E+03  0.62164044770E+03  0.00000000000E+00 0.  1.
        -24    2    1    2    0    0 -0.37338748586E+02  0.58326799116E+01 -0.44943766827E+03  0.45924351444E+03  0.86499627689E+02 0.  0.
         25    2    1    2    0    0  0.10010196879E+03 -0.79001920552E+02 -0.87537409446E+02  0.19892431094E+03  0.12508547408E+03 0.  0.
         24    2    1    2    0    0 -0.62763220200E+02  0.73169240640E+02  0.14773824485E+03  0.19587623716E+03  0.85134902984E+02 0.  0.
        -13    1    5    5    0    0  0.21347019583E+02  0.10982053412E+02  0.28030190075E+02  0.36905179824E+02  0.00000000000E+00 0.  1.
         14    1    5    5    0    0 -0.84110239783E+02  0.62187187229E+02  0.11970805478E+03  0.15897105734E+03  0.00000000000E+00 0. -1.
         11    1    3    3    0    0  0.27971791216E+02  0.27664865669E+01 -0.16596089636E+03  0.16832437040E+03  0.00000000000E+00 0. -1.
        -12    1    3    3    0    0 -0.65310539802E+02  0.30661933447E+01 -0.28347677191E+03  0.29091914403E+03  0.00000000000E+00 0.  1.
          5    1    4    4  501    0  0.32624068877E+02 -0.25095629987E+01 -0.90983754086E+02  0.96778839031E+02  0.41800000000E+01 0. -1.
         -5    1    4    4    0  501  0.67477899909E+02 -0.76492357553E+02  0.34463446408E+01  0.10214547191E+03  0.41800000000E+01 0. -1.
</event>
<event>
11    1  0.8037748E-009  0.1492476E+03  0.7561462E-02  0.1097650E+00
         22   -1    0    0    0    0  0.00000000000E+00  0.00000000000E+00  0.40411816889E+03  0.40411816889E+03  0.00000000000E+00 0.  1.
         22   -1    0    0    0    0 -0.00000000000E+00 -0.00000000000E+00 -0.56656090809E+03  0.56656090809E+03  0.00000000000E+00 0.  1.
        -24    2    1    2    0    0  0.67900339928E+02  0.45670358706E+02 -0.39693980380E+03  0.41380642424E+03  0.83536285949E+02 0.  0.
         25    2    1    2    0    0 -0.93469143873E+02  0.23320529320E+01 -0.11422684054E+03  0.19348723143E+03  0.12509044048E+03 0.  0.
         24    2    1    2    0    0  0.25568803945E+02 -0.48002411638E+02  0.34872390514E+03  0.36338542131E+03  0.86502064411E+02 0.  0.
        -11    1    5    5    0    0 -0.31163756307E+02 -0.65155222618E+01  0.10310560636E+03  0.10790921091E+03  0.00000000000E+00 0.  1.
         12    1    5    5    0    0  0.56732560252E+02 -0.41486889376E+02  0.24561829878E+03  0.25547621039E+03  0.00000000000E+00 0. -1.
         11    1    3    3    0    0  0.38916487175E+02 -0.24597801029E+01 -0.55822603466E+02  0.68093366416E+02  0.00000000000E+00 0. -1.
        -12    1    3    3    0    0  0.28983852753E+02  0.48130138809E+02 -0.34111720034E+03  0.34571305782E+03  0.00000000000E+00 0.  1.
          5    1    4    4  501    0  0.19844751818E+02  0.32968461622E+02 -0.29162390854E+02  0.48462883496E+02  0.41800000000E+01 0.  1.
         -5    1    4    4    0  501 -0.11331389569E+03 -0.30636408690E+02 -0.85064449683E+02  0.14502434793E+03  0.41800000000E+01 0.  1.
</event>
<event>
11    1  0.8037748E-009  0.2195330E+03  0.7561462E-02  0.1041510E+00
         22   -1    0    0    0    0  0.00000000000E+00  0.00000000000E+00  0.11946786180E+04  0.11946786180E+04  0.00000000000E+00 0. -1.
         22   -1    0    0    0    0 -0.00000000000E+00 -0.00000000000E+00 -0.14881716897E+04  0.14881716897E+04  0.00000000000E+00 0. -1.
         24    2    1    2    0    0 -0.88826182479E+02 -0.15242408219E+03 -0.13378323202E+04  0.13518867946E+04  0.81727576800E+02 0.  0.
         25    2    1    2    0    0  0.19505519099E+03  0.21272500735E+03  0.41520147997E+02  0.31728292353E+03  0.12508426996E+03 0.  0.
        -24    2    1    2    0    0 -0.10622900851E+03 -0.60300925158E+02  0.10028191005E+04  0.10136805896E+04  0.83554686609E+02 0.  0.
        -11    1    3    3    0    0  0.13417566476E+02 -0.72349096817E+01 -0.67297228964E+02  0.69002116160E+02  0.00000000000E+00 0.  1.
         12    1    3    3    0    0 -0.10224374895E+03 -0.14518917251E+03 -0.12705350913E+04  0.12828846784E+04  0.00000000000E+00 0. -1.
         13    1    5    5    0    0 -0.71416952853E+02 -0.10477687406E+02  0.31420995578E+03  0.32239426081E+03  0.00000000000E+00 0. -1.
        -14    1    5    5    0    0 -0.34812055660E+02 -0.49823237752E+02  0.68860914470E+03  0.69128632881E+03  0.00000000000E+00 0.  1.
          5    1    4    4  501    0  0.69758781677E+02  0.29373978365E+01  0.43547340194E+01  0.70081039059E+02  0.41800000000E+01 0. -1.
         -5    1    4    4    0  501  0.12529640931E+03  0.20978760951E+03  0.37165413978E+02  0.24720188447E+03  0.41800000000E+01 0. -1.
</event>
<event>
11    1  0.8037748E-009  0.1361172E+03  0.7561462E-02  0.1111973E+00
         22   -1    0    0    0    0  0.00000000000E+00  0.00000000000E+00  0.70397540127E+03  0.70397540127E+03  0.00000000000E+00 0. -1.
         22   -1    0    0    0    0 -0.00000000000E+00 -0.00000000000E+00 -0.43606420187E+03  0.43606420187E+03  0.00000000000E+00 0.  1.
        -24    2    1    2    0    0 -0.11644070629E+02  0.51709051159E+02 -0.36699863574E+03  0.37949570473E+03  0.80743921909E+02 0.  0.
         25    2    1    2    0    0  0.27174026104E+02 -0.57856961728E+02  0.22560180290E+02  0.14227301660E+03  0.12508714483E+03 0.  0.
         24    2    1    2    0    0 -0.15529955475E+02  0.61479105686E+01  0.61234965485E+03  0.61827088182E+03  0.83712646494E+02 0.  0.
        -13    1    5    5    0    0  0.82944416826E+01 -0.20387942126E+02  0.48116178759E+02  0.52911554555E+02  0.00000000000E+00 0.  1.
         14    1    5    5    0    0 -0.23824397158E+02  0.26535852695E+02  0.56423347609E+03  0.56535932726E+03  0.00000000000E+00 0. -1.
         13    1    3    3    0    0 -0.35274936829E+02  0.16755785973E+02 -0.75920788283E+02  0.85375896044E+02  0.00000000000E+00 0. -1.
        -14    1    3    3    0    0  0.23630866200E+02  0.34953265186E+02 -0.29107784745E+03  0.29411980869E+03  0.00000000000E+00 0.  1.
          5    1    4    4  501    0 -0.39472063180E+02 -0.41112704286E+02  0.41786190724E+02  0.70794465607E+02  0.41800000000E+01 0. -1.
         -5    1    4    4    0  501  0.66646089284E+02 -0.16744257442E+02 -0.19226010434E+02  0.71478550988E+02  0.41800000000E+01 0. -1.
</event>
<event>
11    1  0.8037748E-009  0.1557039E+03  0.7561462E-02  0.1091189E+00
         22   -1    0    0    0    0  0.00000000000E+00  0.00000000000E+00  0.87674300342E+03  0.87674300342E+03  0.00000000000E+00 0.  1.
         22   -1    0    0    0    0 -0.00000000000E+00 -0.00000000000E+00 -0.11138810434E+04  0.11138810434E+04  0.00000000000E+00 0. -1.
         24    2    1    2    0    0 -0.52251712284E+02 -0.26035842026E+02 -0.10735571059E+04  0.10782604128E+04  0.81930163181E+02 0.  0.
         25    2    1    2    0    0  0.48955002901E+02 -0.70455699154E+02  0.14574669597E+03  0.21035749725E+03  0.12509028504E+03 0.  0.
        -24    2    1    2    0    0  0.32967093824E+01  0.96491541180E+02  0.69067236996E+03  0.70200613677E+03  0.80391589267E+02 0.  0.
        -13    1    3    3    0    0 -0.33858940060E+01 -0.44252704721E+02 -0.34568546059E+03  0.34852288852E+03  0.00000000000E+00 0.  1.
         14    1    3    3    0    0 -0.48865818278E+02  0.18216862695E+02 -0.72787164528E+03  0.72973752424E+03  0.00000000000E+00 0. -1.
         11    1    5    5    0    0  0.33196231952E+02  0.47838023175E+02  0.20897474605E+03  0.21693526860E+03  0.00000000000E+00 0. -1.
        -12    1    5    5    0    0 -0.29899522570E+02  0.48653518005E+02  0.48169762391E+03  0.48507086817E+03  0.00000000000E+00 0.  1.
          5    1    4    4  501    0  0.88433230608E+02 -0.54000811271E+02  0.12564897391E+03  0.16291611626E+03  0.41800000000E+01 0. -1.
         -5    1    4    4    0  501 -0.39478227707E+02 -0.16454887884E+02  0.20097722060E+02  0.47441380989E+02  0.41800000000E+01 0. -1.
</event>
<event>
11    1  0.8037748E-009  0.1773128E+03  0.7561462E-02  0.1071837E+00
         22   -1    0    0    0    0  0.00000000000E+00  0.00000000000E+00  0.14289947481E+03  0.14289947481E+03  0.00000000000E+00 0.  1.
         22   -1    0    0    0    0 -0.00000000000E+00 -0.00000000000E+00 -0.15170767145E+04  0.15170767145E+04  0.00000000000E+00 0.  1.
        -24    2    1    2    0    0  0.27610566125E+02  0.11137786136E+02 -0.95410658439E+03  0.95758676528E+03  0.75938429198E+02 0.  0.
         25    2    1    2    0    0 -0.13520466515E+03  0.50995315465E+02 -0.50033321503E+03  0.53559345137E+03  0.12508475290E+03 0.  0.
         24    2    1    2    0    0  0.10759409903E+03 -0.62133101601E+02  0.80262559712E+02  0.16679597267E+03  0.77083108064E+02 0.  0.
        -13    1    5    5    0    0  0.39372333034E+02 -0.62444133745E+02  0.61389636714E+02  0.96011134477E+02  0.00000000000E+00 0.  1.
         14    1    5    5    0    0  0.68221765992E+02  0.31103214338E+00  0.18872922997E+02  0.70784838196E+02  0.00000000000E+00 0. -1.
         11    1    3    3    0    0 -0.51595447754E+01 -0.29152397496E+02 -0.33480114410E+03  0.33610755611E+03  0.00000000000E+00 0. -1.
        -12    1    3    3    0    0  0.32770110900E+02  0.40290183632E+02 -0.61930544029E+03  0.62147920917E+03  0.00000000000E+00 0.  1.
          5    1    4    4  501    0 -0.43785901172E+02 -0.10310829518E+02 -0.32778343991E+03  0.33088211531E+03  0.41800000000E+01 0.  1.
         -5    1    4    4    0  501 -0.91418763978E+02  0.61306144983E+02 -0.17254977511E+03  0.20471133606E+03  0.41800000000E+01 0.  1.
</event>
<event>
11    1  0.8037748E-009  0.2175649E+03  0.7561462E-02  0.1042754E+00
         22   -1    0    0    0    0  0.00000000000E+00  0.00000000000E+00  0.23404118604E+04  0.23404118604E+04  0.00000000000E+00 0. -1.
         22   -1    0    0    0    0 -0.00000000000E+00 -0.00000000000E+00 -0.34381047623E+03  0.34381047623E+03  0.00000000000E+00 0.  1.
         24    2    1    2    0    0 -0.13807404120E+02 -0.17869765445E+03 -0.30277678811E+03  0.36099146132E+03  0.80731379345E+02 0.  0.
         25    2    1    2    0    0 -0.20882614885E+02  0.14295711352E+03  0.87026491997E+03  0.89100035498E+03  0.12509109375E+03 0.  0.
        -24    2    1    2    0    0  0.34690019005E+02  0.35740540930E+02  0.14291132523E+04  0.14322305203E+04  0.80242082151E+02 0.  0.
        -13    1    3    3    0    0  0.14674537923E+02 -0.14479735280E+03 -0.18647950250E+03  0.23655067173E+03  0.00000000000E+00 0.  1.
         14    1    3    3    0    0 -0.28481942043E+02 -0.33900301657E+02 -0.11629728560E+03  0.12444078959E+03  0.00000000000E+00 0. -1.
         11    1    5    5    0    0  0.45294326546E+02  0.24950802840E+02  0.44402130686E+03  0.44702241502E+03  0.00000000000E+00 0. -1.
        -12    1    5    5    0    0 -0.10604307541E+02  0.10789738089E+02  0.98509194541E+03  0.98520810527E+03  0.00000000000E+00 0.  1.
          5    1    4    4  501    0 -0.60749575979E+02  0.11469505685E+03  0.46545721711E+03  0.48323220134E+03  0.41800000000E+01 0.  1.
         -5    1    4    4    0  501  0.39866961094E+02  0.28262056675E+02  0.40480770285E+03  0.40776815364E+03  0.41800000000E+01 0.  1.
</event>
<event>
11    1  0.8037748E-009  0.1748144E+03  0.7561462E-02  0.1073916E+00
         22   -1    0    0    0    0  0.00000000000E+00  0.00000000000E+00  0.22212405837E+04  0.22212405837E+04  0.00000000000E+00 0. -1.
         22   -1    0    0    0    0 -0.00000000000E+00 -0.00000000000E+00 -0.49372696202E+03  0.49372696202E+03  0.00000000000E+00 0. -1.
         24    2    1    2    0    0  0.69005904526E+02  0.67975656319E+02 -0.45895138836E+03  0.47604597974E+03  0.81245881350E+02 0.  0.
         25    2    1    2    0    0  0.38598996902E+02 -0.13064819676E+03  0.34503202970E+03  0.39148550550E+03  0.12511980507E+03 0.  0.
        -24    2    1    2    0    0 -0.10760490143E+03  0.62672540440E+02  0.18414329804E+04  0.18474360605E+04  0.81473396469E+02 0.  0.
        -13    1    3    3    0    0  0.76081168922E+02  0.50719388201E+02 -0.44020926349E+03  0.44960537838E+03  0.00000000000E+00 0.  1.
         14    1    3    3    0    0 -0.70752643963E+01  0.17256268118E+02 -0.18742124868E+02  0.26440601358E+02  0.00000000000E+00 0. -1.
         11    1    5    5    0    0 -0.11727014146E+03  0.49516118825E+02  0.17444827059E+04  0.17491209344E+04  0.00000000000E+00 0. -1.
        -12    1    5    5    0    0  0.96652400277E+01  0.13156421616E+02  0.96950274485E+02  0.98315126086E+02  0.00000000000E+00 0.  1.
          5    1    4    4  501    0  0.62985442511E+02 -0.14310121552E+03  0.30557691580E+03  0.34327809094E+03  0.41800000000E+01 0. -1.
         -5    1    4    4    0  501 -0.24386445609E+02  0.12453018758E+02  0.39455113903E+02  0.48207414562E+02  0.41800000000E+01 0. -1.
</event>
<event>
11    1  0.8037748E-009  0.1686477E+03  0.7561462E-02  0.1079214E+00
         22   -1    0    0    0    0  0.00000000000E+00  0.00000000000E+00  0.18693706710E+03  0.18693706710E+03  0.00000000000E+00 0. -1.
         22   -1    0    0    0    0 -0.00000000000E+00 -0.00000000000E+00 -0.27991877277E+04  0.27991877277E+04  0.00000000000E+00 0.  1.
        -24    2    1    2    0    0  0.19643592703E+02 -0.46911830221E+02 -0.22918377893E+04  0.22938171029E+04  0.80559658364E+02 0.  0.
         25    2    1    2    0    0 -0.18861916897E+02  0.15730604474E+03 -0.45565943437E+03  0.49837123326E+03  0.12508957743E+03 0.  0.
         24    2    1    2    0    0 -0.78167580603E+00 -0.11039421452E+03  0.13524656304E+03  0.19393645866E+03  0.84452492964E+02 0.  0.
        -13    1    5    5    0    0  0.25438944048E+02 -0.10910196751E+03  0.10141358778E+03  0.15111285509E+03  0.00000000000E+00 0.  1.
         14    1    5    5    0    0 -0.26220619854E+02 -0.12922470167E+01  0.33832975259E+02  0.42823603571E+02  0.00000000000E+00 0. -1.
         11    1    3    3    0    0 -0.51170484863E-01 -0.42146383141E+01 -0.51901216489E+01  0.66860419732E+01  0.00000000000E+00 0. -1.
        -12    1    3    3    0    0  0.19694763188E+02 -0.42697191906E+02 -0.22866476676E+04  0.22871310609E+04  0.00000000000E+00 0.  1.
          5    1    4    4  501    0 -0.52501389987E+02  0.81793180081E+02 -0.13007479932E+03  0.16242981893E+03  0.41800000000E+01 0.  1.
         -5    1    4    4    0  501  0.33639473090E+02  0.75512864663E+02 -0.32558463505E+03  0.33594141433E+03  0.41800000000E+01 0.  1.
</event>
<event>
11    1  0.8037748E-009  0.1950269E+03  0.7561462E-02  0.1058097E+00
         22   -1    0    0    0    0  0.00000000000E+00  0.00000000000E+00  0.32620734855E+03  0.32620734855E+03  0.00000000000E+00 0. -1.
         22   -1    0    0    0    0 -0.00000000000E+00 -0.00000000000E+00 -0.46864076657E+03  0.46864076657E+03  0.00000000000E+00 0.  1.
         24    2    1    2    0    0 -0.98832699540E+01 -0.33209156243E+02 -0.35367897341E+03  0.36417298500E+03  0.79577758740E+02 0.  0.
         25    2    1    2    0    0  0.11261696416E+03  0.12726180368E+03  0.82611645496E+02  0.22660704449E+03  0.12509165179E+03 0.  0.
        -24    2    1    2    0    0 -0.10273369420E+03 -0.94052647440E+02  0.12863390989E+03  0.20406808564E+03  0.75478396817E+02 0.  0.
        -13    1    3    3    0    0 -0.99249001794E+01 -0.10794272708E+02 -0.33406933519E+03  0.33439099970E+03  0.00000000000E+00 0.  1.
         14    1    3    3    0    0  0.41630225418E-01 -0.22414883535E+02 -0.19609638215E+02  0.29781985291E+02  0.00000000000E+00 0. -1.
         13    1    5    5    0    0 -0.79736990726E+02 -0.10064823829E+03  0.84041608570E+02  0.15346350554E+03  0.00000000000E+00 0. -1.
        -14    1    5    5    0    0 -0.22996703476E+02  0.65955908525E+01  0.44592301324E+02  0.50604580098E+02  0.00000000000E+00 0.  1.
          5    1    4    4  501    0  0.51147180583E+02  0.35066266447E+02 -0.29605912560E+02  0.68845185617E+02  0.41800000000E+01 0.  1.
         -5    1    4    4    0  501  0.61469783572E+02  0.92195537236E+02  0.11221755806E+03  0.15776185887E+03  0.41800000000E+01 0.  1.
</event>
<event>
11    1  0.8037748E-009  0.2570069E+03  0.7561462E-02  0.1020231E+00
         22   -1    0    0    0    0  0.00000000000E+00  0.00000000000E+00  0.14148984350E+04  0.14148984350E+04  0.00000000000E+00 0. -1.
         22   -1    0    0    0    0 -0.00000000000E+00 -0.00000000000E+00 -0.11682055346E+03  0.11682055346E+03  0.00000000000E+00 0. -1.
        -24    2    1    2    0    0 -0.24204074735E+02 -0.35716332180E+02  0.98286456733E+01  0.91460829873E+02  0.80043660006E+02 0.  0.
         25    2    1    2    0    0 -0.18466084376E+03 -0.62544969469E+02  0.14987778204E+03  0.27590120167E+03  0.12508646254E+03 0.  0.
         24    2    1    2    0    0  0.20886491849E+03  0.98261301650E+02  0.11383714539E+04  0.11643569570E+04  0.80979742293E+02 0.  0.
        -11    1    5    5    0    0  0.23470026841E+02 -0.68656707334E+01  0.54564887413E+02  0.59793867018E+02  0.00000000000E+00 0.  1.
         12    1    5    5    0    0  0.18539489165E+03  0.10512697238E+03  0.10838065665E+04  0.11045630899E+04  0.00000000000E+00 0. -1.
         13    1    3    3    0    0 -0.92493422867E+01 -0.42867520430E+02 -0.26703008034E+02  0.51344184468E+02  0.00000000000E+00 0. -1.
        -14    1    3    3    0    0 -0.14954732449E+02  0.71511882499E+01  0.36531653707E+02  0.40116645406E+02  0.00000000000E+00 0.  1.
          5    1    4    4  501    0 -0.19331438356E+03 -0.30463198689E+02  0.14104212265E+03  0.24126502053E+03  0.41800000000E+01 0.  1.
         -5    1    4    4    0  501  0.86535398053E+01 -0.32081770780E+02  0.88356593862E+01  0.34636181145E+02  0.41800000000E+01 0.  1.
</event>
<event>
11    1  0.8037748E-009  0.1735835E+03  0.7561462E-02  0.1074955E+00
         22   -1    0    0    0    0  0.00000000000E+00  0.00000000000E+00  0.21166456383E+03  0.21166456383E+03  0.00000000000E+00 0.  1.
         22   -1    0    0    0    0 -0.00000000000E+00 -0.00000000000E+00 -0.55828206424E+03  0.55828206424E+03  0.00000000000E+00 0. -1.
        -24    2    1    2    0    0  0.29136866746E+02  0.11329282174E+03 -0.36794576211E+03  0.39425493763E+03  0.79803831533E+02 0.  0.
         25    2    1    2    0    0 -0.61468285166E+00 -0.13706992956E+03 -0.11095783905E+03  0.21621063985E+03  0.12508739070E+03 0.  0.
         24    2    1    2    0    0 -0.28522183895E+02  0.23777107815E+02  0.13228610075E+03  0.15948105059E+03  0.80967445412E+02 0.  0.
        -13    1    5    5    0    0 -0.36883445987E+02  0.19991925316E+02  0.14082729071E+03  0.14694349756E+03  0.00000000000E+00 0.  1.
         14    1    5    5    0    0  0.83612620923E+01  0.37851824994E+01 -0.85411899567E+01  0.12537553039E+02  0.00000000000E+00 0. -1.
         11    1    3    3    0    0 -0.17799345155E+02  0.84906610307E+02 -0.22677357308E+03  0.24280074672E+03  0.00000000000E+00 0. -1.
        -12    1    3    3    0    0  0.46936211901E+02  0.28386211436E+02 -0.14117218903E+03  0.15145419091E+03  0.00000000000E+00 0.  1.
          5    1    4    4  501    0 -0.14601712124E+01 -0.15909142823E+03 -0.11054187576E+03  0.19377614232E+03  0.41800000000E+01 0. -1.
         -5    1    4    4    0  501  0.84548836077E+00  0.22021498667E+02 -0.41596329325E+00  0.22434497533E+02  0.41800000000E+01 0. -1.
</event>
<event>
11    1  0.8037748E-009  0.1502062E+03  0.7561462E-02  0.1096668E+00
         22   -1    0    0    0    0  0.00000000000E+00  0.00000000000E+00  0.10622639066E+04  0.10622639066E+04  0.00000000000E+00 0.  1.
         22   -1    0    0    0    0 -0.00000000000E+00 -0.00000000000E+00 -0.13257050325E+03  0.13257050325E+03  0.00000000000E+00 0. -1.
         24    2    1    2    0    0  0.28077829846E+02  0.25944795181E+02 -0.68355352322E+02  0.11178850645E+03  0.79766653799E+02 0.  0.
         25    2    1    2    0    0 -0.10817522384E+03 -0.30895215752E+02  0.14589898520E+03  0.22269309818E+03  0.12509719695E+03 0.  0.
        -24    2    1    2    0    0  0.80097393992E+02  0.49504205703E+01  0.85214977050E+03  0.86035280525E+03  0.87221665607E+02 0.  0.
        -13    1    3    3    0    0 -0.16662180064E+02  0.43481306259E+01  0.93231562887E+01  0.19582025626E+02  0.00000000000E+00 0.  1.
         14    1    3    3    0    0  0.44740009911E+02  0.21596664555E+02 -0.77678508611E+02  0.92206480828E+02  0.00000000000E+00 0. -1.
         13    1    5    5    0    0  0.25885764186E+02  0.39856623306E+02  0.50775626637E+03  0.50997553789E+03  0.00000000000E+00 0. -1.
        -14    1    5    5    0    0  0.54211629806E+02 -0.34906202736E+02  0.34439350413E+03  0.35037726736E+03  0.00000000000E+00 0.  1.
          5    1    4    4  501    0 -0.99039871059E+02 -0.61782283693E+01  0.29984770583E+02  0.10374789363E+03  0.41800000000E+01 0. -1.
         -5    1    4    4    0  501 -0.91353527794E+01 -0.24716987383E+02  0.11591421462E+03  0.11894520455E+03  0.41800000000E+01 0. -1.
</event>
<event>
11    1  0.8037748E-009  0.1502545E+03  0.7561462E-02  0.1096619E+00
         22   -1    0    0    0    0  0.00000000000E+00  0.00000000000E+00  0.83956667569E+03  0.83956667569E+03  0.00000000000E+00 0.  1.
         22   -1    0    0    0    0 -0.00000000000E+00 -0.00000000000E+00 -0.62571099405E+02  0.62571099405E+02  0.00000000000E+00 0. -1.
        -24    2    1    2    0    0  0.38389086888E+02  0.55798932978E+02  0.44613937893E+02  0.11623995704E+03  0.83271130922E+02 0.  0.
         25    2    1    2    0    0  0.48360037048E+02 -0.16803407191E+01  0.22626536147E+03  0.26303110937E+03  0.12509130252E+03 0.  0.
         24    2    1    2    0    0 -0.86749123936E+02 -0.54118592259E+02  0.50611627692E+03  0.52286670868E+03  0.82350936572E+02 0.  0.
        -13    1    5    5    0    0  0.11594649131E+01 -0.42586394261E+02  0.16873641579E+03  0.17403138611E+03  0.00000000000E+00 0.  1.
         14    1    5    5    0    0 -0.87908588849E+02 -0.11532197998E+02  0.33737986112E+03  0.34883532257E+03  0.00000000000E+00 0. -1.
         11    1    3    3    0    0  0.34273652590E+02 -0.14284071913E+02  0.15819151062E+02  0.40360420124E+02  0.00000000000E+00 0. -1.
        -12    1    3    3    0    0  0.41154342979E+01  0.70083004891E+02  0.28794786832E+02  0.75879536917E+02  0.00000000000E+00 0.  1.
          5    1    4    4  501    0  0.35620187742E+02  0.31209828151E+02  0.22225980895E+03  0.22728780483E+03  0.41800000000E+01 0.  1.
         -5    1    4    4    0  501  0.12739849306E+02 -0.32890168870E+02  0.40055525196E+01  0.35743304542E+02  0.41800000000E+01 0.  1.
</event>
<event>
11    1  0.8037748E-009  0.1800744E+03  0.7561462E-02  0.1069583E+00
         22   -1    0    0    0    0  0.00000000000E+00  0.00000000000E+00  0.15113205985E+04  0.15113205985E+04  0.00000000000E+00 0.  1.
         22   -1    0    0    0    0 -0.00000000000E+00 -0.00000000000E+00 -0.42710000948E+03  0.42710000948E+03  0.00000000000E+00 0.  1.
         24    2    1    2    0    0 -0.58699003369E+02  0.18724430634E+02 -0.37325466747E+03  0.38693445377E+03  0.81259137480E+02 0.  0.
         25    2    1    2    0    0  0.17957537134E+03 -0.46294445523E+02  0.24985053215E+03  0.33535475318E+03  0.12508809850E+03 0.  0.
        -24    2    1    2    0    0 -0.12087636797E+03  0.27570014890E+02  0.12076247243E+04  0.12161314010E+04  0.72435541474E+02 0.  0.
        -11    1    3    3    0    0 -0.65482313182E+02  0.38840782812E+02 -0.33104169888E+03  0.33968389151E+03  0.00000000000E+00 0.  1.
         12    1    3    3    0    0  0.67833098133E+01 -0.20116352179E+02 -0.42212968589E+02  0.47250562262E+02  0.00000000000E+00 0. -1.
         11    1    5    5    0    0 -0.35941402279E+02 -0.23167172738E+02  0.28012404867E+03  0.28336899078E+03  0.00000000000E+00 0. -1.
        -12    1    5    5    0    0 -0.84934965690E+02  0.50737187628E+02  0.92750067565E+03  0.93276241023E+03  0.00000000000E+00 0.  1.
          5    1    4    4  501    0  0.23364846725E+02  0.22971182727E+02  0.49061567601E+00  0.33034896732E+02  0.41800000000E+01 0.  1.
         -5    1    4    4    0  501  0.15621052461E+03 -0.69265628251E+02  0.24935991648E+03  0.30231985645E+03  0.41800000000E+01 0.  1.
</event>
<event>
11    1  0.8037748E-009  0.1539964E+03  0.7561462E-02  0.1092864E+00
         22   -1    0    0    0    0  0.00000000000E+00  0.00000000000E+00  0.86745402363E+03  0.86745402363E+03  0.00000000000E+00 0.  1.
         22   -1    0    0    0    0 -0.00000000000E+00 -0.00000000000E+00 -0.23481336448E+03  0.23481336448E+03  0.00000000000E+00 0. -1.
        -24    2    1    2    0    0  0.82226006710E+02 -0.27546260477E+02 -0.18364824548E+03  0.21827372155E+03  0.79980165098E+02 0.  0.
         25    2    1    2    0    0 -0.49285281523E+02  0.11047028689E+03  0.24775267376E+03  0.30275754637E+03  0.12509205117E+03 0.  0.
         24    2    1    2    0    0 -0.32940725187E+02 -0.82924026413E+02  0.56853623087E+03  0.58123612019E+03  0.81489238980E+02 0.  0.
        -11    1    5    5    0    0 -0.37247069828E+02 -0.95953409648E+02  0.43569470006E+03  0.44768769549E+03  0.00000000000E+00 0.  1.
         12    1    5    5    0    0  0.43063446410E+01  0.13029383235E+02  0.13284153081E+03  0.13354842470E+03  0.00000000000E+00 0. -1.
         13    1    3    3    0    0  0.42933029176E+02  0.25546018526E+02 -0.59880573248E+02  0.77984146525E+02  0.00000000000E+00 0. -1.
        -14    1    3    3    0    0  0.39292977535E+02 -0.53092279003E+02 -0.12376767223E+03  0.14028957503E+03  0.00000000000E+00 0.  1.
          5    1    4    4  501    0  0.35996291467E+02  0.34044218536E+02  0.34027456476E+02  0.60250161903E+02  0.41800000000E+01 0.  1.
         -5    1    4    4    0  501 -0.85281572990E+02  0.76426068354E+02  0.21372521729E+03  0.24250738447E+03  0.41800000000E+01 0.  1.
</event>
<event>
11    1  0.8037748E-009  0.1474971E+03  0.7561462E-02  0.1099464E+00
         22   -1    0    0    0    0  0.00000000000E+00  0.00000000000E+00  0.58769094688E+03  0.58769094688E+03  0.00000000000E+00 0.  1.
         22   -1    0    0    0    0 -0.00000000000E+00 -0.00000000000E+00 -0.40844072662E+03  0.40844072662E+03  0.00000000000E+00 0. -1.
        -24    2    1    2    0    0  0.46250912892E+02 -0.58199568128E+02 -0.27958572857E+03  0.29980006498E+03  0.78648348164E+02 0.  0.
         25    2    1    2    0    0 -0.48332437816E+02  0.87765692979E+02 -0.59450016936E+02  0.17094968238E+03  0.12510254986E+03 0.  0.
         24    2    1    2    0    0  0.20815249238E+01 -0.29566124851E+02  0.51828596576E+03  0.52538192614E+03  0.80791939706E+02 0.  0.
        -11    1    5    5    0    0 -0.39099144218E+02 -0.16136514384E+02  0.28273988402E+03  0.28588629242E+03  0.00000000000E+00 0.  1.
         12    1    5    5    0    0  0.41180669142E+02 -0.13429610467E+02  0.23554608174E+03  0.23949563372E+03  0.00000000000E+00 0. -1.
         13    1    3    3    0    0  0.58015833045E+02 -0.51235173979E+02 -0.27451529295E+03  0.28521838300E+03  0.00000000000E+00 0. -1.
        -14    1    3    3    0    0 -0.11764920152E+02 -0.69643941490E+01 -0.50704356186E+01  0.14581681982E+02  0.00000000000E+00 0.  1.
          5    1    4    4  501    0 -0.39939928013E+02  0.99989593712E+02  0.18248385861E+01  0.10776789474E+03  0.41800000000E+01 0. -1.
         -5    1    4    4    0  501 -0.83925098029E+01 -0.12223900733E+02 -0.61274855522E+02  0.63181787638E+02  0.41800000000E+01 0. -1.
</event>
<event>
11    1  0.8037748E-009  0.1813942E+03  0.7561462E-02  0.1068521E+00
         22   -1    0    0    0    0  0.00000000000E+00  0.00000000000E+00  0.29847802757E+04  0.29847802757E+04  0.00000000000E+00 0.  1.
         22   -1    0    0    0    0 -0.00000000000E+00 -0.00000000000E+00 -0.21834386828E+03  0.21834386828E+03  0.00000000000E+00 0. -1.
         24    2    1    2    0    0 -0.21039223367E+02  0.97771043535E+02 -0.16580661823E+03  0.20993168291E+03  0.81102718602E+02 0.  0.
         25    2    1    2    0    0  0.10314689894E+03  0.10875556846E+02  0.20620021908E+03  0.26253395783E+03  0.12509191887E+03 0.  0.
        -24    2    1    2    0    0 -0.82107675571E+02 -0.10864660038E+03  0.27260428066E+04  0.27306585032E+04  0.81490637317E+02 0.  0.
        -11    1    3    3    0    0  0.38464498642E+01  0.74473415965E+02 -0.51441784452E+02  0.90594381999E+02  0.00000000000E+00 0.  1.
         12    1    3    3    0    0 -0.24885673231E+02  0.23297627570E+02 -0.11436483378E+03  0.11933730091E+03  0.00000000000E+00 0. -1.
         11    1    5    5    0    0 -0.17286751595E+02 -0.75232730346E+02  0.18404482675E+04  0.18420663997E+04  0.00000000000E+00 0. -1.
        -12    1    5    5    0    0 -0.64820923975E+02 -0.33413870036E+02  0.88559453905E+03  0.88859210355E+03  0.00000000000E+00 0.  1.
          5    1    4    4  501    0  0.12095812122E+03 -0.16371492066E+02  0.19016460041E+03  0.22600650542E+03  0.41800000000E+01 0.  1.
         -5    1    4    4    0  501 -0.17811222279E+02  0.27247048912E+02  0.16035618671E+02  0.36527452411E+02  0.41800000000E+01 0.  1.
</event>
<event>
11    1  0.8037748E-009  0.1756545E+03  0.7561462E-02  0.1073213E+00
         22   -1    0    0    0    0  0.00000000000E+00  0.00000000000E+00  0.18172257872E+03  0.18172257872E+03  0.00000000000E+00 0. -1.
         22   -1    0    0    0    0 -0.00000000000E+00 -0.00000000000E+00 -0.21999370664E+04  0.21999370664E+04  0.00000000000E+00 0. -1.
        -24    2    1    2    0    0 -0.48429268204E+02 -0.14639373750E+02 -0.16073712760E+04  0.16104200492E+04  0.85150516691E+02 0.  0.
         25    2    1    2    0    0  0.16726907797E+03  0.35035571833E+02 -0.53874069445E+03  0.57887444830E+03  0.12509058837E+03 0.  0.
         24    2    1    2    0    0 -0.11883980977E+03 -0.20396198084E+02  0.12789748285E+03  0.19236514761E+03  0.78151638573E+02 0.  0.
        -13    1    5    5    0    0 -0.20221553177E+02  0.17876382220E+02  0.62293544654E+02  0.67889336127E+02  0.00000000000E+00 0.  1.
         14    1    5    5    0    0 -0.98618256593E+02 -0.38272580304E+02  0.65603938195E+02  0.12447581148E+03  0.00000000000E+00 0. -1.
         11    1    3    3    0    0 -0.10046904058E+02 -0.15755104263E+02 -0.13563625777E+04  0.13564912848E+04  0.00000000000E+00 0. -1.
        -12    1    3    3    0    0 -0.38382364145E+02  0.11157305138E+01 -0.25100869832E+03  0.25392876435E+03  0.00000000000E+00 0.  1.
          5    1    4    4  501    0  0.16759057823E+03  0.62439649205E+02 -0.50147097314E+03  0.53242456837E+03  0.41800000000E+01 0. -1.
         -5    1    4    4    0  501 -0.32150025238E+00 -0.27404077372E+02 -0.37269721313E+02  0.46449879933E+02  0.41800000000E+01 0. -1.
</event>
<event>
11    1  0.8037748E-009  0.1464231E+03  0.7561462E-02  0.1100591E+00
         22   -1    0    0    0    0  0.00000000000E+00  0.00000000000E+00  0.97359990571E+02  0.97359990571E+02  0.00000000000E+00 0.  1.
         22   -1    0    0    0    0 -0.00000000000E+00 -0.00000000000E+00 -0.15121056035E+04  0.15121056035E+04  0.00000000000E+00 0. -1.
         24    2    1    2    0    0 -0.44559716426E+02  0.28572522453E+02 -0.84024590467E+03  0.84568717694E+03  0.79822700772E+02 0.  0.
         25    2    1    2    0    0  0.95134201016E+02  0.27625344845E+02 -0.62366771824E+03  0.64375646057E+03  0.12508909574E+03 0.  0.
        -24    2    1    2    0    0 -0.50574484589E+02 -0.56197867298E+02  0.49168009959E+02  0.12002195658E+03  0.79194684655E+02 0.  0.
        -13    1    3    3    0    0 -0.68372087063E+01 -0.45288595031E+01 -0.65866013120E+01  0.10518617216E+02  0.00000000000E+00 0.  1.
         14    1    3    3    0    0 -0.37722507720E+02  0.33101381956E+02 -0.83365930336E+03  0.83516855972E+03  0.00000000000E+00 0. -1.
         11    1    5    5    0    0  0.30360778133E+01  0.15386935020E+02 -0.37216876543E+01  0.16119134493E+02  0.00000000000E+00 0. -1.
        -12    1    5    5    0    0 -0.53610562403E+02 -0.71584802318E+02  0.52889697613E+02  0.10390282209E+03  0.00000000000E+00 0.  1.
          5    1    4    4  501    0  0.32838300400E+01  0.45003635571E+00 -0.40449685321E+03  0.40453202930E+03  0.41800000000E+01 0. -1.
         -5    1    4    4    0  501  0.91850370975E+02  0.27175308489E+02 -0.21917086503E+03  0.23922443127E+03  0.41800000000E+01 0. -1.
</event>
<event>
11    1  0.8037748E-009  0.1594918E+03  0.7561462E-02  0.1087556E+00
         22   -1    0    0    0    0  0.00000000000E+00  0.00000000000E+00  0.16082276122E+03  0.16082276122E+03  0.00000000000E+00 0. -1.
         22   -1    0    0    0    0 -0.00000000000E+00 -0.00000000000E+00 -0.39815407038E+03  0.39815407038E+03  0.00000000000E+00 0.  1.
        -24    2    1    2    0    0 -0.55339535609E+02 -0.77102762184E+02 -0.24454133598E+03  0.27485093306E+03  0.82068692353E+02 0.  0.
         25    2    1    2    0    0  0.77891084934E+02  0.86386037724E+02 -0.52474620535E+02  0.17869157902E+03  0.12509007149E+03 0.  0.
         24    2    1    2    0    0 -0.22551549325E+02 -0.92832755397E+01  0.59684647362E+02  0.10543431952E+03  0.83422940606E+02 0.  0.
        -11    1    5    5    0    0 -0.53927226488E+02 -0.77392599233E+00  0.31837201159E+02  0.62628684289E+02  0.00000000000E+00 0.  1.
         12    1    5    5    0    0  0.31375677163E+02 -0.85093495473E+01  0.27847446203E+02  0.42805635227E+02  0.00000000000E+00 0. -1.
         11    1    3    3    0    0  0.15233989710E+02 -0.42228974037E+01 -0.80009485897E+02  0.81556269768E+02  0.00000000000E+00 0. -1.
        -12    1    3    3    0    0 -0.70573525320E+02 -0.72879864781E+02 -0.16453185009E+03  0.19329466330E+03  0.00000000000E+00 0.  1.
          5    1    4    4  501    0  0.46045551123E+02 -0.12344459175E+02  0.20217387796E+02  0.51949914532E+02  0.41800000000E+01 0.  1.
         -5    1    4    4    0  501  0.31845533811E+02  0.98730496899E+02 -0.72692008330E+02  0.12674166449E+03  0.41800000000E+01 0.  1.
</event>
<event>
11    1  0.8037748E-009  0.1447529E+03  0.7561462E-02  0.1102364E+00
         22   -1    0    0    0    0  0.00000000000E+00  0.00000000000E+00  0.83695710993E+02  0.83695710993E+02  0.00000000000E+00 0. -1.
         22   -1    0    0    0    0 -0.00000000000E+00 -0.00000000000E+00 -0.26092437501E+04  0.26092437501E+04  0.00000000000E+00 0.  1.
         24    2    1    2    0    0 -0.66736999669E+02 -0.92261560788E+01 -0.20106776047E+04  0.20144839141E+04  0.10383670377E+03 0.  0.
         25    2    1    2    0    0  0.11263218746E+03 -0.22793085191E+02 -0.54885745028E+03  0.57454147806E+03  0.12509146612E+03 0.  0.
        -24    2    1    2    0    0 -0.45895187791E+02  0.32019241269E+02  0.33987015882E+02  0.10391406893E+03  0.80693347919E+02 0.  0.
        -13    1    3    3    0    0 -0.31004571516E+02 -0.48734688511E+02 -0.14829532327E+04  0.14840777081E+04  0.00000000000E+00 0.  1.
         14    1    3    3    0    0 -0.35732428153E+02  0.39508532432E+02 -0.52772437203E+03  0.53040620603E+03  0.00000000000E+00 0. -1.
         13    1    5    5    0    0 -0.54615122724E+02  0.23085409992E+01  0.45252719219E+02  0.70964424809E+02  0.00000000000E+00 0. -1.
        -14    1    5    5    0    0  0.87199349327E+01  0.29710700270E+02 -0.11265703338E+02  0.32949644118E+02  0.00000000000E+00 0.  1.
          5    1    4    4  501    0  0.10841344768E+03  0.12685552926E+02 -0.51009335040E+03  0.52165802726E+03  0.41800000000E+01 0. -1.
         -5    1    4    4    0  501  0.42187397755E+01 -0.35478638117E+02 -0.38764099889E+02  0.52883450796E+02  0.41800000000E+01 0. -1.
</event>
<event>
11    1  0.8037748E-009  0.2759454E+03  0.7561462E-02  0.1010919E+00
         22   -1    0    0    0    0  0.00000000000E+00  0.00000000000E+00  0.42283077604E+04  0.42283077604E+04  0.00000000000E+00 0.  1.
         22   -1    0    0    0    0 -0.00000000000E+00 -0.00000000000E+00 -0.53663965305E+02  0.53663965305E+02  0.00000000000E+00 0.  1.
         24    2    1    2    0    0 -0.13601977147E+03  0.20959681538E+03  0.43588786800E+03  0.50882501239E+03  0.80451578693E+02 0.  0.
         25    2    1    2    0    0  0.14231648345E+03 -0.18998246647E+03  0.10696513682E+04  0.11027913640E+04  0.12508966432E+03 0.  0.
        -24    2    1    2    0    0 -0.62967119716E+01 -0.19614348915E+02  0.26691045589E+04  0.26703553492E+04  0.79083334083E+02 0.  0.
        -11    1    3    3    0    0 -0.55136900614E+02  0.12812387246E+03  0.17494638407E+03  0.22374548443E+03  0.00000000000E+00 0.  1.
         12    1    3    3    0    0 -0.80882870861E+02  0.81472942921E+02  0.26094148392E+03  0.28507952795E+03  0.00000000000E+00 0. -1.
         11    1    5    5    0    0  0.34163105545E+02  0.16373118997E+01  0.87363223931E+03  0.87430148583E+03  0.00000000000E+00 0. -1.
        -12    1    5    5    0    0 -0.40459817517E+02 -0.21251660815E+02  0.17954723196E+04  0.17960538634E+04  0.00000000000E+00 0.  1.
          5    1    4    4  501    0  0.62902701341E+02 -0.16276125810E+03  0.57019998647E+03  0.59631658869E+03  0.41800000000E+01 0.  1.
         -5    1    4    4    0  501  0.79413782105E+02 -0.27221208368E+02  0.49945138171E+03  0.50647477535E+03  0.41800000000E+01 0.  1.
</event>
<event>
11    1  0.8037748E-009  0.1390474E+03  0.7561462E-02  0.1108627E+00
         22   -1    0    0    0    0  0.00000000000E+00  0.00000000000E+00  0.39138984313E+03  0.39138984313E+03  0.00000000000E+00 0.  1.
         22   -1    0    0    0    0 -0.00000000000E+00 -0.00000000000E+00 -0.41291753631E+03  0.41291753631E+03  0.00000000000E+00 0.  1.
         24    2    1    2    0    0 -0.33155622528E+02  0.52677077131E+01 -0.32556790728E+03  0.33681248713E+03  0.79505629872E+02 0.  0.
         25    2    1    2    0    0  0.89976019024E+02  0.32606826165E+01  0.74756250045E+01  0.15430250282E+03  0.12508821430E+03 0.  0.
        -24    2    1    2    0    0 -0.56820396496E+02 -0.85283903296E+01  0.29656458910E+03  0.31319238950E+03  0.82689941546E+02 0.  0.
        -11    1    3    3    0    0 -0.47119901313E+02  0.23747803072E+02 -0.28710532985E+03  0.29191388058E+03  0.00000000000E+00 0.  1.
         12    1    3    3    0    0  0.13964278785E+02 -0.18480095359E+02 -0.38462577436E+02  0.44898606543E+02  0.00000000000E+00 0. -1.
         11    1    5    5    0    0 -0.48425625709E+02 -0.12343990254E+02  0.67724760800E+02  0.84166849449E+02  0.00000000000E+00 0. -1.
        -12    1    5    5    0    0 -0.83947707868E+01  0.38155999241E+01  0.22883982830E+03  0.22902554005E+03  0.00000000000E+00 0.  1.
          5    1    4    4  501    0 -0.28323923207E+02 -0.17639202183E+02  0.55452187603E+01  0.34082369791E+02  0.41800000000E+01 0.  1.
         -5    1    4    4    0  501  0.11829994223E+03  0.20899884799E+02  0.19304062442E+01  0.12022013303E+03  0.41800000000E+01 0.  1.
</event>
<event>
11    1  0.8037748E-009  0.2395245E+03  0.7561462E-02  0.1029632E+00
         22   -1    0    0    0    0  0.00000000000E+00  0.00000000000E+00  0.13056445974E+04  0.13056445974E+04  0.00000000000E+00 0.  1.
         22   -1    0    0    0    0 -0.00000000000E+00 -0.00000000000E+00 -0.24158179053E+03  0.24158179053E+03  0.00000000000E+00 0.  1.
        -24    2    1    2    0    0  0.81075356218E+02  0.16572490825E+03 -0.76728368058E+02  0.21539184212E+03  0.80426641047E+02 0.  0.
         25    2    1    2    0    0 -0.11608133482E+02 -0.33566683001E+03  0.29977931177E+03  0.46724646754E+03  0.12507859979E+03 0.  0.
         24    2    1    2    0    0 -0.69467222736E+02  0.16994192177E+03  0.84101186317E+03  0.86458807828E+03  0.80657543418E+02 0.  0.
        -11    1    5    5    0    0 -0.40328273912E+02  0.16198936364E+03  0.76027641153E+03  0.77838752915E+03  0.00000000000E+00 0.  1.
         12    1    5    5    0    0 -0.29138948824E+02  0.79525581286E+01  0.80735451632E+02  0.86200549125E+02  0.00000000000E+00 0. -1.
         13    1    3    3    0    0 -0.14003212447E+02  0.24489228315E+02  0.10071356097E+01  0.28228116912E+02  0.00000000000E+00 0. -1.
        -14    1    3    3    0    0  0.95078568664E+02  0.14123567993E+03 -0.77735503668E+02  0.18716372521E+03  0.00000000000E+00 0.  1.
          5    1    4    4  501    0  0.42671947823E+02 -0.25973094664E+03  0.24070185058E+03  0.35670143404E+03  0.41800000000E+01 0. -1.
         -5    1    4    4    0  501 -0.54280081305E+02 -0.75935883374E+02  0.59077461192E+02  0.11054503350E+03  0.41800000000E+01 0. -1.
</event>
<event>
11    1  0.8037748E-009  0.3108406E+03  0.7561462E-02  0.9957048E-01
         22   -1    0    0    0    0  0.00000000000E+00  0.00000000000E+00  0.23016911294E+04  0.23016911294E+04  0.00000000000E+00 0. -1.
         22   -1    0    0    0    0 -0.00000000000E+00 -0.00000000000E+00 -0.63468424943E+03  0.63468424943E+03  0.00000000000E+00 0. -1.
         24    2    1    2    0    0 -0.10628125068E+03  0.26276157386E+03 -0.54793899773E+03  0.62184553006E+03  0.78200825299E+02 0.  0.
         25    2    1    2    0    0  0.38090952181E+02 -0.31016057288E+03  0.54450904236E+03  0.64014668025E+03  0.12508866223E+03 0.  0.
        -24    2    1    2    0    0  0.68190298496E+02  0.47398999018E+02  0.16704368353E+04  0.16743831685E+04  0.79392646211E+02 0.  0.
        -11    1    3    3    0    0 -0.17886526248E+01  0.10368395546E+03 -0.19505214555E+03  0.22090473373E+03  0.00000000000E+00 0.  1.
         12    1    3    3    0    0 -0.10449259805E+03  0.15907761840E+03 -0.35288685217E+03  0.40094079633E+03  0.00000000000E+00 0. -1.
         11    1    5    5    0    0  0.32792115972E+02  0.40463300374E+02  0.14561834127E+04  0.14571145229E+04  0.00000000000E+00 0. -1.
        -12    1    5    5    0    0  0.35398182524E+02  0.69356986437E+01  0.21425342264E+03  0.21726864559E+03  0.00000000000E+00 0.  1.
          5    1    4    4  501    0  0.64950658021E+02 -0.13675996994E+03  0.32913567411E+03  0.36231152580E+03  0.41800000000E+01 0.  1.
         -5    1    4    4    0  501 -0.26859705840E+02 -0.17340060294E+03  0.21537336825E+03  0.27783515445E+03  0.41800000000E+01 0.  1.
</event>
<event>
11    1  0.8037748E-009  0.1298080E+03  0.7561462E-02  0.1119505E+00
         22   -1    0    0    0    0  0.00000000000E+00  0.00000000000E+00  0.11955324007E+04  0.11955324007E+04  0.00000000000E+00 0. -1.
         22   -1    0    0    0    0 -0.00000000000E+00 -0.00000000000E+00 -0.13041125754E+03  0.13041125754E+03  0.00000000000E+00 0. -1.
         24    2    1    2    0    0 -0.33470503109E+02  0.97597788343E+01 -0.92596031352E+02  0.13988468538E+03  0.98884641481E+02 0.  0.
         25    2    1    2    0    0  0.38117827761E+02  0.20476659340E+02  0.35664499421E+03  0.38041545884E+03  0.12509199438E+03 0.  0.
        -24    2    1    2    0    0 -0.46473246527E+01 -0.30236438175E+02  0.80107218033E+03  0.80564351404E+03  0.80056191511E+02 0.  0.
        -13    1    3    3    0    0 -0.64260030205E+02  0.23854699388E+02 -0.47088586868E+02  0.83160887309E+02  0.00000000000E+00 0.  1.
         14    1    3    3    0    0  0.30789527096E+02 -0.14094920554E+02 -0.45507444484E+02  0.56723798072E+02  0.00000000000E+00 0. -1.
         13    1    5    5    0    0  0.27516677248E+02 -0.42978819372E+02  0.46096470403E+03  0.46378098797E+03  0.00000000000E+00 0. -1.
        -14    1    5    5    0    0 -0.32164001900E+02  0.12742381197E+02  0.34010747631E+03  0.34186252608E+03  0.00000000000E+00 0.  1.
          5    1    4    4  501    0 -0.40265695536E+02 -0.39683453158E+01  0.59269563236E+02  0.71884821261E+02  0.41800000000E+01 0. -1.
         -5    1    4    4    0  501  0.78383523297E+02  0.24445004656E+02  0.29737543097E+03  0.30853063757E+03  0.41800000000E+01 0. -1.
</event>
<event>
11    1  0.8037748E-009  0.1576763E+03  0.7561462E-02  0.1089283E+00
         22   -1    0    0    0    0  0.00000000000E+00  0.00000000000E+00  0.19073278026E+03  0.19073278026E+03  0.00000000000E+00 0.  1.
         22   -1    0    0    0    0 -0.00000000000E+00 -0.00000000000E+00 -0.19134883624E+04  0.19134883624E+04  0.00000000000E+00 0.  1.
         24    2    1    2    0    0 -0.15758844571E+02 -0.59421543398E+02 -0.16696552172E+04  0.16727435460E+04  0.80889835834E+02 0.  0.
         25    2    1    2    0    0  0.88640219877E+02  0.11366143955E+03 -0.17482960993E+03  0.25882227656E+03  0.12509023509E+03 0.  0.
        -24    2    1    2    0    0 -0.72881375306E+02 -0.54239896153E+02  0.12172924499E+03  0.17265532003E+03  0.82086474206E+02 0.  0.
        -13    1    3    3    0    0  0.15325472533E+01 -0.59682670938E+01 -0.11574672668E+04  0.11574836684E+04  0.00000000000E+00 0.  1.
         14    1    3    3    0    0 -0.17291391824E+02 -0.53453276305E+02 -0.51218795034E+03  0.51525987759E+03  0.00000000000E+00 0. -1.
         11    1    5    5    0    0 -0.13412899688E+02  0.16872657289E+02  0.26048462859E+01  0.21711233640E+02  0.00000000000E+00 0. -1.
        -12    1    5    5    0    0 -0.59468475618E+02 -0.71112553441E+02  0.11912439871E+03  0.15094408639E+03  0.00000000000E+00 0.  1.
          5    1    4    4  501    0  0.34798944586E+01  0.24368544125E+02  0.17348026401E+02  0.30403322651E+02  0.41800000000E+01 0. -1.
         -5    1    4    4    0  501  0.85160325418E+02  0.89292895426E+02 -0.19217763633E+03  0.22841895391E+03  0.41800000000E+01 0. -1.
</event>
<event>
11    1  0.8037748E-009  0.1550309E+03  0.7561462E-02  0.1091846E+00
         22   -1    0    0    0    0  0.00000000000E+00  0.00000000000E+00  0.12397758969E+04  0.12397758969E+04  0.00000000000E+00 0.  1.
         22   -1    0    0    0    0 -0.00000000000E+00 -0.00000000000E+00 -0.65842658468E+03  0.65842658468E+03  0.00000000000E+00 0. -1.
         24    2    1    2    0    0 -0.18127208837E+02 -0.21328255210E+02 -0.56483283049E+03  0.57123197075E+03  0.80537865832E+02 0.  0.
         25    2    1    2    0    0  0.52665626541E+02  0.10506256864E+03 -0.23743823585E+01  0.17165758701E+03  0.12509547530E+03 0.  0.
        -24    2    1    2    0    0 -0.34538417704E+02 -0.83734313428E+02  0.11485565251E+04  0.11553129238E+04  0.85799318795E+02 0.  0.
        -11    1    3    3    0    0 -0.88754169368E+01 -0.19787183729E+02 -0.34071534425E+02  0.40387809099E+02  0.00000000000E+00 0.  1.
         12    1    3    3    0    0 -0.92517919002E+01 -0.15410714809E+01 -0.53076129607E+03  0.53084416165E+03  0.00000000000E+00 0. -1.
         13    1    5    5    0    0  0.28119599933E+02 -0.37012902022E+02  0.45318261163E+03  0.45556025540E+03  0.00000000000E+00 0. -1.
        -14    1    5    5    0    0 -0.62658017637E+02 -0.46721411406E+02  0.69537391345E+03  0.69975266842E+03  0.00000000000E+00 0.  1.
          5    1    4    4  501    0  0.92297984451E+02  0.86231628145E+02  0.70730502535E+01  0.12657927187E+03  0.41800000000E+01 0.  1.
         -5    1    4    4    0  501 -0.39632357910E+02  0.18830940493E+02 -0.94474326120E+01  0.45078315145E+02  0.41800000000E+01 0.  1.
</event>
<event>
11    1  0.8037748E-009  0.1511486E+03  0.7561462E-02  0.1095711E+00
         22   -1    0    0    0    0  0.00000000000E+00  0.00000000000E+00  0.39921950050E+03  0.39921950050E+03  0.00000000000E+00 0. -1.
         22   -1    0    0    0    0 -0.00000000000E+00 -0.00000000000E+00 -0.27889646403E+03  0.27889646403E+03  0.00000000000E+00 0. -1.
         24    2    1    2    0    0  0.32720834492E+02  0.68156387520E+02 -0.88804474587E+02  0.14256460205E+03  0.81990760946E+02 0.  0.
         25    2    1    2    0    0  0.46678817967E+02 -0.98797855475E+02 -0.10764025892E+03  0.19791622271E+03  0.12507788604E+03 0.  0.
        -24    2    1    2    0    0 -0.79399652459E+02  0.30641467956E+02  0.31676776998E+03  0.33763513977E+03  0.80077856731E+02 0.  0.
        -13    1    3    3    0    0  0.46873118121E+02  0.38686197826E+02 -0.91408397334E+02  0.10976887632E+03  0.00000000000E+00 0.  1.
         14    1    3    3    0    0 -0.14152283629E+02  0.29470189694E+02  0.26039227472E+01  0.32795725730E+02  0.00000000000E+00 0. -1.
         13    1    5    5    0    0 -0.85094700385E+02  0.37391012349E+02  0.31525991485E+03  0.32867614722E+03  0.00000000000E+00 0. -1.
        -14    1    5    5    0    0  0.56950479261E+01 -0.67495443930E+01  0.15078551275E+01  0.89589925483E+01  0.00000000000E+00 0.  1.
          5    1    4    4  501    0  0.40804440495E+02  0.12061312210E+02  0.67303968437E+00  0.42759829265E+02  0.41800000000E+01 0. -1.
         -5    1    4    4    0  501  0.58743774714E+01 -0.11085916769E+03 -0.10831329861E+03  0.15515639344E+03  0.41800000000E+01 0. -1.
</event>
<event>
11    1  0.8037748E-009  0.1350882E+03  0.7561462E-02  0.1113171E+00
         22   -1    0    0    0    0  0.00000000000E+00  0.00000000000E+00  0.19674447836E+03  0.19674447836E+03  0.00000000000E+00 0.  1.
         22   -1    0    0    0    0 -0.00000000000E+00 -0.00000000000E+00 -0.19666084730E+03  0.19666084730E+03  0.00000000000E+00 0. -1.
        -24    2    1    2    0    0  0.24134725917E+02 -0.42286680615E+02 -0.10826877247E+03  0.14241555159E+03  0.78672828149E+02 0.  0.
         25    2    1    2    0    0 -0.45372321038E+02  0.50621578282E+02  0.72791924142E+02  0.15990031861E+03  0.12509298929E+03 0.  0.
         24    2    1    2    0    0  0.21237595121E+02 -0.83348976670E+01  0.35560479389E+02  0.91089455461E+02  0.80698421523E+02 0.  0.
        -13    1    5    5    0    0  0.48127354657E+02  0.17771234823E+01  0.38696165199E+01  0.48315363665E+02  0.00000000000E+00 0.  1.
         14    1    5    5    0    0 -0.26889759535E+02 -0.10112021149E+02  0.31690862869E+02  0.42774091796E+02  0.00000000000E+00 0. -1.
         13    1    3    3    0    0  0.34117865552E+02  0.12765809064E+02 -0.46588695611E+02  0.59139675259E+02  0.00000000000E+00 0. -1.
        -14    1    3    3    0    0 -0.99831396354E+01 -0.55052489680E+02 -0.61680076861E+02  0.83275876330E+02  0.00000000000E+00 0.  1.
          5    1    4    4  501    0  0.19561143522E+02  0.70153822783E+02  0.26154951793E+02  0.77496781161E+02  0.41800000000E+01 0.  1.
         -5    1    4    4    0  501 -0.64933464560E+02 -0.19532244501E+02  0.46636972349E+02  0.82403537454E+02  0.41800000000E+01 0.  1.
</event>
<event>
11    1  0.8037748E-009  0.2091048E+03  0.7561462E-02  0.1048266E+00
         22   -1    0    0    0    0  0.00000000000E+00  0.00000000000E+00  0.50338776861E+03  0.50338776861E+03  0.00000000000E+00 0. -1.
         22   -1    0    0    0    0 -0.00000000000E+00 -0.00000000000E+00 -0.18729448534E+04  0.18729448534E+04  0.00000000000E+00 0.  1.
        -24    2    1    2    0    0  0.27328244252E+00 -0.15530191379E+02 -0.16726088216E+04  0.16745997565E+04  0.80142452871E+02 0.  0.
         25    2    1    2    0    0  0.77564171632E+02  0.16243395004E+03 -0.11343545100E+03  0.24681166137E+03  0.12508959109E+03 0.  0.
         24    2    1    2    0    0 -0.77837454074E+02 -0.14690375866E+03  0.41648718784E+03  0.45492120414E+03  0.76500593268E+02 0.  0.
        -11    1    5    5    0    0  0.53460888159E+00 -0.23224623450E+02  0.14138222418E+03  0.14327805923E+03  0.00000000000E+00 0.  1.
         12    1    5    5    0    0 -0.78372062956E+02 -0.12367913521E+03  0.27510496366E+03  0.31164314491E+03  0.00000000000E+00 0. -1.
         11    1    3    3    0    0  0.35906034684E+02 -0.18789163113E+02 -0.11787425495E+04  0.11794389657E+04  0.00000000000E+00 0. -1.
        -12    1    3    3    0    0 -0.35632752242E+02  0.32589717346E+01 -0.49386627215E+03  0.49516079075E+03  0.00000000000E+00 0.  1.
          5    1    4    4  501    0  0.95956053302E+02  0.93821975456E+02 -0.11325562177E+03  0.17565430683E+03  0.41800000000E+01 0. -1.
         -5    1    4    4    0  501 -0.18391881670E+02  0.68611974584E+02 -0.17982922791E+00  0.71157354548E+02  0.41800000000E+01 0. -1.
</event>
<event>
11    1  0.8037748E-009  0.3919379E+03  0.7561462E-02  0.9673850E-01
         22   -1    0    0    0    0  0.00000000000E+00  0.00000000000E+00  0.74650358104E+03  0.74650358104E+03  0.00000000000E+00 0.  1.
         22   -1    0    0    0    0 -0.00000000000E+00 -0.00000000000E+00 -0.12597948755E+04  0.12597948755E+04  0.00000000000E+00 0.  1.
        -24    2    1    2    0    0  0.37233966107E+03  0.46352291973E+02 -0.10186262822E+04  0.10883848775E+04  0.78719631957E+02 0.  0.
         25    2    1    2    0    0 -0.35130653538E+03 -0.33445444321E+02 -0.30354925139E+02  0.37563645168E+03  0.12508574181E+03 0.  0.
         24    2    1    2    0    0 -0.21033125697E+02 -0.12906847652E+02  0.53568991294E+03  0.54227712738E+03  0.80571837243E+02 0.  0.
        -13    1    5    5    0    0 -0.26974975672E+02 -0.11252935223E+02  0.53529970749E+03  0.53609705717E+03  0.00000000000E+00 0.  1.
         14    1    5    5    0    0  0.59418499750E+01 -0.16539124288E+01  0.39020544520E+00  0.61800702049E+01  0.00000000000E+00 0. -1.
         13    1    3    3    0    0 -0.11270915783E+01 -0.44552360560E+01 -0.42911136162E+01  0.62875368633E+01  0.00000000000E+00 0. -1.
        -14    1    3    3    0    0  0.37346675265E+03  0.50807528029E+02 -0.10143351686E+04  0.10820973406E+04  0.00000000000E+00 0.  1.
          5    1    4    4  501    0 -0.24470468369E+03 -0.79901244957E+02 -0.30694278321E+02  0.25927630491E+03  0.41800000000E+01 0. -1.
         -5    1    4    4    0  501 -0.10660185169E+03  0.46455800636E+02  0.33935318140E+00  0.11636014677E+03  0.41800000000E+01 0. -1.
</event>
<event>
11    1  0.8037748E-009  0.8376905E+03  0.7561462E-02  0.8850857E-01
         22   -1    0    0    0    0  0.00000000000E+00  0.00000000000E+00  0.57233111439E+03  0.57233111439E+03  0.00000000000E+00 0.  1.
         22   -1    0    0    0    0 -0.00000000000E+00 -0.00000000000E+00 -0.30652069172E+03  0.30652069172E+03  0.00000000000E+00 0.  1.
         24    2    1    2    0    0  0.17663772725E+03 -0.12608835104E+03 -0.67622664781E+01  0.23211276016E+03  0.82045391240E+02 0.  0.
         25    2    1    2    0    0 -0.32612628508E+03  0.19162568876E+03  0.23082272786E+03  0.46044039933E+03  0.12508985259E+03 0.  0.
        -24    2    1    2    0    0  0.14948855783E+03 -0.65537337724E+02  0.41749961289E+02  0.18629864662E+03  0.79511979639E+02 0.  0.
        -13    1    3    3    0    0  0.87863441718E+01 -0.50698973761E+00  0.18967205583E+02  0.20909609517E+02  0.00000000000E+00 0.  1.
         14    1    3    3    0    0  0.16785138308E+03 -0.12558136130E+03 -0.25729472061E+02  0.21120315064E+03  0.00000000000E+00 0. -1.
         11    1    5    5    0    0  0.59058365851E+02 -0.36049203490E+02  0.57402633492E+02  0.89902713980E+02  0.00000000000E+00 0. -1.
        -12    1    5    5    0    0  0.90430191979E+02 -0.29488134234E+02 -0.15652672203E+02  0.96395932638E+02  0.00000000000E+00 0.  1.
          5    1    4    4  501    0 -0.86267395813E+02  0.53663856658E+02  0.25669302814E+01  0.10171496755E+03  0.41800000000E+01 0. -1.
         -5    1    4    4    0  501 -0.23985888927E+03  0.13796183210E+03  0.22825579758E+03  0.35872543178E+03  0.41800000000E+01 0. -1.
</event>
<event>
11    1  0.8037748E-009  0.1674276E+03  0.7561462E-02  0.1080292E+00
         22   -1    0    0    0    0  0.00000000000E+00  0.00000000000E+00  0.17806088252E+04  0.17806088252E+04  0.00000000000E+00 0.  1.
         22   -1    0    0    0    0 -0.00000000000E+00 -0.00000000000E+00 -0.19626387711E+03  0.19626387711E+03  0.00000000000E+00 0. -1.
         24    2    1    2    0    0  0.96184073074E+02 -0.53742832977E+02 -0.15531046334E+03  0.20589141269E+03  0.78296013879E+02 0.  0.
         25    2    1    2    0    0 -0.10315581928E+03  0.10473926210E+03  0.67478824434E+03  0.70185313843E+03  0.12508883701E+03 0.  0.
        -24    2    1    2    0    0  0.69717462067E+01 -0.50996429118E+02  0.10648671671E+04  0.10691281512E+04  0.80272530217E+02 0.  0.
        -11    1    3    3    0    0  0.49875237078E+02  0.11364233466E+02 -0.37009164975E+02  0.63137654122E+02  0.00000000000E+00 0.  1.
         12    1    3    3    0    0  0.46308835996E+02 -0.65107066443E+02 -0.11830129836E+03  0.14275375857E+03  0.00000000000E+00 0. -1.
         13    1    5    5    0    0 -0.10493157328E+02 -0.68658427404E+02  0.70845732989E+03  0.71185382929E+03  0.00000000000E+00 0. -1.
        -14    1    5    5    0    0  0.17464903535E+02  0.17661998286E+02  0.35640983718E+03  0.35727432188E+03  0.00000000000E+00 0.  1.
          5    1    4    4  501    0 -0.26359294199E+02  0.31415547339E+02  0.46368925246E+03  0.46551793118E+03  0.41800000000E+01 0. -1.
         -5    1    4    4    0  501 -0.76796525082E+02  0.73323714756E+02  0.21109899188E+03  0.23633520724E+03  0.41800000000E+01 0. -1.
</event>
<event>
11    1  0.8037748E-009  0.2369986E+03  0.7561462E-02  0.1031063E+00
         22   -1    0    0    0    0  0.00000000000E+00  0.00000000000E+00  0.11536635448E+03  0.11536635448E+03  0.00000000000E+00 0. -1.
         22   -1    0    0    0    0 -0.00000000000E+00 -0.00000000000E+00 -0.23044219501E+04  0.23044219501E+04  0.00000000000E+00 0.  1.
         24    2    1    2    0    0 -0.13563211772E+02  0.61119298382E+00 -0.14617334471E+04  0.14639453851E+04  0.79291146330E+02 0.  0.
         25    2    1    2    0    0 -0.18973483576E+03 -0.49744067465E+00 -0.69946379494E+03  0.73545683620E+03  0.12509037584E+03 0.  0.
        -24    2    1    2    0    0  0.20329804753E+03 -0.11375230916E+00 -0.27858353579E+02  0.22038608328E+03  0.80397940092E+02 0.  0.
        -13    1    3    3    0    0  0.12461456669E+02  0.10046530388E+02 -0.12813683725E+04  0.12814683479E+04  0.00000000000E+00 0.  1.
         14    1    3    3    0    0 -0.26024668441E+02 -0.94353374044E+01 -0.18036507461E+03  0.18247703718E+03  0.00000000000E+00 0. -1.
         11    1    5    5    0    0  0.20815015366E+03  0.44132370142E+01 -0.34455517160E+02  0.21102877953E+03  0.00000000000E+00 0. -1.
        -12    1    5    5    0    0 -0.48521061246E+01 -0.45269893234E+01  0.65971635807E+01  0.93573037510E+01  0.00000000000E+00 0.  1.
          5    1    4    4  501    0 -0.50771664004E+01 -0.32022066825E+02 -0.51974906830E+02  0.61400763207E+02  0.41800000000E+01 0. -1.
         -5    1    4    4    0  501 -0.18465766936E+03  0.31524626150E+02 -0.64748888811E+03  0.67405607299E+03  0.41800000000E+01 0. -1.
</event>
<event>
11    1  0.8037748E-009  0.1409616E+03  0.7561462E-02  0.1106489E+00
         22   -1    0    0    0    0  0.00000000000E+00  0.00000000000E+00  0.15966919212E+03  0.15966919212E+03  0.00000000000E+00 0. -1.
         22   -1    0    0    0    0 -0.00000000000E+00 -0.00000000000E+00 -0.24083293943E+03  0.24083293943E+03  0.00000000000E+00 0.  1.
         24    2    1    2    0    0 -0.16886537783E+02  0.19041861400E+02 -0.11161646792E+03  0.13978046912E+03  0.80203466206E+02 0.  0.
         25    2    1    2    0    0  0.35390114409E+01 -0.77321420360E+02 -0.75945133890E+01  0.14729532650E+03  0.12508840844E+03 0.  0.
        -24    2    1    2    0    0  0.13347526342E+02  0.58279558960E+02  0.38047233999E+02  0.11342633594E+03  0.88562284398E+02 0.  0.
        -11    1    3    3    0    0 -0.34709194700E+02 -0.57418900045E+01 -0.10181027815E+03  0.10771736273E+03  0.00000000000E+00 0.  1.
         12    1    3    3    0    0  0.17822656917E+02  0.24783751405E+02 -0.98061897763E+01  0.32063106387E+02  0.00000000000E+00 0. -1.
         11    1    5    5    0    0  0.33993377981E+02  0.52273899634E+02  0.57211126275E+02  0.84624011363E+02  0.00000000000E+00 0. -1.
        -12    1    5    5    0    0 -0.20645851639E+02  0.60056593261E+01 -0.19163892276E+02  0.28802324577E+02  0.00000000000E+00 0.  1.
          5    1    4    4  501    0 -0.58339885976E+02 -0.41043472131E+02  0.12833827780E+02  0.72596752240E+02  0.41800000000E+01 0. -1.
         -5    1    4    4    0  501  0.61878897417E+02 -0.36277948229E+02 -0.20428341169E+02  0.74698574258E+02  0.41800000000E+01 0. -1.
</event>
<event>
11    1  0.8037748E-009  0.1282552E+03  0.7561462E-02  0.1121432E+00
         22   -1    0    0    0    0  0.00000000000E+00  0.00000000000E+00  0.22136335278E+04  0.22136335278E+04  0.00000000000E+00 0. -1.
         22   -1    0    0    0    0 -0.00000000000E+00 -0.00000000000E+00 -0.51994983024E+03  0.51994983024E+03  0.00000000000E+00 0.  1.
         24    2    1    2    0    0  0.28439760848E+02 -0.70203828808E+01 -0.38508363435E+03  0.39475296625E+03  0.81745905982E+02 0.  0.
         25    2    1    2    0    0 -0.13089209666E+02  0.31162406248E+02 -0.96707980619E+02  0.16168365751E+03  0.12508696421E+03 0.  0.
        -24    2    1    2    0    0 -0.15350551182E+02 -0.24142023367E+02  0.21754753125E+04  0.21771467342E+04  0.80352911698E+02 0.  0.
        -11    1    3    3    0    0  0.43996554507E+02 -0.15616927994E+02 -0.36483533071E+03  0.36781028232E+03  0.00000000000E+00 0.  1.
         12    1    3    3    0    0 -0.15556793659E+02  0.85965451132E+01 -0.20248303644E+02  0.26942683929E+02  0.00000000000E+00 0. -1.
         13    1    5    5    0    0  0.31802309739E+02 -0.17370066550E+00  0.69613047479E+03  0.69685655268E+03  0.00000000000E+00 0. -1.
        -14    1    5    5    0    0 -0.47152860921E+02 -0.23968322702E+02  0.14793448377E+04  0.14802901816E+04  0.00000000000E+00 0.  1.
          5    1    4    4  501    0  0.49172893235E+02  0.38197223576E+02 -0.69030217125E+02  0.93057211405E+02  0.41800000000E+01 0. -1.
         -5    1    4    4    0  501 -0.62262102901E+02 -0.70348173283E+01 -0.27677763494E+02  0.68626446102E+02  0.41800000000E+01 0. -1.
</event>
<event>
11    1  0.8037748E-009  0.1261118E+03  0.7561462E-02  0.1124141E+00
         22   -1    0    0    0    0  0.00000000000E+00  0.00000000000E+00  0.18332568600E+03  0.18332568600E+03  0.00000000000E+00 0.  1.
         22   -1    0    0    0    0 -0.00000000000E+00 -0.00000000000E+00 -0.13681043179E+03  0.13681043179E+03  0.00000000000E+00 0.  1.
         24    2    1    2    0    0 -0.13970353651E+02  0.13720444777E+02 -0.46426299222E+02  0.93947580975E+02  0.79292656190E+02 0.  0.
         25    2    1    2    0    0  0.12579167004E+02  0.11053622805E+02  0.38613234297E+02  0.13198303845E+03  0.12509245603E+03 0.  0.
        -24    2    1    2    0    0  0.13911866466E+01 -0.24774067582E+02  0.54328319136E+02  0.94205498366E+02  0.72852040722E+02 0.  0.
        -13    1    3    3    0    0 -0.31842517152E+02  0.37584594707E+02 -0.39983702689E+02  0.63444811754E+02  0.00000000000E+00 0.  1.
         14    1    3    3    0    0  0.17872163501E+02 -0.23864149929E+02 -0.64425965334E+01  0.30502769221E+02  0.00000000000E+00 0. -1.
         13    1    5    5    0    0  0.14876768969E+02 -0.66738653998E+01  0.66563222550E+02  0.68531170503E+02  0.00000000000E+00 0. -1.
        -14    1    5    5    0    0 -0.13485582322E+02 -0.18100202182E+02 -0.12234903414E+02  0.25674327862E+02  0.00000000000E+00 0.  1.
          5    1    4    4  501    0  0.23279957466E+02 -0.52094087197E+02  0.36301768900E+02  0.67757222241E+02  0.41800000000E+01 0.  1.
         -5    1    4    4    0  501 -0.10700790462E+02  0.63147710002E+02  0.23114653970E+01  0.64225816206E+02  0.41800000000E+01 0.  1.
</event>
<event>
11    1  0.8037748E-009  0.3162740E+03  0.7561462E-02  0.9935296E-01
         22   -1    0    0    0    0  0.00000000000E+00  0.00000000000E+00  0.18975423208E+03  0.18975423208E+03  0.00000000000E+00 0.  1.
         22   -1    0    0    0    0 -0.00000000000E+00 -0.00000000000E+00 -0.28463972731E+04  0.28463972731E+04  0.00000000000E+00 0.  1.
         24    2    1    2    0    0  0.26128944097E+03 -0.13082766118E+03 -0.25396402812E+04  0.25576632262E+04  0.80500757886E+02 0.  0.
         25    2    1    2    0    0 -0.27709110053E+03  0.54600075574E+02 -0.17238802894E+03  0.35373224609E+03  0.12509285814E+03 0.  0.
        -24    2    1    2    0    0  0.15801659563E+02  0.76227585602E+02  0.55385269089E+02  0.12475603289E+03  0.80225946301E+02 0.  0.
        -13    1    3    3    0    0  0.79873309839E+02 -0.45934667696E+02 -0.11467095183E+04  0.11504053454E+04  0.00000000000E+00 0.  1.
         14    1    3    3    0    0  0.18141613113E+03 -0.84892993480E+02 -0.13929307629E+04  0.14072578808E+04  0.00000000000E+00 0. -1.
         11    1    5    5    0    0 -0.25262439922E+02  0.52932207840E+00  0.82447451596E+01  0.26579068370E+02  0.00000000000E+00 0. -1.
        -12    1    5    5    0    0  0.41064099485E+02  0.75698263523E+02  0.47140523930E+02  0.98176964525E+02  0.00000000000E+00 0.  1.
          5    1    4    4  501    0 -0.20981991580E+03  0.93630893341E+02 -0.14195833796E+03  0.27011253835E+03  0.41800000000E+01 0. -1.
         -5    1    4    4    0  501 -0.67271184730E+02 -0.39030817767E+02 -0.30429690978E+02  0.83619707746E+02  0.41800000000E+01 0. -1.
</event>
<event>
11    1  0.8037748E-009  0.1658515E+03  0.7561462E-02  0.1081699E+00
         22   -1    0    0    0    0  0.00000000000E+00  0.00000000000E+00  0.13312391217E+03  0.13312391217E+03  0.00000000000E+00 0.  1.
         22   -1    0    0    0    0 -0.00000000000E+00 -0.00000000000E+00 -0.21311897456E+04  0.21311897456E+04  0.00000000000E+00 0. -1.
        -24    2    1    2    0    0 -0.39507973861E+02 -0.15013239529E+02 -0.17784979389E+04  0.17806813568E+04  0.77362123468E+02 0.  0.
         25    2    1    2    0    0  0.12724469265E+03  0.70828607005E+02 -0.27992157864E+03  0.33941953112E+03  0.12506648049E+03 0.  0.
         24    2    1    2    0    0 -0.87736718791E+02 -0.55815367477E+02  0.60353684174E+02  0.14421276985E+03  0.79634595026E+02 0.  0.
        -13    1    5    5    0    0 -0.97316853099E+02 -0.64583468155E+02  0.47958560476E+02  0.12626011951E+03  0.00000000000E+00 0.  1.
         14    1    5    5    0    0  0.95801343077E+01  0.87681006786E+01  0.12395123698E+02  0.17952650343E+02  0.00000000000E+00 0. -1.
         13    1    3    3    0    0 -0.25572147698E+02 -0.41249611862E+02 -0.65705794002E+03  0.65884793524E+03  0.00000000000E+00 0. -1.
        -14    1    3    3    0    0 -0.13935826163E+02  0.26236372333E+02 -0.11214399989E+04  0.11218334215E+04  0.00000000000E+00 0.  1.
          5    1    4    4  501    0 -0.60685122028E+01  0.29023445769E+02 -0.13419115079E+03  0.13749154372E+03  0.41800000000E+01 0.  1.
         -5    1    4    4    0  501  0.13331320485E+03  0.41805161237E+02 -0.14573042785E+03  0.20192798740E+03  0.41800000000E+01 0.  1.
</event>
<event>
11    1  0.8037748E-009  0.1523568E+03  0.7561462E-02  0.1094495E+00
         22   -1    0    0    0    0  0.00000000000E+00  0.00000000000E+00  0.16465746325E+04  0.16465746325E+04  0.00000000000E+00 0. -1.
         22   -1    0    0    0    0 -0.00000000000E+00 -0.00000000000E+00 -0.63244113928E+03  0.63244113928E+03  0.00000000000E+00 0.  1.
        -24    2    1    2    0    0 -0.28316845067E+02 -0.12867401899E+02 -0.59902099585E+03  0.60520736900E+03  0.80513305009E+02 0.  0.
         25    2    1    2    0    0 -0.68305040410E+01 -0.68723972631E+02  0.15553607391E+03  0.21121176944E+03  0.12509716650E+03 0.  0.
         24    2    1    2    0    0  0.35147349108E+02  0.81591374530E+02  0.14576184152E+04  0.14625966334E+04  0.81516741148E+02 0.  0.
        -13    1    5    5    0    0  0.35038669533E+02  0.32379536388E+02  0.28653660683E+03  0.29048127271E+03  0.00000000000E+00 0.  1.
         14    1    5    5    0    0  0.10867957524E+00  0.49211838142E+02  0.11710818084E+04  0.11721153607E+04  0.00000000000E+00 0. -1.
         13    1    3    3    0    0  0.26115849701E+02 -0.15948905261E+02 -0.26580292217E+03  0.26755858913E+03  0.00000000000E+00 0. -1.
        -14    1    3    3    0    0 -0.54432694768E+02  0.30815033617E+01 -0.33321807368E+03  0.33764877987E+03  0.00000000000E+00 0.  1.
          5    1    4    4  501    0 -0.19491232994E+02  0.14260105326E+02  0.11557849201E+03  0.11814871553E+03  0.41800000000E+01 0. -1.
         -5    1    4    4    0  501  0.12660728953E+02 -0.82984077958E+02  0.39957581900E+02  0.93063053912E+02  0.41800000000E+01 0. -1.
</event>
<event>
11    1  0.8037748E-009  0.1437038E+03  0.7561462E-02  0.1103492E+00
         22   -1    0    0    0    0  0.00000000000E+00  0.00000000000E+00  0.12621069613E+03  0.12621069613E+03  0.00000000000E+00 0. -1.
         22   -1    0    0    0    0 -0.00000000000E+00 -0.00000000000E+00 -0.45026509586E+03  0.45026509586E+03  0.00000000000E+00 0.  1.
         24    2    1    2    0    0  0.77382773133E+01  0.14032279669E+01 -0.28055170606E+03  0.29398541558E+03  0.87500370370E+02 0.  0.
         25    2    1    2    0    0  0.29479102082E+02 -0.62287568578E+02 -0.85405070592E+02  0.16640468879E+03  0.12509090978E+03 0.  0.
        -24    2    1    2    0    0 -0.37217379395E+02  0.60884340611E+02  0.41902376928E+02  0.11608568763E+03  0.81412784124E+02 0.  0.
        -11    1    3    3    0    0  0.95529354860E+01 -0.39104384672E+02 -0.19754042714E+03  0.20160017816E+03  0.00000000000E+00 0.  1.
         12    1    3    3    0    0 -0.18146581728E+01  0.40507612639E+02 -0.83011278920E+02  0.92385237424E+02  0.00000000000E+00 0. -1.
         13    1    5    5    0    0 -0.41314387677E+02  0.66497360697E+02  0.49035716300E+01  0.78439930033E+02  0.00000000000E+00 0. -1.
        -14    1    5    5    0    0  0.40970082820E+01 -0.56130200859E+01  0.36998805298E+02  0.37645757594E+02  0.00000000000E+00 0.  1.
          5    1    4    4  501    0  0.40083271979E+02 -0.81768141286E+02 -0.10317544238E+03  0.13767840038E+03  0.41800000000E+01 0.  1.
         -5    1    4    4    0  501 -0.10604169897E+02  0.19480572708E+02  0.17770371785E+02  0.28726288407E+02  0.41800000000E+01 0.  1.
</event>
<event>
11    1  0.8037748E-009  0.2781112E+03  0.7561462E-02  0.1009906E+00
         22   -1    0    0    0    0  0.00000000000E+00  0.00000000000E+00  0.91219245722E+03  0.91219245722E+03  0.00000000000E+00 0. -1.
         22   -1    0    0    0    0 -0.00000000000E+00 -0.00000000000E+00 -0.14680795247E+03  0.14680795247E+03  0.00000000000E+00 0. -1.
        -24    2    1    2    0    0 -0.11108263623E+02  0.21534344525E+01  0.73425733797E+02  0.10966018912E+03  0.80659704268E+02 0.  0.
         25    2    1    2    0    0 -0.98349719295E+02  0.22240576902E+03  0.82413517140E+02  0.28561643692E+03  0.12509103826E+03 0.  0.
         24    2    1    2    0    0  0.10945798292E+03 -0.22455920347E+03  0.60954525381E+03  0.66372378365E+03  0.81092284835E+02 0.  0.
        -11    1    5    5    0    0  0.28898951071E+02 -0.97138509944E+01  0.10730519339E+03  0.11155228730E+03  0.00000000000E+00 0.  1.
         12    1    5    5    0    0  0.80559031847E+02 -0.21484535248E+03  0.50224006041E+03  0.55217149635E+03  0.00000000000E+00 0. -1.
         11    1    3    3    0    0 -0.38314774903E+02  0.24411797569E+02  0.33381043639E+02  0.56375987005E+02  0.00000000000E+00 0. -1.
        -12    1    3    3    0    0  0.27206511280E+02 -0.22258363117E+02  0.40044690158E+02  0.53284202110E+02  0.00000000000E+00 0.  1.
          5    1    4    4  501    0 -0.74859138089E+01  0.42745745314E+02  0.71754338788E+02  0.83960676408E+02  0.41800000000E+01 0.  1.
         -5    1    4    4    0  501 -0.90863805486E+02  0.17966002371E+03  0.10659178353E+02  0.20165576052E+03  0.41800000000E+01 0.  1.
</event>
<event>
11    1  0.8037748E-009  0.2475397E+03  0.7561462E-02  0.1025218E+00
         22   -1    0    0    0    0  0.00000000000E+00  0.00000000000E+00  0.21878740858E+03  0.21878740858E+03  0.00000000000E+00 0.  1.
         22   -1    0    0    0    0 -0.00000000000E+00 -0.00000000000E+00 -0.15506789510E+04  0.15506789510E+04  0.00000000000E+00 0. -1.
        -24    2    1    2    0    0 -0.83083638433E+01 -0.65581137411E+01 -0.10514989173E+04  0.10532876294E+04  0.60438558293E+02 0.  0.
         25    2    1    2    0    0  0.13604380881E+03  0.17592748454E+03 -0.38819960375E+03  0.46454451767E+03  0.12507709147E+03 0.  0.
         24    2    1    2    0    0 -0.12773544496E+03 -0.16936937080E+03  0.10780697869E+03  0.25163421249E+03  0.81823618688E+02 0.  0.
        -11    1    5    5    0    0 -0.82896876287E+02 -0.12087550291E+03  0.30060071827E+02  0.14962081146E+03  0.00000000000E+00 0.  1.
         12    1    5    5    0    0 -0.44838568676E+02 -0.48493867887E+02  0.77746906860E+02  0.10201340103E+03  0.00000000000E+00 0. -1.
         11    1    3    3    0    0 -0.22203987401E+02 -0.20608567721E+02 -0.89944151667E+03  0.89995153871E+03  0.00000000000E+00 0. -1.
        -12    1    3    3    0    0  0.13895623557E+02  0.14050453980E+02 -0.15205740066E+03  0.15333609068E+03  0.00000000000E+00 0.  1.
          5    1    4    4  501    0  0.80813215372E+02  0.14688807354E+03 -0.35749123107E+03  0.39487255491E+03  0.41800000000E+01 0. -1.
         -5    1    4    4    0  501  0.55230593434E+02  0.29039410999E+02 -0.30708372684E+02  0.69671962762E+02  0.41800000000E+01 0. -1.
</event>
<event>
11    1  0.8037748E-009  0.1485319E+03  0.7561462E-02  0.1098388E+00
         22   -1    0    0    0    0  0.00000000000E+00  0.00000000000E+00  0.79520962774E+03  0.79520962774E+03  0.00000000000E+00 0.  1.
         22   -1    0    0    0    0 -0.00000000000E+00 -0.00000000000E+00 -0.34039326367E+03  0.34039326367E+03  0.00000000000E+00 0.  1.
         24    2    1    2    0    0 -0.43220301520E+02  0.67429302262E+02 -0.30937137499E+03  0.32971404001E+03  0.81154144990E+02 0.  0.
         25    2    1    2    0    0  0.65177682395E+02 -0.53447373383E+02  0.31944301853E+03  0.35326288570E+03  0.12508426090E+03 0.  0.
        -24    2    1    2    0    0 -0.21957380875E+02 -0.13981928880E+02  0.44474472054E+03  0.45262596570E+03  0.79967352550E+02 0.  0.
        -11    1    3    3    0    0 -0.18586111509E+02  0.62219704611E+02 -0.29197729701E+03  0.29911114515E+03  0.00000000000E+00 0.  1.
         12    1    3    3    0    0 -0.24634190010E+02  0.52095976513E+01 -0.17394077984E+02  0.30602894864E+02  0.00000000000E+00 0. -1.
         13    1    5    5    0    0 -0.73743544773E+01 -0.44187518839E+02  0.33165576976E+03  0.33466769719E+03  0.00000000000E+00 0. -1.
        -14    1    5    5    0    0 -0.14583026398E+02  0.30205589960E+02  0.11308895077E+03  0.11795826851E+03  0.00000000000E+00 0.  1.
          5    1    4    4  501    0  0.10481579686E+02  0.37206823152E+02  0.47356707276E+02  0.61272680093E+02  0.41800000000E+01 0. -1.
         -5    1    4    4    0  501  0.54696102709E+02 -0.90654196534E+02  0.27208631125E+03  0.29199020561E+03  0.41800000000E+01 0. -1.
</event>
<event>
11    1  0.8037748E-009  0.1635225E+03  0.7561462E-02  0.1083810E+00
         22   -1    0    0    0    0  0.00000000000E+00  0.00000000000E+00  0.47049730144E+03  0.47049730144E+03  0.00000000000E+00 0. -1.
         22   -1    0    0    0    0 -0.00000000000E+00 -0.00000000000E+00 -0.70299128174E+03  0.70299128174E+03  0.00000000000E+00 0.  1.
         24    2    1    2    0    0 -0.18804420102E+01 -0.26840418390E+02 -0.60356427759E+03  0.60954022805E+03  0.80780618331E+02 0.  0.
         25    2    1    2    0    0  0.37164667866E+02 -0.75867523343E+02 -0.15485934368E+02  0.15174123587E+03  0.12509394416E+03 0.  0.
        -24    2    1    2    0    0 -0.35284225856E+02  0.10270794173E+03  0.38655623166E+03  0.41220711926E+03  0.93247472082E+02 0.  0.
        -13    1    3    3    0    0 -0.15463673836E+02  0.11484994758E+02 -0.45796269051E+03  0.45836759944E+03  0.00000000000E+00 0.  1.
         14    1    3    3    0    0  0.13583231826E+02 -0.38325413148E+02 -0.14560158708E+03  0.15117262861E+03  0.00000000000E+00 0. -1.
         11    1    5    5    0    0 -0.50529125057E+02  0.82855861604E+02  0.36921548222E+03  0.38175693654E+03  0.00000000000E+00 0. -1.
        -12    1    5    5    0    0  0.15244899200E+02  0.19852080129E+02  0.17340749431E+02  0.30450182724E+02  0.00000000000E+00 0.  1.
          5    1    4    4  501    0  0.24630959846E+02  0.28667176303E+02 -0.25676908917E+02  0.45883191167E+02  0.41800000000E+01 0.  1.
         -5    1    4    4    0  501  0.12533708020E+02 -0.10453469965E+03  0.10190974549E+02  0.10585804471E+03  0.41800000000E+01 0.  1.
</event>
<event>
11    1  0.8037748E-009  0.1518043E+03  0.7561462E-02  0.1095049E+00
         22   -1    0    0    0    0  0.00000000000E+00  0.00000000000E+00  0.32963582688E+03  0.32963582688E+03  0.00000000000E+00 0. -1.
         22   -1    0    0    0    0 -0.00000000000E+00 -0.00000000000E+00 -0.13975596607E+04  0.13975596607E+04  0.00000000000E+00 0.  1.
        -24    2    1    2    0    0  0.34895307073E+02 -0.55004464586E+02 -0.12885144297E+04  0.12926670825E+04  0.80470971206E+02 0.  0.
         25    2    1    2    0    0  0.35822839120E+01  0.12697245461E+03 -0.79222330391E+01  0.17842949626E+03  0.12505793206E+03 0.  0.
         24    2    1    2    0    0 -0.38477590985E+02 -0.71967990024E+02  0.22851282885E+03  0.25609890882E+03  0.81906175285E+02 0.  0.
        -11    1    5    5    0    0  0.19517479093E+02  0.40346535914E+01  0.35721221361E+02  0.40904963944E+02  0.00000000000E+00 0.  1.
         12    1    5    5    0    0 -0.57995070078E+02 -0.76002643616E+02  0.19279160749E+03  0.21519394487E+03  0.00000000000E+00 0. -1.
         11    1    3    3    0    0  0.54806668067E+02 -0.12827968287E+02 -0.63457876255E+03  0.63707027361E+03  0.00000000000E+00 0. -1.
        -12    1    3    3    0    0 -0.19911360994E+02 -0.42176496299E+02 -0.65393566711E+03  0.65559680891E+03  0.00000000000E+00 0.  1.
          5    1    4    4  501    0 -0.33642237188E+02  0.30112155305E+02  0.43243771231E+02  0.62658105385E+02  0.41800000000E+01 0. -1.
         -5    1    4    4    0  501  0.37224521100E+02  0.96860299305E+02 -0.51166004270E+02  0.11577139088E+03  0.41800000000E+01 0. -1.
</event>
<event>
11    1  0.8037748E-009  0.1467249E+03  0.7561462E-02  0.1100273E+00
         22   -1    0    0    0    0  0.00000000000E+00  0.00000000000E+00  0.79552815777E+03  0.79552815777E+03  0.00000000000E+00 0. -1.
         22   -1    0    0    0    0 -0.00000000000E+00 -0.00000000000E+00 -0.41498897239E+03  0.41498897239E+03  0.00000000000E+00 0.  1.
        -24    2    1    2    0    0  0.46431123253E+02 -0.26101484528E+02 -0.33816841188E+03  0.35004429226E+03  0.73047895617E+02 0.  0.
         25    2    1    2    0    0 -0.72812697389E+02  0.95348408046E+02  0.46543758622E+02  0.17946289599E+03  0.12509037433E+03 0.  0.
         24    2    1    2    0    0  0.26381574136E+02 -0.69246923518E+02  0.67216383864E+03  0.68100994192E+03  0.80493422995E+02 0.  0.
        -13    1    5    5    0    0 -0.28211971535E+02 -0.13260267045E+02  0.18359712963E+03  0.18622474602E+03  0.00000000000E+00 0.  1.
         14    1    5    5    0    0  0.54593545671E+02 -0.55986656473E+02  0.48856670901E+03  0.49478519590E+03  0.00000000000E+00 0. -1.
         13    1    3    3    0    0  0.29559481763E+02  0.22649834720E+02 -0.17485871769E+03  0.17878016984E+03  0.00000000000E+00 0. -1.
        -14    1    3    3    0    0  0.16871641490E+02 -0.48751319248E+02 -0.16330969419E+03  0.17126412243E+03  0.00000000000E+00 0.  1.
          5    1    4    4  501    0 -0.81615489246E+02  0.84586393274E+02  0.80504774168E+02  0.14252872369E+03  0.41800000000E+01 0.  1.
         -5    1    4    4    0  501  0.88027918575E+01  0.10762014772E+02 -0.33961015547E+02  0.36934172299E+02  0.41800000000E+01 0.  1.
</event>
<event>
11    1  0.8037748E-009  0.1460815E+03  0.7561462E-02  0.1100951E+00
         22   -1    0    0    0    0  0.00000000000E+00  0.00000000000E+00  0.93538371852E+02  0.93538371852E+02  0.00000000000E+00 0.  1.
         22   -1    0    0    0    0 -0.00000000000E+00 -0.00000000000E+00 -0.38247208683E+03  0.38247208683E+03  0.00000000000E+00 0.  1.
        -24    2    1    2    0    0 -0.36194270859E+02  0.52445523779E+02 -0.11680924072E+03  0.15653068232E+03  0.82443299192E+02 0.  0.
         25    2    1    2    0    0  0.26723426178E+02  0.50678696186E+02 -0.70971658701E+02  0.15481371916E+03  0.12509132483E+03 0.  0.
         24    2    1    2    0    0  0.94708446801E+01 -0.10312421996E+03 -0.10115281556E+03  0.16466605721E+03  0.78477491411E+02 0.  0.
        -11    1    5    5    0    0  0.13604080331E+02 -0.11580269838E+03 -0.90642018451E+02  0.14768653108E+03  0.00000000000E+00 0.  1.
         12    1    5    5    0    0 -0.41332356504E+01  0.12678478410E+02 -0.10510797110E+02  0.16979526131E+02  0.00000000000E+00 0. -1.
         13    1    3    3    0    0 -0.22855304695E+01 -0.17188781320E+02 -0.54298751427E+02  0.57000282976E+02  0.00000000000E+00 0. -1.
        -14    1    3    3    0    0 -0.33908740389E+02  0.69634305099E+02 -0.62510489291E+02  0.99530399340E+02  0.00000000000E+00 0.  1.
          5    1    4    4  501    0 -0.49268999543E+02  0.27272010218E+02 -0.18364838306E+02  0.59379597028E+02  0.41800000000E+01 0. -1.
         -5    1    4    4    0  501  0.75992425721E+02  0.23406685968E+02 -0.52606820395E+02  0.95434122132E+02  0.41800000000E+01 0. -1.
</event>
<event>
11    1  0.8037748E-009  0.1842455E+03  0.7561462E-02  0.1066260E+00
         22   -1    0    0    0    0  0.00000000000E+00  0.00000000000E+00  0.26117706730E+03  0.26117706730E+03  0.00000000000E+00 0. -1.
         22   -1    0    0    0    0 -0.00000000000E+00 -0.00000000000E+00 -0.40996562728E+03  0.40996562728E+03  0.00000000000E+00 0. -1.
         24    2    1    2    0    0 -0.17035155218E+02  0.21496485468E+02 -0.19904852918E+03  0.21558077806E+03  0.78118240500E+02 0.  0.
         25    2    1    2    0    0  0.92480022138E+02  0.92253028851E+02 -0.12467632861E+03  0.21966969389E+03  0.12508961456E+03 0.  0.
        -24    2    1    2    0    0 -0.75444866920E+02 -0.11374951432E+03  0.17493629781E+03  0.23589222263E+03  0.80072170275E+02 0.  0.
        -11    1    3    3    0    0 -0.83720310301E+01 -0.86688497209E+01  0.18962766643E+01  0.12199824763E+02  0.00000000000E+00 0.  1.
         12    1    3    3    0    0 -0.86631241884E+01  0.30165335189E+02 -0.20094480584E+03  0.20338095330E+03  0.00000000000E+00 0. -1.
         11    1    5    5    0    0 -0.64635569041E+02 -0.76158510016E+02  0.64926555715E+02  0.11913577578E+03  0.00000000000E+00 0. -1.
        -12    1    5    5    0    0 -0.10809297878E+02 -0.37591004304E+02  0.11000974210E+03  0.11675644685E+03  0.00000000000E+00 0.  1.
          5    1    4    4  501    0 -0.23494466822E+02  0.24869918397E+02  0.27990685937E+01  0.34580485787E+02  0.41800000000E+01 0. -1.
         -5    1    4    4    0  501  0.11597448896E+03  0.67383110455E+02 -0.12747539720E+03  0.18508920810E+03  0.41800000000E+01 0. -1.
</event>
<event>
11    1  0.8037748E-009  0.1356849E+03  0.7561462E-02  0.1112475E+00
         22   -1    0    0    0    0  0.00000000000E+00  0.00000000000E+00  0.46472518659E+03  0.46472518659E+03  0.00000000000E+00 0.  1.
         22   -1    0    0    0    0 -0.00000000000E+00 -0.00000000000E+00 -0.14937772320E+03  0.14937772320E+03  0.00000000000E+00 0.  1.
        -24    2    1    2    0    0 -0.27117581434E+02  0.47450278366E+02 -0.10449828339E+03  0.14230077392E+03  0.79641238605E+02 0.  0.
         25    2    1    2    0    0  0.51999834544E+01 -0.29364648590E+02  0.20285135826E+03  0.24017682516E+03  0.12508761483E+03 0.  0.
         24    2    1    2    0    0  0.21917597979E+02 -0.18085629776E+02  0.21699438852E+03  0.23162531070E+03  0.75869946645E+02 0.  0.
        -11    1    5    5    0    0  0.41900477011E+02  0.11359805487E+02  0.93151511716E+02  0.10277110143E+03  0.00000000000E+00 0.  1.
         12    1    5    5    0    0 -0.19982879031E+02 -0.29445435263E+02  0.12384287680E+03  0.12885420927E+03  0.00000000000E+00 0. -1.
         11    1    3    3    0    0  0.98094420813E+01  0.21678368484E+02  0.46352842992E+01  0.24241754775E+02  0.00000000000E+00 0. -1.
        -12    1    3    3    0    0 -0.36927023515E+02  0.25771909883E+02 -0.10913356769E+03  0.11805901914E+03  0.00000000000E+00 0.  1.
          5    1    4    4  501    0 -0.38760860729E+02 -0.59909979204E+02  0.14233191483E+03  0.15927164315E+03  0.41800000000E+01 0. -1.
         -5    1    4    4    0  501  0.43960844183E+02  0.30545330614E+02  0.60519443430E+02  0.80905182014E+02  0.41800000000E+01 0. -1.
</event>
<event>
11    1  0.8037748E-009  0.1917253E+03  0.7561462E-02  0.1060534E+00
         22   -1    0    0    0    0  0.00000000000E+00  0.00000000000E+00  0.86401601481E+03  0.86401601481E+03  0.00000000000E+00 0.  1.
         22   -1    0    0    0    0 -0.00000000000E+00 -0.00000000000E+00 -0.90971204394E+02  0.90971204394E+02  0.00000000000E+00 0.  1.
        -24    2    1    2    0    0  0.49455507665E+02  0.16400635833E+02  0.20020887081E+02  0.98873154404E+02  0.81610272933E+02 0.  0.
         25    2    1    2    0    0 -0.54648216616E+02  0.13181843886E+03  0.19023060081E+03  0.26869445223E+03  0.12508596553E+03 0.  0.
         24    2    1    2    0    0  0.51927089515E+01 -0.14821907469E+03  0.56279332252E+03  0.58741961256E+03  0.79558902834E+02 0.  0.
        -11    1    5    5    0    0  0.12684912866E+02 -0.14906913415E+03  0.55956075795E+03  0.57921563827E+03  0.00000000000E+00 0.  1.
         12    1    5    5    0    0 -0.74922039149E+01  0.85005946009E+00  0.32325645700E+01  0.82039742983E+01  0.00000000000E+00 0. -1.
         11    1    3    3    0    0  0.17278662910E+02 -0.15605404704E+02  0.42323574210E+02  0.48304925026E+02  0.00000000000E+00 0. -1.
        -12    1    3    3    0    0  0.32176844755E+02  0.32006040537E+02 -0.22302687128E+02  0.50568229378E+02  0.00000000000E+00 0.  1.
          5    1    4    4  501    0 -0.25744589689E+01  0.13687104830E+03  0.13044260065E+03  0.18913766458E+03  0.41800000000E+01 0.  1.
         -5    1    4    4    0  501 -0.52073757648E+02 -0.50526094361E+01  0.59788000161E+02  0.79556787648E+02  0.41800000000E+01 0.  1.
</event>
<event>
11    1  0.8037748E-009  0.1487648E+03  0.7561462E-02  0.1098148E+00
         22   -1    0    0    0    0  0.00000000000E+00  0.00000000000E+00  0.10617231556E+04  0.10617231556E+04  0.00000000000E+00 0. -1.
         22   -1    0    0    0    0 -0.00000000000E+00 -0.00000000000E+00 -0.78074701953E+02  0.78074701953E+02  0.00000000000E+00 0. -1.
        -24    2    1    2    0    0 -0.93207064862E+01  0.80841073363E+02 -0.39641814040E+01  0.11526735189E+03  0.81539517812E+02 0.  0.
         25    2    1    2    0    0  0.27446531217E+02 -0.72325941962E+02  0.32368925531E+03  0.35553650418E+03  0.12508844008E+03 0.  0.
         24    2    1    2    0    0 -0.18125824731E+02 -0.85151314005E+01  0.66392337978E+03  0.66899400153E+03  0.79734979026E+02 0.  0.
        -13    1    5    5    0    0 -0.29060635211E+02 -0.18361195192E+01  0.83542480917E+02  0.88471678923E+02  0.00000000000E+00 0.  1.
         14    1    5    5    0    0  0.10934810480E+02 -0.66790118813E+01  0.58038089886E+03  0.58052232261E+03  0.00000000000E+00 0. -1.
         11    1    3    3    0    0  0.28588814161E+02  0.59468579112E+02 -0.19905029794E+02  0.68920551419E+02  0.00000000000E+00 0. -1.
        -12    1    3    3    0    0 -0.37909520648E+02  0.21372494251E+02  0.15940848390E+02  0.46346800468E+02  0.00000000000E+00 0.  1.
          5    1    4    4  501    0  0.31395726665E+02 -0.76367544046E+02  0.91801402190E+02  0.12354215184E+03  0.41800000000E+01 0.  1.
         -5    1    4    4    0  501 -0.39491954473E+01  0.40416020840E+01  0.23188785312E+03  0.23199435234E+03  0.41800000000E+01 0.  1.
</event>
<event>
11    1  0.8037748E-009  0.1474298E+03  0.7561462E-02  0.1099534E+00
         22   -1    0    0    0    0  0.00000000000E+00  0.00000000000E+00  0.76889886071E+02  0.76889886071E+02  0.00000000000E+00 0.  1.
         22   -1    0    0    0    0 -0.00000000000E+00 -0.00000000000E+00 -0.49838124812E+03  0.49838124812E+03  0.00000000000E+00 0.  1.
        -24    2    1    2    0    0  0.14159882146E+02 -0.15062444685E+02 -0.13602982265E+03  0.15966094719E+03  0.80994604187E+02 0.  0.
         25    2    1    2    0    0 -0.84670593248E+02 -0.14701248966E+02 -0.26190125137E+03  0.30269628083E+03  0.12509011503E+03 0.  0.
         24    2    1    2    0    0  0.70510711102E+02  0.29763693651E+02 -0.23560288031E+02  0.11291390616E+03  0.79604178237E+02 0.  0.
        -13    1    5    5    0    0  0.78016177738E+02  0.41913827448E+02 -0.39447118279E+01  0.88650175812E+02  0.00000000000E+00 0.  1.
         14    1    5    5    0    0 -0.75054666356E+01 -0.12150133797E+02 -0.19615576203E+02  0.24263730350E+02  0.00000000000E+00 0. -1.
         11    1    3    3    0    0 -0.98078754983E+00  0.24105867910E+02 -0.88006102726E+01  0.25680840194E+02  0.00000000000E+00 0. -1.
        -12    1    3    3    0    0  0.15140669696E+02 -0.39168312595E+02 -0.12722921237E+03  0.13398010700E+03  0.00000000000E+00 0.  1.
          5    1    4    4  501    0 -0.11721962451E+03 -0.12200160364E+02 -0.19002126744E+03  0.22363997577E+03  0.41800000000E+01 0. -1.
         -5    1    4    4    0  501  0.32549031263E+02 -0.25010886019E+01 -0.71879983926E+02  0.79056305058E+02  0.41800000000E+01 0. -1.
</event>
<event>
11    1  0.8037748E-009  0.1530362E+03  0.7561462E-02  0.1093816E+00
         22   -1    0    0    0    0  0.00000000000E+00  0.00000000000E+00  0.52491757847E+03  0.52491757847E+03  0.00000000000E+00 0. -1.
         22   -1    0    0    0    0 -0.00000000000E+00 -0.00000000000E+00 -0.14617132218E+03  0.14617132218E+03  0.00000000000E+00 0. -1.
         24    2    1    2    0    0 -0.48917440748E+02 -0.31054852257E+02 -0.36669649983E+02  0.10578404384E+03  0.80549865564E+02 0.  0.
         25    2    1    2    0    0  0.30546523999E+02  0.11455352531E+03  0.47099357391E+02  0.17866164521E+03  0.12508410656E+03 0.  0.
        -24    2    1    2    0    0  0.18370916749E+02 -0.83498673054E+02  0.36831654888E+03  0.38664321161E+03  0.80785975993E+02 0.  0.
        -11    1    3    3    0    0 -0.63386209278E+02 -0.28645071419E+02 -0.36510703941E+01  0.69654016096E+02  0.00000000000E+00 0.  1.
         12    1    3    3    0    0  0.14468768530E+02 -0.24097808376E+01 -0.33018579589E+02  0.36130027740E+02  0.00000000000E+00 0. -1.
         11    1    5    5    0    0 -0.10411928873E+02 -0.80740812860E+02  0.20123810783E+03  0.21708123633E+03  0.00000000000E+00 0. -1.
        -12    1    5    5    0    0  0.28782845622E+02 -0.27578601947E+01  0.16707844105E+03  0.16956197528E+03  0.00000000000E+00 0.  1.
          5    1    4    4  501    0  0.48932899610E+02 -0.51547800285E+01  0.22090997415E+01  0.49430283664E+02  0.41800000000E+01 0.  1.
         -5    1    4    4    0  501 -0.18386375611E+02  0.11970830534E+03  0.44890257649E+02  0.12923136155E+03  0.41800000000E+01 0.  1.
</event>
<event>
11    1  0.8128789E-009  0.1612682E+03  0.7561462E-02  0.1085891E+00
         22   -1    0    0    0    0  0.00000000000E+00  0.00000000000E+00  0.47422379724E+03  0.47422379724E+03  0.00000000000E+00 0. -1.
         22   -1    0    0    0    0 -0.00000000000E+00 -0.00000000000E+00 -0.19118122495E+03  0.19118122495E+03  0.00000000000E+00 0.  1.
        -24    2    1    2    0    0  0.18875834425E+02 -0.17261324969E+01 -0.91066804764E+02  0.12246288690E+03  0.79653744918E+02 0.  0.
         25    2    1    2    0    0  0.17430814737E+02 -0.94490849089E+02  0.11305614586E+02  0.15813765473E+03  0.12508935630E+03 0.  0.
         24    2    1    2    0    0 -0.36306649162E+02  0.96216981586E+02  0.36280376246E+03  0.38480448056E+03  0.76629223424E+02 0.  0.
        -13    1    5    5    0    0  0.63199256641E+01  0.36407911513E+01 -0.65832883703E+00  0.73232654919E+01  0.00000000000E+00 0.  1.
         14    1    5    5    0    0 -0.42626574826E+02  0.92576190435E+02  0.36346209130E+03  0.37748121507E+03  0.00000000000E+00 0. -1.
         11    1    3    3    0    0  0.17308205730E+02 -0.16946253339E+02  0.53773201295E+01  0.24812598808E+02  0.00000000000E+00 0. -1.
        -12    1    3    3    0    0  0.15676286951E+01  0.15220120843E+02 -0.96444124893E+02  0.97650288093E+02  0.00000000000E+00 0.  1.
          5    1    4    4  501    0  0.60456658847E+02 -0.95966284250E+02  0.16035970769E+02  0.11462617533E+03  0.41800000000E+01 0. -1.
         -5    1    4    4    0  501 -0.43025844110E+02  0.14754351610E+01 -0.47303561827E+01  0.43511479404E+02  0.41800000000E+01 0. -1.
</event>
<event>
11    1  0.8037748E-009  0.2354949E+03  0.7561462E-02  0.1031923E+00
         22   -1    0    0    0    0  0.00000000000E+00  0.00000000000E+00  0.10934559738E+04  0.10934559738E+04  0.00000000000E+00 0.  1.
         22   -1    0    0    0    0 -0.00000000000E+00 -0.00000000000E+00 -0.70298997427E+03  0.70298997427E+03  0.00000000000E+00 0.  1.
         24    2    1    2    0    0  0.18674197236E+03  0.66274271022E+02 -0.65151970580E+03  0.68589391283E+03  0.81900484593E+02 0.  0.
         25    2    1    2    0    0 -0.24543194034E+03 -0.66898995591E+02  0.64951786395E+03  0.70868439771E+03  0.12509119479E+03 0.  0.
        -24    2    1    2    0    0  0.58689967986E+02  0.62472456959E+00  0.39246784141E+03  0.40186763756E+03  0.63416787619E+02 0.  0.
        -11    1    3    3    0    0  0.12925057586E+03  0.32289275550E+02 -0.53741502206E+03  0.55368151009E+03  0.00000000000E+00 0.  1.
         12    1    3    3    0    0  0.57491396499E+02  0.33984995472E+02 -0.11410468373E+03  0.13221240274E+03  0.00000000000E+00 0. -1.
         13    1    5    5    0    0 -0.98173954308E+01 -0.79108164819E+01  0.25319607902E+02  0.28285063457E+02  0.00000000000E+00 0. -1.
        -14    1    5    5    0    0  0.68507363417E+02  0.85355410515E+01  0.36714823351E+03  0.37358257410E+03  0.00000000000E+00 0.  1.
          5    1    4    4  501    0 -0.16698748665E+03 -0.91346843925E+01  0.27682110514E+03  0.32344344143E+03  0.41800000000E+01 0.  1.
         -5    1    4    4    0  501 -0.78444453697E+02 -0.57764311199E+02  0.37269675882E+03  0.38524095628E+03  0.41800000000E+01 0.  1.
</event>
<event>
11    1  0.8037748E-009  0.1467752E+03  0.7561462E-02  0.1100220E+00
         22   -1    0    0    0    0  0.00000000000E+00  0.00000000000E+00  0.44438694633E+03  0.44438694633E+03  0.00000000000E+00 0. -1.
         22   -1    0    0    0    0 -0.00000000000E+00 -0.00000000000E+00 -0.58926140823E+03  0.58926140823E+03  0.00000000000E+00 0.  1.
        -24    2    1    2    0    0 -0.40524496397E+02  0.59807575450E+02 -0.50449070774E+03  0.51596236580E+03  0.80542583996E+02 0.  0.
         25    2    1    2    0    0 -0.68807919791E+01 -0.11672213422E+03  0.34762680121E+02  0.17472266999E+03  0.12509262794E+03 0.  0.
         24    2    1    2    0    0  0.47405288376E+02  0.56914558769E+02  0.32485356572E+03  0.34296331877E+03  0.81286348750E+02 0.  0.
        -13    1    5    5    0    0  0.67342128691E+01 -0.40169692585E+01 -0.19247074396E+01  0.80740425883E+01  0.00000000000E+00 0.  1.
         14    1    5    5    0    0  0.40671075507E+02  0.60931528028E+02  0.32677827316E+03  0.33488927618E+03  0.00000000000E+00 0. -1.
         13    1    3    3    0    0 -0.18326190869E+02  0.21194381389E+02 -0.37289111727E+02  0.46642565620E+02  0.00000000000E+00 0. -1.
        -14    1    3    3    0    0 -0.22198305528E+02  0.38613194061E+02 -0.46720159602E+03  0.46931980018E+03  0.00000000000E+00 0.  1.
          5    1    4    4  501    0 -0.58335698958E+02 -0.40428808874E+02  0.41559448582E+02  0.82354128775E+02  0.41800000000E+01 0.  1.
         -5    1    4    4    0  501  0.51454906979E+02 -0.76293325346E+02 -0.67967684615E+01  0.92368541214E+02  0.41800000000E+01 0.  1.
</event>
<event>
11    1  0.8037748E-009  0.1941678E+03  0.7561462E-02  0.1058726E+00
         22   -1    0    0    0    0  0.00000000000E+00  0.00000000000E+00  0.77530781946E+03  0.77530781946E+03  0.00000000000E+00 0. -1.
         22   -1    0    0    0    0 -0.00000000000E+00 -0.00000000000E+00 -0.35903183766E+03  0.35903183766E+03  0.00000000000E+00 0.  1.
         24    2    1    2    0    0  0.49692814060E+02 -0.14075110951E+03 -0.30804982983E+03  0.35177051106E+03  0.81040386210E+02 0.  0.
         25    2    1    2    0    0 -0.55404506191E+02  0.12532142463E+03  0.31557655490E+03  0.36607537721E+03  0.12508997170E+03 0.  0.
        -24    2    1    2    0    0  0.57116921313E+01  0.15429684872E+02  0.40874925673E+03  0.41649376886E+03  0.78233023805E+02 0.  0.
        -11    1    3    3    0    0  0.40766018224E+02 -0.13961059638E+03 -0.22294154367E+03  0.26618775095E+03  0.00000000000E+00 0.  1.
         12    1    3    3    0    0  0.89267958359E+01 -0.11405131209E+01 -0.85108286159E+02  0.85582760104E+02  0.00000000000E+00 0. -1.
         13    1    5    5    0    0  0.33473458195E+02 -0.16575942996E+02  0.20710880588E+03  0.21045021208E+03  0.00000000000E+00 0. -1.
        -14    1    5    5    0    0 -0.27761766064E+02  0.32005627869E+02  0.20164045085E+03  0.20604355678E+03  0.00000000000E+00 0.  1.
          5    1    4    4  501    0 -0.67958530392E+02  0.50155102920E+02  0.25493488234E+03  0.26859479302E+03  0.41800000000E+01 0.  1.
         -5    1    4    4    0  501  0.12554024201E+02  0.75166321713E+02  0.60641672553E+02  0.97480584188E+02  0.41800000000E+01 0.  1.
</event>
<event>
11    1  0.8037748E-009  0.1636624E+03  0.7561462E-02  0.1083682E+00
         22   -1    0    0    0    0  0.00000000000E+00  0.00000000000E+00  0.14371108398E+03  0.14371108398E+03  0.00000000000E+00 0.  1.
         22   -1    0    0    0    0 -0.00000000000E+00 -0.00000000000E+00 -0.10425260099E+04  0.10425260099E+04  0.00000000000E+00 0. -1.
         24    2    1    2    0    0 -0.56203938886E+02  0.10007959113E+03 -0.85564915071E+03  0.86714357026E+03  0.81410656742E+02 0.  0.
         25    2    1    2    0    0  0.40485253460E+02 -0.42303499882E+02 -0.12726271056E+03  0.18780548355E+03  0.12508581176E+03 0.  0.
        -24    2    1    2    0    0  0.15718685426E+02 -0.57776091246E+02  0.84096935312E+02  0.13128804010E+03  0.81111658553E+02 0.  0.
        -13    1    3    3    0    0 -0.15312274361E+02 -0.91635827517E+01 -0.49895464397E+02  0.52990512003E+02  0.00000000000E+00 0.  1.
         14    1    3    3    0    0 -0.40891664525E+02  0.10924317388E+03 -0.80575368631E+03  0.81415305826E+03  0.00000000000E+00 0. -1.
         13    1    5    5    0    0  0.45479199458E+02 -0.54329599433E+02  0.59763536205E+02  0.92691656677E+02  0.00000000000E+00 0. -1.
        -14    1    5    5    0    0 -0.29760514031E+02 -0.34464918129E+01  0.24333399107E+02  0.38596383423E+02  0.00000000000E+00 0.  1.
          5    1    4    4  501    0 -0.26156598530E+02 -0.12847691416E+02  0.11028917084E+02  0.31437878959E+02  0.41800000000E+01 0.  1.
         -5    1    4    4    0  501  0.66641851990E+02 -0.29455808466E+02 -0.13829162765E+03  0.15636760459E+03  0.41800000000E+01 0.  1.
</event>
<event>
11    1  0.8037748E-009  0.1336542E+03  0.7561462E-02  0.1114859E+00
         22   -1    0    0    0    0  0.00000000000E+00  0.00000000000E+00  0.13846293973E+03  0.13846293973E+03  0.00000000000E+00 0.  1.
         22   -1    0    0    0    0 -0.00000000000E+00 -0.00000000000E+00 -0.57200498280E+03  0.57200498280E+03  0.00000000000E+00 0. -1.
         24    2    1    2    0    0 -0.47141502563E+02 -0.34240831893E+02 -0.36346241651E+03  0.37688296582E+03  0.80876979913E+02 0.  0.
         25    2    1    2    0    0  0.57693399054E+01  0.10599597223E+02 -0.16108748420E+03  0.20431292374E+03  0.12509578928E+03 0.  0.
        -24    2    1    2    0    0  0.41372162658E+02  0.23641234670E+02  0.91007857648E+02  0.12927203297E+03  0.78474610768E+02 0.  0.
        -11    1    3    3    0    0 -0.70147365170E+02 -0.23833796243E+02 -0.25685127652E+03  0.26732242879E+03  0.00000000000E+00 0.  1.
         12    1    3    3    0    0  0.23005862607E+02 -0.10407035650E+02 -0.10661113999E+03  0.10956053703E+03  0.00000000000E+00 0. -1.
         13    1    5    5    0    0 -0.14005241849E+02 -0.86999347811E+01 -0.16678321886E+01  0.16571581960E+02  0.00000000000E+00 0. -1.
        -14    1    5    5    0    0  0.55377404507E+02  0.32341169451E+02  0.92675689837E+02  0.11270045101E+03  0.00000000000E+00 0.  1.
          5    1    4    4  501    0  0.58510189987E+02  0.26543781018E+02 -0.54920887105E+02  0.84627364862E+02  0.41800000000E+01 0.  1.
         -5    1    4    4    0  501 -0.52740850081E+02 -0.15944183795E+02 -0.10616659710E+03  0.11968555888E+03  0.41800000000E+01 0.  1.
</event>
<event>
11    1  0.8037748E-009  0.1398551E+03  0.7561462E-02  0.1107720E+00
         22   -1    0    0    0    0  0.00000000000E+00  0.00000000000E+00  0.33909873672E+03  0.33909873672E+03  0.00000000000E+00 0. -1.
         22   -1    0    0    0    0 -0.00000000000E+00 -0.00000000000E+00 -0.46041092584E+03  0.46041092584E+03  0.00000000000E+00 0.  1.
        -24    2    1    2    0    0  0.35255467838E+02  0.20763875723E+02 -0.31166427885E+03  0.32484458045E+03  0.81946886394E+02 0.  0.
         25    2    1    2    0    0  0.25556941302E+02  0.23574264536E+01 -0.10272446101E+03  0.16388427141E+03  0.12508806824E+03 0.  0.
         24    2    1    2    0    0 -0.60812409140E+02 -0.23121302176E+02  0.29307655074E+03  0.31078081070E+03  0.80362329399E+02 0.  0.
        -13    1    5    5    0    0  0.52956561263E+01 -0.35192946384E+02  0.86001484079E+02  0.93074393433E+02  0.00000000000E+00 0.  1.
         14    1    5    5    0    0 -0.66108065267E+02  0.12071644208E+02  0.20707506666E+03  0.21770641726E+03  0.00000000000E+00 0. -1.
         13    1    3    3    0    0  0.24727175980E+02  0.19837638383E+01 -0.18637224190E+02  0.31027643746E+02  0.00000000000E+00 0. -1.
        -14    1    3    3    0    0  0.10528291858E+02  0.18780111884E+02 -0.29302705466E+03  0.29381693670E+03  0.00000000000E+00 0.  1.
          5    1    4    4  501    0  0.37802651177E+02  0.31573249527E+02  0.67067185959E+01  0.49883494224E+02  0.41800000000E+01 0. -1.
         -5    1    4    4    0  501 -0.12245709874E+02 -0.29215823074E+02 -0.10943117961E+03  0.11400077718E+03  0.41800000000E+01 0. -1.
</event>
<event>
11    1  0.8037748E-009  0.1777698E+03  0.7561462E-02  0.1071461E+00
         22   -1    0    0    0    0  0.00000000000E+00  0.00000000000E+00  0.32352143565E+03  0.32352143565E+03  0.00000000000E+00 0.  1.
         22   -1    0    0    0    0 -0.00000000000E+00 -0.00000000000E+00 -0.21226481814E+04  0.21226481814E+04  0.00000000000E+00 0.  1.
        -24    2    1    2    0    0 -0.20083602039E+02 -0.57871388469E+01 -0.17699185455E+04  0.17718563414E+04  0.80164797913E+02 0.  0.
         25    2    1    2    0    0  0.14319238546E+03 -0.17679248385E+02 -0.30566834726E+03  0.36041010178E+03  0.12508272413E+03 0.  0.
         24    2    1    2    0    0 -0.12310878342E+03  0.23466387232E+02  0.27646014701E+03  0.31390317386E+03  0.79990910683E+02 0.  0.
        -13    1    5    5    0    0 -0.12940529373E+03  0.85580431262E+01  0.22216483372E+03  0.25724731970E+03  0.00000000000E+00 0.  1.
         14    1    5    5    0    0  0.62965103172E+01  0.14908344105E+02  0.54295313287E+02  0.56655854165E+02  0.00000000000E+00 0. -1.
         13    1    3    3    0    0 -0.16278828139E+02  0.17815714330E+02 -0.16459511435E+03  0.16635489651E+03  0.00000000000E+00 0. -1.
        -14    1    3    3    0    0 -0.38047739007E+01 -0.23602853176E+02 -0.16053234311E+04  0.16055014449E+04  0.00000000000E+00 0.  1.
          5    1    4    4  501    0  0.14842343998E+03 -0.42888077012E+02 -0.29333181336E+03  0.33155682743E+03  0.41800000000E+01 0. -1.
         -5    1    4    4    0  501 -0.52310545276E+01  0.25208828627E+02 -0.12336533900E+02  0.28853274353E+02  0.41800000000E+01 0. -1.
</event>
<event>
11    1  0.8037748E-009  0.2075336E+03  0.7561462E-02  0.1049321E+00
         22   -1    0    0    0    0  0.00000000000E+00  0.00000000000E+00  0.34817282071E+03  0.34817282071E+03  0.00000000000E+00 0.  1.
         22   -1    0    0    0    0 -0.00000000000E+00 -0.00000000000E+00 -0.13477626809E+04  0.13477626809E+04  0.00000000000E+00 0. -1.
         24    2    1    2    0    0 -0.18306613601E+01 -0.64680612136E+01 -0.11677355210E+04  0.11707817217E+04  0.84133262162E+02 0.  0.
         25    2    1    2    0    0 -0.65288705828E+02 -0.14617727107E+03 -0.77715178567E+02  0.21752570664E+03  0.12508946551E+03 0.  0.
        -24    2    1    2    0    0  0.67119367188E+02  0.15264533229E+03  0.24586083938E+03  0.30762807324E+03  0.79886620796E+02 0.  0.
        -11    1    3    3    0    0  0.28406507577E+01  0.38437917451E+02 -0.61411342341E+03  0.61532173666E+03  0.00000000000E+00 0.  1.
         12    1    3    3    0    0 -0.46713121178E+01 -0.44905978664E+02 -0.55362209761E+03  0.55545998509E+03  0.00000000000E+00 0. -1.
         13    1    5    5    0    0  0.22494859467E+01  0.81853951411E+01  0.71844565984E+02  0.72344333172E+02  0.00000000000E+00 0. -1.
        -14    1    5    5    0    0  0.64869881242E+02  0.14445993715E+03  0.17401627339E+03  0.23528374006E+03  0.00000000000E+00 0.  1.
          5    1    4    4  501    0  0.23053144455E+02 -0.24575049434E+02  0.18840713520E+02  0.38830727651E+02  0.41800000000E+01 0.  1.
         -5    1    4    4    0  501 -0.88341850284E+02 -0.12160222164E+03 -0.96555892087E+02  0.17869497899E+03  0.41800000000E+01 0.  1.
</event>
<event>
11    1  0.8037748E-009  0.1445732E+03  0.7561462E-02  0.1102557E+00
         22   -1    0    0    0    0  0.00000000000E+00  0.00000000000E+00  0.84550521259E+03  0.84550521259E+03  0.00000000000E+00 0. -1.
         22   -1    0    0    0    0 -0.00000000000E+00 -0.00000000000E+00 -0.20060688911E+04  0.20060688911E+04  0.00000000000E+00 0. -1.
        -24    2    1    2    0    0 -0.60956058094E+02 -0.30754697355E+02 -0.16267013675E+04  0.16299390887E+04  0.76698117679E+02 0.  0.
         25    2    1    2    0    0  0.11616147095E+03  0.53858213122E+02 -0.35332043431E+03  0.39607815514E+03  0.12509348994E+03 0.  0.
         24    2    1    2    0    0 -0.55205412854E+02 -0.23103515768E+02  0.81945812336E+03  0.82555685985E+03  0.80318757725E+02 0.  0.
        -13    1    5    5    0    0  0.69239207794E+01 -0.84097392301E+00  0.53819475128E+01  0.88098396767E+01  0.00000000000E+00 0.  1.
         14    1    5    5    0    0 -0.62129333633E+02 -0.22262541845E+02  0.81407617585E+03  0.81674702017E+03  0.00000000000E+00 0. -1.
         13    1    3    3    0    0 -0.35500024188E+02 -0.50132266063E+02 -0.13495561267E+04  0.13509534540E+04  0.00000000000E+00 0. -1.
        -14    1    3    3    0    0 -0.25456033907E+02  0.19377568709E+02 -0.27714524081E+03  0.27898563464E+03  0.00000000000E+00 0.  1.
          5    1    4    4  501    0  0.71137368193E+02  0.73488266059E+02 -0.32150528452E+03  0.33740801825E+03  0.41800000000E+01 0.  1.
         -5    1    4    4    0  501  0.45024102755E+02 -0.19630052936E+02 -0.31815149793E+02  0.58670136898E+02  0.41800000000E+01 0.  1.
</event>
<event>
11    1  0.8037748E-009  0.1599509E+03  0.7561462E-02  0.1087123E+00
         22   -1    0    0    0    0  0.00000000000E+00  0.00000000000E+00  0.44328814400E+03  0.44328814400E+03  0.00000000000E+00 0.  1.
         22   -1    0    0    0    0 -0.00000000000E+00 -0.00000000000E+00 -0.69434053447E+03  0.69434053447E+03  0.00000000000E+00 0.  1.
        -24    2    1    2    0    0  0.66801353283E+02  0.40610422352E+02 -0.46313537053E+03  0.47618488228E+03  0.78396705752E+02 0.  0.
         25    2    1    2    0    0 -0.53997672635E+02 -0.13798134763E+03 -0.17060705574E+03  0.25827402279E+03  0.12507638639E+03 0.  0.
         24    2    1    2    0    0 -0.12803680648E+02  0.97370925281E+02  0.38269003581E+03  0.40316977340E+03  0.80306732886E+02 0.  0.
        -13    1    5    5    0    0  0.31548507095E+02  0.51579008405E+02  0.22747080741E+03  0.23536922193E+03  0.00000000000E+00 0.  1.
         14    1    5    5    0    0 -0.44352187742E+02  0.45791916875E+02  0.15521922840E+03  0.16780055147E+03  0.00000000000E+00 0. -1.
         11    1    3    3    0    0  0.42479664090E+02 -0.15909715701E+02 -0.13756036725E+03  0.14484645509E+03  0.00000000000E+00 0. -1.
        -12    1    3    3    0    0  0.24321689193E+02  0.56520138054E+02 -0.32557500328E+03  0.33133842719E+03  0.00000000000E+00 0.  1.
          5    1    4    4  501    0 -0.47379257077E+02 -0.15258472359E+03 -0.17877445860E+03  0.23980131635E+03  0.41800000000E+01 0.  1.
         -5    1    4    4    0  501 -0.66184155583E+01  0.14603375954E+02  0.81674028594E+01  0.18472706440E+02  0.41800000000E+01 0.  1.
</event>
<event>
11    1  0.8037748E-009  0.2654695E+03  0.7561462E-02  0.1015967E+00
         22   -1    0    0    0    0  0.00000000000E+00  0.00000000000E+00  0.34621490398E+04  0.34621490398E+04  0.00000000000E+00 0.  1.
         22   -1    0    0    0    0 -0.00000000000E+00 -0.00000000000E+00 -0.22800030481E+04  0.22800030481E+04  0.00000000000E+00 0. -1.
         24    2    1    2    0    0 -0.23088468751E+02 -0.60512739067E+02 -0.21460480643E+04  0.21485572973E+04  0.81125190273E+02 0.  0.
         25    2    1    2    0    0  0.20856663416E+03  0.20027085709E+03  0.65642865575E+02  0.32181699675E+03  0.12509491001E+03 0.  0.
        -24    2    1    2    0    0 -0.18547816541E+03 -0.13975811802E+03  0.32625511903E+04  0.32717777939E+04  0.79719393147E+02 0.  0.
        -13    1    3    3    0    0 -0.41022722651E+02 -0.38415965415E+02 -0.70783685071E+03  0.71006454453E+03  0.00000000000E+00 0.  1.
         14    1    3    3    0    0  0.17934253900E+02 -0.22096773652E+02 -0.14382112136E+04  0.14384927527E+04  0.00000000000E+00 0. -1.
         11    1    5    5    0    0 -0.78024792229E+02 -0.31964611512E+02  0.16190049780E+04  0.16211991621E+04  0.00000000000E+00 0. -1.
        -12    1    5    5    0    0 -0.10745337318E+03 -0.10779350651E+03  0.16435462123E+04  0.16505786317E+04  0.00000000000E+00 0.  1.
          5    1    4    4  501    0  0.48340935586E+02  0.80632097085E+02  0.76846015452E+02  0.12149552924E+03  0.41800000000E+01 0. -1.
         -5    1    4    4    0  501  0.16022569858E+03  0.11963876000E+03 -0.11203149877E+02  0.20032146751E+03  0.41800000000E+01 0. -1.
</event>
<event>
11    1  0.8037748E-009  0.2844214E+03  0.7561462E-02  0.1007009E+00
         22   -1    0    0    0    0  0.00000000000E+00  0.00000000000E+00  0.18637309577E+04  0.18637309577E+04  0.00000000000E+00 0. -1.
         22   -1    0    0    0    0 -0.00000000000E+00 -0.00000000000E+00 -0.10145072807E+04  0.10145072807E+04  0.00000000000E+00 0.  1.
         24    2    1    2    0    0 -0.13409525947E+03 -0.82044970211E+02 -0.71052439740E+03  0.73217216594E+03  0.80735652214E+02 0.  0.
         25    2    1    2    0    0  0.20750212472E+03  0.32237957970E+03 -0.13920639694E+03  0.42663228559E+03  0.12510380083E+03 0.  0.
        -24    2    1    2    0    0 -0.73406865255E+02 -0.24033460949E+03  0.16989544713E+04  0.17194337869E+04  0.82806759079E+02 0.  0.
        -11    1    3    3    0    0 -0.83615623884E+02 -0.77780053982E+02 -0.59747766413E+03  0.60829340658E+03  0.00000000000E+00 0.  1.
         12    1    3    3    0    0 -0.50479635585E+02 -0.42649162289E+01 -0.11304673327E+03  0.12387875936E+03  0.00000000000E+00 0. -1.
         11    1    5    5    0    0 -0.40990519307E+02 -0.18876153542E+03  0.14649940187E+04  0.14776733789E+04  0.00000000000E+00 0. -1.
        -12    1    5    5    0    0 -0.32416345949E+02 -0.51573074075E+02  0.23396045265E+03  0.24176040797E+03  0.00000000000E+00 0.  1.
          5    1    4    4  501    0 -0.82370034435E+01  0.70828601880E+02 -0.17209541642E+02  0.73472306303E+02  0.41800000000E+01 0.  1.
         -5    1    4    4    0  501  0.21573912817E+03  0.25155097782E+03 -0.12199685530E+03  0.35315997929E+03  0.41800000000E+01 0.  1.
</event>
<event>
11    1  0.8037748E-009  0.4903747E+03  0.7561462E-02  0.9415290E-01
         22   -1    0    0    0    0  0.00000000000E+00  0.00000000000E+00  0.47885359771E+03  0.47885359771E+03  0.00000000000E+00 0. -1.
         22   -1    0    0    0    0 -0.00000000000E+00 -0.00000000000E+00 -0.14819671736E+04  0.14819671736E+04  0.00000000000E+00 0. -1.
         24    2    1    2    0    0  0.28423282633E+03  0.39642703245E+03 -0.12585415496E+04  0.13520331565E+04  0.78256837365E+02 0.  0.
         25    2    1    2    0    0 -0.26822083744E+03 -0.27215477974E+03  0.20715714502E+03  0.45229612445E+03  0.12508820765E+03 0.  0.
        -24    2    1    2    0    0 -0.16011988895E+02 -0.12427225272E+03  0.48270828736E+02  0.15649149031E+03  0.80371245163E+02 0.  0.
        -13    1    3    3    0    0  0.50778300844E+02  0.12181412047E+03 -0.38776232167E+03  0.40960558332E+03  0.00000000000E+00 0.  1.
         14    1    3    3    0    0  0.23345452549E+03  0.27461291198E+03 -0.87077922793E+03  0.94242757318E+03  0.00000000000E+00 0. -1.
         13    1    5    5    0    0 -0.11363531110E+02 -0.11546920719E+03  0.94462012617E+01  0.11641090313E+03  0.00000000000E+00 0. -1.
        -14    1    5    5    0    0 -0.46484577850E+01 -0.88030455238E+01  0.38824627474E+02  0.40080587181E+02  0.00000000000E+00 0.  1.
          5    1    4    4  501    0 -0.27805624780E+03 -0.27037297223E+03  0.18973427623E+03  0.43177932909E+03  0.41800000000E+01 0. -1.
         -5    1    4    4    0  501  0.98354103621E+01 -0.17818075062E+01  0.17422868793E+02  0.20516795363E+02  0.41800000000E+01 0. -1.
</event>
<event>
11    1  0.8037748E-009  0.2201542E+03  0.7561462E-02  0.1041121E+00
         22   -1    0    0    0    0  0.00000000000E+00  0.00000000000E+00  0.75341697122E+03  0.75341697122E+03  0.00000000000E+00 0. -1.
         22   -1    0    0    0    0 -0.00000000000E+00 -0.00000000000E+00 -0.22261130670E+03  0.22261130670E+03  0.00000000000E+00 0.  1.
        -24    2    1    2    0    0  0.23382561898E+02  0.64775019367E+02 -0.12117849241E+03  0.15961646859E+03  0.77785877186E+02 0.  0.
         25    2    1    2    0    0  0.14681287266E+03 -0.12512947372E+03  0.14413077380E+03  0.27135353216E+03  0.12509058592E+03 0.  0.
         24    2    1    2    0    0 -0.17019543456E+03  0.60354454351E+02  0.50785338312E+03  0.54505827716E+03  0.81020495225E+02 0.  0.
        -13    1    5    5    0    0 -0.78674243048E+02  0.57796692055E+02  0.18129353590E+03  0.20590638720E+03  0.00000000000E+00 0.  1.
         14    1    5    5    0    0 -0.91521191513E+02  0.25577622956E+01  0.32655984722E+03  0.33915188996E+03  0.00000000000E+00 0. -1.
         11    1    3    3    0    0  0.11405282457E+02  0.26496067881E+02  0.31126147030E+01  0.29013969935E+02  0.00000000000E+00 0. -1.
        -12    1    3    3    0    0  0.11977279442E+02  0.38278951486E+02 -0.12429110711E+03  0.13060249866E+03  0.00000000000E+00 0.  1.
          5    1    4    4  501    0  0.48541532716E+02  0.16631542930E+02  0.61024860475E+02  0.79839805953E+02  0.41800000000E+01 0.  1.
         -5    1    4    4    0  501  0.98271339947E+02 -0.14176101665E+03  0.83105913327E+02  0.19151372621E+03  0.41800000000E+01 0.  1.
</event>
<event>
11    1  0.8037748E-009  0.6945677E+03  0.7561462E-02  0.9040349E-01
         22   -1    0    0    0    0  0.00000000000E+00  0.00000000000E+00  0.58252397425E+03  0.58252397425E+03  0.00000000000E+00 0.  1.
         22   -1    0    0    0    0 -0.00000000000E+00 -0.00000000000E+00 -0.20704050929E+03  0.20704050929E+03  0.00000000000E+00 0.  1.
        -24    2    1    2    0    0 -0.31713867985E+02 -0.82754065341E+02  0.93755524712E+02  0.15190026726E+03  0.80184711933E+02 0.  0.
         25    2    1    2    0    0  0.20605470454E+03  0.21319442131E+03  0.83617914122E+02  0.33249035775E+03  0.12508988724E+03 0.  0.
         24    2    1    2    0    0 -0.17434083656E+03 -0.13044035597E+03  0.19811002613E+03  0.30517385853E+03  0.80461715853E+02 0.  0.
        -11    1    5    5    0    0 -0.16007206537E+03 -0.85080827618E+02  0.17626164296E+03  0.25284378600E+03  0.00000000000E+00 0.  1.
         12    1    5    5    0    0 -0.14268771189E+02 -0.45359528353E+02  0.21848383169E+02  0.52330072527E+02  0.00000000000E+00 0. -1.
         13    1    3    3    0    0 -0.29881891056E+02 -0.27407833238E+00  0.42683764842E+01  0.30186446790E+02  0.00000000000E+00 0. -1.
        -14    1    3    3    0    0 -0.18319769290E+01 -0.82479987009E+02  0.89487148228E+02  0.12171382047E+03  0.00000000000E+00 0.  1.
          5    1    4    4  501    0  0.49314062069E+01 -0.52764130691E+01 -0.16991918706E+02  0.18930319685E+02  0.41800000000E+01 0. -1.
         -5    1    4    4    0  501  0.20112329833E+03  0.21847083438E+03  0.10060983283E+03  0.31356003806E+03  0.41800000000E+01 0. -1.
</event>
<event>
11    1  0.8037748E-009  0.1438401E+03  0.7561462E-02  0.1103345E+00
         22   -1    0    0    0    0  0.00000000000E+00  0.00000000000E+00  0.25902214668E+03  0.25902214668E+03  0.00000000000E+00 0. -1.
         22   -1    0    0    0    0 -0.00000000000E+00 -0.00000000000E+00 -0.27392464953E+03  0.27392464953E+03  0.00000000000E+00 0.  1.
         24    2    1    2    0    0  0.82618502355E+01 -0.86624335566E+02 -0.13646606785E+03  0.18047140685E+03  0.79843016808E+02 0.  0.
         25    2    1    2    0    0  0.17036741278E+01  0.41002882514E+02 -0.62505923665E+02  0.14573535457E+03  0.12509062394E+03 0.  0.
        -24    2    1    2    0    0 -0.99655243633E+01  0.45621453052E+02  0.18406948867E+03  0.20674003479E+03  0.81726597096E+02 0.  0.
        -13    1    3    3    0    0  0.26224947111E+02 -0.79028923384E+02 -0.13771250236E+03  0.16092871679E+03  0.00000000000E+00 0.  1.
         14    1    3    3    0    0 -0.17963096876E+02 -0.75954121819E+01  0.12464345084E+01  0.19542690055E+02  0.00000000000E+00 0. -1.
         11    1    5    5    0    0 -0.43796943857E+02  0.24123308965E+02  0.13111366564E+03  0.14032426606E+03  0.00000000000E+00 0. -1.
        -12    1    5    5    0    0  0.33831419494E+02  0.21498144088E+02  0.52955823027E+02  0.66415768735E+02  0.00000000000E+00 0.  1.
          5    1    4    4  501    0 -0.78405758269E+01 -0.44297781896E+02 -0.15374082459E+02  0.47724238304E+02  0.41800000000E+01 0. -1.
         -5    1    4    4    0  501  0.95442499548E+01  0.85300664410E+02 -0.47131841206E+02  0.98011116264E+02  0.41800000000E+01 0. -1.
</event>
<event>
11    1  0.8037748E-009  0.4492839E+03  0.7561462E-02  0.9514584E-01
         22   -1    0    0    0    0  0.00000000000E+00  0.00000000000E+00  0.10476785181E+04  0.10476785181E+04  0.00000000000E+00 0. -1.
         22   -1    0    0    0    0 -0.00000000000E+00 -0.00000000000E+00 -0.34716287512E+03  0.34716287512E+03  0.00000000000E+00 0. -1.
         24    2    1    2    0    0  0.68584016169E+02 -0.29543204669E+02 -0.11252760782E+03  0.17000398803E+03  0.10325853575E+03 0.  0.
         25    2    1    2    0    0  0.33993229511E+03 -0.18144257515E+03  0.19336452369E+03  0.44890003775E+03  0.12508409786E+03 0.  0.
        -24    2    1    2    0    0 -0.40851631128E+03  0.21098577982E+03  0.61967872714E+03  0.77593736746E+03  0.81709837156E+02 0.  0.
        -11    1    3    3    0    0  0.70928190384E+02  0.22454761913E+02 -0.55677921020E+02  0.92924998858E+02  0.00000000000E+00 0.  1.
         12    1    3    3    0    0 -0.23441742145E+01 -0.51997966583E+02 -0.56849686803E+02  0.77078989167E+02  0.00000000000E+00 0. -1.
         13    1    5    5    0    0 -0.24839209749E+03  0.10531789572E+03  0.30326913330E+03  0.40590967033E+03  0.00000000000E+00 0. -1.
        -14    1    5    5    0    0 -0.16012421379E+03  0.10566788411E+03  0.31640959384E+03  0.37002769713E+03  0.00000000000E+00 0.  1.
          5    1    4    4  501    0  0.12921788597E+02  0.15794168817E+02  0.46635681862E-02  0.20830285906E+02  0.41800000000E+01 0. -1.
         -5    1    4    4    0  501  0.32701050651E+03 -0.19723674397E+03  0.19335986012E+03  0.42806975185E+03  0.41800000000E+01 0. -1.
</event>
<event>
11    1  0.8037748E-009  0.1292383E+03  0.7561462E-02  0.1120208E+00
         22   -1    0    0    0    0  0.00000000000E+00  0.00000000000E+00  0.12516404413E+04  0.12516404413E+04  0.00000000000E+00 0.  1.
         22   -1    0    0    0    0 -0.00000000000E+00 -0.00000000000E+00 -0.12705397027E+03  0.12705397027E+03  0.00000000000E+00 0.  1.
        -24    2    1    2    0    0 -0.23833073523E+02  0.93676130160E+01 -0.56652209670E+02  0.10273217701E+03  0.81784226871E+02 0.  0.
         25    2    1    2    0    0  0.34168275081E+02 -0.39521018298E+02  0.54919583727E+02  0.14626508440E+03  0.12509169569E+03 0.  0.
         24    2    1    2    0    0 -0.10335201558E+02  0.30153405282E+02  0.11263190970E+04  0.11296971502E+04  0.81270527459E+02 0.  0.
        -13    1    5    5    0    0  0.33572084357E+02  0.25630585433E+02  0.63282460078E+03  0.63423259701E+03  0.00000000000E+00 0.  1.
         14    1    5    5    0    0 -0.43907285916E+02  0.45228198492E+01  0.49349449621E+03  0.49546455316E+03  0.00000000000E+00 0. -1.
         11    1    3    3    0    0 -0.88946336092E+01 -0.36478336562E+01  0.20731623382E+02  0.22852164131E+02  0.00000000000E+00 0. -1.
        -12    1    3    3    0    0 -0.14938439914E+02  0.13015446672E+02 -0.77383833052E+02  0.79880012876E+02  0.00000000000E+00 0.  1.
          5    1    4    4  501    0  0.19910888274E+02  0.44408678056E+02  0.30555202040E+02  0.57616550836E+02  0.41800000000E+01 0. -1.
         -5    1    4    4    0  501  0.14257386807E+02 -0.83929696354E+02  0.24364381687E+02  0.88648533567E+02  0.41800000000E+01 0. -1.
</event>
<event>
11    1  0.8037748E-009  0.1568902E+03  0.7561462E-02  0.1090039E+00
         22   -1    0    0    0    0  0.00000000000E+00  0.00000000000E+00  0.33141637972E+03  0.33141637972E+03  0.00000000000E+00 0. -1.
         22   -1    0    0    0    0 -0.00000000000E+00 -0.00000000000E+00 -0.65050091797E+03  0.65050091797E+03  0.00000000000E+00 0.  1.
         24    2    1    2    0    0 -0.20016818095E+02 -0.23723535551E+02 -0.48503028231E+03  0.49117756492E+03  0.70975674573E+02 0.  0.
         25    2    1    2    0    0 -0.73781491558E+02 -0.31419188916E+00 -0.11313033387E+03  0.18409109484E+03  0.12508897452E+03 0.  0.
        -24    2    1    2    0    0  0.93798309653E+02  0.24037727440E+02  0.27907607793E+03  0.30664863792E+03  0.82304280786E+02 0.  0.
        -11    1    3    3    0    0 -0.75029601522E+01 -0.41466210131E+02 -0.42936474915E+03  0.43142766347E+03  0.00000000000E+00 0.  1.
         12    1    3    3    0    0 -0.12513857943E+02  0.17742674580E+02 -0.55665533158E+02  0.59749901453E+02  0.00000000000E+00 0. -1.
         11    1    5    5    0    0  0.71464245410E+02  0.53044455362E+02  0.21761305074E+03  0.23510910759E+03  0.00000000000E+00 0. -1.
        -12    1    5    5    0    0  0.22334064243E+02 -0.29006727921E+02  0.61463027181E+02  0.71539530335E+02  0.00000000000E+00 0.  1.
          5    1    4    4  501    0 -0.91080553902E+02 -0.38088554671E+02 -0.99341718379E+02  0.14011657542E+03  0.41800000000E+01 0. -1.
         -5    1    4    4    0  501  0.17299062344E+02  0.37774362782E+02 -0.13788615488E+02  0.43974519425E+02  0.41800000000E+01 0. -1.
</event>
<event>
11    1  0.8037748E-009  0.1344379E+03  0.7561462E-02  0.1113933E+00
         22   -1    0    0    0    0  0.00000000000E+00  0.00000000000E+00  0.93389206057E+02  0.93389206057E+02  0.00000000000E+00 0.  1.
         22   -1    0    0    0    0 -0.00000000000E+00 -0.00000000000E+00 -0.42770178519E+03  0.42770178519E+03  0.00000000000E+00 0.  1.
         24    2    1    2    0    0  0.21381850630E+02  0.32855194877E+02 -0.25218813907E+03  0.26747790287E+03  0.80055753512E+02 0.  0.
         25    2    1    2    0    0  0.32875480999E+02 -0.35008161140E+02 -0.78288805245E+02  0.15518262762E+03  0.12508454058E+03 0.  0.
        -24    2    1    2    0    0 -0.54257331629E+02  0.21529662633E+01 -0.38356348130E+01  0.98430460749E+02  0.82008232572E+02 0.  0.
        -13    1    3    3    0    0  0.27941478288E+02  0.39293645198E+02 -0.25363162833E+03  0.25817381674E+03  0.00000000000E+00 0.  1.
         14    1    3    3    0    0 -0.65596276580E+01 -0.64384503212E+01  0.14434892560E+01  0.93040861336E+01  0.00000000000E+00 0. -1.
         13    1    5    5    0    0 -0.10848371042E+02 -0.35813389116E+02  0.10771233876E+02  0.38939767250E+02  0.00000000000E+00 0. -1.
        -14    1    5    5    0    0 -0.43408960587E+02  0.37966355380E+02 -0.14606868689E+02  0.59490693499E+02  0.00000000000E+00 0.  1.
          5    1    4    4  501    0  0.20499558731E+02  0.44984115894E+02 -0.46882871176E+02  0.68258908581E+02  0.41800000000E+01 0.  1.
         -5    1    4    4    0  501  0.12375922269E+02 -0.79992277035E+02 -0.31405934069E+02  0.86923719041E+02  0.41800000000E+01 0.  1.
</event>
<event>
11    1  0.8037748E-009  0.1465150E+03  0.7561462E-02  0.1100494E+00
         22   -1    0    0    0    0  0.00000000000E+00  0.00000000000E+00  0.22679908449E+03  0.22679908449E+03  0.00000000000E+00 0.  1.
         22   -1    0    0    0    0 -0.00000000000E+00 -0.00000000000E+00 -0.19092255824E+04  0.19092255824E+04  0.00000000000E+00 0.  1.
        -24    2    1    2    0    0 -0.20395494785E+02  0.62831781803E+02 -0.17070974375E+04  0.17102259464E+04  0.79544438068E+02 0.  0.
         25    2    1    2    0    0 -0.25365343374E+02  0.45629189645E+01 -0.16203592153E+03  0.20631485962E+03  0.12508381414E+03 0.  0.
         24    2    1    2    0    0  0.45760838159E+02 -0.67394700767E+02  0.18670686108E+03  0.21948386089E+03  0.81716664252E+02 0.  0.
        -11    1    5    5    0    0  0.54766766966E+02 -0.42286453351E+02  0.17870881096E+03  0.19163606659E+03  0.00000000000E+00 0.  1.
         12    1    5    5    0    0 -0.90059288070E+01 -0.25108247417E+02  0.79980501199E+01  0.27847794306E+02  0.00000000000E+00 0. -1.
         13    1    3    3    0    0 -0.69102069332E+01  0.45940057246E+02 -0.36375256182E+03  0.36670719389E+03  0.00000000000E+00 0. -1.
        -14    1    3    3    0    0 -0.13485287852E+02  0.16891724557E+02 -0.13433448756E+04  0.13435187525E+04  0.00000000000E+00 0.  1.
          5    1    4    4  501    0 -0.53779714781E+02  0.34872062672E+01 -0.16841331310E+03  0.17687547811E+03  0.41800000000E+01 0. -1.
         -5    1    4    4    0  501  0.28414371407E+02  0.10757126973E+01  0.63773915699E+01  0.29439381506E+02  0.41800000000E+01 0. -1.
</event>
<event>
11    1  0.8037748E-009  0.1388081E+03  0.7561462E-02  0.1108897E+00
         22   -1    0    0    0    0  0.00000000000E+00  0.00000000000E+00  0.36177379778E+03  0.36177379778E+03  0.00000000000E+00 0.  1.
         22   -1    0    0    0    0 -0.00000000000E+00 -0.00000000000E+00 -0.53471377615E+03  0.53471377615E+03  0.00000000000E+00 0.  1.
        -24    2    1    2    0    0  0.62131010060E+01  0.79645256972E+01 -0.43633261413E+03  0.44313557284E+03  0.76687348781E+02 0.  0.
         25    2    1    2    0    0 -0.64799841449E+02 -0.18335993588E+02 -0.28292178755E+02  0.14485703089E+03  0.12509150213E+03 0.  0.
         24    2    1    2    0    0  0.58586740443E+02  0.10371467891E+02  0.29168481452E+03  0.30849497021E+03  0.80926770123E+02 0.  0.
        -13    1    5    5    0    0  0.65841366208E+02  0.33135140694E+02  0.24777342827E+03  0.25850472880E+03  0.00000000000E+00 0.  1.
         14    1    5    5    0    0 -0.72546257650E+01 -0.22763672803E+02  0.43911386245E+02  0.49990241412E+02  0.00000000000E+00 0. -1.
         13    1    3    3    0    0 -0.34872063836E+02 -0.19737517712E+01 -0.21130993362E+03  0.21417713365E+03  0.00000000000E+00 0. -1.
        -14    1    3    3    0    0  0.41085164842E+02  0.99382774684E+01 -0.22502268052E+03  0.22895843919E+03  0.00000000000E+00 0.  1.
          5    1    4    4  501    0 -0.84651683642E+02  0.13718765515E+02 -0.51756744603E+02  0.10025140938E+03  0.41800000000E+01 0. -1.
         -5    1    4    4    0  501  0.19851842194E+02 -0.32054759103E+02  0.23464565848E+02  0.44605621508E+02  0.41800000000E+01 0. -1.
</event>
<event>
11    1  0.8037748E-009  0.1319801E+03  0.7561462E-02  0.1116860E+00
         22   -1    0    0    0    0  0.00000000000E+00  0.00000000000E+00  0.16853372430E+04  0.16853372430E+04  0.00000000000E+00 0.  1.
         22   -1    0    0    0    0 -0.00000000000E+00 -0.00000000000E+00 -0.64623692719E+03  0.64623692719E+03  0.00000000000E+00 0.  1.
         24    2    1    2    0    0 -0.24791805150E+02 -0.34587681638E+02 -0.62179870523E+03  0.62859580501E+03  0.81780895843E+02 0.  0.
         25    2    1    2    0    0  0.18403380659E+02 -0.96087079095E+01  0.18551501244E+03  0.22470930068E+03  0.12508972095E+03 0.  0.
        -24    2    1    2    0    0  0.63884244910E+01  0.44196389547E+02  0.14753840086E+04  0.14782690645E+04  0.80791839877E+02 0.  0.
        -11    1    3    3    0    0 -0.30826733563E+02 -0.56856454948E+02 -0.53045858953E+03  0.53438680670E+03  0.00000000000E+00 0.  1.
         12    1    3    3    0    0  0.60349284133E+01  0.22268773311E+02 -0.91340115695E+02  0.94208998301E+02  0.00000000000E+00 0. -1.
         11    1    5    5    0    0  0.38903861686E+02  0.45259864994E+02  0.92209842077E+03  0.92402784775E+03  0.00000000000E+00 0. -1.
        -12    1    5    5    0    0 -0.32515437195E+02 -0.10634754467E+01  0.55328558781E+03  0.55424121673E+03  0.00000000000E+00 0.  1.
          5    1    4    4  501    0  0.77928865230E+01 -0.67231466177E+02  0.10641105807E+03  0.12618076242E+03  0.41800000000E+01 0. -1.
         -5    1    4    4    0  501  0.10610494136E+02  0.57622758268E+02  0.79103954367E+02  0.98528538265E+02  0.41800000000E+01 0. -1.
</event>
<event>
11    1  0.8037748E-009  0.1471337E+03  0.7561462E-02  0.1099844E+00
         22   -1    0    0    0    0  0.00000000000E+00  0.00000000000E+00  0.26768394509E+04  0.26768394509E+04  0.00000000000E+00 0.  1.
         22   -1    0    0    0    0 -0.00000000000E+00 -0.00000000000E+00 -0.40348660034E+02  0.40348660034E+02  0.00000000000E+00 0. -1.
        -24    2    1    2    0    0  0.24425916746E+02  0.22059787888E+02  0.49540675736E+02  0.10097329081E+03  0.81596980663E+02 0.  0.
         25    2    1    2    0    0  0.14397211053E+02  0.48658185097E+02  0.33412556361E+03  0.36036379809E+03  0.12508907248E+03 0.  0.
         24    2    1    2    0    0 -0.38823127799E+02 -0.70717972985E+02  0.22528245515E+04  0.22558510220E+04  0.84481398727E+02 0.  0.
        -13    1    5    5    0    0 -0.33918271905E+02 -0.66137644494E+02  0.22411714957E+04  0.22424036903E+04  0.00000000000E+00 0.  1.
         14    1    5    5    0    0 -0.49048558941E+01 -0.45803284909E+01  0.11653055794E+02  0.13447331696E+02  0.00000000000E+00 0. -1.
         11    1    3    3    0    0  0.20848430419E+02 -0.28586688986E+02  0.10440461346E+02  0.36889823410E+02  0.00000000000E+00 0. -1.
        -12    1    3    3    0    0  0.35774863269E+01  0.50646476874E+02  0.39100214390E+02  0.64083467396E+02  0.00000000000E+00 0.  1.
          5    1    4    4  501    0  0.19083452888E+02  0.13145869377E+02  0.32118818871E+03  0.32205017780E+03  0.41800000000E+01 0. -1.
         -5    1    4    4    0  501 -0.46862418359E+01  0.35512315720E+02  0.12937374898E+02  0.38313620288E+02  0.41800000000E+01 0. -1.
</event>
<event>
11    1  0.8037748E-009  0.1510191E+03  0.7561462E-02  0.1095842E+00
         22   -1    0    0    0    0  0.00000000000E+00  0.00000000000E+00  0.87010582908E+02  0.87010582908E+02  0.00000000000E+00 0.  1.
         22   -1    0    0    0    0 -0.00000000000E+00 -0.00000000000E+00 -0.12537495890E+04  0.12537495890E+04  0.00000000000E+00 0. -1.
         24    2    1    2    0    0  0.62350998308E+02 -0.54658031833E+02 -0.96040582148E+03  0.96729699631E+03  0.80056166009E+02 0.  0.
         25    2    1    2    0    0 -0.95170472870E+02  0.39046665174E+02 -0.21397044277E+03  0.26835045253E+03  0.12508618638E+03 0.  0.
        -24    2    1    2    0    0  0.32819474562E+02  0.15611366658E+02  0.76372582082E+01  0.10511272302E+03  0.98333738605E+02 0.  0.
        -11    1    3    3    0    0  0.10690297265E+02  0.17439140648E+02 -0.85766093158E+02  0.88171587361E+02  0.00000000000E+00 0.  1.
         12    1    3    3    0    0  0.51660701043E+02 -0.72097172480E+02 -0.87463972832E+03  0.87912540895E+03  0.00000000000E+00 0. -1.
         13    1    5    5    0    0  0.25146630961E+02  0.57131538964E+02  0.76633774101E+01  0.62889531294E+02  0.00000000000E+00 0. -1.
        -14    1    5    5    0    0  0.76728436008E+01 -0.41520172305E+02 -0.26119201856E-01  0.42223191724E+02  0.00000000000E+00 0.  1.
          5    1    4    4  501    0 -0.45660544760E+02  0.81325051333E+02 -0.15192598969E+03  0.17831889430E+03  0.41800000000E+01 0.  1.
         -5    1    4    4    0  501 -0.49509928111E+02 -0.42278386158E+02 -0.62044453081E+02  0.90031558222E+02  0.41800000000E+01 0.  1.
</event>
<event>
11    1  0.8037748E-009  0.1630459E+03  0.7561462E-02  0.1084247E+00
         22   -1    0    0    0    0  0.00000000000E+00  0.00000000000E+00  0.24015805635E+04  0.24015805635E+04  0.00000000000E+00 0.  1.
         22   -1    0    0    0    0 -0.00000000000E+00 -0.00000000000E+00 -0.46954408935E+03  0.46954408935E+03  0.00000000000E+00 0.  1.
         24    2    1    2    0    0 -0.42242616256E+01 -0.98987933373E+02 -0.25917267772E+03  0.28905670246E+03  0.81036072342E+02 0.  0.
         25    2    1    2    0    0 -0.42347759041E+02  0.11849154448E+03 -0.15391931844E+03  0.23488744541E+03  0.12508947442E+03 0.  0.
        -24    2    1    2    0    0  0.46572020667E+02 -0.19503611104E+02  0.23451284703E+04  0.23471805050E+04  0.84139388474E+02 0.  0.
        -13    1    3    3    0    0 -0.28507259245E+02 -0.97195213578E+02 -0.18397546917E+03  0.21001558664E+03  0.00000000000E+00 0.  1.
         14    1    3    3    0    0  0.24282997619E+02 -0.17927197959E+01 -0.75197208549E+02  0.79041115828E+02  0.00000000000E+00 0. -1.
         13    1    5    5    0    0  0.26536084494E+02 -0.27657762096E+02  0.37903509847E+03  0.38096813706E+03  0.00000000000E+00 0. -1.
        -14    1    5    5    0    0  0.20035936173E+02  0.81541509923E+01  0.19660933718E+04  0.19662123679E+04  0.00000000000E+00 0.  1.
          5    1    4    4  501    0 -0.99582009932E+01  0.79504890884E+02 -0.16442405310E+03  0.18295610151E+03  0.41800000000E+01 0. -1.
         -5    1    4    4    0  501 -0.32389558048E+02  0.38986653593E+02  0.10504734657E+02  0.51931343898E+02  0.41800000000E+01 0. -1.
</event>
<event>
11    1  0.8037748E-009  0.1470236E+03  0.7561462E-02  0.1099959E+00
         22   -1    0    0    0    0  0.00000000000E+00  0.00000000000E+00  0.22374444039E+03  0.22374444039E+03  0.00000000000E+00 0.  1.
         22   -1    0    0    0    0 -0.00000000000E+00 -0.00000000000E+00 -0.36768071108E+04  0.36768071108E+04  0.00000000000E+00 0. -1.
        -24    2    1    2    0    0 -0.24901700941E+02  0.70121406818E+02 -0.30540559710E+04  0.30559982836E+04  0.79564622476E+02 0.  0.
         25    2    1    2    0    0  0.30481136295E+02 -0.10656799948E+03 -0.60097809081E+03  0.62378524086E+03  0.12509005913E+03 0.  0.
         24    2    1    2    0    0 -0.55794353537E+01  0.36446592658E+02  0.20197139140E+03  0.22076802671E+03  0.81157836711E+02 0.  0.
        -13    1    5    5    0    0 -0.43594731242E+00  0.73950577022E+01  0.18796125453E+03  0.18810717725E+03  0.00000000000E+00 0.  1.
         14    1    5    5    0    0 -0.51434880413E+01  0.29051534956E+02  0.14010136869E+02  0.32660849463E+02  0.00000000000E+00 0. -1.
         13    1    3    3    0    0 -0.47446155875E+02  0.53952671726E+02 -0.26584617122E+04  0.26594324025E+04  0.00000000000E+00 0. -1.
        -14    1    3    3    0    0  0.22544454934E+02  0.16168735092E+02 -0.39559425881E+03  0.39656588109E+03  0.00000000000E+00 0.  1.
          5    1    4    4  501    0  0.54509531899E+02  0.28755672119E+01 -0.18116435578E+03  0.18925526191E+03  0.41800000000E+01 0. -1.
         -5    1    4    4    0  501 -0.24028395604E+02 -0.10944356669E+03 -0.41981373503E+03  0.43452997895E+03  0.41800000000E+01 0. -1.
</event>
<event>
11    1  0.8037748E-009  0.2463009E+03  0.7561462E-02  0.1025888E+00
         22   -1    0    0    0    0  0.00000000000E+00  0.00000000000E+00  0.64843227564E+03  0.64843227564E+03  0.00000000000E+00 0.  1.
         22   -1    0    0    0    0 -0.00000000000E+00 -0.00000000000E+00 -0.18500297828E+04  0.18500297828E+04  0.00000000000E+00 0. -1.
        -24    2    1    2    0    0  0.12492694160E+03 -0.16903321160E+03 -0.15781098301E+04  0.15940544740E+04  0.80000392752E+02 0.  0.
         25    2    1    2    0    0 -0.14046962007E+03  0.18015324078E+03 -0.19512839687E+03  0.32543753005E+03  0.12509032885E+03 0.  0.
         24    2    1    2    0    0  0.15542678475E+02 -0.11120029182E+02  0.57164071982E+03  0.57897005438E+03  0.89821942763E+02 0.  0.
        -13    1    5    5    0    0  0.28572896980E+02 -0.13171476224E+02  0.56137345814E+03  0.56225444216E+03  0.00000000000E+00 0.  1.
         14    1    5    5    0    0 -0.13030218505E+02  0.20514470415E+01  0.10267261686E+02  0.16715612217E+02  0.00000000000E+00 0. -1.
         13    1    3    3    0    0  0.20746406776E+02 -0.31191402136E+02 -0.57124736565E+03  0.57247433979E+03  0.00000000000E+00 0. -1.
        -14    1    3    3    0    0  0.10418053482E+03 -0.13784180946E+03 -0.10068624645E+04  0.10215801342E+04  0.00000000000E+00 0.  1.
          5    1    4    4  501    0 -0.98065435401E+01  0.52464708299E+02 -0.11309660731E+03  0.12512805001E+03  0.41800000000E+01 0. -1.
         -5    1    4    4    0  501 -0.13066307653E+03  0.12768853248E+03 -0.82031789561E+02  0.20030948004E+03  0.41800000000E+01 0. -1.
</event>
<event>
11    1  0.8037748E-009  0.1429885E+03  0.7561462E-02  0.1104266E+00
         22   -1    0    0    0    0  0.00000000000E+00  0.00000000000E+00  0.16586432410E+04  0.16586432410E+04  0.00000000000E+00 0.  1.
         22   -1    0    0    0    0 -0.00000000000E+00 -0.00000000000E+00 -0.43887458043E+03  0.43887458043E+03  0.00000000000E+00 0.  1.
         24    2    1    2    0    0 -0.59735016924E+02 -0.34211749712E+02 -0.31007131172E+03  0.32831729156E+03  0.83122256468E+02 0.  0.
         25    2    1    2    0    0  0.86826087378E+02 -0.14605248030E+02 -0.68669137724E+02  0.16767580143E+03  0.12509053198E+03 0.  0.
        -24    2    1    2    0    0 -0.27091070454E+02  0.48816997742E+02  0.15985091100E+04  0.16015247284E+04  0.80827319947E+02 0.  0.
        -13    1    3    3    0    0 -0.18770345000E+02  0.34744996217E+01 -0.23004794933E+03  0.23083859510E+03  0.00000000000E+00 0.  1.
         14    1    3    3    0    0 -0.40964671923E+02 -0.37686249333E+02 -0.80023362396E+02  0.97478696461E+02  0.00000000000E+00 0. -1.
         13    1    5    5    0    0  0.67633642147E+01  0.51523178318E+02  0.54587218203E+03  0.54834005883E+03  0.00000000000E+00 0. -1.
        -14    1    5    5    0    0 -0.33854434669E+02 -0.27061805757E+01  0.10526369280E+04  0.10531846696E+04  0.00000000000E+00 0.  1.
          5    1    4    4  501    0  0.10992499152E+03 -0.16516776679E+02 -0.19194478897E+02  0.11288138949E+03  0.41800000000E+01 0.  1.
         -5    1    4    4    0  501 -0.23098904141E+02  0.19115286487E+01 -0.49474658828E+02  0.54794411945E+02  0.41800000000E+01 0.  1.
</event>
<event>
11    1  0.8037748E-009  0.1711891E+03  0.7561462E-02  0.1077001E+00
         22   -1    0    0    0    0  0.00000000000E+00  0.00000000000E+00  0.41117261077E+03  0.41117261077E+03  0.00000000000E+00 0.  1.
         22   -1    0    0    0    0 -0.00000000000E+00 -0.00000000000E+00 -0.54148456510E+03  0.54148456510E+03  0.00000000000E+00 0.  1.
         24    2    1    2    0    0 -0.39581164494E+02  0.10919035811E+03 -0.45839142193E+03  0.48249126758E+03  0.95843229810E+02 0.  0.
         25    2    1    2    0    0  0.23801232109E+02 -0.12325939753E+03  0.55058490306E+02  0.18557381515E+03  0.12508727267E+03 0.  0.
        -24    2    1    2    0    0  0.15779932385E+02  0.14069039414E+02  0.27302097730E+03  0.28459209314E+03  0.77493620989E+02 0.  0.
        -13    1    3    3    0    0  0.88378192144E+01  0.10094256220E+02 -0.21336335204E+03  0.21378475402E+03  0.00000000000E+00 0.  1.
         14    1    3    3    0    0 -0.48418983708E+02  0.99096101894E+02 -0.24502806989E+03  0.26870651356E+03  0.00000000000E+00 0. -1.
         13    1    5    5    0    0  0.10987001057E+02  0.21025081176E+02  0.18901039925E+02  0.30331790928E+02  0.00000000000E+00 0. -1.
        -14    1    5    5    0    0  0.47929313281E+01 -0.69560417614E+01  0.25411993738E+03  0.25426030221E+03  0.00000000000E+00 0.  1.
          5    1    4    4  501    0  0.13626377321E+02 -0.42019171321E+00  0.60466001122E+02  0.62124587818E+02  0.41800000000E+01 0. -1.
         -5    1    4    4    0  501  0.10174854788E+02 -0.12283920581E+03 -0.54075108156E+01  0.12344922733E+03  0.41800000000E+01 0. -1.
</event>
<event>
11    1  0.8037748E-009  0.3398612E+03  0.7561462E-02  0.9846033E-01
         22   -1    0    0    0    0  0.00000000000E+00  0.00000000000E+00  0.99005121210E+03  0.99005121210E+03  0.00000000000E+00 0. -1.
         22   -1    0    0    0    0 -0.00000000000E+00 -0.00000000000E+00 -0.10755443333E+04  0.10755443333E+04  0.00000000000E+00 0. -1.
        -24    2    1    2    0    0 -0.27743295260E+03  0.12896737286E+03 -0.86499895752E+03  0.92066921439E+03  0.76203539042E+02 0.  0.
         25    2    1    2    0    0  0.37124423952E+03 -0.17404586112E+03  0.83624956905E+02  0.43675631574E+03  0.12509475916E+03 0.  0.
         24    2    1    2    0    0 -0.93811286916E+02  0.45078488261E+02  0.69588087936E+03  0.70817001532E+03  0.80137036874E+02 0.  0.
        -13    1    5    5    0    0 -0.80553852342E+02  0.24018501506E-01  0.51645868514E+03  0.52270306787E+03  0.00000000000E+00 0.  1.
         14    1    5    5    0    0 -0.13257434574E+02  0.45054469760E+02  0.17942219422E+03  0.18546694745E+03  0.00000000000E+00 0. -1.
         11    1    3    3    0    0 -0.13290238883E+02  0.17650956304E+02 -0.12796294503E+03  0.12985646695E+03  0.00000000000E+00 0. -1.
        -12    1    3    3    0    0 -0.26414271372E+03  0.11131641656E+03 -0.73703601249E+03  0.79081274744E+03  0.00000000000E+00 0.  1.
          5    1    4    4  501    0  0.28262759601E+03 -0.80237350277E+02  0.90533618101E+02  0.30745763742E+03  0.41800000000E+01 0. -1.
         -5    1    4    4    0  501  0.88616643514E+02 -0.93808510845E+02 -0.69086611961E+01  0.12929867832E+03  0.41800000000E+01 0. -1.
</event>
<event>
11    1  0.8037748E-009  0.1376164E+03  0.7561462E-02  0.1110250E+00
         22   -1    0    0    0    0  0.00000000000E+00  0.00000000000E+00  0.12543211091E+04  0.12543211091E+04  0.00000000000E+00 0. -1.
         22   -1    0    0    0    0 -0.00000000000E+00 -0.00000000000E+00 -0.23253287612E+03  0.23253287612E+03  0.00000000000E+00 0. -1.
        -24    2    1    2    0    0 -0.64247479909E+01  0.59856349690E+02 -0.16671668573E+03  0.19433964458E+03  0.79683023096E+02 0.  0.
         25    2    1    2    0    0 -0.13865504718E+02 -0.40795334219E+02  0.36061608306E+02  0.13713586301E+03  0.12509713751E+03 0.  0.
         24    2    1    2    0    0  0.20290252709E+02 -0.19061015471E+02  0.11524433104E+04  0.11553784776E+04  0.77452089894E+02 0.  0.
        -13    1    5    5    0    0 -0.24103065424E+02 -0.15966352354E+02  0.22243246127E+03  0.22430354879E+03  0.00000000000E+00 0.  1.
         14    1    5    5    0    0  0.44393318133E+02 -0.30946631171E+01  0.93001084913E+03  0.93107492885E+03  0.00000000000E+00 0. -1.
         13    1    3    3    0    0 -0.15817902333E+02  0.14402703928E+02 -0.13824141067E+03  0.13988685263E+03  0.00000000000E+00 0. -1.
        -14    1    3    3    0    0  0.93931543425E+01  0.45453645762E+02 -0.28475275063E+02  0.54452791953E+02  0.00000000000E+00 0.  1.
          5    1    4    4  501    0  0.40929942359E+02 -0.57173703620E+02  0.37451138167E+02  0.79775639873E+02  0.41800000000E+01 0. -1.
         -5    1    4    4    0  501 -0.54795447077E+02  0.16378369401E+02 -0.13895298611E+01  0.57360223133E+02  0.41800000000E+01 0. -1.
</event>
<event>
11    1  0.8037748E-009  0.1295903E+03  0.7561462E-02  0.1119773E+00
         22   -1    0    0    0    0  0.00000000000E+00  0.00000000000E+00  0.71451512189E+03  0.71451512189E+03  0.00000000000E+00 0.  1.
         22   -1    0    0    0    0 -0.00000000000E+00 -0.00000000000E+00 -0.10029598545E+04  0.10029598545E+04  0.00000000000E+00 0.  1.
        -24    2    1    2    0    0 -0.56951358154E+02 -0.38920530167E+01 -0.92020081583E+03  0.92526679724E+03  0.78041651431E+02 0.  0.
         25    2    1    2    0    0  0.58631237376E+02  0.37144765394E+02 -0.77715613208E+01  0.14326622684E+03  0.12508980372E+03 0.  0.
         24    2    1    2    0    0 -0.16798792220E+01 -0.33252712377E+02  0.63952764454E+03  0.64894195230E+03  0.10498325796E+03 0.  0.
        -11    1    5    5    0    0 -0.87833137078E+01 -0.55556518621E+02  0.60260745614E+03  0.60522675053E+03  0.00000000000E+00 0.  1.
         12    1    5    5    0    0  0.71034344858E+01  0.22303806243E+02  0.36920188397E+02  0.43715201769E+02  0.00000000000E+00 0. -1.
         11    1    3    3    0    0 -0.28741778990E+02  0.25295948078E+02 -0.18367433099E+03  0.18762258583E+03  0.00000000000E+00 0. -1.
        -12    1    3    3    0    0 -0.28209579163E+02 -0.29188001095E+02 -0.73652648484E+03  0.73764421141E+03  0.00000000000E+00 0.  1.
          5    1    4    4  501    0  0.79974606693E+02 -0.12474547883E+02  0.18381086779E+02  0.83107694059E+02  0.41800000000E+01 0.  1.
         -5    1    4    4    0  501 -0.21343369317E+02  0.49619313277E+02 -0.26152648099E+02  0.60158532782E+02  0.41800000000E+01 0.  1.
</event>
<event>
11    1  0.8037748E-009  0.1310165E+03  0.7561462E-02  0.1118026E+00
         22   -1    0    0    0    0  0.00000000000E+00  0.00000000000E+00  0.28298227667E+03  0.28298227667E+03  0.00000000000E+00 0. -1.
         22   -1    0    0    0    0 -0.00000000000E+00 -0.00000000000E+00 -0.90621568942E+03  0.90621568942E+03  0.00000000000E+00 0. -1.
        -24    2    1    2    0    0  0.24340672326E+01 -0.39390359444E+02 -0.59465827098E+03  0.60146924450E+03  0.81174304674E+02 0.  0.
         25    2    1    2    0    0  0.23056449823E+02  0.36721937642E+02 -0.28670472942E+03  0.31579624858E+03  0.12509024008E+03 0.  0.
         24    2    1    2    0    0 -0.25490517056E+02  0.26684218022E+01  0.25812958765E+03  0.27193247301E+03  0.81605753013E+02 0.  0.
        -13    1    5    5    0    0 -0.12883862346E+02  0.81066034870E+00 -0.56742991394E+00  0.12921805441E+02  0.00000000000E+00 0.  1.
         14    1    5    5    0    0 -0.12606654710E+02  0.18577614535E+01  0.25869701756E+03  0.25901066757E+03  0.00000000000E+00 0. -1.
         13    1    3    3    0    0  0.40820752942E+02 -0.25958167344E+02 -0.27336508516E+03  0.27761237383E+03  0.00000000000E+00 0. -1.
        -14    1    3    3    0    0 -0.38386685709E+02 -0.13432192100E+02 -0.32129318582E+03  0.32385687067E+03  0.00000000000E+00 0.  1.
          5    1    4    4  501    0  0.67361438736E+02 -0.65825073739E+01 -0.17985789843E+03  0.19221661962E+03  0.41800000000E+01 0.  1.
         -5    1    4    4    0  501 -0.44304988912E+02  0.43304445015E+02 -0.10684683099E+03  0.12357962896E+03  0.41800000000E+01 0.  1.
</event>
<event>
11    1  0.8037748E-009  0.1475410E+03  0.7561462E-02  0.1099418E+00
         22   -1    0    0    0    0  0.00000000000E+00  0.00000000000E+00  0.58538874745E+03  0.58538874745E+03  0.00000000000E+00 0. -1.
         22   -1    0    0    0    0 -0.00000000000E+00 -0.00000000000E+00 -0.50358937873E+03  0.50358937873E+03  0.00000000000E+00 0. -1.
         24    2    1    2    0    0 -0.20358472082E+02  0.74562743790E+02 -0.45146248849E+03  0.46517443913E+03  0.81208436460E+02 0.  0.
         25    2    1    2    0    0  0.14935849251E+02 -0.99273385716E+02  0.11586137826E+03  0.19786414476E+03  0.12509227036E+03 0.  0.
        -24    2    1    2    0    0  0.54226228307E+01  0.24710641926E+02  0.41740047895E+03  0.42593954230E+03  0.81001933345E+02 0.  0.
        -13    1    3    3    0    0 -0.45718986361E+02  0.16625378832E+02 -0.21078230786E+03  0.21632339273E+03  0.00000000000E+00 0.  1.
         14    1    3    3    0    0  0.25360514279E+02  0.57937364958E+02 -0.24068018064E+03  0.24885104640E+03  0.00000000000E+00 0. -1.
         13    1    5    5    0    0 -0.23854882746E+02 -0.15423131169E+02  0.24129466412E+03  0.24296099139E+03  0.00000000000E+00 0. -1.
        -14    1    5    5    0    0  0.29277505577E+02  0.40133773095E+02  0.17610581483E+03  0.18297855091E+03  0.00000000000E+00 0.  1.
          5    1    4    4  501    0 -0.20423839660E+01 -0.75566565762E+02  0.14040848568E+03  0.15951956759E+03  0.41800000000E+01 0.  1.
         -5    1    4    4    0  501  0.16978233217E+02 -0.23706819954E+02 -0.24547107419E+02  0.38344577168E+02  0.41800000000E+01 0.  1.
</event>
<event>
11    1  0.8037748E-009  0.1328465E+03  0.7561462E-02  0.1115820E+00
         22   -1    0    0    0    0  0.00000000000E+00  0.00000000000E+00  0.87222783145E+03  0.87222783145E+03  0.00000000000E+00 0. -1.
         22   -1    0    0    0    0 -0.00000000000E+00 -0.00000000000E+00 -0.36909567791E+03  0.36909567791E+03  0.00000000000E+00 0.  1.
         24    2    1    2    0    0 -0.51678447269E+01 -0.21389531907E+02 -0.34292954394E+03  0.35282103257E+03  0.79986187719E+02 0.  0.
         25    2    1    2    0    0  0.26189834310E+02 -0.21126704545E+02  0.21847157776E+03  0.25398654773E+03  0.12508833308E+03 0.  0.
        -24    2    1    2    0    0 -0.21021989583E+02  0.42516236452E+02  0.62759011971E+03  0.63451592906E+03  0.80570164795E+02 0.  0.
        -11    1    3    3    0    0 -0.37862319805E+02 -0.27386191491E+02 -0.24464600967E+03  0.24906872303E+03  0.00000000000E+00 0.  1.
         12    1    3    3    0    0  0.32694475078E+02  0.59966595846E+01 -0.98283534274E+02  0.10375230955E+03  0.00000000000E+00 0. -1.
         13    1    5    5    0    0 -0.40415688344E+02  0.82928951694E+01  0.48012674682E+03  0.48189614336E+03  0.00000000000E+00 0. -1.
        -14    1    5    5    0    0  0.19393698761E+02  0.34223341283E+02  0.14746337289E+03  0.15261978569E+03  0.00000000000E+00 0.  1.
          5    1    4    4  501    0  0.75555731664E+02 -0.25296122603E+02  0.13193109645E+03  0.15418122135E+03  0.41800000000E+01 0.  1.
         -5    1    4    4    0  501 -0.49365897354E+02  0.41694180574E+01  0.86540481309E+02  0.99805326379E+02  0.41800000000E+01 0.  1.
</event>
<event>
11    1  0.8037748E-009  0.2107034E+03  0.7561462E-02  0.1047203E+00
         22   -1    0    0    0    0  0.00000000000E+00  0.00000000000E+00  0.66917623544E+03  0.66917623544E+03  0.00000000000E+00 0. -1.
         22   -1    0    0    0    0 -0.00000000000E+00 -0.00000000000E+00 -0.33048471208E+03  0.33048471208E+03  0.00000000000E+00 0. -1.
        -24    2    1    2    0    0  0.36848251928E+02 -0.12956346302E+02 -0.25893298322E+03  0.27446406183E+03  0.82210527652E+02 0.  0.
         25    2    1    2    0    0 -0.13908284608E+03  0.13235232367E+03  0.28155162729E+03  0.36301580572E+03  0.12509188908E+03 0.  0.
         24    2    1    2    0    0  0.10223459415E+03 -0.11939597737E+03  0.31607287929E+03  0.36218107998E+03  0.81029365144E+02 0.  0.
        -11    1    5    5    0    0  0.42371097250E+02 -0.83286002438E+02  0.10871807458E+03  0.14335790116E+03  0.00000000000E+00 0.  1.
         12    1    5    5    0    0  0.59863496901E+02 -0.36109974933E+02  0.20735480471E+03  0.21882317882E+03  0.00000000000E+00 0. -1.
         13    1    3    3    0    0 -0.70424030208E+01 -0.83778517051E+01 -0.20264348451E+03  0.20293882244E+03  0.00000000000E+00 0. -1.
        -14    1    3    3    0    0  0.43890654949E+02 -0.45784945966E+01 -0.56289498715E+02  0.71525239393E+02  0.00000000000E+00 0.  1.
          5    1    4    4  501    0 -0.49765731404E+02 -0.14973513647E+02  0.37383989452E+02  0.64155040335E+02  0.41800000000E+01 0. -1.
         -5    1    4    4    0  501 -0.89317114675E+02  0.14732583732E+03  0.24416763784E+03  0.29886076538E+03  0.41800000000E+01 0. -1.
</event>
<event>
11    1  0.8037748E-009  0.2856118E+03  0.7561462E-02  0.1006471E+00
         22   -1    0    0    0    0  0.00000000000E+00  0.00000000000E+00  0.24499516578E+03  0.24499516578E+03  0.00000000000E+00 0.  1.
         22   -1    0    0    0    0 -0.00000000000E+00 -0.00000000000E+00 -0.11063259802E+04  0.11063259802E+04  0.00000000000E+00 0.  1.
        -24    2    1    2    0    0  0.19650422230E+03 -0.16532898231E+03 -0.86371248717E+03  0.90500956753E+03  0.84234642876E+02 0.  0.
         25    2    1    2    0    0 -0.25294949676E+03  0.95177360609E+02  0.72517404319E+02  0.30651054853E+03  0.12509102504E+03 0.  0.
         24    2    1    2    0    0  0.56445274463E+02  0.70151621700E+02 -0.70135731564E+02  0.13980102991E+03  0.80734057783E+02 0.  0.
        -11    1    5    5    0    0  0.73362562881E+02  0.43681231125E+02 -0.66405721256E+02  0.10816577740E+03  0.00000000000E+00 0.  1.
         12    1    5    5    0    0 -0.16917288418E+02  0.26470390575E+02 -0.37300103081E+01  0.31635252512E+02  0.00000000000E+00 0. -1.
         11    1    3    3    0    0  0.37320745112E+01 -0.38966847235E+01 -0.11653009780E+03  0.11665494514E+03  0.00000000000E+00 0. -1.
        -12    1    3    3    0    0  0.19277214779E+03 -0.16143229759E+03 -0.74718238937E+03  0.78835462240E+03  0.00000000000E+00 0.  1.
          5    1    4    4  501    0 -0.57619053196E+02  0.14176281116E+02  0.74076630271E+02  0.95003904077E+02  0.41800000000E+01 0.  1.
         -5    1    4    4    0  501 -0.19533044356E+03  0.81001079492E+02 -0.15592259521E+01  0.21150664445E+03  0.41800000000E+01 0.  1.
</event>
<event>
11    1  0.8037748E-009  0.1678068E+03  0.7561462E-02  0.1079956E+00
         22   -1    0    0    0    0  0.00000000000E+00  0.00000000000E+00  0.11188541222E+04  0.11188541222E+04  0.00000000000E+00 0.  1.
         22   -1    0    0    0    0 -0.00000000000E+00 -0.00000000000E+00 -0.13592416000E+04  0.13592416000E+04  0.00000000000E+00 0. -1.
        -24    2    1    2    0    0  0.46441212483E+02 -0.99778085156E+01 -0.12912662153E+04  0.12946590325E+04  0.80729354384E+02 0.  0.
         25    2    1    2    0    0 -0.77190361193E+02  0.11577653419E+03  0.80917682061E+02  0.20385825352E+03  0.12509180040E+03 0.  0.
         24    2    1    2    0    0  0.30749148710E+02 -0.10579872568E+03  0.96996105540E+03  0.97957843618E+03  0.81305492571E+02 0.  0.
        -11    1    5    5    0    0  0.33649227680E+02 -0.56559240896E+02  0.79725894301E+03  0.79997064976E+03  0.00000000000E+00 0.  1.
         12    1    5    5    0    0 -0.29000789693E+01 -0.49239484780E+02  0.17270211239E+03  0.17960778642E+03  0.00000000000E+00 0. -1.
         11    1    3    3    0    0  0.49153570879E+02 -0.35598552543E+02 -0.10989740673E+04  0.11006485956E+04  0.00000000000E+00 0. -1.
        -12    1    3    3    0    0 -0.27123583967E+01  0.25620744028E+02 -0.19229214804E+03  0.19401043686E+03  0.00000000000E+00 0.  1.
          5    1    4    4  501    0 -0.25548947330E+02 -0.23748429699E+02  0.15049230580E+01  0.35163529633E+02  0.41800000000E+01 0. -1.
         -5    1    4    4    0  501 -0.51641413863E+02  0.13952496389E+03  0.79412759003E+02  0.16869472389E+03  0.41800000000E+01 0. -1.
</event>
<event>
11    1  0.8037748E-009  0.4019541E+03  0.7561462E-02  0.9644010E-01
         22   -1    0    0    0    0  0.00000000000E+00  0.00000000000E+00  0.40434380655E+03  0.40434380655E+03  0.00000000000E+00 0. -1.
         22   -1    0    0    0    0 -0.00000000000E+00 -0.00000000000E+00 -0.11364538700E+04  0.11364538700E+04  0.00000000000E+00 0. -1.
        -24    2    1    2    0    0 -0.36421626862E+03  0.51824356999E+02 -0.28153343285E+03  0.47016830929E+03  0.80361128299E+02 0.  0.
         25    2    1    2    0    0  0.37883966958E+03 -0.97759746569E+02 -0.69592474153E+03  0.80810667451E+03  0.12509471700E+03 0.  0.
         24    2    1    2    0    0 -0.14623400963E+02  0.45935389570E+02  0.24534811094E+03  0.26252269274E+03  0.79991029425E+02 0.  0.
        -11    1    5    5    0    0 -0.31170941214E+02 -0.82850152996E+01  0.13075414205E+03  0.13467336306E+03  0.00000000000E+00 0.  1.
         12    1    5    5    0    0  0.16547540251E+02  0.54220404869E+02  0.11459396890E+03  0.12784932968E+03  0.00000000000E+00 0. -1.
         13    1    3    3    0    0 -0.21385875772E+03 -0.30348607612E+01 -0.18818102468E+03  0.28488046034E+03  0.00000000000E+00 0. -1.
        -14    1    3    3    0    0 -0.15035751090E+03  0.54859217761E+02 -0.93352408173E+02  0.18528784896E+03  0.00000000000E+00 0.  1.
          5    1    4    4  501    0  0.45402695405E+02 -0.92972863644E+01 -0.19091274742E+03  0.19650189264E+03  0.41800000000E+01 0.  1.
         -5    1    4    4    0  501  0.33343697418E+03 -0.88462460205E+02 -0.50501199411E+03  0.61160478187E+03  0.41800000000E+01 0.  1.
</event>
<event>
11    1  0.8037748E-009  0.1545522E+03  0.7561462E-02  0.1092316E+00
         22   -1    0    0    0    0  0.00000000000E+00  0.00000000000E+00  0.17853238438E+03  0.17853238438E+03  0.00000000000E+00 0.  1.
         22   -1    0    0    0    0 -0.00000000000E+00 -0.00000000000E+00 -0.87353665294E+03  0.87353665294E+03  0.00000000000E+00 0. -1.
        -24    2    1    2    0    0 -0.10401967909E+02 -0.31522872303E+00 -0.73520094573E+03  0.73958717380E+03  0.79752471738E+02 0.  0.
         25    2    1    2    0    0 -0.43173422823E+02 -0.74699770256E+02 -0.50198459363E+02  0.16003696491E+03  0.12509174513E+03 0.  0.
         24    2    1    2    0    0  0.53575390732E+02  0.75014998980E+02  0.90395136524E+02  0.15244489861E+03  0.81059199615E+02 0.  0.
        -13    1    5    5    0    0  0.10895349662E+02 -0.17477781102E+02  0.19280918942E+02  0.28212325529E+02  0.00000000000E+00 0.  1.
         14    1    5    5    0    0  0.42680041070E+02  0.92492780081E+02  0.71114217582E+02  0.12423257308E+03  0.00000000000E+00 0. -1.
         11    1    3    3    0    0  0.33512921940E+01  0.33279368029E+02 -0.54031167429E+03  0.54134596412E+03  0.00000000000E+00 0. -1.
        -12    1    3    3    0    0 -0.13753260103E+02 -0.33594596752E+02 -0.19488927143E+03  0.19824120968E+03  0.00000000000E+00 0.  1.
          5    1    4    4  501    0 -0.50526330969E+02 -0.82093949250E+02  0.11639475491E+02  0.97186811936E+02  0.41800000000E+01 0. -1.
         -5    1    4    4    0  501  0.73529081461E+01  0.73941789938E+01 -0.61837934854E+02  0.62850152969E+02  0.41800000000E+01 0. -1.
</event>
<event>
11    1  0.8037748E-009  0.1462623E+03  0.7561462E-02  0.1100760E+00
         22   -1    0    0    0    0  0.00000000000E+00  0.00000000000E+00  0.25266950406E+03  0.25266950406E+03  0.00000000000E+00 0.  1.
         22   -1    0    0    0    0 -0.00000000000E+00 -0.00000000000E+00 -0.84301045257E+03  0.84301045257E+03  0.00000000000E+00 0. -1.
        -24    2    1    2    0    0  0.40663301314E+01  0.79613605349E+02 -0.73424028519E+03  0.74281285668E+03  0.79418401254E+02 0.  0.
         25    2    1    2    0    0  0.26850419165E+02 -0.33091258884E+02 -0.43679566220E+02  0.13918109136E+03  0.12508994869E+03 0.  0.
         24    2    1    2    0    0 -0.30916749296E+02 -0.46522346465E+02  0.18757890290E+03  0.21368600859E+03  0.85765327175E+02 0.  0.
        -13    1    5    5    0    0 -0.95155460808E+01 -0.11292272585E+02  0.16693087105E+03  0.16758274597E+03  0.00000000000E+00 0.  1.
         14    1    5    5    0    0 -0.21401203216E+02 -0.35230073880E+02  0.20648031849E+02  0.46103262617E+02  0.00000000000E+00 0. -1.
         11    1    3    3    0    0  0.33175567407E+02  0.37668170109E+02 -0.20255046200E+03  0.20867726031E+03  0.00000000000E+00 0. -1.
        -12    1    3    3    0    0 -0.29109237275E+02  0.41945435240E+02 -0.53168982318E+03  0.53413559637E+03  0.00000000000E+00 0.  1.
          5    1    4    4  501    0 -0.44642094069E+02 -0.34320131270E+02 -0.24078367425E+01  0.56515998186E+02  0.41800000000E+01 0.  1.
         -5    1    4    4    0  501  0.71492513234E+02  0.12288723858E+01 -0.41271729477E+02  0.82665093176E+02  0.41800000000E+01 0.  1.
</event>
<event>
11    1  0.8037748E-009  0.1376110E+03  0.7561462E-02  0.1110256E+00
         22   -1    0    0    0    0  0.00000000000E+00  0.00000000000E+00  0.28220668097E+03  0.28220668097E+03  0.00000000000E+00 0.  1.
         22   -1    0    0    0    0 -0.00000000000E+00 -0.00000000000E+00 -0.31966534299E+03  0.31966534299E+03  0.00000000000E+00 0.  1.
        -24    2    1    2    0    0 -0.40077044868E+02 -0.10113009146E+01 -0.20905395884E+03  0.22682563017E+03  0.78352514572E+02 0.  0.
         25    2    1    2    0    0  0.80042882263E+01  0.51189133353E+02 -0.39456544919E+02  0.14103101314E+03  0.12509409149E+03 0.  0.
         24    2    1    2    0    0  0.32072756642E+02 -0.50177832438E+02  0.21105184175E+03  0.23401538066E+03  0.81693585375E+02 0.  0.
        -11    1    5    5    0    0  0.30670514791E+02 -0.36718284328E+02  0.21472743827E+03  0.21999269449E+03  0.00000000000E+00 0.  1.
         12    1    5    5    0    0  0.14022418508E+01 -0.13459548110E+02 -0.36755965241E+01  0.14022686167E+02  0.00000000000E+00 0. -1.
         13    1    3    3    0    0  0.59276012735E+01  0.31016584346E+02 -0.85691093349E+02  0.91324303669E+02  0.00000000000E+00 0. -1.
        -14    1    3    3    0    0 -0.46004646141E+02 -0.32027885260E+02 -0.12336286549E+03  0.13550132650E+03  0.00000000000E+00 0.  1.
          5    1    4    4  501    0  0.42207200555E+02  0.76416574275E+01  0.29699553446E+02  0.52339073185E+02  0.41800000000E+01 0.  1.
         -5    1    4    4    0  501 -0.34202912329E+02  0.43547475925E+02 -0.69156098364E+02  0.88691939950E+02  0.41800000000E+01 0.  1.
</event>
<event>
11    1  0.8037748E-009  0.2329103E+03  0.7561462E-02  0.1033419E+00
         22   -1    0    0    0    0  0.00000000000E+00  0.00000000000E+00  0.31747425424E+03  0.31747425424E+03  0.00000000000E+00 0. -1.
         22   -1    0    0    0    0 -0.00000000000E+00 -0.00000000000E+00 -0.14851931359E+04  0.14851931359E+04  0.00000000000E+00 0. -1.
        -24    2    1    2    0    0 -0.19453461319E+03 -0.18363214978E+02 -0.12810831570E+04  0.12983471372E+04  0.79688833175E+02 0.  0.
         25    2    1    2    0    0  0.23219121014E+03 -0.14820058904E+03  0.74500558401E+02  0.31156714410E+03  0.12509028509E+03 0.  0.
         24    2    1    2    0    0 -0.37656596949E+02  0.16656380402E+03  0.38863716975E+02  0.19275310881E+03  0.80509951892E+02 0.  0.
        -13    1    5    5    0    0 -0.53230912763E+02  0.57018337271E+02  0.12374235592E+02  0.78979380633E+02  0.00000000000E+00 0.  1.
         14    1    5    5    0    0  0.15574315814E+02  0.10954546675E+03  0.26489481384E+02  0.11377372817E+03  0.00000000000E+00 0. -1.
         13    1    3    3    0    0 -0.19823458657E+03 -0.28317411142E+02 -0.12046939296E+04  0.12212232765E+04  0.00000000000E+00 0. -1.
        -14    1    3    3    0    0  0.36999733779E+01  0.99541961633E+01 -0.76389227412E+02  0.77123860697E+02  0.00000000000E+00 0.  1.
          5    1    4    4  501    0  0.10374450385E+03 -0.53987903667E+02  0.95228295772E+02  0.15087583152E+03  0.41800000000E+01 0. -1.
         -5    1    4    4    0  501  0.12844670629E+03 -0.94212685374E+02 -0.20727737371E+02  0.16069131258E+03  0.41800000000E+01 0. -1.
</event>
<event>
11    1  0.8037748E-009  0.3583951E+03  0.7561462E-02  0.9781178E-01
         22   -1    0    0    0    0  0.00000000000E+00  0.00000000000E+00  0.34578588027E+03  0.34578588027E+03  0.00000000000E+00 0.  1.
         22   -1    0    0    0    0 -0.00000000000E+00 -0.00000000000E+00 -0.12227696756E+04  0.12227696756E+04  0.00000000000E+00 0.  1.
        -24    2    1    2    0    0 -0.15692907570E+03  0.29027548919E+03 -0.80583637367E+03  0.87440159580E+03  0.79493994644E+02 0.  0.
         25    2    1    2    0    0  0.30546654180E+03 -0.23008902964E+03 -0.22269779658E+03  0.45988579146E+03  0.12509941190E+03 0.  0.
         24    2    1    2    0    0 -0.14853746610E+03 -0.60186459548E+02  0.15155037488E+03  0.23426816867E+03  0.78919389102E+02 0.  0.
        -11    1    5    5    0    0 -0.63712942202E+02 -0.11597372455E+02  0.15240807591E+02  0.66529093394E+02  0.00000000000E+00 0.  1.
         12    1    5    5    0    0 -0.84824523897E+02 -0.48589087093E+02  0.13630956729E+03  0.16773907527E+03  0.00000000000E+00 0. -1.
         11    1    3    3    0    0  0.85881589569E+00  0.54693326772E+02 -0.10532970421E+03  0.11868632671E+03  0.00000000000E+00 0. -1.
        -12    1    3    3    0    0 -0.15778789160E+03  0.23558216242E+03 -0.70050666946E+03  0.75571526909E+03  0.00000000000E+00 0.  1.
          5    1    4    4  501    0  0.23657181852E+03 -0.12606037174E+03 -0.19631033279E+03  0.33228400774E+03  0.41800000000E+01 0. -1.
         -5    1    4    4    0  501  0.68894723285E+02 -0.10402865791E+03 -0.26387463790E+02  0.12760178372E+03  0.41800000000E+01 0. -1.
</event>
<event>
11    1  0.8037748E-009  0.1530000E+03  0.7561462E-02  0.1093852E+00
         22   -1    0    0    0    0  0.00000000000E+00  0.00000000000E+00  0.48478049819E+03  0.48478049819E+03  0.00000000000E+00 0.  1.
         22   -1    0    0    0    0 -0.00000000000E+00 -0.00000000000E+00 -0.16598536889E+04  0.16598536889E+04  0.00000000000E+00 0. -1.
         24    2    1    2    0    0 -0.51271539492E+02  0.50937246992E+02 -0.14394186322E+04  0.14434850646E+04  0.80621083651E+02 0.  0.
         25    2    1    2    0    0  0.11720153931E+03 -0.10519063081E+03 -0.16204083388E+03  0.25827515149E+03  0.12509017711E+03 0.  0.
        -24    2    1    2    0    0 -0.65929999815E+02  0.54253383814E+02  0.42638627538E+03  0.44287397098E+03  0.83916052156E+02 0.  0.
        -13    1    3    3    0    0 -0.42783071277E+02  0.55136515675E+02 -0.60487017818E+03  0.60888287790E+03  0.00000000000E+00 0.  1.
         14    1    3    3    0    0 -0.84884682154E+01 -0.41992686829E+01 -0.83454845406E+03  0.83460218675E+03  0.00000000000E+00 0. -1.
         11    1    5    5    0    0 -0.70200599140E+02  0.11213235105E+02  0.19673705997E+03  0.20918731206E+03  0.00000000000E+00 0. -1.
        -12    1    5    5    0    0  0.42705993250E+01  0.43040148709E+02  0.22964921541E+03  0.23368665892E+03  0.00000000000E+00 0.  1.
          5    1    4    4  501    0  0.54239214885E+02  0.17866896685E+02 -0.76896144597E+02  0.95872873548E+02  0.41800000000E+01 0. -1.
         -5    1    4    4    0  501  0.62962324422E+02 -0.12305752749E+03 -0.85144689284E+02  0.16240227795E+03  0.41800000000E+01 0. -1.
</event>
<event>
11    1  0.8037748E-009  0.2032583E+03  0.7561462E-02  0.1052243E+00
         22   -1    0    0    0    0  0.00000000000E+00  0.00000000000E+00  0.21691415839E+04  0.21691415839E+04  0.00000000000E+00 0.  1.
         22   -1    0    0    0    0 -0.00000000000E+00 -0.00000000000E+00 -0.55030519414E+02  0.55030519414E+02  0.00000000000E+00 0.  1.
        -24    2    1    2    0    0  0.11631745898E+03 -0.62418583144E+02  0.21972072437E+03  0.26520088162E+03  0.68032934024E+02 0.  0.
         25    2    1    2    0    0 -0.17710869304E+03  0.16007440497E+03  0.61122492695E+03  0.66800988345E+03  0.12509991523E+03 0.  0.
         24    2    1    2    0    0  0.60791234062E+02 -0.97655821823E+02  0.12831654131E+04  0.12909613382E+04  0.82676874646E+02 0.  0.
        -13    1    5    5    0    0  0.67707232638E+02 -0.98019704591E+02  0.91401010868E+03  0.92174107569E+03  0.00000000000E+00 0.  1.
         14    1    5    5    0    0 -0.69159985765E+01  0.36388276789E+00  0.36915530446E+03  0.36922026253E+03  0.00000000000E+00 0. -1.
         13    1    3    3    0    0  0.57723816807E+02  0.17638538997E+01  0.11826722323E+03  0.13161415690E+03  0.00000000000E+00 0. -1.
        -14    1    3    3    0    0  0.58593642168E+02 -0.64182437044E+02  0.10145350114E+03  0.13358672472E+03  0.00000000000E+00 0.  1.
          5    1    4    4  501    0 -0.20485304220E+01 -0.12776207562E+02  0.63535553526E+01  0.15008931413E+02  0.41800000000E+01 0.  1.
         -5    1    4    4    0  501 -0.17506016261E+03  0.17285061253E+03  0.60487137159E+03  0.65300095204E+03  0.41800000000E+01 0.  1.
</event>
<event>
11    1  0.8037748E-009  0.1321243E+03  0.7561462E-02  0.1116686E+00
         22   -1    0    0    0    0  0.00000000000E+00  0.00000000000E+00  0.37805798878E+03  0.37805798878E+03  0.00000000000E+00 0. -1.
         22   -1    0    0    0    0 -0.00000000000E+00 -0.00000000000E+00 -0.48830080128E+03  0.48830080128E+03  0.00000000000E+00 0. -1.
        -24    2    1    2    0    0 -0.15420354624E+02  0.39846997706E+02 -0.43603242670E+03  0.44547342611E+03  0.80602268397E+02 0.  0.
         25    2    1    2    0    0  0.27123953395E+02 -0.30329016777E+02  0.60821394699E+02  0.14492438648E+03  0.12509307590E+03 0.  0.
         24    2    1    2    0    0 -0.11703598771E+02 -0.95179809293E+01  0.26496821950E+03  0.27596097747E+03  0.75622335023E+02 0.  0.
        -11    1    5    5    0    0  0.24692114332E+02 -0.15824364501E+02  0.51028776570E+02  0.58856155670E+02  0.00000000000E+00 0.  1.
         12    1    5    5    0    0 -0.36395713104E+02  0.63063835719E+01  0.21393944293E+03  0.21710482180E+03  0.00000000000E+00 0. -1.
         11    1    3    3    0    0 -0.38504503335E+02  0.43774942791E+02 -0.38418814788E+03  0.38858638082E+03  0.00000000000E+00 0. -1.
        -12    1    3    3    0    0  0.23084148711E+02 -0.39279450848E+01 -0.51844278827E+02  0.56887045286E+02  0.00000000000E+00 0.  1.
          5    1    4    4  501    0  0.46644368146E+02 -0.38526437132E+02  0.90066364117E+02  0.10857903013E+03  0.41800000000E+01 0. -1.
         -5    1    4    4    0  501 -0.19520414750E+02  0.81974203556E+01 -0.29244969418E+02  0.36345356358E+02  0.41800000000E+01 0. -1.
</event>
<event>
11    1  0.8037748E-009  0.1346554E+03  0.7561462E-02  0.1113678E+00
         22   -1    0    0    0    0  0.00000000000E+00  0.00000000000E+00  0.29686223454E+03  0.29686223454E+03  0.00000000000E+00 0. -1.
         22   -1    0    0    0    0 -0.00000000000E+00 -0.00000000000E+00 -0.52340587852E+03  0.52340587852E+03  0.00000000000E+00 0.  1.
         24    2    1    2    0    0 -0.63707173990E+01  0.27524150815E+02 -0.45283766014E+03  0.46029988083E+03  0.77562032793E+02 0.  0.
         25    2    1    2    0    0  0.53764987700E+02 -0.11285378668E+02  0.26996297863E+02  0.13926581222E+03  0.12509249650E+03 0.  0.
        -24    2    1    2    0    0 -0.47394270301E+02 -0.16238772148E+02  0.19929771830E+03  0.22070242000E+03  0.80498839107E+02 0.  0.
        -11    1    3    3    0    0 -0.12176506675E+02  0.23488282713E+02 -0.45244538672E+03  0.45321826386E+03  0.00000000000E+00 0.  1.
         12    1    3    3    0    0  0.58057892756E+01  0.40358681020E+01 -0.39227342910E+00  0.70816169688E+01  0.00000000000E+00 0. -1.
         11    1    5    5    0    0 -0.30155890649E+02 -0.16187211098E+02  0.20052070063E+03  0.20342063545E+03  0.00000000000E+00 0. -1.
        -12    1    5    5    0    0 -0.17238379652E+02 -0.51561049781E-01 -0.12229823346E+01  0.17281784553E+02  0.00000000000E+00 0.  1.
          5    1    4    4  501    0  0.59986953937E+02  0.90993893922E+01  0.69001477285E+02  0.91977767952E+02  0.41800000000E+01 0.  1.
         -5    1    4    4    0  501 -0.62219662372E+01 -0.20384768060E+02 -0.42005179422E+02  0.47288044271E+02  0.41800000000E+01 0.  1.
</event>
<event>
11    1  0.8037748E-009  0.1407002E+03  0.7561462E-02  0.1106779E+00
         22   -1    0    0    0    0  0.00000000000E+00  0.00000000000E+00  0.58353135858E+02  0.58353135858E+02  0.00000000000E+00 0. -1.
         22   -1    0    0    0    0 -0.00000000000E+00 -0.00000000000E+00 -0.18063158545E+04  0.18063158545E+04  0.00000000000E+00 0.  1.
        -24    2    1    2    0    0 -0.54603256864E+01  0.29261650453E+02 -0.13629299237E+04  0.13656124361E+04  0.80207788635E+02 0.  0.
         25    2    1    2    0    0  0.60521232721E+02  0.69175133637E+01 -0.37081817450E+03  0.39605318866E+03  0.12506533535E+03 0.  0.
         24    2    1    2    0    0 -0.55060907035E+02 -0.36179163817E+02 -0.14214620486E+02  0.10300336565E+03  0.77890965594E+02 0.  0.
        -11    1    5    5    0    0 -0.21399965839E+02 -0.45746248782E+02 -0.35783459679E+02  0.61896153371E+02  0.00000000000E+00 0.  1.
         12    1    5    5    0    0 -0.33660941196E+02  0.95670849655E+01  0.21568839194E+02  0.41107212276E+02  0.00000000000E+00 0. -1.
         11    1    3    3    0    0  0.17654398789E+02  0.38780357893E+02 -0.38286591475E+03  0.38522967517E+03  0.00000000000E+00 0. -1.
        -12    1    3    3    0    0 -0.23114724476E+02 -0.95187074398E+01 -0.98006400894E+03  0.98038276092E+03  0.00000000000E+00 0.  1.
          5    1    4    4  501    0  0.52817570365E+02  0.51785334750E+02 -0.11943936631E+03  0.14055124069E+03  0.41800000000E+01 0. -1.
         -5    1    4    4    0  501  0.77036623558E+01 -0.44867821386E+02 -0.25137880819E+03  0.25550194797E+03  0.41800000000E+01 0. -1.
</event>
<event>
11    1  0.8037748E-009  0.2001850E+03  0.7561462E-02  0.1054393E+00
         22   -1    0    0    0    0  0.00000000000E+00  0.00000000000E+00  0.15141131583E+03  0.15141131583E+03  0.00000000000E+00 0. -1.
         22   -1    0    0    0    0 -0.00000000000E+00 -0.00000000000E+00 -0.33905482091E+04  0.33905482091E+04  0.00000000000E+00 0.  1.
         24    2    1    2    0    0  0.86204434711E+02  0.13591203628E+03 -0.28400935814E+04  0.28457708041E+04  0.79853819122E+02 0.  0.
         25    2    1    2    0    0 -0.11839674317E+03 -0.75410148144E+02 -0.50928100446E+03  0.54288039620E+03  0.12508998298E+03 0.  0.
        -24    2    1    2    0    0  0.32192308462E+02 -0.60501888132E+02  0.11023769253E+03  0.15330832464E+03  0.81573711188E+02 0.  0.
        -11    1    3    3    0    0  0.26017388175E+02  0.10972180125E+03 -0.19524478326E+04  0.19557014898E+04  0.00000000000E+00 0.  1.
         12    1    3    3    0    0  0.60187046537E+02  0.26190235027E+02 -0.88764574877E+03  0.89006931432E+03  0.00000000000E+00 0. -1.
         11    1    5    5    0    0  0.28014667696E+02 -0.51335192950E+02  0.12350412215E+03  0.13665061958E+03  0.00000000000E+00 0. -1.
        -12    1    5    5    0    0  0.41776407665E+01 -0.91666951820E+01 -0.13266429624E+02  0.16657705061E+02  0.00000000000E+00 0.  1.
          5    1    4    4  501    0  0.20631033915E+02  0.58544232372E+01 -0.29039599192E+02  0.36341223880E+02  0.41800000000E+01 0. -1.
         -5    1    4    4    0  501 -0.13902777709E+03 -0.81264571381E+02 -0.48024140527E+03  0.50653917232E+03  0.41800000000E+01 0. -1.
</event>
<event>
11    1  0.8037748E-009  0.1694688E+03  0.7561462E-02  0.1078495E+00
         22   -1    0    0    0    0  0.00000000000E+00  0.00000000000E+00  0.14169813607E+04  0.14169813607E+04  0.00000000000E+00 0.  1.
         22   -1    0    0    0    0 -0.00000000000E+00 -0.00000000000E+00 -0.26733524123E+03  0.26733524123E+03  0.00000000000E+00 0. -1.
         24    2    1    2    0    0  0.58080144946E+01 -0.24257846308E+02 -0.21358526641E+03  0.22329465300E+03  0.60163609364E+02 0.  0.
         25    2    1    2    0    0  0.67497978331E+02  0.11035656585E+03  0.13641840661E+03  0.22580295656E+03  0.12506975983E+03 0.  0.
        -24    2    1    2    0    0 -0.73305992826E+02 -0.86098719545E+02  0.12268129792E+04  0.12352189923E+04  0.88933204722E+02 0.  0.
        -13    1    3    3    0    0 -0.21010138031E+02 -0.18047999771E+01 -0.31675419440E+02  0.38052797528E+02  0.00000000000E+00 0.  1.
         14    1    3    3    0    0  0.26818152525E+02 -0.22453046331E+02 -0.18190984697E+03  0.18524185547E+03  0.00000000000E+00 0. -1.
         11    1    5    5    0    0 -0.32967880259E+02 -0.95400813455E+02  0.78287628552E+03  0.78935636741E+03  0.00000000000E+00 0. -1.
        -12    1    5    5    0    0 -0.40338112567E+02  0.93020939097E+01  0.44393669372E+03  0.44586262493E+03  0.00000000000E+00 0.  1.
          5    1    4    4  501    0  0.71956302330E+02  0.29723431841E+02  0.12028826633E+03  0.14334549614E+03  0.41800000000E+01 0. -1.
         -5    1    4    4    0  501 -0.44583239990E+01  0.80633134012E+02  0.16130140272E+02  0.82457460418E+02  0.41800000000E+01 0. -1.
</event>
<event>
11    1  0.8037748E-009  0.1386351E+03  0.7561462E-02  0.1109092E+00
         22   -1    0    0    0    0  0.00000000000E+00  0.00000000000E+00  0.64440015981E+03  0.64440015981E+03  0.00000000000E+00 0.  1.
         22   -1    0    0    0    0 -0.00000000000E+00 -0.00000000000E+00 -0.11538225581E+03  0.11538225581E+03  0.00000000000E+00 0. -1.
         24    2    1    2    0    0  0.39410462417E+02  0.34472340774E+02 -0.33746786364E+02  0.10124822262E+03  0.79817480340E+02 0.  0.
         25    2    1    2    0    0 -0.49414121830E+02 -0.88654038623E+02  0.10988223840E+03  0.19499186486E+03  0.12508567883E+03 0.  0.
        -24    2    1    2    0    0  0.10003659413E+02  0.54181697848E+02  0.45288245197E+03  0.46354232814E+03  0.82056353162E+02 0.  0.
        -11    1    3    3    0    0 -0.16571070405E+02  0.57433253127E+01  0.13853051867E+02  0.22349344644E+02  0.00000000000E+00 0.  1.
         12    1    3    3    0    0  0.55981532822E+02  0.28729015462E+02 -0.47599838231E+02  0.78898877978E+02  0.00000000000E+00 0. -1.
         11    1    5    5    0    0 -0.14081498726E+02 -0.35855338374E+01  0.13859476644E+02  0.20080581469E+02  0.00000000000E+00 0. -1.
        -12    1    5    5    0    0  0.24085158139E+02  0.57767231686E+02  0.43902297532E+03  0.44346174667E+03  0.00000000000E+00 0.  1.
          5    1    4    4  501    0 -0.17077898003E+02 -0.23088228174E+02  0.11781620756E+03  0.12133776017E+03  0.41800000000E+01 0. -1.
         -5    1    4    4    0  501 -0.32336223827E+02 -0.65565810448E+02 -0.79339691599E+01  0.73654104691E+02  0.41800000000E+01 0. -1.
</event>
<event>
11    1  0.8037748E-009  0.1782750E+03  0.7561462E-02  0.1071047E+00
         22   -1    0    0    0    0  0.00000000000E+00  0.00000000000E+00  0.11226858776E+04  0.11226858776E+04  0.00000000000E+00 0. -1.
         22   -1    0    0    0    0 -0.00000000000E+00 -0.00000000000E+00 -0.11366312544E+04  0.11366312544E+04  0.00000000000E+00 0.  1.
        -24    2    1    2    0    0 -0.62163229345E+02 -0.66067221701E+02 -0.10541359405E+04  0.10610732978E+04  0.80279620183E+02 0.  0.
         25    2    1    2    0    0  0.34012035278E+02  0.18584436467E+03  0.10297843544E+03  0.24889165941E+03  0.12509018162E+03 0.  0.
         24    2    1    2    0    0  0.28151194067E+02 -0.11977714297E+03  0.93721212830E+03  0.94935217480E+03  0.88113135640E+02 0.  0.
        -13    1    5    5    0    0  0.24872215881E+02 -0.42899186842E+02  0.14167886390E+03  0.15010618852E+03  0.00000000000E+00 0.  1.
         14    1    5    5    0    0  0.32789781863E+01 -0.76877956125E+02  0.79553326439E+03  0.79924598629E+03  0.00000000000E+00 0. -1.
         11    1    3    3    0    0 -0.69147524308E+02 -0.31121754508E+02 -0.49202521400E+03  0.49783406366E+03  0.00000000000E+00 0. -1.
        -12    1    3    3    0    0  0.69842949622E+01 -0.34945467194E+02 -0.56211072646E+03  0.56323923413E+03  0.00000000000E+00 0.  1.
          5    1    4    4  501    0 -0.80061361851E+01  0.16307144315E+03  0.37247335620E+02  0.16751486560E+03  0.41800000000E+01 0. -1.
         -5    1    4    4    0  501  0.42018171463E+02  0.22772921523E+02  0.65731099819E+02  0.81376793813E+02  0.41800000000E+01 0. -1.
</event>
<event>
11    1  0.8037748E-009  0.3140066E+03  0.7561462E-02  0.9944316E-01
         22   -1    0    0    0    0  0.00000000000E+00  0.00000000000E+00  0.28274351948E+03  0.28274351948E+03  0.00000000000E+00 0.  1.
         22   -1    0    0    0    0 -0.00000000000E+00 -0.00000000000E+00 -0.18461984036E+04  0.18461984036E+04  0.00000000000E+00 0.  1.
         24    2    1    2    0    0  0.86824482436E+02  0.63278662937E+02 -0.12172776227E+04  0.12247943095E+04  0.82544592430E+02 0.  0.
         25    2    1    2    0    0 -0.35379948781E+03 -0.11851363522E+03 -0.45397392559E+03  0.60079867529E+03  0.12508862381E+03 0.  0.
        -24    2    1    2    0    0  0.26697500537E+03  0.55234972280E+02  0.10779666417E+03  0.30334893835E+03  0.77935241929E+02 0.  0.
        -13    1    3    3    0    0  0.24810741525E+01  0.39116045096E+02 -0.60428566249E+03  0.60555543314E+03  0.00000000000E+00 0.  1.
         14    1    3    3    0    0  0.84343408284E+02  0.24162617841E+02 -0.61299196024E+03  0.61923887632E+03  0.00000000000E+00 0. -1.
         13    1    5    5    0    0  0.45588711733E+02  0.76844756906E+01 -0.11172549664E+02  0.47562670974E+02  0.00000000000E+00 0. -1.
        -14    1    5    5    0    0  0.22138629364E+03  0.47550496590E+02  0.11896921384E+03  0.25578626738E+03  0.00000000000E+00 0.  1.
          5    1    4    4  501    0 -0.11450780294E+03 -0.31447269903E+02 -0.24143191036E+03  0.26908698865E+03  0.41800000000E+01 0.  1.
         -5    1    4    4    0  501 -0.23929168487E+03 -0.87066365314E+02 -0.21254201523E+03  0.33171168664E+03  0.41800000000E+01 0.  1.
</event>
<event>
11    1  0.8037748E-009  0.1298083E+03  0.7561462E-02  0.1119505E+00
         22   -1    0    0    0    0  0.00000000000E+00  0.00000000000E+00  0.10807166431E+04  0.10807166431E+04  0.00000000000E+00 0. -1.
         22   -1    0    0    0    0 -0.00000000000E+00 -0.00000000000E+00 -0.19436086534E+04  0.19436086534E+04  0.00000000000E+00 0. -1.
         24    2    1    2    0    0  0.26814631155E+02 -0.21689031263E+02 -0.18948487811E+04  0.18968927305E+04  0.80998080860E+02 0.  0.
         25    2    1    2    0    0 -0.51373610577E+02  0.21900266082E+02  0.56065807741E+02  0.14801959753E+03  0.12509019520E+03 0.  0.
        -24    2    1    2    0    0  0.24558979422E+02 -0.21123481927E+00  0.97589096313E+03  0.97941296853E+03  0.79267918549E+02 0.  0.
        -11    1    3    3    0    0  0.11357204640E-02 -0.30211936840E+02 -0.25221987039E+03  0.25402288115E+03  0.00000000000E+00 0.  1.
         12    1    3    3    0    0  0.26813495434E+02  0.85229055767E+01 -0.16426289107E+04  0.16428698493E+04  0.00000000000E+00 0. -1.
         13    1    5    5    0    0  0.38102432146E+02 -0.30963696800E+02  0.53886544379E+03  0.54109750727E+03  0.00000000000E+00 0. -1.
        -14    1    5    5    0    0 -0.13543452724E+02  0.30752461981E+02  0.43702551933E+03  0.43831546126E+03  0.00000000000E+00 0.  1.
          5    1    4    4  501    0 -0.70276493977E+02 -0.46559980345E+01 -0.12807343281E+02  0.71707491695E+02  0.41800000000E+01 0. -1.
         -5    1    4    4    0  501  0.18902883399E+02  0.26556264117E+02  0.68873151023E+02  0.76312105831E+02  0.41800000000E+01 0. -1.
</event>
<event>
11    1  0.8037748E-009  0.1443436E+03  0.7561462E-02  0.1102803E+00
         22   -1    0    0    0    0  0.00000000000E+00  0.00000000000E+00  0.11034303037E+04  0.11034303037E+04  0.00000000000E+00 0.  1.
         22   -1    0    0    0    0 -0.00000000000E+00 -0.00000000000E+00 -0.48566619142E+03  0.48566619142E+03  0.00000000000E+00 0.  1.
         24    2    1    2    0    0 -0.20122036343E+02  0.49392698027E+02 -0.19980009861E+03  0.22176594587E+03  0.80096943607E+02 0.  0.
         25    2    1    2    0    0  0.76498506464E+02 -0.93475747689E+02 -0.24437546678E+03  0.29992743307E+03  0.12508940582E+03 0.  0.
        -24    2    1    2    0    0 -0.56376470121E+02  0.44083049662E+02  0.10619396777E+04  0.10674031162E+04  0.80696417263E+02 0.  0.
        -11    1    3    3    0    0  0.53871505596E+01  0.65672350297E+02 -0.14092676001E+03  0.15557066134E+03  0.00000000000E+00 0.  1.
         12    1    3    3    0    0 -0.25509186903E+02 -0.16279652270E+02 -0.58873338604E+02  0.66195284522E+02  0.00000000000E+00 0. -1.
         13    1    5    5    0    0 -0.31479286650E+02  0.70849880302E+01  0.11575378948E+03  0.12016689362E+03  0.00000000000E+00 0. -1.
        -14    1    5    5    0    0 -0.24897183471E+02  0.36998061632E+02  0.94618588820E+03  0.94723622256E+03  0.00000000000E+00 0.  1.
          5    1    4    4  501    0 -0.21082946986E+02 -0.12509816028E+02 -0.11896939122E+03  0.12154083510E+03  0.41800000000E+01 0. -1.
         -5    1    4    4    0  501  0.97581453451E+02 -0.80965931661E+02 -0.12540607556E+03  0.17838659797E+03  0.41800000000E+01 0. -1.
</event>
<event>
11    1  0.8037748E-009  0.1430048E+03  0.7561462E-02  0.1104249E+00
         22   -1    0    0    0    0  0.00000000000E+00  0.00000000000E+00  0.13113724382E+04  0.13113724382E+04  0.00000000000E+00 0. -1.
         22   -1    0    0    0    0 -0.00000000000E+00 -0.00000000000E+00 -0.14571631065E+04  0.14571631065E+04  0.00000000000E+00 0.  1.
        -24    2    1    2    0    0 -0.24289026587E+02 -0.64346530120E+02 -0.92897530388E+03  0.93511606039E+03  0.81954245984E+02 0.  0.
         25    2    1    2    0    0 -0.11048540774E+02  0.12376720862E+03 -0.50802455192E+03  0.53774981628E+03  0.12508208254E+03 0.  0.
         24    2    1    2    0    0  0.35337567361E+02 -0.59420678503E+02  0.12912091875E+04  0.12956696681E+04  0.82214124020E+02 0.  0.
        -11    1    5    5    0    0  0.27260971203E+02  0.15833297567E+02  0.34406963649E+03  0.34551088061E+03  0.00000000000E+00 0.  1.
         12    1    5    5    0    0  0.80765961572E+01 -0.75253976071E+02  0.94713955100E+03  0.95015878746E+03  0.00000000000E+00 0. -1.
         11    1    3    3    0    0  0.25432052375E+02 -0.42039688658E+01 -0.34307929767E+03  0.34404631539E+03  0.00000000000E+00 0. -1.
        -12    1    3    3    0    0 -0.49721078962E+02 -0.60142561254E+02 -0.58589600621E+03  0.59106974500E+03  0.00000000000E+00 0.  1.
          5    1    4    4  501    0  0.18850569850E+02  0.36879198857E+02 -0.36716145424E+03  0.36951376858E+03  0.41800000000E+01 0.  1.
         -5    1    4    4    0  501 -0.29899110623E+02  0.86888009766E+02 -0.14086309768E+03  0.16823604770E+03  0.41800000000E+01 0.  1.
</event>
<event>
11    1  0.8037748E-009  0.1438017E+03  0.7561462E-02  0.1103386E+00
         22   -1    0    0    0    0  0.00000000000E+00  0.00000000000E+00  0.37215911222E+03  0.37215911222E+03  0.00000000000E+00 0. -1.
         22   -1    0    0    0    0 -0.00000000000E+00 -0.00000000000E+00 -0.14800850987E+04  0.14800850987E+04  0.00000000000E+00 0.  1.
        -24    2    1    2    0    0  0.39964670988E+02 -0.17576918440E-02 -0.13614399995E+04  0.13643939803E+04  0.80342307274E+02 0.  0.
         25    2    1    2    0    0  0.32429158535E+02  0.15331079104E+02 -0.68792206586E+02  0.14719206924E+03  0.12508575158E+03 0.  0.
         24    2    1    2    0    0 -0.72393829523E+02 -0.15329321412E+02  0.32230621965E+03  0.34065816133E+03  0.81797487765E+02 0.  0.
        -11    1    5    5    0    0 -0.83184131872E+01  0.19129281111E+02  0.17315222838E+02  0.27109819913E+02  0.00000000000E+00 0.  1.
         12    1    5    5    0    0 -0.64075416336E+02 -0.34458602523E+02  0.30499099681E+03  0.31354834141E+03  0.00000000000E+00 0. -1.
         13    1    3    3    0    0 -0.50090650321E+01  0.18109727658E+02 -0.85816843272E+02  0.87849778358E+02  0.00000000000E+00 0. -1.
        -14    1    3    3    0    0  0.44973736020E+02 -0.18111485350E+02 -0.12756231562E+04  0.12765442020E+04  0.00000000000E+00 0.  1.
          5    1    4    4  501    0 -0.13018405719E+02  0.93451349074E+01  0.32197334189E+02  0.36207059570E+02  0.41800000000E+01 0. -1.
         -5    1    4    4    0  501  0.45447564254E+02  0.59859441968E+01 -0.10098954077E+03  0.11098500967E+03  0.41800000000E+01 0. -1.
</event>
<event>
11    1  0.8037748E-009  0.1373341E+03  0.7561462E-02  0.1110572E+00
         22   -1    0    0    0    0  0.00000000000E+00  0.00000000000E+00  0.12336792938E+04  0.12336792938E+04  0.00000000000E+00 0.  1.
         22   -1    0    0    0    0 -0.00000000000E+00 -0.00000000000E+00 -0.36396561571E+03  0.36396561571E+03  0.00000000000E+00 0.  1.
        -24    2    1    2    0    0  0.40044355428E+02 -0.33606266484E+02 -0.26195089506E+03  0.27812403784E+03  0.77471139504E+02 0.  0.
         25    2    1    2    0    0 -0.13380944354E+02 -0.17734903994E+02 -0.47916690672E+02  0.13574516514E+03  0.12504864702E+03 0.  0.
         24    2    1    2    0    0 -0.26663411075E+02  0.51341170479E+02  0.11795812639E+04  0.11837757066E+04  0.81031550370E+02 0.  0.
        -13    1    5    5    0    0 -0.28125428419E+02  0.18287946752E+02  0.10314113940E+04  0.10319568558E+04  0.00000000000E+00 0.  1.
         14    1    5    5    0    0  0.14620173448E+01  0.33053223727E+02  0.14816986990E+03  0.15181885074E+03  0.00000000000E+00 0. -1.
         11    1    3    3    0    0  0.58406586360E+02 -0.32946160910E+02 -0.14520974811E+03  0.15994577142E+03  0.00000000000E+00 0. -1.
        -12    1    3    3    0    0 -0.18362230931E+02 -0.66010557424E+00 -0.11674114695E+03  0.11817826643E+03  0.00000000000E+00 0.  1.
          5    1    4    4  501    0  0.22935295272E+01 -0.11745942254E+02  0.42159501457E+02  0.44024122935E+02  0.41800000000E+01 0. -1.
         -5    1    4    4    0  501 -0.15674473881E+02 -0.59889617405E+01 -0.90076192129E+02  0.91721042202E+02  0.41800000000E+01 0. -1.
</event>
<event>
11    1  0.8037748E-009  0.2030506E+03  0.7561462E-02  0.1052387E+00
         22   -1    0    0    0    0  0.00000000000E+00  0.00000000000E+00  0.15852914905E+04  0.15852914905E+04  0.00000000000E+00 0.  1.
         22   -1    0    0    0    0 -0.00000000000E+00 -0.00000000000E+00 -0.16091422018E+04  0.16091422018E+04  0.00000000000E+00 0.  1.
        -24    2    1    2    0    0 -0.83202425673E+02  0.81032865386E+02 -0.12366378926E+04  0.12446255046E+04  0.79563812691E+02 0.  0.
         25    2    1    2    0    0  0.19723608716E+03 -0.19086609049E+03 -0.30078731151E+03  0.42597285904E+03  0.12509169156E+03 0.  0.
         24    2    1    2    0    0 -0.11403366148E+03  0.10983322511E+03  0.15135744928E+04  0.15238353288E+04  0.78098338411E+02 0.  0.
        -13    1    5    5    0    0 -0.11318501340E+03  0.62685563915E+02  0.11081203747E+04  0.11156482833E+04  0.00000000000E+00 0.  1.
         14    1    5    5    0    0 -0.84864808023E+00  0.47147661194E+02  0.40545411815E+03  0.40818704546E+03  0.00000000000E+00 0. -1.
         11    1    3    3    0    0  0.39407147189E+01  0.46031789090E+02 -0.46689662918E+03  0.46917685064E+03  0.00000000000E+00 0. -1.
        -12    1    3    3    0    0 -0.87143140392E+02  0.35001076297E+02 -0.76974126344E+03  0.77544865395E+03  0.00000000000E+00 0.  1.
          5    1    4    4  501    0  0.21095681445E+03 -0.16406591998E+03 -0.24567961485E+03  0.36303766914E+03  0.41800000000E+01 0.  1.
         -5    1    4    4    0  501 -0.13720727291E+02 -0.26800170514E+02 -0.55107696657E+02  0.62935189900E+02  0.41800000000E+01 0.  1.
</event>
<event>
11    1  0.8037748E-009  0.1661526E+03  0.7561462E-02  0.1081429E+00
         22   -1    0    0    0    0  0.00000000000E+00  0.00000000000E+00  0.94740350441E+03  0.94740350441E+03  0.00000000000E+00 0. -1.
         22   -1    0    0    0    0 -0.00000000000E+00 -0.00000000000E+00 -0.39089134672E+03  0.39089134672E+03  0.00000000000E+00 0. -1.
        -24    2    1    2    0    0  0.87955037130E+02 -0.65198050576E+02 -0.33032570282E+03  0.36223976443E+03  0.10057684942E+03 0.  0.
         25    2    1    2    0    0 -0.36000099805E+02  0.12863554909E+03  0.16860533648E+03  0.24883401448E+03  0.12508995004E+03 0.  0.
         24    2    1    2    0    0 -0.51954937325E+02 -0.63437498511E+02  0.71823252403E+03  0.72722107222E+03  0.79176370059E+02 0.  0.
        -11    1    5    5    0    0 -0.34208537276E+02 -0.40003941883E+01  0.97644298590E+02  0.10354050523E+03  0.00000000000E+00 0.  1.
         12    1    5    5    0    0 -0.17746400049E+02 -0.59437104323E+02  0.62058822544E+03  0.62368056699E+03  0.00000000000E+00 0. -1.
         11    1    3    3    0    0  0.10033733896E+03 -0.34768972850E+02 -0.29713353872E+03  0.31553890869E+03  0.00000000000E+00 0. -1.
        -12    1    3    3    0    0 -0.12382301831E+02 -0.30429077726E+02 -0.33192164097E+02  0.46700855745E+02  0.00000000000E+00 0.  1.
          5    1    4    4  501    0  0.33010528764E+02 -0.16564986768E+01  0.17335464831E+02  0.37555688491E+02  0.41800000000E+01 0.  1.
         -5    1    4    4    0  501 -0.69010628569E+02  0.13029204776E+03  0.15126987164E+03  0.21127832599E+03  0.41800000000E+01 0.  1.
</event>
<event>
11    1  0.8037748E-009  0.1489296E+03  0.7561462E-02  0.1097978E+00
         22   -1    0    0    0    0  0.00000000000E+00  0.00000000000E+00  0.90778803039E+03  0.90778803039E+03  0.00000000000E+00 0. -1.
         22   -1    0    0    0    0 -0.00000000000E+00 -0.00000000000E+00 -0.18623090602E+04  0.18623090602E+04  0.00000000000E+00 0.  1.
        -24    2    1    2    0    0  0.45779551359E+02  0.66770760342E+02 -0.18166346181E+04  0.18201187318E+04  0.78209719058E+02 0.  0.
         25    2    1    2    0    0 -0.40374896045E+02 -0.58715445771E+02  0.82499041993E+02  0.16592571580E+03  0.12509042902E+03 0.  0.
         24    2    1    2    0    0 -0.54046553139E+01 -0.80553145711E+01  0.77961454629E+03  0.78405264306E+03  0.82738188898E+02 0.  0.
        -11    1    5    5    0    0 -0.13293005454E+02  0.79205657759E+01  0.26205891807E+02  0.30433338982E+02  0.00000000000E+00 0.  1.
         12    1    5    5    0    0  0.78883501400E+01 -0.15975880347E+02  0.75340865449E+03  0.75361930408E+03  0.00000000000E+00 0. -1.
         11    1    3    3    0    0 -0.12340990109E+02  0.70541047241E+00 -0.58903531861E+02  0.60186574138E+02  0.00000000000E+00 0. -1.
        -12    1    3    3    0    0  0.58120541467E+02  0.66065349869E+02 -0.17577310863E+04  0.17599321576E+04  0.00000000000E+00 0.  1.
          5    1    4    4  501    0 -0.45268052470E+02  0.89312637202E-01 -0.18336012112E+02  0.49019244092E+02  0.41800000000E+01 0. -1.
         -5    1    4    4    0  501  0.48931564253E+01 -0.58804758408E+02  0.10083505410E+03  0.11690647171E+03  0.41800000000E+01 0. -1.
</event>
<event>
11    1  0.8037748E-009  0.1365253E+03  0.7561462E-02  0.1111502E+00
         22   -1    0    0    0    0  0.00000000000E+00  0.00000000000E+00  0.13733191729E+04  0.13733191729E+04  0.00000000000E+00 0. -1.
         22   -1    0    0    0    0 -0.00000000000E+00 -0.00000000000E+00 -0.74273264980E+02  0.74273264980E+02  0.00000000000E+00 0. -1.
        -24    2    1    2    0    0  0.23643542997E+01  0.56073169040E+02 -0.95014242188E+00  0.98385805854E+02  0.80802682910E+02 0.  0.
         25    2    1    2    0    0  0.10983974889E+02 -0.49115931299E+02  0.17465906099E+03  0.22064921339E+03  0.12508902978E+03 0.  0.
         24    2    1    2    0    0 -0.13348329188E+02 -0.69572377408E+01  0.11253369894E+04  0.11285574187E+04  0.83856582956E+02 0.  0.
        -13    1    5    5    0    0 -0.26171401783E+02 -0.35099575854E+02  0.36899299961E+03  0.37158142615E+03  0.00000000000E+00 0.  1.
         14    1    5    5    0    0  0.12823072595E+02  0.28142338113E+02  0.75634398976E+03  0.75697599251E+03  0.00000000000E+00 0. -1.
         11    1    3    3    0    0  0.11025226657E+01  0.63089404310E+02 -0.29000071911E+02  0.69444169397E+02  0.00000000000E+00 0. -1.
        -12    1    3    3    0    0  0.12618316340E+01 -0.70162352697E+01  0.28049929490E+02  0.28941636457E+02  0.00000000000E+00 0.  1.
          5    1    4    4  501    0 -0.13235884900E+02 -0.61465425504E+02  0.18164966340E+03  0.19226871767E+03  0.41800000000E+01 0. -1.
         -5    1    4    4    0  501  0.24219859789E+02  0.12349494205E+02 -0.69906024092E+01  0.28380495721E+02  0.41800000000E+01 0. -1.
</event>
<event>
11    1  0.8037748E-009  0.1464027E+03  0.7561462E-02  0.1100612E+00
         22   -1    0    0    0    0  0.00000000000E+00  0.00000000000E+00  0.29353722353E+03  0.29353722353E+03  0.00000000000E+00 0. -1.
         22   -1    0    0    0    0 -0.00000000000E+00 -0.00000000000E+00 -0.10425310977E+04  0.10425310977E+04  0.00000000000E+00 0.  1.
        -24    2    1    2    0    0  0.11291096540E+02 -0.97039636066E+02 -0.86944049184E+03  0.87870069957E+03  0.81510556086E+02 0.  0.
         25    2    1    2    0    0 -0.83049421146E+02  0.65634736310E+02 -0.10762457286E+03  0.19604851313E+03  0.12508735289E+03 0.  0.
         24    2    1    2    0    0  0.71758324606E+02  0.31404899756E+02  0.22807119054E+03  0.26131910852E+03  0.10067613244E+03 0.  0.
        -13    1    5    5    0    0  0.60911174561E+01  0.49317725650E+02  0.14857047709E+03  0.15666054525E+03  0.00000000000E+00 0.  1.
         14    1    5    5    0    0  0.65667207150E+02 -0.17912825894E+02  0.79500713457E+02  0.10465856327E+03  0.00000000000E+00 0. -1.
         13    1    3    3    0    0 -0.30276273404E+02 -0.62394639177E+02 -0.59061977772E+03  0.59467761482E+03  0.00000000000E+00 0. -1.
        -14    1    3    3    0    0  0.41567369944E+02 -0.34644996889E+02 -0.27882071412E+03  0.28402308475E+03  0.00000000000E+00 0.  1.
          5    1    4    4  501    0 -0.76528008140E+02  0.10125495665E+03 -0.77603970697E+02  0.14882523625E+03  0.41800000000E+01 0. -1.
         -5    1    4    4    0  501 -0.65214130070E+01 -0.35620220342E+02 -0.30020602163E+02  0.47223276878E+02  0.41800000000E+01 0. -1.
</event>
<event>
11    1  0.8037748E-009  0.3089176E+03  0.7561462E-02  0.9964862E-01
         22   -1    0    0    0    0  0.00000000000E+00  0.00000000000E+00  0.31211742068E+04  0.31211742068E+04  0.00000000000E+00 0.  1.
         22   -1    0    0    0    0 -0.00000000000E+00 -0.00000000000E+00 -0.14979239373E+04  0.14979239373E+04  0.00000000000E+00 0.  1.
        -24    2    1    2    0    0 -0.84754041677E+02 -0.51543131375E+02 -0.12722767087E+04  0.12786784375E+04  0.80564142329E+02 0.  0.
         25    2    1    2    0    0  0.19119703833E+03 -0.21061164782E+03 -0.10339243887E+03  0.32749269183E+03  0.12509153898E+03 0.  0.
         24    2    1    2    0    0 -0.10644299665E+03  0.26215477920E+03  0.29989194171E+04  0.30129270148E+04  0.64469268086E+02 0.  0.
        -13    1    5    5    0    0 -0.80461127191E+02  0.14927200014E+03  0.20402119463E+04  0.20472471539E+04  0.00000000000E+00 0.  1.
         14    1    5    5    0    0 -0.25981869463E+02  0.11288277906E+03  0.95870747072E+03  0.96567986090E+03  0.00000000000E+00 0. -1.
         13    1    3    3    0    0  0.43303975066E+01 -0.13886574129E+02 -0.39153934472E+02  0.41768646953E+02  0.00000000000E+00 0. -1.
        -14    1    3    3    0    0 -0.89084439183E+02 -0.37656557247E+02 -0.12331227743E+04  0.12369097906E+04  0.00000000000E+00 0.  1.
          5    1    4    4  501    0  0.58869917396E+02  0.33716020973E+01 -0.19375000649E+02  0.62208503640E+02  0.41800000000E+01 0. -1.
         -5    1    4    4    0  501  0.13232712093E+03 -0.21398324992E+03 -0.84017438218E+02  0.26528418819E+03  0.41800000000E+01 0. -1.
</event>
<event>
11    1  0.8037748E-009  0.1260974E+03  0.7561462E-02  0.1124159E+00
         22   -1    0    0    0    0  0.00000000000E+00  0.00000000000E+00  0.13227643352E+03  0.13227643352E+03  0.00000000000E+00 0. -1.
         22   -1    0    0    0    0 -0.00000000000E+00 -0.00000000000E+00 -0.12992570604E+04  0.12992570604E+04  0.00000000000E+00 0.  1.
        -24    2    1    2    0    0  0.29836325790E+01  0.10627490475E+02 -0.97799575074E+03  0.98140707420E+03  0.81008093467E+02 0.  0.
         25    2    1    2    0    0 -0.31342283792E+01  0.57790572199E+01 -0.29234829097E+03  0.31805261880E+03  0.12508686664E+03 0.  0.
         24    2    1    2    0    0  0.15059580013E+00 -0.16406547695E+02  0.10336341487E+03  0.13207380087E+03  0.80562372465E+02 0.  0.
        -13    1    5    5    0    0 -0.12584214947E+02  0.30446704180E+02  0.50506997746E+02  0.60301916077E+02  0.00000000000E+00 0.  1.
         14    1    5    5    0    0  0.12734810747E+02 -0.46853251875E+02  0.52856417121E+02  0.71771884794E+02  0.00000000000E+00 0. -1.
         11    1    3    3    0    0 -0.25661994251E+02  0.84835041790E-01 -0.11318049881E+03  0.11605330869E+03  0.00000000000E+00 0. -1.
        -12    1    3    3    0    0  0.28645626830E+02  0.10542655433E+02 -0.86481525193E+03  0.86535376551E+03  0.00000000000E+00 0.  1.
          5    1    4    4  501    0  0.16969859434E+02  0.43455752259E+02 -0.38578501736E+02  0.60680736069E+02  0.41800000000E+01 0.  1.
         -5    1    4    4    0  501 -0.20104087814E+02 -0.37676695039E+02 -0.25376978923E+03  0.25737188274E+03  0.41800000000E+01 0.  1.
</event>
<event>
11    1  0.8037748E-009  0.2422033E+03  0.7561462E-02  0.1028137E+00
         22   -1    0    0    0    0  0.00000000000E+00  0.00000000000E+00  0.45030701009E+03  0.45030701009E+03  0.00000000000E+00 0. -1.
         22   -1    0    0    0    0 -0.00000000000E+00 -0.00000000000E+00 -0.80903182800E+03  0.80903182800E+03  0.00000000000E+00 0. -1.
        -24    2    1    2    0    0 -0.12181929376E+03 -0.33963738085E+01 -0.42782610264E+03  0.45511936952E+03  0.96161274565E+02 0.  0.
         25    2    1    2    0    0  0.18963976693E+03 -0.18883542285E+03 -0.26994299323E+03  0.40017409761E+03  0.12509208878E+03 0.  0.
         24    2    1    2    0    0 -0.67820473171E+02  0.19223179665E+03  0.33904427796E+03  0.40404537097E+03  0.82152049027E+02 0.  0.
        -13    1    5    5    0    0  0.27942612253E+00  0.27363752828E+02  0.88703062611E+01  0.28766914693E+02  0.00000000000E+00 0.  1.
         14    1    5    5    0    0 -0.68099899294E+02  0.16486804383E+03  0.33017397170E+03  0.37527845627E+03  0.00000000000E+00 0. -1.
         13    1    3    3    0    0 -0.82367651191E+02  0.44146824368E+02 -0.25918233985E+03  0.27551562089E+03  0.00000000000E+00 0. -1.
        -14    1    3    3    0    0 -0.39451642570E+02 -0.47543198177E+02 -0.16864376279E+03  0.17960374863E+03  0.00000000000E+00 0.  1.
          5    1    4    4  501    0  0.75821108831E+02 -0.16118755004E+03 -0.15989814941E+03  0.23940584248E+03  0.41800000000E+01 0.  1.
         -5    1    4    4    0  501  0.11381865810E+03 -0.27647872810E+02 -0.11004484382E+03  0.16076825512E+03  0.41800000000E+01 0.  1.
</event>
<event>
11    1  0.8037748E-009  0.1468453E+03  0.7561462E-02  0.1100147E+00
         22   -1    0    0    0    0  0.00000000000E+00  0.00000000000E+00  0.76337110229E+03  0.76337110229E+03  0.00000000000E+00 0.  1.
         22   -1    0    0    0    0 -0.00000000000E+00 -0.00000000000E+00 -0.17045628346E+03  0.17045628346E+03  0.00000000000E+00 0. -1.
         24    2    1    2    0    0 -0.48238299569E-01 -0.75074845528E+02 -0.12642666570E+03  0.16849856804E+03  0.82291134852E+02 0.  0.
         25    2    1    2    0    0 -0.24320536934E+02  0.10614016854E+03  0.31636036765E+03  0.35719595065E+03  0.12509133084E+03 0.  0.
        -24    2    1    2    0    0  0.24368775234E+02 -0.31065323009E+02  0.40298111687E+03  0.40813286706E+03  0.51183641101E+02 0.  0.
        -11    1    3    3    0    0 -0.63096714440E+01  0.20588172492E+01  0.97937033930E+01  0.11830778011E+02  0.00000000000E+00 0.  1.
         12    1    3    3    0    0  0.62614331444E+01 -0.77133662777E+02 -0.13622036909E+03  0.15666779003E+03  0.00000000000E+00 0. -1.
         11    1    5    5    0    0 -0.62217299500E+01 -0.10961228353E+02  0.21670817040E+02  0.25069558467E+02  0.00000000000E+00 0. -1.
        -12    1    5    5    0    0  0.30590505184E+02 -0.20104094656E+02  0.38131029983E+03  0.38306330859E+03  0.00000000000E+00 0.  1.
          5    1    4    4  501    0  0.40694720183E+02 -0.13700795736E+00  0.87404788614E+02  0.96504655300E+02  0.41800000000E+01 0. -1.
         -5    1    4    4    0  501 -0.65015257117E+02  0.10627717649E+03  0.22895557903E+03  0.26069129535E+03  0.41800000000E+01 0. -1.
</event>
<event>
11    1  0.8037748E-009  0.1469231E+03  0.7561462E-02  0.1100065E+00
         22   -1    0    0    0    0  0.00000000000E+00  0.00000000000E+00  0.81751506400E+03  0.81751506400E+03  0.00000000000E+00 0.  1.
         22   -1    0    0    0    0 -0.00000000000E+00 -0.00000000000E+00 -0.66339596248E+03  0.66339596248E+03  0.00000000000E+00 0.  1.
        -24    2    1    2    0    0 -0.50644796241E+02 -0.49000082597E+02 -0.35230901316E+03  0.36815075583E+03  0.80295920072E+02 0.  0.
         25    2    1    2    0    0  0.10107703667E+01  0.10786405032E+03 -0.27643968431E+03  0.32202796849E+03  0.12508972149E+03 0.  0.
         24    2    1    2    0    0  0.49634025875E+02 -0.58863967719E+02  0.78286779899E+03  0.79073230216E+03  0.80293709432E+02 0.  0.
        -11    1    5    5    0    0  0.37467034465E+02  0.83603086964E+01  0.39810786614E+03  0.39995443054E+03  0.00000000000E+00 0.  1.
         12    1    5    5    0    0  0.12166991410E+02 -0.67224276416E+02  0.38475993285E+03  0.39077787162E+03  0.00000000000E+00 0. -1.
         11    1    3    3    0    0 -0.43587072462E+02 -0.42790897126E+02 -0.11130404799E+03  0.12696253330E+03  0.00000000000E+00 0. -1.
        -12    1    3    3    0    0 -0.70577237796E+01 -0.62091854716E+01 -0.24100496517E+03  0.24118822252E+03  0.00000000000E+00 0.  1.
          5    1    4    4  501    0 -0.21286326677E+02  0.11722084788E+03 -0.14217808348E+03  0.18554221812E+03  0.41800000000E+01 0.  1.
         -5    1    4    4    0  501  0.22297097043E+02 -0.93567975677E+01 -0.13426160083E+03  0.13648575038E+03  0.41800000000E+01 0.  1.
</event>
<event>
11    1  0.8037748E-009  0.1409919E+03  0.7561462E-02  0.1106456E+00
         22   -1    0    0    0    0  0.00000000000E+00  0.00000000000E+00  0.22402456228E+03  0.22402456228E+03  0.00000000000E+00 0.  1.
         22   -1    0    0    0    0 -0.00000000000E+00 -0.00000000000E+00 -0.30323453158E+03  0.30323453158E+03  0.00000000000E+00 0.  1.
        -24    2    1    2    0    0  0.20101389448E+02 -0.11614847074E+02 -0.16979585670E+03  0.19067301192E+03  0.83585848047E+02 0.  0.
         25    2    1    2    0    0 -0.75298113636E+02 -0.19671789521E+02 -0.56240394349E+02  0.15770006465E+03  0.12509813433E+03 0.  0.
         24    2    1    2    0    0  0.55196724188E+02  0.31286636596E+02  0.14682628174E+03  0.17888601729E+03  0.80104420492E+02 0.  0.
        -11    1    5    5    0    0  0.65768292704E+02  0.70116366610E+01  0.13406814060E+03  0.14949547718E+03  0.00000000000E+00 0.  1.
         12    1    5    5    0    0 -0.10571568516E+02  0.24274999935E+02  0.12758141144E+02  0.29390540113E+02  0.00000000000E+00 0. -1.
         11    1    3    3    0    0 -0.84122060345E+01  0.29415243863E+02 -0.32818297725E+02  0.44867164469E+02  0.00000000000E+00 0. -1.
        -12    1    3    3    0    0  0.28513595483E+02 -0.41030090938E+02 -0.13697755897E+03  0.14580584745E+03  0.00000000000E+00 0.  1.
          5    1    4    4  501    0 -0.96660107406E+02 -0.18371790774E+01 -0.76226212531E+02  0.12318465597E+03  0.41800000000E+01 0. -1.
         -5    1    4    4    0  501  0.21361993769E+02 -0.17834610444E+02  0.19985818182E+02  0.34515408674E+02  0.41800000000E+01 0. -1.
</event>
<event>
11    1  0.8037748E-009  0.1494949E+03  0.7561462E-02  0.1097396E+00
         22   -1    0    0    0    0  0.00000000000E+00  0.00000000000E+00  0.13498807762E+03  0.13498807762E+03  0.00000000000E+00 0. -1.
         22   -1    0    0    0    0 -0.00000000000E+00 -0.00000000000E+00 -0.21721728238E+04  0.21721728238E+04  0.00000000000E+00 0.  1.
         24    2    1    2    0    0  0.79843801238E+02 -0.63850161055E+01 -0.15287603805E+04  0.15329221705E+04  0.79537908561E+02 0.  0.
         25    2    1    2    0    0 -0.83454704246E+02  0.60397292586E+02 -0.60554592996E+03  0.62685418667E+03  0.12509107658E+03 0.  0.
        -24    2    1    2    0    0  0.36109030074E+01 -0.54012276481E+02  0.97121564223E+02  0.14738454427E+03  0.96743170410E+02 0.  0.
        -13    1    3    3    0    0  0.96142849441E+02 -0.36604875993E+01 -0.12759762066E+04  0.12795984239E+04  0.00000000000E+00 0.  1.
         14    1    3    3    0    0 -0.16299048203E+02 -0.27245285062E+01 -0.25278417386E+03  0.25332374658E+03  0.00000000000E+00 0. -1.
         11    1    5    5    0    0 -0.89961529700E+01 -0.17588650833E+02  0.10600513161E+03  0.10783032660E+03  0.00000000000E+00 0. -1.
        -12    1    5    5    0    0  0.12607055977E+02 -0.36423625648E+02 -0.88835673904E+01  0.39554217668E+02  0.00000000000E+00 0.  1.
          5    1    4    4  501    0 -0.60027331975E+01 -0.30829278236E+02 -0.55340222263E+02  0.63769034825E+02  0.41800000000E+01 0. -1.
         -5    1    4    4    0  501 -0.77451971048E+02  0.91226570822E+02 -0.55020570770E+03  0.56308515184E+03  0.41800000000E+01 0. -1.
</event>
<event>
11    1  0.1461146E-008  0.1691909E+03  0.7561462E-02  0.1078738E+00
         22   -1    0    0    0    0  0.00000000000E+00  0.00000000000E+00  0.38793485398E+03  0.38793485398E+03  0.00000000000E+00 0. -1.
         22   -1    0    0    0    0 -0.00000000000E+00 -0.00000000000E+00 -0.13604474469E+04  0.13604474469E+04  0.00000000000E+00 0. -1.
        -24    2    1    2    0    0  0.34717163475E+01  0.79905660377E+02 -0.71872967842E+03  0.72778128587E+03  0.81830813529E+02 0.  0.
         25    2    1    2    0    0 -0.49254076916E+02 -0.18251317486E+03 -0.60321181126E+03  0.64439795766E+03  0.12508883040E+03 0.  0.
         24    2    1    2    0    0  0.45782360568E+02  0.10260751448E+03  0.34942889681E+03  0.37620305731E+03  0.82485512913E+02 0.  0.
        -13    1    5    5    0    0 -0.11714662747E+02  0.58958025810E+02  0.10135598973E+03  0.11784022567E+03  0.00000000000E+00 0.  1.
         14    1    5    5    0    0  0.57497023315E+02  0.43649488673E+02  0.24807290708E+03  0.25836283165E+03  0.00000000000E+00 0. -1.
         13    1    3    3    0    0 -0.24398904370E+02  0.82791718472E+02 -0.52959708347E+03  0.53658442579E+03  0.00000000000E+00 0. -1.
        -14    1    3    3    0    0  0.27870620718E+02 -0.28860580948E+01 -0.18913259496E+03  0.19119686008E+03  0.00000000000E+00 0.  1.
          5    1    4    4  501    0 -0.71050931980E+02 -0.44379508913E+02 -0.17823828232E+03  0.19698764791E+03  0.41800000000E+01 0. -1.
         -5    1    4    4    0  501  0.21796855065E+02 -0.13813366595E+03 -0.42497352895E+03  0.44741030974E+03  0.41800000000E+01 0. -1.
</event>
<event>
11    1  0.8037748E-009  0.1470244E+03  0.7561462E-02  0.1099959E+00
         22   -1    0    0    0    0  0.00000000000E+00  0.00000000000E+00  0.27793383678E+03  0.27793383678E+03  0.00000000000E+00 0.  1.
         22   -1    0    0    0    0 -0.00000000000E+00 -0.00000000000E+00 -0.32932592634E+04  0.32932592634E+04  0.00000000000E+00 0.  1.
        -24    2    1    2    0    0  0.17596525267E+02 -0.54018730380E+02 -0.26421756772E+04  0.26440667562E+04  0.82274182526E+02 0.  0.
         25    2    1    2    0    0 -0.70348397115E+02  0.10919673632E+03 -0.62578385012E+03  0.65124979170E+03  0.12509212576E+03 0.  0.
         24    2    1    2    0    0  0.52751871849E+02 -0.55178005938E+02  0.25263410067E+03  0.27587655231E+03  0.80352417340E+02 0.  0.
        -13    1    5    5    0    0  0.56407699963E+01 -0.29019131449E+01  0.15706664977E+03  0.15719469411E+03  0.00000000000E+00 0.  1.
         14    1    5    5    0    0  0.47111101852E+02 -0.52276092793E+02  0.95567450902E+02  0.11868185821E+03  0.00000000000E+00 0. -1.
         11    1    3    3    0    0  0.43355560038E+02 -0.49846072887E+02 -0.13378827432E+04  0.13395128108E+04  0.00000000000E+00 0. -1.
        -12    1    3    3    0    0 -0.25759034771E+02 -0.41726574927E+01 -0.13042929340E+04  0.13045539454E+04  0.00000000000E+00 0.  1.
          5    1    4    4  501    0  0.54932091997E+01  0.91464633907E+02 -0.44503841152E+03  0.45439257777E+03  0.41800000000E+01 0.  1.
         -5    1    4    4    0  501 -0.75841606315E+02  0.17732102411E+02 -0.18074543859E+03  0.19685721393E+03  0.41800000000E+01 0.  1.
</event>
<event>
11    1  0.8037748E-009  0.1254958E+03  0.7561462E-02  0.1124930E+00
         22   -1    0    0    0    0  0.00000000000E+00  0.00000000000E+00  0.84402220330E+03  0.84402220330E+03  0.00000000000E+00 0. -1.
         22   -1    0    0    0    0 -0.00000000000E+00 -0.00000000000E+00 -0.17668059819E+03  0.17668059819E+03  0.00000000000E+00 0.  1.
         24    2    1    2    0    0 -0.42712524036E+01 -0.86348604337E+01 -0.13583515499E+03  0.15871497520E+03  0.81525760422E+02 0.  0.
         25    2    1    2    0    0 -0.14601326458E+02  0.21852868997E+02  0.12468031193E+03  0.17856371855E+03  0.12509626206E+03 0.  0.
        -24    2    1    2    0    0  0.18872578861E+02 -0.13218008563E+02  0.67849644816E+03  0.68342410775E+03  0.78614190168E+02 0.  0.
        -13    1    3    3    0    0 -0.11563901185E+02 -0.16631438405E+02 -0.14383645429E+03  0.14525582307E+03  0.00000000000E+00 0.  1.
         14    1    3    3    0    0  0.72926487813E+01  0.79965779717E+01  0.80012993048E+01  0.13459152130E+02  0.00000000000E+00 0. -1.
         11    1    5    5    0    0  0.49027973291E+02 -0.15810398089E+02  0.40777471621E+03  0.41101572967E+03  0.00000000000E+00 0. -1.
        -12    1    5    5    0    0 -0.30155394430E+02  0.25923895261E+01  0.27072173195E+03  0.27240837808E+03  0.00000000000E+00 0.  1.
          5    1    4    4  501    0 -0.16682796388E+02 -0.32003833742E+02  0.11874637992E+03  0.12418025694E+03  0.41800000000E+01 0. -1.
         -5    1    4    4    0  501  0.20814699302E+01  0.53856702739E+02  0.59339320072E+01  0.54383461604E+02  0.41800000000E+01 0. -1.
</event>
<event>
11    1  0.8037748E-009  0.1258871E+03  0.7561462E-02  0.1124428E+00
         22   -1    0    0    0    0  0.00000000000E+00  0.00000000000E+00  0.13823736517E+03  0.13823736517E+03  0.00000000000E+00 0.  1.
         22   -1    0    0    0    0 -0.00000000000E+00 -0.00000000000E+00 -0.45916074907E+03  0.45916074907E+03  0.00000000000E+00 0. -1.
         24    2    1    2    0    0 -0.90331909897E+01  0.13289009395E+02 -0.34890539312E+03  0.35856583679E+03  0.81094325627E+02 0.  0.
         25    2    1    2    0    0 -0.39996838614E+00  0.38829666104E+01 -0.44848347624E+02  0.13294428759E+03  0.12509025508E+03 0.  0.
        -24    2    1    2    0    0  0.94331593758E+01 -0.17171976005E+02  0.72830356847E+02  0.10588798987E+03  0.74324587211E+02 0.  0.
        -11    1    3    3    0    0 -0.37110226885E+02 -0.22107481953E+01 -0.85730023181E+02  0.93443529587E+02  0.00000000000E+00 0.  1.
         12    1    3    3    0    0  0.28077035895E+02  0.15499757590E+02 -0.26317536994E+03  0.26512230720E+03  0.00000000000E+00 0. -1.
         13    1    5    5    0    0 -0.40827991777E+01 -0.40125367492E+02  0.16500037478E+02  0.43577122464E+02  0.00000000000E+00 0. -1.
        -14    1    5    5    0    0  0.13515958554E+02  0.22953391487E+02  0.56330319370E+02  0.62310867404E+02  0.00000000000E+00 0.  1.
          5    1    4    4  501    0  0.79160585370E+01 -0.43836850119E+02 -0.66152802006E+02  0.79862375524E+02  0.41800000000E+01 0. -1.
         -5    1    4    4    0  501 -0.83160269232E+01  0.47719816729E+02  0.21304454382E+02  0.53081912070E+02  0.41800000000E+01 0. -1.
</event>
<event>
11    1  0.8037748E-009  0.1327500E+03  0.7561462E-02  0.1115936E+00
         22   -1    0    0    0    0  0.00000000000E+00  0.00000000000E+00  0.39005770622E+03  0.39005770622E+03  0.00000000000E+00 0. -1.
         22   -1    0    0    0    0 -0.00000000000E+00 -0.00000000000E+00 -0.56478224770E+03  0.56478224770E+03  0.00000000000E+00 0. -1.
        -24    2    1    2    0    0 -0.41352337463E+02  0.14037251466E+02 -0.50665900932E+03  0.51711268691E+03  0.93782295763E+02 0.  0.
         25    2    1    2    0    0  0.68366275328E+02  0.12554316108E+02  0.68719177217E+02  0.15874902280E+03  0.12508944187E+03 0.  0.
         24    2    1    2    0    0 -0.27013937866E+02 -0.26591567574E+02  0.26321529062E+03  0.27897824421E+03  0.84319079813E+02 0.  0.
        -11    1    5    5    0    0  0.13584427979E+02 -0.20245239409E+02  0.17901691339E+02  0.30246932986E+02  0.00000000000E+00 0.  1.
         12    1    5    5    0    0 -0.40598365845E+02 -0.63463281651E+01  0.24531359928E+03  0.24873131122E+03  0.00000000000E+00 0. -1.
         13    1    3    3    0    0  0.38734424923E+01 -0.34085819259E+02 -0.23780955104E+03  0.24027115764E+03  0.00000000000E+00 0. -1.
        -14    1    3    3    0    0 -0.45225779955E+02  0.48123070725E+02 -0.26884945828E+03  0.27684152927E+03  0.00000000000E+00 0.  1.
          5    1    4    4  501    0  0.16831260855E+02  0.60495201763E+02  0.40310827522E+01  0.63060945175E+02  0.41800000000E+01 0. -1.
         -5    1    4    4    0  501  0.51535014474E+02 -0.47940885654E+02  0.64688094465E+02  0.95688077626E+02  0.41800000000E+01 0. -1.
</event>
<event>
11    1  0.8037748E-009  0.1326608E+03  0.7561462E-02  0.1116042E+00
         22   -1    0    0    0    0  0.00000000000E+00  0.00000000000E+00  0.14825481421E+04  0.14825481421E+04  0.00000000000E+00 0.  1.
         22   -1    0    0    0    0 -0.00000000000E+00 -0.00000000000E+00 -0.46241402929E+03  0.46241402929E+03  0.00000000000E+00 0.  1.
        -24    2    1    2    0    0  0.30174724115E+02  0.32810011998E+02 -0.44345892959E+03  0.45280785392E+03  0.79950731565E+02 0.  0.
         25    2    1    2    0    0 -0.14583535472E+01 -0.21384664150E+02  0.30567832385E+03  0.33097774310E+03  0.12509035974E+03 0.  0.
         24    2    1    2    0    0 -0.28716370568E+02 -0.11425347849E+02  0.11579147186E+04  0.11611765744E+04  0.81298050003E+02 0.  0.
        -13    1    5    5    0    0 -0.33943573964E+02 -0.21478119519E+02  0.11340239021E+04  0.11347350732E+04  0.00000000000E+00 0.  1.
         14    1    5    5    0    0  0.52272033959E+01  0.10052771671E+02  0.23890816477E+02  0.26441501197E+02  0.00000000000E+00 0. -1.
         13    1    3    3    0    0  0.37676896503E+02  0.19428287561E+02 -0.95204213678E+02  0.10421539805E+03  0.00000000000E+00 0. -1.
        -14    1    3    3    0    0 -0.75021723880E+01  0.13381724438E+02 -0.34825471591E+03  0.34859245588E+03  0.00000000000E+00 0.  1.
          5    1    4    4  501    0  0.10946264471E+02  0.36332846087E+02  0.28735630272E+02  0.47781850716E+02  0.41800000000E+01 0. -1.
         -5    1    4    4    0  501 -0.12404618018E+02 -0.57717510237E+02  0.27694269358E+03  0.28319589239E+03  0.41800000000E+01 0. -1.
</event>
<event>
11    1  0.1289788E-008  0.1591056E+03  0.7561462E-02  0.1087922E+00
         22   -1    0    0    0    0  0.00000000000E+00  0.00000000000E+00  0.15838370787E+04  0.15838370787E+04  0.00000000000E+00 0. -1.
         22   -1    0    0    0    0 -0.00000000000E+00 -0.00000000000E+00 -0.42536921236E+03  0.42536921236E+03  0.00000000000E+00 0. -1.
        -24    2    1    2    0    0 -0.39181891064E+02 -0.70505366280E+02 -0.24268686347E+03  0.26822224027E+03  0.80870447089E+02 0.  0.
         25    2    1    2    0    0  0.12297201044E+03  0.18976331356E+02 -0.12092997134E+03  0.21390122686E+03  0.12508980926E+03 0.  0.
         24    2    1    2    0    0 -0.83790119376E+02  0.51529034924E+02  0.15220847012E+04  0.15270828239E+04  0.74592815587E+02 0.  0.
        -11    1    5    5    0    0  0.12537105800E+02  0.62028752921E+01  0.93930907269E+02  0.94966678493E+02  0.00000000000E+00 0.  1.
         12    1    5    5    0    0 -0.96327225176E+02  0.45326159632E+02  0.14281537939E+04  0.14321161455E+04  0.00000000000E+00 0. -1.
         11    1    3    3    0    0 -0.37261662907E+02 -0.79211210297E+02 -0.24398485192E+03  0.25921314651E+03  0.00000000000E+00 0. -1.
        -12    1    3    3    0    0 -0.19202281572E+01  0.87058440167E+01  0.12979884526E+01  0.90090937525E+01  0.00000000000E+00 0.  1.
          5    1    4    4  501    0 -0.21061595444E+02  0.12207796456E+02 -0.43894958722E+02  0.50367260181E+02  0.41800000000E+01 0.  1.
         -5    1    4    4    0  501  0.14403360588E+03  0.67685349006E+01 -0.77035012617E+02  0.16353396668E+03  0.41800000000E+01 0.  1.
</event>
<event>
11    1  0.8037748E-009  0.1311540E+03  0.7561462E-02  0.1117859E+00
         22   -1    0    0    0    0  0.00000000000E+00  0.00000000000E+00  0.34705351488E+03  0.34705351488E+03  0.00000000000E+00 0. -1.
         22   -1    0    0    0    0 -0.00000000000E+00 -0.00000000000E+00 -0.12352113699E+04  0.12352113699E+04  0.00000000000E+00 0.  1.
        -24    2    1    2    0    0  0.31846909215E+02 -0.23619178928E+02 -0.11847930200E+04  0.11882911115E+04  0.82031544313E+02 0.  0.
         25    2    1    2    0    0 -0.43595409815E+02 -0.10376285342E+02  0.69275760091E+02  0.14983253655E+03  0.12506970463E+03 0.  0.
         24    2    1    2    0    0  0.11748500600E+02  0.33995464270E+02  0.22735940485E+03  0.24414123673E+03  0.81356779936E+02 0.  0.
        -11    1    5    5    0    0 -0.24454136019E+02  0.20139280812E+02  0.32206884399E+02  0.45176086625E+02  0.00000000000E+00 0.  1.
         12    1    5    5    0    0  0.36202636620E+02  0.13856183459E+02  0.19515252045E+03  0.19896515011E+03  0.00000000000E+00 0. -1.
         13    1    3    3    0    0  0.71039636200E+01  0.28986126880E+02 -0.26793938716E+03  0.26959632239E+03  0.00000000000E+00 0. -1.
        -14    1    3    3    0    0  0.24742945595E+02 -0.52605305808E+02 -0.91685363283E+03  0.91869478914E+03  0.00000000000E+00 0.  1.
          5    1    4    4  501    0 -0.43054812532E+02  0.95931359853E+01 -0.26686361395E+02  0.51724070071E+02  0.41800000000E+01 0.  1.
         -5    1    4    4    0  501 -0.54059728278E+00 -0.19969421327E+02  0.95962121487E+02  0.98108466474E+02  0.41800000000E+01 0.  1.
</event>
<event>
11    1  0.8037748E-009  0.1455204E+03  0.7561462E-02  0.1101546E+00
         22   -1    0    0    0    0  0.00000000000E+00  0.00000000000E+00  0.19340940604E+04  0.19340940604E+04  0.00000000000E+00 0.  1.
         22   -1    0    0    0    0 -0.00000000000E+00 -0.00000000000E+00 -0.62846696263E+03  0.62846696263E+03  0.00000000000E+00 0. -1.
         24    2    1    2    0    0 -0.88883519572E+01 -0.38081217266E+02 -0.29288674529E+03  0.30654124730E+03  0.81582527640E+02 0.  0.
         25    2    1    2    0    0 -0.36843676998E+02  0.96547564841E+02 -0.30702104479E+03  0.34725982164E+03  0.12509425635E+03 0.  0.
        -24    2    1    2    0    0  0.45732028955E+02 -0.58466347575E+02  0.19055348878E+04  0.19087599541E+04  0.82411293018E+02 0.  0.
        -11    1    3    3    0    0  0.72806968592E+01  0.20598645363E+02 -0.32678746381E+02  0.39309199974E+02  0.00000000000E+00 0.  1.
         12    1    3    3    0    0 -0.16169048816E+02 -0.58679862629E+02 -0.26020799891E+03  0.26723204732E+03  0.00000000000E+00 0. -1.
         11    1    5    5    0    0 -0.49548335103E+01 -0.33613228104E+01  0.10333528589E+04  0.10333702046E+04  0.00000000000E+00 0. -1.
        -12    1    5    5    0    0  0.50686862466E+02 -0.55105024765E+02  0.87218202896E+03  0.87538974944E+03  0.00000000000E+00 0.  1.
          5    1    4    4  501    0 -0.43295214757E+02  0.54747571259E+02 -0.29488263777E+03  0.30305942427E+03  0.41800000000E+01 0. -1.
         -5    1    4    4    0  501  0.64515377586E+01  0.41799993582E+02 -0.12138407016E+02  0.44200397371E+02  0.41800000000E+01 0. -1.
</event>
<event>
11    1  0.8037748E-009  0.1866526E+03  0.7561462E-02  0.1064385E+00
         22   -1    0    0    0    0  0.00000000000E+00  0.00000000000E+00  0.66427742931E+02  0.66427742931E+02  0.00000000000E+00 0. -1.
         22   -1    0    0    0    0 -0.00000000000E+00 -0.00000000000E+00 -0.28974864747E+04  0.28974864747E+04  0.00000000000E+00 0.  1.
        -24    2    1    2    0    0 -0.59903248101E+02 -0.53895271246E+02 -0.17700049404E+04  0.17737626135E+04  0.82602786417E+02 0.  0.
         25    2    1    2    0    0 -0.23693279195E+02  0.16319696497E+03 -0.99705402051E+03  0.10183118395E+04  0.12509061413E+03 0.  0.
         24    2    1    2    0    0  0.83596527295E+02 -0.10930169372E+03 -0.63999770855E+02  0.17183976473E+03  0.80608277786E+02 0.  0.
        -11    1    5    5    0    0  0.35636055262E+02 -0.51548069299E+01 -0.41589562731E+02  0.55010837089E+02  0.00000000000E+00 0.  1.
         12    1    5    5    0    0  0.47960472033E+02 -0.10414688679E+03 -0.22410208124E+02  0.11682892764E+03  0.00000000000E+00 0. -1.
         11    1    3    3    0    0 -0.66405496946E+02 -0.59872305561E+01 -0.10955659209E+04  0.10975929227E+04  0.00000000000E+00 0. -1.
        -12    1    3    3    0    0  0.65022488453E+01 -0.47908040690E+02 -0.67443901951E+03  0.67616969071E+03  0.00000000000E+00 0.  1.
          5    1    4    4  501    0  0.50258572779E+02  0.61993642156E+02 -0.32714792650E+03  0.33676753706E+03  0.41800000000E+01 0. -1.
         -5    1    4    4    0  501 -0.73951851974E+02  0.10120332281E+03 -0.66990609401E+03  0.68154430241E+03  0.41800000000E+01 0. -1.
</event>
<event>
11    1  0.8037748E-009  0.1599430E+03  0.7561462E-02  0.1087131E+00
         22   -1    0    0    0    0  0.00000000000E+00  0.00000000000E+00  0.10363553214E+04  0.10363553214E+04  0.00000000000E+00 0.  1.
         22   -1    0    0    0    0 -0.00000000000E+00 -0.00000000000E+00 -0.24247006111E+03  0.24247006111E+03  0.00000000000E+00 0.  1.
         24    2    1    2    0    0  0.90229263903E+01  0.18592555320E+02 -0.20003388535E+03  0.21647565831E+03  0.80131510889E+02 0.  0.
         25    2    1    2    0    0 -0.25763521465E+02 -0.11420768108E+03  0.21708568570E+03  0.27654983866E+03  0.12508583001E+03 0.  0.
        -24    2    1    2    0    0  0.16740595074E+02  0.95615125762E+02  0.77683345995E+03  0.78579988556E+03  0.67740208538E+02 0.  0.
        -13    1    3    3    0    0  0.15865776096E+02  0.45177781413E+02 -0.16590335852E+03  0.17267506812E+03  0.00000000000E+00 0.  1.
         14    1    3    3    0    0 -0.68428497058E+01 -0.26585226093E+02 -0.34130526835E+02  0.43800590185E+02  0.00000000000E+00 0. -1.
         13    1    5    5    0    0  0.42345332284E+02  0.72012125167E+02  0.54480989994E+03  0.55117755797E+03  0.00000000000E+00 0. -1.
        -14    1    5    5    0    0 -0.25604737210E+02  0.23603000595E+02  0.23202356001E+03  0.23462232759E+03  0.00000000000E+00 0.  1.
          5    1    4    4  501    0  0.18021301309E+02  0.20166009481E+02  0.55212129661E+02  0.61622129961E+02  0.41800000000E+01 0. -1.
         -5    1    4    4    0  501 -0.43784822774E+02 -0.13437369056E+03  0.16187355604E+03  0.21492770870E+03  0.41800000000E+01 0. -1.
</event>
<event>
11    1  0.8037748E-009  0.1700936E+03  0.7561462E-02  0.1077950E+00
         22   -1    0    0    0    0  0.00000000000E+00  0.00000000000E+00  0.11767521901E+04  0.11767521901E+04  0.00000000000E+00 0. -1.
         22   -1    0    0    0    0 -0.00000000000E+00 -0.00000000000E+00 -0.32934400665E+03  0.32934400665E+03  0.00000000000E+00 0.  1.
        -24    2    1    2    0    0  0.37624064070E+02 -0.24745743863E+02 -0.29175816646E+03  0.30595499643E+03  0.80359878739E+02 0.  0.
         25    2    1    2    0    0 -0.40210546100E+02  0.13530108827E+03  0.32852432152E+03  0.37881233533E+03  0.12508910051E+03 0.  0.
         24    2    1    2    0    0  0.25864820299E+01 -0.11055534440E+03  0.81064202837E+03  0.82132886496E+03  0.72190249945E+02 0.  0.
        -13    1    5    5    0    0 -0.31973563660E+02 -0.38692883758E+02  0.38765999551E+03  0.39089604775E+03  0.00000000000E+00 0.  1.
         14    1    5    5    0    0  0.34560045690E+02 -0.71862460645E+02  0.42298203286E+03  0.43043281721E+03  0.00000000000E+00 0. -1.
         11    1    3    3    0    0  0.71087800621E+01  0.55566872957E+01  0.18529691366E+01  0.92111357766E+01  0.00000000000E+00 0. -1.
        -12    1    3    3    0    0  0.30515284008E+02 -0.30302431159E+02 -0.29361113560E+03  0.29674386066E+03  0.00000000000E+00 0.  1.
          5    1    4    4  501    0 -0.60437508551E+01  0.14276193414E+03  0.20191750374E+03  0.24739775157E+03  0.41800000000E+01 0. -1.
         -5    1    4    4    0  501 -0.34166795245E+02 -0.74608458723E+01  0.12660681778E+03  0.13141458377E+03  0.41800000000E+01 0. -1.
</event>
<event>
11    1  0.8037748E-009  0.2562400E+03  0.7561462E-02  0.1020627E+00
         22   -1    0    0    0    0  0.00000000000E+00  0.00000000000E+00  0.17815834962E+03  0.17815834962E+03  0.00000000000E+00 0. -1.
         22   -1    0    0    0    0 -0.00000000000E+00 -0.00000000000E+00 -0.15210474347E+04  0.15210474347E+04  0.00000000000E+00 0. -1.
        -24    2    1    2    0    0  0.79799425804E+02  0.53418461283E+01 -0.10098369043E+04  0.10163317249E+04  0.82238179183E+02 0.  0.
         25    2    1    2    0    0 -0.91675187412E+02 -0.22601285152E+03 -0.35462496230E+03  0.44821172177E+03  0.12509490240E+03 0.  0.
         24    2    1    2    0    0  0.11875761608E+02  0.22067100539E+03  0.21572781564E+02  0.23466233759E+03  0.75922996819E+02 0.  0.
        -11    1    5    5    0    0 -0.50720646843E+01 -0.23395550745E+01 -0.72575972697E+01  0.91581699175E+01  0.00000000000E+00 0.  1.
         12    1    5    5    0    0  0.16947826292E+02  0.22301056046E+03  0.28830378834E+02  0.22550416767E+03  0.00000000000E+00 0. -1.
         13    1    3    3    0    0  0.74894593460E+02 -0.19835268893E+02 -0.90854748845E+03  0.91184493023E+03  0.00000000000E+00 0. -1.
        -14    1    3    3    0    0  0.49048323444E+01  0.25177115021E+02 -0.10128941587E+03  0.10448679471E+03  0.00000000000E+00 0.  1.
          5    1    4    4  501    0 -0.57996735923E+02 -0.55333506378E+02 -0.19967258423E+03  0.21520230389E+03  0.41800000000E+01 0. -1.
         -5    1    4    4    0  501 -0.33678451489E+02 -0.17067934514E+03 -0.15495237808E+03  0.23300941788E+03  0.41800000000E+01 0. -1.
</event>
<event>
11    1  0.8037748E-009  0.1762782E+03  0.7561462E-02  0.1072694E+00
         22   -1    0    0    0    0  0.00000000000E+00  0.00000000000E+00  0.16207348275E+04  0.16207348275E+04  0.00000000000E+00 0.  1.
         22   -1    0    0    0    0 -0.00000000000E+00 -0.00000000000E+00 -0.12032854683E+03  0.12032854683E+03  0.00000000000E+00 0. -1.
        -24    2    1    2    0    0  0.88245855665E+02 -0.83616454275E+02 -0.53032741242E+02  0.15503281592E+03  0.80272410592E+02 0.  0.
         25    2    1    2    0    0 -0.14629220355E+03  0.96804731750E+02  0.93289852953E+03  0.95745522293E+03  0.12509305578E+03 0.  0.
         24    2    1    2    0    0  0.58046347881E+02 -0.13188277475E+02  0.62054049236E+03  0.62857533546E+03  0.80580025608E+02 0.  0.
        -13    1    5    5    0    0  0.68837799786E+02 -0.21217577217E+01  0.59306402142E+03  0.59704947704E+03  0.00000000000E+00 0.  1.
         14    1    5    5    0    0 -0.10791451905E+02 -0.11066519754E+02  0.27476470943E+02  0.31525858421E+02  0.00000000000E+00 0. -1.
         13    1    3    3    0    0 -0.67644751998E+01 -0.13553973630E+02 -0.31613961431E+02  0.35055825239E+02  0.00000000000E+00 0. -1.
        -14    1    3    3    0    0  0.95010330865E+02 -0.70062480645E+02 -0.21418779812E+02  0.11997699068E+03  0.00000000000E+00 0.  1.
          5    1    4    4  501    0 -0.58159020727E+02 -0.70588699711E+01  0.12461242106E+03  0.13776076081E+03  0.41800000000E+01 0.  1.
         -5    1    4    4    0  501 -0.88133182819E+02  0.10386360172E+03  0.80828610848E+03  0.81969446212E+03  0.41800000000E+01 0.  1.
</event>
<event>
11    1  0.8037748E-009  0.1325469E+03  0.7561462E-02  0.1116179E+00
         22   -1    0    0    0    0  0.00000000000E+00  0.00000000000E+00  0.20990179335E+04  0.20990179335E+04  0.00000000000E+00 0. -1.
         22   -1    0    0    0    0 -0.00000000000E+00 -0.00000000000E+00 -0.22563432896E+03  0.22563432896E+03  0.00000000000E+00 0.  1.
        -24    2    1    2    0    0  0.28202691135E+02  0.35936845566E+02 -0.19150506816E+03  0.21237236832E+03  0.79630289704E+02 0.  0.
         25    2    1    2    0    0 -0.43491493622E+02  0.63594735500E+01  0.17239153321E+03  0.21748016658E+03  0.12508728638E+03 0.  0.
         24    2    1    2    0    0  0.15288802487E+02 -0.42296319116E+02  0.18924971395E+04  0.18947997276E+04  0.81840445119E+02 0.  0.
        -13    1    5    5    0    0 -0.64876404441E+01  0.22743177105E+02  0.62615988601E+03  0.62660637121E+03  0.00000000000E+00 0.  1.
         14    1    5    5    0    0  0.21776442931E+02 -0.65039496222E+02  0.12663372535E+04  0.12681933564E+04  0.00000000000E+00 0. -1.
         11    1    3    3    0    0  0.15542009572E+02  0.10266987366E+02  0.11408092430E+00  0.18627348324E+02  0.00000000000E+00 0. -1.
        -12    1    3    3    0    0  0.12660681563E+02  0.25669858200E+02 -0.19161914908E+03  0.19374501999E+03  0.00000000000E+00 0.  1.
          5    1    4    4  501    0 -0.53688464102E+02  0.45180275139E+02  0.16080086725E+03  0.17549387381E+03  0.41800000000E+01 0. -1.
         -5    1    4    4    0  501  0.10196970480E+02 -0.38820801589E+02  0.11590665963E+02  0.41986292769E+02  0.41800000000E+01 0. -1.
</event>
<event>
11    1  0.8037748E-009  0.1373822E+03  0.7561462E-02  0.1110517E+00
         22   -1    0    0    0    0  0.00000000000E+00  0.00000000000E+00  0.34165646497E+03  0.34165646497E+03  0.00000000000E+00 0. -1.
         22   -1    0    0    0    0 -0.00000000000E+00 -0.00000000000E+00 -0.14173657109E+04  0.14173657109E+04  0.00000000000E+00 0.  1.
        -24    2    1    2    0    0 -0.35372567453E+02  0.52325153458E+02 -0.11435018906E+04  0.11479254469E+04  0.78403556620E+02 0.  0.
         25    2    1    2    0    0  0.57772135936E+00 -0.15896094689E+02 -0.24995182425E+03  0.27996033130E+03  0.12509537587E+03 0.  0.
         24    2    1    2    0    0  0.34794846093E+02 -0.36429058769E+02  0.31774446899E+03  0.33113639759E+03  0.78434741011E+02 0.  0.
        -11    1    5    5    0    0 -0.24203390726E+02 -0.10173218724E+02  0.12917374297E+03  0.13181484884E+03  0.00000000000E+00 0.  1.
         12    1    5    5    0    0  0.58998236819E+02 -0.26255840046E+02  0.18857072601E+03  0.19932154874E+03  0.00000000000E+00 0. -1.
         13    1    3    3    0    0 -0.29345739020E+01  0.51004710540E+02 -0.34483597926E+03  0.34859997821E+03  0.00000000000E+00 0. -1.
        -14    1    3    3    0    0 -0.32437993551E+02  0.13204429187E+01 -0.79866591136E+03  0.79932546873E+03  0.00000000000E+00 0.  1.
          5    1    4    4  501    0  0.48878860094E+02 -0.42503302732E+02 -0.91889724691E+02  0.11250274490E+03  0.41800000000E+01 0.  1.
         -5    1    4    4    0  501 -0.48301138735E+02  0.26607208043E+02 -0.15806209956E+03  0.16745758639E+03  0.41800000000E+01 0.  1.
</event>
<event>
11    1  0.8037748E-009  0.2646559E+03  0.7561462E-02  0.1016369E+00
         22   -1    0    0    0    0  0.00000000000E+00  0.00000000000E+00  0.53570125812E+03  0.53570125812E+03  0.00000000000E+00 0. -1.
         22   -1    0    0    0    0 -0.00000000000E+00 -0.00000000000E+00 -0.45435854369E+03  0.45435854369E+03  0.00000000000E+00 0. -1.
        -24    2    1    2    0    0 -0.16532977704E+03  0.16331042255E+03 -0.34353984331E+03  0.42258156998E+03  0.80940286973E+02 0.  0.
         25    2    1    2    0    0  0.13791080447E+03 -0.20102997117E+03  0.25346582308E+03  0.37326159923E+03  0.12508740421E+03 0.  0.
         24    2    1    2    0    0  0.27418972566E+02  0.37719548620E+02  0.17141673466E+03  0.19421663260E+03  0.78497382457E+02 0.  0.
        -11    1    5    5    0    0  0.26646200715E+02  0.54717343926E+02  0.16527881897E+03  0.17612806630E+03  0.00000000000E+00 0.  1.
         12    1    5    5    0    0  0.77277185088E+00 -0.16997795306E+02  0.61379156821E+01  0.18088566292E+02  0.00000000000E+00 0. -1.
         13    1    3    3    0    0 -0.11551744808E+03  0.99192188934E+02 -0.15486769836E+03  0.21718051283E+03  0.00000000000E+00 0. -1.
        -14    1    3    3    0    0 -0.49812328953E+02  0.64118233615E+02 -0.18867214495E+03  0.20540105715E+03  0.00000000000E+00 0.  1.
          5    1    4    4  501    0  0.48858179597E+02  0.31268258205E+01  0.29210926783E+02  0.57163357116E+02  0.41800000000E+01 0. -1.
         -5    1    4    4    0  501  0.89052624874E+02 -0.20415679699E+03  0.22425489630E+03  0.31609824212E+03  0.41800000000E+01 0. -1.
</event>
<event>
11    1  0.8037748E-009  0.1533503E+03  0.7561462E-02  0.1093504E+00
         22   -1    0    0    0    0  0.00000000000E+00  0.00000000000E+00  0.22313723373E+03  0.22313723373E+03  0.00000000000E+00 0. -1.
         22   -1    0    0    0    0 -0.00000000000E+00 -0.00000000000E+00 -0.82126798617E+03  0.82126798617E+03  0.00000000000E+00 0.  1.
        -24    2    1    2    0    0  0.78823226120E+02  0.32481639114E+02 -0.67752328524E+03  0.68769275417E+03  0.81334889468E+02 0.  0.
         25    2    1    2    0    0 -0.15888478992E+03 -0.60624840447E+01 -0.22668863495E+02  0.20357461583E+03  0.12509043391E+03 0.  0.
         24    2    1    2    0    0  0.80061563801E+02 -0.26419155069E+02  0.10206139630E+03  0.15313784991E+03  0.76986016311E+02 0.  0.
        -13    1    5    5    0    0  0.38642534263E+02  0.37435730030E+01 -0.12671445817E+00  0.38823650649E+02  0.00000000000E+00 0.  1.
         14    1    5    5    0    0  0.41419029537E+02 -0.30162728072E+02  0.10218811075E+03  0.11431419926E+03  0.00000000000E+00 0. -1.
         13    1    3    3    0    0 -0.12048214434E+02 -0.76214759629E+01 -0.39708604509E+02  0.42190278963E+02  0.00000000000E+00 0. -1.
        -14    1    3    3    0    0  0.90871440554E+02  0.40103115077E+02 -0.63781468073E+03  0.64550247521E+03  0.00000000000E+00 0.  1.
          5    1    4    4  501    0 -0.60879452111E+02 -0.27191375898E+02  0.46766524623E+02  0.81549119173E+02  0.41800000000E+01 0.  1.
         -5    1    4    4    0  501 -0.98005337809E+02  0.21128891853E+02 -0.69435388118E+02  0.12202549665E+03  0.41800000000E+01 0.  1.
</event>
<event>
11    1  0.8037748E-009  0.4028066E+03  0.7561462E-02  0.9641513E-01
         22   -1    0    0    0    0  0.00000000000E+00  0.00000000000E+00  0.27564699243E+04  0.27564699243E+04  0.00000000000E+00 0. -1.
         22   -1    0    0    0    0 -0.00000000000E+00 -0.00000000000E+00 -0.17990158434E+04  0.17990158434E+04  0.00000000000E+00 0. -1.
        -24    2    1    2    0    0 -0.13589268750E+03  0.35716048193E+03 -0.15776779754E+04  0.16252525212E+04  0.79671396556E+02 0.  0.
         25    2    1    2    0    0  0.18787291532E+03 -0.34510528097E+03  0.19769827852E+02  0.41283529745E+03  0.12509296330E+03 0.  0.
         24    2    1    2    0    0 -0.51980227822E+02 -0.12055200961E+02  0.25153622285E+04  0.25173979490E+04  0.86011751182E+02 0.  0.
        -13    1    5    5    0    0 -0.63037860743E+01 -0.29000621949E+02  0.29246647296E+03  0.29396838537E+03  0.00000000000E+00 0.  1.
         14    1    5    5    0    0 -0.45676441748E+02  0.16945420989E+02  0.22228957555E+04  0.22234295636E+04  0.00000000000E+00 0. -1.
         11    1    3    3    0    0 -0.13365344219E+03  0.25833675875E+03 -0.11355866225E+04  0.11722448980E+04  0.00000000000E+00 0. -1.
        -12    1    3    3    0    0 -0.22392453121E+01  0.98823723179E+02 -0.44209135284E+03  0.45300762327E+03  0.00000000000E+00 0.  1.
          5    1    4    4  501    0  0.39811421437E+02 -0.10971886858E+03  0.60868329939E+02  0.13170271595E+03  0.41800000000E+01 0.  1.
         -5    1    4    4    0  501  0.14806149388E+03 -0.23538641239E+03 -0.41098502087E+02  0.28113258150E+03  0.41800000000E+01 0.  1.
</event>
<event>
11    1  0.8037748E-009  0.4502710E+03  0.7561462E-02  0.9512068E-01
         22   -1    0    0    0    0  0.00000000000E+00  0.00000000000E+00  0.14531476115E+04  0.14531476115E+04  0.00000000000E+00 0. -1.
         22   -1    0    0    0    0 -0.00000000000E+00 -0.00000000000E+00 -0.58443753926E+03  0.58443753926E+03  0.00000000000E+00 0. -1.
         24    2    1    2    0    0  0.32419258172E+02  0.18945118478E+03 -0.25037585082E+03  0.32682470616E+03  0.84755897533E+02 0.  0.
         25    2    1    2    0    0  0.55652155036E+02 -0.58769626759E+03  0.10196817440E+03  0.61198845864E+03  0.12509316375E+03 0.  0.
        -24    2    1    2    0    0 -0.88071413209E+02  0.39824508282E+03  0.10171177486E+04  0.10987719859E+04  0.80097707041E+02 0.  0.
        -11    1    3    3    0    0  0.34956277649E+02  0.67948296035E+02 -0.15328047240E+03  0.17127117534E+03  0.00000000000E+00 0.  1.
         12    1    3    3    0    0 -0.25370194765E+01  0.12150288874E+03 -0.97095378415E+02  0.15555353082E+03  0.00000000000E+00 0. -1.
         13    1    5    5    0    0 -0.15030020146E+02  0.19842436026E+03  0.56704896597E+03  0.60095146065E+03  0.00000000000E+00 0. -1.
        -14    1    5    5    0    0 -0.73041393063E+02  0.19982072256E+03  0.45006878265E+03  0.49782052527E+03  0.00000000000E+00 0.  1.
          5    1    4    4  501    0 -0.25860587300E+02 -0.35874244967E+03  0.74960467995E+02  0.36742544731E+03  0.41800000000E+01 0.  1.
         -5    1    4    4    0  501  0.81512742337E+02 -0.22895381792E+03  0.27007706403E+02  0.24456301133E+03  0.41800000000E+01 0.  1.
</event>
<event>
11    1  0.8037748E-009  0.1448887E+03  0.7561462E-02  0.1102219E+00
         22   -1    0    0    0    0  0.00000000000E+00  0.00000000000E+00  0.34657183587E+04  0.34657183587E+04  0.00000000000E+00 0.  1.
         22   -1    0    0    0    0 -0.00000000000E+00 -0.00000000000E+00 -0.77373657668E+02  0.77373657668E+02  0.00000000000E+00 0.  1.
        -24    2    1    2    0    0 -0.24934000216E+02 -0.66184704778E+02 -0.98128789304E+01  0.10825172085E+03  0.81363523527E+02 0.  0.
         25    2    1    2    0    0 -0.32830387958E+02  0.10776501214E+03  0.38977982659E+03  0.42458008402E+03  0.12509517301E+03 0.  0.
         24    2    1    2    0    0  0.57764388174E+02 -0.41580307363E+02  0.30083777534E+04  0.30102602115E+04  0.79146620068E+02 0.  0.
        -11    1    5    5    0    0  0.67126451921E+02 -0.25543400168E+02  0.14550944685E+04  0.14568659301E+04  0.00000000000E+00 0.  1.
         12    1    5    5    0    0 -0.93620637471E+01 -0.16036907195E+02  0.15532832849E+04  0.15533942815E+04  0.00000000000E+00 0. -1.
         13    1    3    3    0    0  0.42910947566E+01 -0.29867385978E+02  0.33171817239E+02  0.44842431895E+02  0.00000000000E+00 0. -1.
        -14    1    3    3    0    0 -0.29225094973E+02 -0.36317318800E+02 -0.42984696169E+02  0.63409288955E+02  0.00000000000E+00 0.  1.
          5    1    4    4  501    0 -0.12121335557E+01  0.86359979060E+02  0.99723302556E+02  0.13199138125E+03  0.41800000000E+01 0. -1.
         -5    1    4    4    0  501 -0.31618254402E+02  0.21405033081E+02  0.29005652404E+03  0.29258870277E+03  0.41800000000E+01 0. -1.
</event>
<event>
11    1  0.8037748E-009  0.1278150E+03  0.7561462E-02  0.1121983E+00
         22   -1    0    0    0    0  0.00000000000E+00  0.00000000000E+00  0.27420356317E+03  0.27420356317E+03  0.00000000000E+00 0. -1.
         22   -1    0    0    0    0 -0.00000000000E+00 -0.00000000000E+00 -0.11878041485E+04  0.11878041485E+04  0.00000000000E+00 0.  1.
         24    2    1    2    0    0 -0.39870203232E+01  0.11932013519E+01 -0.11069927523E+04  0.11089610447E+04  0.65911494633E+02 0.  0.
         25    2    1    2    0    0 -0.91308351519E+01 -0.24080617868E+02 -0.11342981592E+02  0.12821346064E+03  0.12508708946E+03 0.  0.
        -24    2    1    2    0    0  0.13117855475E+02  0.22887416516E+02  0.20473514853E+03  0.22483320630E+03  0.89093084165E+02 0.  0.
        -11    1    3    3    0    0 -0.90430973831E+01  0.25550962027E+01 -0.11008468751E+04  0.11008869826E+04  0.00000000000E+00 0.  1.
         12    1    3    3    0    0  0.50560770599E+01 -0.13618948508E+01 -0.61458771979E+01  0.80740621345E+01  0.00000000000E+00 0. -1.
         13    1    5    5    0    0  0.15520773995E+02  0.39113251426E+02  0.20412691045E+03  0.20841913644E+03  0.00000000000E+00 0. -1.
        -14    1    5    5    0    0 -0.24029185201E+01 -0.16225834910E+02  0.60823807504E+00  0.16414069864E+02  0.00000000000E+00 0.  1.
          5    1    4    4  501    0 -0.41113143777E+02  0.82327046815E+01 -0.52103359991E+02  0.67009704819E+02  0.41800000000E+01 0. -1.
         -5    1    4    4    0  501  0.31982308625E+02 -0.32313322550E+02  0.40760378399E+02  0.61203755819E+02  0.41800000000E+01 0. -1.
</event>
<event>
11    1  0.8037748E-009  0.1436249E+03  0.7561462E-02  0.1103577E+00
         22   -1    0    0    0    0  0.00000000000E+00  0.00000000000E+00  0.30681123134E+03  0.30681123134E+03  0.00000000000E+00 0.  1.
         22   -1    0    0    0    0 -0.00000000000E+00 -0.00000000000E+00 -0.18611188767E+04  0.18611188767E+04  0.00000000000E+00 0.  1.
        -24    2    1    2    0    0 -0.28475246478E+02 -0.19124613764E+02 -0.13010525749E+04  0.13039936529E+04  0.80529830474E+02 0.  0.
         25    2    1    2    0    0  0.98531713890E+02  0.18363288459E+02 -0.53667623021E+03  0.56010172725E+03  0.12508740862E+03 0.  0.
         24    2    1    2    0    0 -0.70056467412E+02  0.76132530504E+00  0.28342115974E+03  0.30383472792E+03  0.84139763821E+02 0.  0.
        -13    1    5    5    0    0 -0.88272829770E+02  0.71025527528E+01  0.25032481798E+03  0.26552787656E+03  0.00000000000E+00 0.  1.
         14    1    5    5    0    0  0.18216362358E+02 -0.63412274478E+01  0.33096341758E+02  0.38306851357E+02  0.00000000000E+00 0. -1.
         13    1    3    3    0    0 -0.14595929302E+02 -0.43985257264E+02 -0.43276006806E+03  0.43523444316E+03  0.00000000000E+00 0. -1.
        -14    1    3    3    0    0 -0.13879317176E+02  0.24860643500E+02 -0.86829250686E+03  0.86875920974E+03  0.00000000000E+00 0.  1.
          5    1    4    4  501    0  0.41412613484E+02  0.60408418689E+02 -0.39334801839E+03  0.40013037573E+03  0.41800000000E+01 0. -1.
         -5    1    4    4    0  501  0.57119100407E+02 -0.42045130230E+02 -0.14332821181E+03  0.15997135152E+03  0.41800000000E+01 0. -1.
</event>
<event>
11    1  0.8037748E-009  0.2285832E+03  0.7561462E-02  0.1035970E+00
         22   -1    0    0    0    0  0.00000000000E+00  0.00000000000E+00  0.65660212405E+03  0.65660212405E+03  0.00000000000E+00 0.  1.
         22   -1    0    0    0    0 -0.00000000000E+00 -0.00000000000E+00 -0.37565106568E+03  0.37565106568E+03  0.00000000000E+00 0. -1.
        -24    2    1    2    0    0  0.27399259142E+02 -0.45558729152E+02 -0.26056904237E+03  0.27810341437E+03  0.81357028206E+02 0.  0.
         25    2    1    2    0    0  0.13046677196E+03 -0.79884608535E+02  0.31742049070E+02  0.20014446300E+03  0.12508844521E+03 0.  0.
         24    2    1    2    0    0 -0.15786603110E+03  0.12544333769E+03  0.50977805168E+03  0.55400531236E+03  0.79940661806E+02 0.  0.
        -11    1    5    5    0    0 -0.14961932587E+02  0.55545159885E+02  0.14854225551E+03  0.15929195172E+03  0.00000000000E+00 0.  1.
         12    1    5    5    0    0 -0.14290409851E+03  0.69898177802E+02  0.36123579617E+03  0.39471336064E+03  0.00000000000E+00 0. -1.
         13    1    3    3    0    0 -0.65812421399E+01 -0.25113789652E+02 -0.21943712701E+03  0.22096757203E+03  0.00000000000E+00 0. -1.
        -14    1    3    3    0    0  0.33980501282E+02 -0.20444939500E+02 -0.41131915360E+02  0.57135842338E+02  0.00000000000E+00 0.  1.
          5    1    4    4  501    0  0.83517292785E+02 -0.87569331340E+02 -0.27383477356E+02  0.12414045762E+03  0.41800000000E+01 0.  1.
         -5    1    4    4    0  501  0.46949479171E+02  0.76847228051E+01  0.59125526425E+02  0.76004005382E+02  0.41800000000E+01 0.  1.
</event>
<event>
11    1  0.8037748E-009  0.2545315E+03  0.7561462E-02  0.1021513E+00
         22   -1    0    0    0    0  0.00000000000E+00  0.00000000000E+00  0.18811952962E+03  0.18811952962E+03  0.00000000000E+00 0.  1.
         22   -1    0    0    0    0 -0.00000000000E+00 -0.00000000000E+00 -0.11735081732E+04  0.11735081732E+04  0.00000000000E+00 0.  1.
         24    2    1    2    0    0 -0.91517995239E+02  0.26840053531E+03 -0.70957177717E+03  0.76835554014E+03  0.80397377481E+02 0.  0.
         25    2    1    2    0    0  0.13342873592E+03 -0.11037744745E+03 -0.33872215742E+03  0.40045671473E+03  0.12508585840E+03 0.  0.
        -24    2    1    2    0    0 -0.41910740679E+02 -0.15802308786E+03  0.62905291011E+02  0.19281544794E+03  0.80578625247E+02 0.  0.
        -11    1    3    3    0    0 -0.61583840805E+02  0.20576635730E+03 -0.43489569614E+03  0.48504291538E+03  0.00000000000E+00 0.  1.
         12    1    3    3    0    0 -0.29934154434E+02  0.62634178006E+02 -0.27467608104E+03  0.28331262476E+03  0.00000000000E+00 0. -1.
         11    1    5    5    0    0  0.19338792501E+02 -0.77183936280E+02  0.39002581116E+02  0.88614616451E+02  0.00000000000E+00 0. -1.
        -12    1    5    5    0    0 -0.61249533180E+02 -0.80839151581E+02  0.23902709895E+02  0.10420083149E+03  0.00000000000E+00 0.  1.
          5    1    4    4  501    0  0.85304289462E+01 -0.54098382719E+01 -0.15229139793E+03  0.15268325662E+03  0.41800000000E+01 0. -1.
         -5    1    4    4    0  501  0.12489830697E+03 -0.10496760917E+03 -0.18643075948E+03  0.24777345810E+03  0.41800000000E+01 0. -1.
</event>
<event>
11    1  0.8037748E-009  0.1313470E+03  0.7561462E-02  0.1117625E+00
         22   -1    0    0    0    0  0.00000000000E+00  0.00000000000E+00  0.66035682934E+03  0.66035682934E+03  0.00000000000E+00 0. -1.
         22   -1    0    0    0    0 -0.00000000000E+00 -0.00000000000E+00 -0.91368882617E+03  0.91368882617E+03  0.00000000000E+00 0. -1.
         24    2    1    2    0    0 -0.10469516874E+01  0.28225450629E+02 -0.79704714333E+03  0.80137940166E+03  0.78275312444E+02 0.  0.
         25    2    1    2    0    0  0.31096034095E+02 -0.53889505560E+02 -0.67322605373E+02  0.15508039989E+03  0.12508619064E+03 0.  0.
        -24    2    1    2    0    0 -0.30049082408E+02  0.25664054932E+02  0.61103775187E+03  0.61758585396E+03  0.80520567139E+02 0.  0.
        -11    1    3    3    0    0 -0.18358518151E+02  0.23962858958E+02 -0.10904275743E+03  0.11314405308E+03  0.00000000000E+00 0.  1.
         12    1    3    3    0    0  0.17311566463E+02  0.42625916711E+01 -0.68800438590E+03  0.68823534858E+03  0.00000000000E+00 0. -1.
         13    1    5    5    0    0 -0.23255100874E+02  0.44843566577E+02  0.56498053452E+03  0.56723429865E+03  0.00000000000E+00 0. -1.
        -14    1    5    5    0    0 -0.67939815335E+01 -0.19179511645E+02  0.46057217351E+02  0.50351555310E+02  0.00000000000E+00 0.  1.
          5    1    4    4  501    0 -0.41811500582E+02  0.20772831598E+01 -0.17679131062E+01  0.42108367375E+02  0.41800000000E+01 0.  1.
         -5    1    4    4    0  501  0.72907534677E+02 -0.55966788720E+02 -0.65554692267E+02  0.11297203251E+03  0.41800000000E+01 0.  1.
</event>
<event>
11    1  0.8037748E-009  0.1513960E+03  0.7561462E-02  0.1095461E+00
         22   -1    0    0    0    0  0.00000000000E+00  0.00000000000E+00  0.39266741817E+03  0.39266741817E+03  0.00000000000E+00 0. -1.
         22   -1    0    0    0    0 -0.00000000000E+00 -0.00000000000E+00 -0.20546084552E+04  0.20546084552E+04  0.00000000000E+00 0.  1.
        -24    2    1    2    0    0 -0.51868263944E+02  0.31034766499E+02 -0.17565860194E+04  0.17594144349E+04  0.79317315851E+02 0.  0.
         25    2    1    2    0    0  0.11614423487E+03 -0.84262642939E+02 -0.25606411041E+03  0.31907263797E+03  0.12509533713E+03 0.  0.
         24    2    1    2    0    0 -0.64275970922E+02  0.53227876439E+02  0.35070909277E+03  0.36878880053E+03  0.77741265612E+02 0.  0.
        -11    1    5    5    0    0  0.77639297028E+01 -0.12585247460E+02  0.71711097600E+02  0.73219864634E+02  0.00000000000E+00 0.  1.
         12    1    5    5    0    0 -0.72039900625E+02  0.65813123900E+02  0.27899799517E+03  0.29556893589E+03  0.00000000000E+00 0. -1.
         11    1    3    3    0    0 -0.30983991224E+02 -0.20478621062E+02 -0.40910303890E+03  0.41078544043E+03  0.00000000000E+00 0. -1.
        -12    1    3    3    0    0 -0.20884272720E+02  0.51513387561E+02 -0.13474829805E+04  0.13486289945E+04  0.00000000000E+00 0.  1.
          5    1    4    4  501    0  0.13224636805E+03 -0.33466083598E+02 -0.19343207778E+03  0.23673301783E+03  0.41800000000E+01 0. -1.
         -5    1    4    4    0  501 -0.16102133183E+02 -0.50796559340E+02 -0.62632032628E+02  0.82339620141E+02  0.41800000000E+01 0. -1.
</event>
<event>
11    1  0.8037748E-009  0.1994765E+03  0.7561462E-02  0.1054894E+00
         22   -1    0    0    0    0  0.00000000000E+00  0.00000000000E+00  0.16517852578E+03  0.16517852578E+03  0.00000000000E+00 0.  1.
         22   -1    0    0    0    0 -0.00000000000E+00 -0.00000000000E+00 -0.95022661340E+03  0.95022661340E+03  0.00000000000E+00 0. -1.
        -24    2    1    2    0    0  0.10392911400E+02  0.71038112758E+02 -0.53228606134E+03  0.54291819181E+03  0.79229324311E+02 0.  0.
         25    2    1    2    0    0  0.78113739104E+02 -0.18958719887E+03 -0.31269565832E+03  0.39429868225E+03  0.12509122224E+03 0.  0.
         24    2    1    2    0    0 -0.88506650504E+02  0.11854908611E+03  0.59933632046E+02  0.17818826512E+03  0.79194094312E+02 0.  0.
        -13    1    5    5    0    0 -0.69385276449E+02  0.94951668494E+02  0.79597176250E+02  0.14200650128E+03  0.00000000000E+00 0.  1.
         14    1    5    5    0    0 -0.19121374056E+02  0.23597417619E+02 -0.19663544204E+02  0.36181763842E+02  0.00000000000E+00 0. -1.
         13    1    3    3    0    0 -0.27509874796E+02  0.61825358614E+02 -0.35496085890E+03  0.36135353814E+03  0.00000000000E+00 0. -1.
        -14    1    3    3    0    0  0.37902786196E+02  0.92127541436E+01 -0.17732520244E+03  0.18156465366E+03  0.00000000000E+00 0.  1.
          5    1    4    4  501    0  0.69448779788E+02 -0.13239460526E+03 -0.29957868026E+03  0.33483775561E+03  0.41800000000E+01 0.  1.
         -5    1    4    4    0  501  0.86649593169E+01 -0.57192593609E+02 -0.13116978060E+02  0.59460926642E+02  0.41800000000E+01 0.  1.
</event>
<event>
11    1  0.8037748E-009  0.1355922E+03  0.7561462E-02  0.1112583E+00
         22   -1    0    0    0    0  0.00000000000E+00  0.00000000000E+00  0.11708172993E+03  0.11708172993E+03  0.00000000000E+00 0.  1.
         22   -1    0    0    0    0 -0.00000000000E+00 -0.00000000000E+00 -0.19856123331E+04  0.19856123331E+04  0.00000000000E+00 0.  1.
         24    2    1    2    0    0 -0.45927914598E+02 -0.46833868347E+02 -0.13738942485E+04  0.13779851997E+04  0.83396762777E+02 0.  0.
         25    2    1    2    0    0  0.24800951369E+02 -0.18426997751E+02 -0.57706424577E+03  0.59127436682E+03  0.12509033406E+03 0.  0.
        -24    2    1    2    0    0  0.21126963230E+02  0.65260866098E+02  0.82427891012E+02  0.13343449657E+03  0.79404524040E+02 0.  0.
        -11    1    3    3    0    0 -0.62923772812E+02 -0.57321056354E+02 -0.10297121381E+04  0.10332241732E+04  0.00000000000E+00 0.  1.
         12    1    3    3    0    0  0.16995858213E+02  0.10487188007E+02 -0.34418211033E+03  0.34476102648E+03  0.00000000000E+00 0. -1.
         11    1    5    5    0    0  0.23284587219E+02 -0.83623301097E+01  0.26935941025E+01  0.24886864327E+02  0.00000000000E+00 0. -1.
        -12    1    5    5    0    0 -0.21576239894E+01  0.73623196208E+02  0.79734296910E+02  0.10854763224E+03  0.00000000000E+00 0.  1.
          5    1    4    4  501    0  0.74801156404E+02  0.12537694266E+01 -0.32988901484E+03  0.33829132335E+03  0.41800000000E+01 0.  1.
         -5    1    4    4    0  501 -0.50000205036E+02 -0.19680767178E+02 -0.24717523093E+03  0.25298304347E+03  0.41800000000E+01 0.  1.
</event>
<event>
11    1  0.1249311E-008  0.1777318E+03  0.7561462E-02  0.1071492E+00
         22   -1    0    0    0    0  0.00000000000E+00  0.00000000000E+00  0.33524062858E+03  0.33524062858E+03  0.00000000000E+00 0. -1.
         22   -1    0    0    0    0 -0.00000000000E+00 -0.00000000000E+00 -0.11067912270E+04  0.11067912270E+04  0.00000000000E+00 0. -1.
         24    2    1    2    0    0  0.38348781928E+02  0.29012058762E+02 -0.68390090031E+03  0.69071882386E+03  0.84022161104E+02 0.  0.
         25    2    1    2    0    0  0.87230517829E+02 -0.35110011122E+01 -0.38674868799E+03  0.41574368572E+03  0.12508706642E+03 0.  0.
        -24    2    1    2    0    0 -0.12557929976E+03 -0.25501057650E+02  0.29909898992E+03  0.33556934596E+03  0.82012899651E+02 0.  0.
        -13    1    3    3    0    0  0.38605000221E+02 -0.20522951096E+02 -0.22963399564E+03  0.23375908435E+03  0.00000000000E+00 0.  1.
         14    1    3    3    0    0 -0.25621829344E+00  0.49535009859E+02 -0.45426690467E+03  0.45695973950E+03  0.00000000000E+00 0. -1.
         11    1    5    5    0    0 -0.13438840298E+03 -0.17847722486E+02  0.24289576542E+03  0.27816746200E+03  0.00000000000E+00 0. -1.
        -12    1    5    5    0    0  0.88091032237E+01 -0.76533351646E+01  0.56203224500E+02  0.57401883967E+02  0.00000000000E+00 0.  1.
          5    1    4    4  501    0  0.41754502226E+02  0.55695583972E+02 -0.25385164125E+03  0.26325570212E+03  0.41800000000E+01 0.  1.
         -5    1    4    4    0  501  0.45476015604E+02 -0.59206585084E+02 -0.13289704674E+03  0.15248798361E+03  0.41800000000E+01 0.  1.
</event>
<event>
11    1  0.8037748E-009  0.1510470E+03  0.7561462E-02  0.1095814E+00
         22   -1    0    0    0    0  0.00000000000E+00  0.00000000000E+00  0.14496546206E+04  0.14496546206E+04  0.00000000000E+00 0.  1.
         22   -1    0    0    0    0 -0.00000000000E+00 -0.00000000000E+00 -0.12081648287E+03  0.12081648287E+03  0.00000000000E+00 0.  1.
        -24    2    1    2    0    0 -0.49428988993E+02 -0.37262763456E+02  0.32092490350E+02  0.10538542365E+03  0.79021649484E+02 0.  0.
         25    2    1    2    0    0  0.12757015194E+03  0.73414550703E+01  0.16205203682E+02  0.17954963028E+03  0.12508964977E+03 0.  0.
         24    2    1    2    0    0 -0.78141162950E+02  0.29921308386E+02  0.12805404437E+04  0.12855360495E+04  0.76274377646E+02 0.  0.
        -13    1    5    5    0    0 -0.56243649483E+02  0.42156509484E+02  0.53801116435E+03  0.54258320317E+03  0.00000000000E+00 0.  1.
         14    1    5    5    0    0 -0.21897513467E+02 -0.12235201098E+02  0.74252927930E+03  0.74295284632E+03  0.00000000000E+00 0. -1.
         13    1    3    3    0    0  0.21606988041E+02 -0.47410786685E+01  0.93507015485E+01  0.24016148288E+02  0.00000000000E+00 0. -1.
        -14    1    3    3    0    0 -0.71035977034E+02 -0.32521684787E+02  0.22741788801E+02  0.81369275359E+02  0.00000000000E+00 0.  1.
          5    1    4    4  501    0  0.33218016534E+02  0.40446599306E+02  0.51386682059E+02  0.73467186627E+02  0.41800000000E+01 0. -1.
         -5    1    4    4    0  501  0.94352135408E+02 -0.33105144236E+02 -0.35181478377E+02  0.10608244366E+03  0.41800000000E+01 0. -1.
</event>
<event>
11    1  0.8037748E-009  0.1372133E+03  0.7561462E-02  0.1110711E+00
         22   -1    0    0    0    0  0.00000000000E+00  0.00000000000E+00  0.11384124754E+03  0.11384124754E+03  0.00000000000E+00 0.  1.
         22   -1    0    0    0    0 -0.00000000000E+00 -0.00000000000E+00 -0.22895280551E+04  0.22895280551E+04  0.00000000000E+00 0.  1.
        -24    2    1    2    0    0  0.21327452195E+02  0.10967688276E+02 -0.71331126827E+03  0.71833058334E+03  0.81306279635E+02 0.  0.
         25    2    1    2    0    0 -0.60406700693E+02 -0.51177700240E+02 -0.15483451435E+04  0.15554063143E+04  0.12509193646E+03 0.  0.
         24    2    1    2    0    0  0.39079248498E+02  0.40210011964E+02  0.85969604299E+02  0.12963240495E+03  0.79181783417E+02 0.  0.
        -13    1    5    5    0    0 -0.51508968289E+01 -0.68985781611E+01  0.58978416859E+02  0.59603487935E+02  0.00000000000E+00 0.  1.
         14    1    5    5    0    0  0.44230145327E+02  0.47108590125E+02  0.26991187440E+02  0.70028917018E+02  0.00000000000E+00 0. -1.
         13    1    3    3    0    0  0.22554095196E+01 -0.16324551414E+02 -0.30161960920E+02  0.34370361323E+02  0.00000000000E+00 0. -1.
        -14    1    3    3    0    0  0.19072042675E+02  0.27292239690E+02 -0.68314930735E+03  0.68396022201E+03  0.00000000000E+00 0.  1.
          5    1    4    4  501    0 -0.73930593850E+02  0.14554232511E+02 -0.60903131997E+03  0.61368899248E+03  0.41800000000E+01 0.  1.
         -5    1    4    4    0  501  0.13523893157E+02 -0.65731932751E+02 -0.93931382357E+03  0.94171732182E+03  0.41800000000E+01 0.  1.
</event>
<event>
11    1  0.8037748E-009  0.1543241E+03  0.7561462E-02  0.1092541E+00
         22   -1    0    0    0    0  0.00000000000E+00  0.00000000000E+00  0.69834203560E+03  0.69834203560E+03  0.00000000000E+00 0. -1.
         22   -1    0    0    0    0 -0.00000000000E+00 -0.00000000000E+00 -0.37059195884E+03  0.37059195884E+03  0.00000000000E+00 0.  1.
        -24    2    1    2    0    0  0.11291006031E+03 -0.67875148265E+02 -0.32407502588E+03  0.35927350478E+03  0.81835880666E+02 0.  0.
         25    2    1    2    0    0 -0.36358171345E+02 -0.13397198657E+02  0.20886956771E+03  0.24652587322E+03  0.12508840192E+03 0.  0.
         24    2    1    2    0    0 -0.76551888966E+02  0.81272346921E+02  0.44295553493E+03  0.46313461644E+03  0.76280278834E+02 0.  0.
        -11    1    5    5    0    0 -0.74998776308E+02  0.25212403187E+02  0.25593929351E+03  0.26789065621E+03  0.00000000000E+00 0.  1.
         12    1    5    5    0    0 -0.15531126580E+01  0.56059943734E+02  0.18701624142E+03  0.19524396022E+03  0.00000000000E+00 0. -1.
         13    1    3    3    0    0 -0.75503317727E+00 -0.26067153877E+02 -0.23071730054E+02  0.34819122821E+02  0.00000000000E+00 0. -1.
        -14    1    3    3    0    0  0.11366509349E+03 -0.41807994388E+02 -0.30100329583E+03  0.32445438196E+03  0.00000000000E+00 0.  1.
          5    1    4    4  501    0 -0.61260422056E+02 -0.50566077188E+02  0.16758699177E+03  0.18550644108E+03  0.41800000000E+01 0. -1.
         -5    1    4    4    0  501  0.24902250711E+02  0.37168878531E+02  0.41282575948E+02  0.61019432140E+02  0.41800000000E+01 0. -1.
</event>
<event>
11    1  0.8037748E-009  0.1304269E+03  0.7561462E-02  0.1118746E+00
         22   -1    0    0    0    0  0.00000000000E+00  0.00000000000E+00  0.41467718763E+03  0.41467718763E+03  0.00000000000E+00 0.  1.
         22   -1    0    0    0    0 -0.00000000000E+00 -0.00000000000E+00 -0.39424599339E+03  0.39424599339E+03  0.00000000000E+00 0.  1.
         24    2    1    2    0    0 -0.21188279168E+02  0.30607528114E+02 -0.35058247747E+03  0.36170090702E+03  0.80831359529E+02 0.  0.
         25    2    1    2    0    0  0.13591715074E+02 -0.29289560800E+02  0.96778368492E+02  0.16140201709E+03  0.12506776332E+03 0.  0.
        -24    2    1    2    0    0  0.75965640935E+01 -0.13179673148E+01  0.27423530322E+03  0.28582025691E+03  0.80179629010E+02 0.  0.
        -11    1    3    3    0    0 -0.28404850034E+02  0.54934104859E+02 -0.27846638975E+03  0.28525098002E+03  0.00000000000E+00 0.  1.
         12    1    3    3    0    0  0.72165708666E+01 -0.24326576744E+02 -0.72116087714E+02  0.76449927000E+02  0.00000000000E+00 0. -1.
         11    1    5    5    0    0 -0.40252660670E+01  0.17723761154E+02  0.10194920653E+02  0.20839167053E+02  0.00000000000E+00 0. -1.
        -12    1    5    5    0    0  0.11621830161E+02 -0.19041728469E+02  0.26404038256E+03  0.26498108986E+03  0.00000000000E+00 0.  1.
          5    1    4    4  501    0  0.36240229582E+02 -0.71852985404E+02  0.56187930590E+02  0.98238290374E+02  0.41800000000E+01 0.  1.
         -5    1    4    4    0  501 -0.22648514508E+02  0.42563424605E+02  0.40590437902E+02  0.63163726716E+02  0.41800000000E+01 0.  1.
</event>
<event>
11    1  0.8037748E-009  0.1676399E+03  0.7561462E-02  0.1080104E+00
         22   -1    0    0    0    0  0.00000000000E+00  0.00000000000E+00  0.15506142334E+03  0.15506142334E+03  0.00000000000E+00 0. -1.
         22   -1    0    0    0    0 -0.00000000000E+00 -0.00000000000E+00 -0.15248312881E+04  0.15248312881E+04  0.00000000000E+00 0. -1.
         24    2    1    2    0    0 -0.71469981023E+01  0.33373963359E+02 -0.12492393604E+04  0.12522847203E+04  0.80331438331E+02 0.  0.
         25    2    1    2    0    0  0.98764710788E+02 -0.90927842337E+02 -0.19966935031E+03  0.27117812143E+03  0.12508950188E+03 0.  0.
        -24    2    1    2    0    0 -0.91617712686E+02  0.57553878978E+02  0.79138845980E+02  0.15642986974E+03  0.80629355319E+02 0.  0.
        -11    1    3    3    0    0  0.22979012929E+02 -0.11312603961E+02 -0.19585623955E+03  0.19752386341E+03  0.00000000000E+00 0.  1.
         12    1    3    3    0    0 -0.30126011031E+02  0.44686567321E+02 -0.10533831209E+04  0.10547608569E+04  0.00000000000E+00 0. -1.
         11    1    5    5    0    0 -0.83245523418E+02  0.75836671884E+01  0.41583481487E+02  0.93362278838E+02  0.00000000000E+00 0. -1.
        -12    1    5    5    0    0 -0.83721892680E+01  0.49970211789E+02  0.37555364493E+02  0.63067590898E+02  0.00000000000E+00 0.  1.
          5    1    4    4  501    0  0.24557032848E+02  0.31261123817E+02 -0.35629313928E+02  0.53546485744E+02  0.41800000000E+01 0.  1.
         -5    1    4    4    0  501  0.74207677940E+02 -0.12218896615E+03 -0.16404003638E+03  0.21763163569E+03  0.41800000000E+01 0.  1.
</event>
<event>
11    1  0.8037748E-009  0.1275686E+03  0.7561462E-02  0.1122293E+00
         22   -1    0    0    0    0  0.00000000000E+00  0.00000000000E+00  0.72010966320E+02  0.72010966320E+02  0.00000000000E+00 0.  1.
         22   -1    0    0    0    0 -0.00000000000E+00 -0.00000000000E+00 -0.24715841124E+04  0.24715841124E+04  0.00000000000E+00 0.  1.
        -24    2    1    2    0    0 -0.10891243049E+02 -0.20943475041E+02 -0.17756643935E+04  0.17778118900E+04  0.84106062816E+02 0.  0.
         25    2    1    2    0    0 -0.77169637120E+01  0.39880111713E+02 -0.65968604686E+03  0.67266850272E+03  0.12508900548E+03 0.  0.
         24    2    1    2    0    0  0.18608206761E+02 -0.18936636672E+02  0.35777294296E+02  0.93114685915E+02  0.81764713530E+02 0.  0.
        -11    1    5    5    0    0  0.50286041983E+02 -0.48522141560E+01  0.15008595712E+02  0.52701878010E+02  0.00000000000E+00 0.  1.
         12    1    5    5    0    0 -0.31677835222E+02 -0.14084422516E+02  0.20768698584E+02  0.40412807906E+02  0.00000000000E+00 0. -1.
         13    1    3    3    0    0 -0.24533496865E+01 -0.18631236003E+02 -0.82033708313E+02  0.84158607280E+02  0.00000000000E+00 0. -1.
        -14    1    3    3    0    0 -0.84378933627E+01 -0.23122390386E+01 -0.16936306852E+04  0.16936532828E+04  0.00000000000E+00 0.  1.
          5    1    4    4  501    0 -0.32155936967E+02  0.57837691345E+02 -0.61462774265E+03  0.61819409351E+03  0.41800000000E+01 0. -1.
         -5    1    4    4    0  501  0.24438973255E+02 -0.17957579632E+02 -0.45058304214E+02  0.54474409209E+02  0.41800000000E+01 0. -1.
</event>
<event>
11    1  0.8037748E-009  0.1508964E+03  0.7561462E-02  0.1095966E+00
         22   -1    0    0    0    0  0.00000000000E+00  0.00000000000E+00  0.91603747141E+03  0.91603747141E+03  0.00000000000E+00 0.  1.
         22   -1    0    0    0    0 -0.00000000000E+00 -0.00000000000E+00 -0.95126885336E+03  0.95126885336E+03  0.00000000000E+00 0. -1.
         24    2    1    2    0    0 -0.16851766544E+02 -0.50168524795E+02 -0.83354029103E+03  0.83914615622E+03  0.81092489238E+02 0.  0.
         25    2    1    2    0    0  0.97986644064E+02  0.69473784688E+02 -0.43115809443E+02  0.17870209615E+03  0.12508987558E+03 0.  0.
        -24    2    1    2    0    0 -0.81134877520E+02 -0.19305259893E+02  0.84142471852E+03  0.84945807241E+03  0.81411905996E+02 0.  0.
        -13    1    3    3    0    0  0.27254941939E+02  0.31069705999E+01 -0.26415567903E+03  0.26557618095E+03  0.00000000000E+00 0.  1.
         14    1    3    3    0    0 -0.44106708483E+02 -0.53275495395E+02 -0.56938461200E+03  0.57356997527E+03  0.00000000000E+00 0. -1.
         11    1    5    5    0    0  0.86996348230E+01  0.81017262252E+01  0.27836014829E+03  0.27861387936E+03  0.00000000000E+00 0. -1.
        -12    1    5    5    0    0 -0.89834512343E+02 -0.27406986118E+02  0.56306457023E+03  0.57084419305E+03  0.00000000000E+00 0.  1.
          5    1    4    4  501    0  0.79122734982E+02 -0.17455754787E+02 -0.37761679463E+02  0.89490376031E+02  0.41800000000E+01 0.  1.
         -5    1    4    4    0  501  0.18863909082E+02  0.86929539475E+02 -0.53541299803E+01  0.89211720121E+02  0.41800000000E+01 0.  1.
</event>
<event>
11    1  0.8037748E-009  0.1600980E+03  0.7561462E-02  0.1086985E+00
         22   -1    0    0    0    0  0.00000000000E+00  0.00000000000E+00  0.77149674834E+03  0.77149674834E+03  0.00000000000E+00 0.  1.
         22   -1    0    0    0    0 -0.00000000000E+00 -0.00000000000E+00 -0.72704931073E+03  0.72704931073E+03  0.00000000000E+00 0. -1.
        -24    2    1    2    0    0 -0.17350090142E+02  0.98410861307E+02 -0.70046338041E+03  0.71207631926E+03  0.80112507714E+02 0.  0.
         25    2    1    2    0    0  0.81626984844E+01 -0.99756913979E+02  0.38557375384E+03  0.41753035266E+03  0.12508558753E+03 0.  0.
         24    2    1    2    0    0  0.91873916576E+01  0.13460526715E+01  0.35933706419E+03  0.36893938716E+03  0.83107915829E+02 0.  0.
        -13    1    5    5    0    0 -0.13944757160E+02  0.32194316796E+02  0.26042493546E+03  0.26277761947E+03  0.00000000000E+00 0.  1.
         14    1    5    5    0    0  0.23132148818E+02 -0.30848264125E+02  0.98912128728E+02  0.10616176768E+03  0.00000000000E+00 0. -1.
         13    1    3    3    0    0  0.31953663145E+02  0.34780039327E+02 -0.28491475461E+03  0.28880288281E+03  0.00000000000E+00 0. -1.
        -14    1    3    3    0    0 -0.49303753287E+02  0.63630821980E+02 -0.41554862580E+03  0.42327343645E+03  0.00000000000E+00 0.  1.
          5    1    4    4  501    0 -0.41634299229E+02 -0.76091386381E+01  0.48367850925E+02  0.64406795186E+02  0.41800000000E+01 0. -1.
         -5    1    4    4    0  501  0.49796997713E+02 -0.92147775341E+02  0.33720590292E+03  0.35312355748E+03  0.41800000000E+01 0. -1.
</event>
<event>
11    1  0.8037748E-009  0.2547915E+03  0.7561462E-02  0.1021377E+00
         22   -1    0    0    0    0  0.00000000000E+00  0.00000000000E+00  0.67983323739E+03  0.67983323739E+03  0.00000000000E+00 0. -1.
         22   -1    0    0    0    0 -0.00000000000E+00 -0.00000000000E+00 -0.18902083598E+04  0.18902083598E+04  0.00000000000E+00 0. -1.
        -24    2    1    2    0    0  0.57584619993E+02 -0.75820683877E+02 -0.17665932310E+04  0.17715207544E+04  0.91484288045E+02 0.  0.
         25    2    1    2    0    0  0.17679325490E+03  0.82153923702E+02  0.53216709825E+02  0.23765990021E+03  0.12508032541E+03 0.  0.
         24    2    1    2    0    0 -0.23437787489E+03 -0.63332398251E+01  0.50300139877E+03  0.56086094257E+03  0.81126392579E+02 0.  0.
        -11    1    5    5    0    0 -0.99036281817E+01  0.29287976656E+01  0.91009822796E+02  0.91593927486E+02  0.00000000000E+00 0.  1.
         12    1    5    5    0    0 -0.22447424671E+03 -0.92620374907E+01  0.41199157597E+03  0.46926701508E+03  0.00000000000E+00 0. -1.
         13    1    3    3    0    0 -0.17109749875E+02 -0.34712430156E+02 -0.87637265291E+03  0.87722672275E+03  0.00000000000E+00 0. -1.
        -14    1    3    3    0    0  0.74694369868E+02 -0.41108253720E+02 -0.89022057811E+03  0.89429403169E+03  0.00000000000E+00 0.  1.
          5    1    4    4  501    0  0.13713366143E+02  0.37414867547E+02  0.55543213496E+02  0.68486857791E+02  0.41800000000E+01 0. -1.
         -5    1    4    4    0  501  0.16307988875E+03  0.44739056155E+02 -0.23265036705E+01  0.16917304242E+03  0.41800000000E+01 0. -1.
</event>
<event>
11    1  0.8037748E-009  0.2287793E+03  0.7561462E-02  0.1035853E+00
         22   -1    0    0    0    0  0.00000000000E+00  0.00000000000E+00  0.35186160000E+03  0.35186160000E+03  0.00000000000E+00 0. -1.
         22   -1    0    0    0    0 -0.00000000000E+00 -0.00000000000E+00 -0.55128516709E+03  0.55128516709E+03  0.00000000000E+00 0.  1.
         24    2    1    2    0    0  0.13954443706E+03  0.10814020318E+03 -0.22625277849E+03  0.29810461290E+03  0.80678912975E+02 0.  0.
         25    2    1    2    0    0 -0.13935527206E+03 -0.16773865429E+03 -0.22307468264E+03  0.33610414064E+03  0.12509009283E+03 0.  0.
        -24    2    1    2    0    0 -0.18916500416E+00  0.59598451118E+02  0.24990389404E+03  0.26893801356E+03  0.79521617976E+02 0.  0.
        -13    1    3    3    0    0  0.89286078396E+02  0.11054516031E+03 -0.14887145567E+03  0.20580317436E+03  0.00000000000E+00 0.  1.
         14    1    3    3    0    0  0.50258358666E+02 -0.24049571358E+01 -0.77381322823E+02  0.92301438539E+02  0.00000000000E+00 0. -1.
         13    1    5    5    0    0  0.25944387144E+02  0.65456919234E+02  0.20378998058E+03  0.21561093591E+03  0.00000000000E+00 0. -1.
        -14    1    5    5    0    0 -0.26133552148E+02 -0.58584681163E+01  0.46113913453E+02  0.53327077648E+02  0.00000000000E+00 0.  1.
          5    1    4    4  501    0 -0.11078982005E+03 -0.16473819165E+03 -0.23234149583E+03  0.30563556582E+03  0.41800000000E+01 0.  1.
         -5    1    4    4    0  501 -0.28565452009E+02 -0.30004626456E+01  0.92668131864E+01  0.30468574814E+02  0.41800000000E+01 0.  1.
</event>
<event>
11    1  0.8037748E-009  0.1380357E+03  0.7561462E-02  0.1109772E+00
         22   -1    0    0    0    0  0.00000000000E+00  0.00000000000E+00  0.22904870619E+04  0.22904870619E+04  0.00000000000E+00 0.  1.
         22   -1    0    0    0    0 -0.00000000000E+00 -0.00000000000E+00 -0.38341597121E+03  0.38341597121E+03  0.00000000000E+00 0.  1.
         24    2    1    2    0    0  0.28268717091E+02 -0.53030914859E+02 -0.29728659147E+03  0.31374500759E+03  0.80282090319E+02 0.  0.
         25    2    1    2    0    0 -0.63823410726E+02  0.13907426687E+02 -0.12090171978E+02  0.14163725436E+03  0.12509234705E+03 0.  0.
        -24    2    1    2    0    0  0.35554693635E+02  0.39123488172E+02  0.22164478541E+04  0.22185207712E+04  0.79990864628E+02 0.  0.
        -11    1    3    3    0    0  0.50230646640E+02 -0.18007929444E+02 -0.21670755464E+03  0.22318057178E+03  0.00000000000E+00 0.  1.
         12    1    3    3    0    0 -0.21961929549E+02 -0.35022985415E+02 -0.80579036829E+02  0.90564435808E+02  0.00000000000E+00 0. -1.
         11    1    5    5    0    0 -0.89845915484E+01  0.47130262331E+02  0.87999466991E+03  0.88130165300E+03  0.00000000000E+00 0. -1.
        -12    1    5    5    0    0  0.44539285184E+02 -0.80067741591E+01  0.13364531842E+04  0.13372191182E+04  0.00000000000E+00 0.  1.
          5    1    4    4  501    0 -0.73980566016E+01  0.17325321379E+02  0.52362666050E+02  0.55805189706E+02  0.41800000000E+01 0. -1.
         -5    1    4    4    0  501 -0.56425354125E+02 -0.34178946921E+01 -0.64452838027E+02  0.85832064650E+02  0.41800000000E+01 0. -1.
</event>
<event>
11    1  0.8037748E-009  0.2269563E+03  0.7561462E-02  0.1036945E+00
         22   -1    0    0    0    0  0.00000000000E+00  0.00000000000E+00  0.98946087718E+02  0.98946087718E+02  0.00000000000E+00 0.  1.
         22   -1    0    0    0    0 -0.00000000000E+00 -0.00000000000E+00 -0.98468662525E+03  0.98468662525E+03  0.00000000000E+00 0.  1.
        -24    2    1    2    0    0  0.19109824670E+02  0.43961801577E+02 -0.35623431769E+03  0.36854541294E+03  0.81394145410E+02 0.  0.
         25    2    1    2    0    0 -0.18280847032E+03  0.53592800424E+02 -0.42778414925E+03  0.48470721346E+03  0.12510267521E+03 0.  0.
         24    2    1    2    0    0  0.16369864565E+03 -0.97554602001E+02 -0.10172207059E+03  0.23038008657E+03  0.80084066341E+02 0.  0.
        -13    1    5    5    0    0  0.15891854764E+03 -0.72325691912E+02 -0.66601936606E+02  0.18687409787E+03  0.00000000000E+00 0.  1.
         14    1    5    5    0    0  0.47800980083E+01 -0.25228910089E+02 -0.35120133985E+02  0.43505988696E+02  0.00000000000E+00 0. -1.
         11    1    3    3    0    0 -0.63672363703E+01 -0.17058466510E+02 -0.25912788954E+02  0.31670263813E+02  0.00000000000E+00 0. -1.
        -12    1    3    3    0    0  0.25477061040E+02  0.61020268087E+02 -0.33032152873E+03  0.33687514913E+03  0.00000000000E+00 0.  1.
          5    1    4    4  501    0 -0.43599458247E+02  0.65766231437E+02 -0.22442120840E+03  0.23792532681E+03  0.41800000000E+01 0.  1.
         -5    1    4    4    0  501 -0.13920901208E+03 -0.12173431013E+02 -0.20336294085E+03  0.24678188665E+03  0.41800000000E+01 0.  1.
</event>
<event>
11    1  0.8037748E-009  0.1476686E+03  0.7561462E-02  0.1099285E+00
         22   -1    0    0    0    0  0.00000000000E+00  0.00000000000E+00  0.73343272547E+03  0.73343272547E+03  0.00000000000E+00 0.  1.
         22   -1    0    0    0    0 -0.00000000000E+00 -0.00000000000E+00 -0.23013431615E+04  0.23013431615E+04  0.00000000000E+00 0.  1.
        -24    2    1    2    0    0 -0.46385184540E+02  0.69537954318E+01 -0.21417971049E+04  0.21437890300E+04  0.79602929072E+02 0.  0.
         25    2    1    2    0    0  0.66509880233E+02  0.68728040816E+02 -0.11376312055E+03  0.19426091002E+03  0.12509254894E+03 0.  0.
         24    2    1    2    0    0 -0.20124695694E+02 -0.75681836248E+02  0.68764978936E+03  0.69672594693E+03  0.80200178367E+02 0.  0.
        -13    1    5    5    0    0 -0.49267068007E+02 -0.63780522328E+02  0.48835346925E+03  0.49495889723E+03  0.00000000000E+00 0.  1.
         14    1    5    5    0    0  0.29142372314E+02 -0.11901313920E+02  0.19929632011E+03  0.20176704971E+03  0.00000000000E+00 0. -1.
         13    1    3    3    0    0 -0.38864479499E+02 -0.76027388759E+00 -0.38470333279E+03  0.38666222991E+03  0.00000000000E+00 0. -1.
        -14    1    3    3    0    0 -0.75207050408E+01  0.77140693194E+01 -0.17570937721E+04  0.17571268001E+04  0.00000000000E+00 0.  1.
          5    1    4    4  501    0 -0.80568736681E+01  0.76935782635E+02 -0.33751224080E+02  0.84502339552E+02  0.41800000000E+01 0.  1.
         -5    1    4    4    0  501  0.74566753901E+02 -0.82077418188E+01 -0.80011896472E+02  0.10975857046E+03  0.41800000000E+01 0.  1.
</event>
<event>
11    1  0.8037748E-009  0.2277189E+03  0.7561462E-02  0.1036487E+00
         22   -1    0    0    0    0  0.00000000000E+00  0.00000000000E+00  0.27911464898E+04  0.27911464898E+04  0.00000000000E+00 0. -1.
         22   -1    0    0    0    0 -0.00000000000E+00 -0.00000000000E+00 -0.17650275172E+04  0.17650275172E+04  0.00000000000E+00 0.  1.
        -24    2    1    2    0    0 -0.31676126319E+02 -0.49048218974E+02 -0.17203849243E+04  0.17230310428E+04  0.75515440314E+02 0.  0.
         25    2    1    2    0    0  0.29655164017E+02  0.23441156583E+03  0.41948255572E+03  0.49743491481E+03  0.12509064301E+03 0.  0.
         24    2    1    2    0    0  0.20209623021E+01 -0.18536334685E+03  0.23270213411E+04  0.23357080494E+04  0.78358889489E+02 0.  0.
        -13    1    5    5    0    0  0.37858148130E+02 -0.60981953635E+02  0.85152496511E+03  0.85454479360E+03  0.00000000000E+00 0.  1.
         14    1    5    5    0    0 -0.35837185828E+02 -0.12438139322E+03  0.14754963760E+04  0.14811632558E+04  0.00000000000E+00 0. -1.
         13    1    3    3    0    0 -0.13460940547E+02  0.14762063325E+02 -0.16099200365E+03  0.16222681860E+03  0.00000000000E+00 0. -1.
        -14    1    3    3    0    0 -0.18215185773E+02 -0.63810282300E+02 -0.15593929207E+04  0.15608042242E+04  0.00000000000E+00 0.  1.
          5    1    4    4  501    0 -0.43958518450E+02  0.45846836470E+02  0.12169581694E+03  0.13733764240E+03  0.41800000000E+01 0. -1.
         -5    1    4    4    0  501  0.73613682467E+02  0.18856472936E+03  0.29778673878E+03  0.36009727241E+03  0.41800000000E+01 0. -1.
</event>
<event>
11    1  0.8037748E-009  0.1932955E+03  0.7561462E-02  0.1059369E+00
         22   -1    0    0    0    0  0.00000000000E+00  0.00000000000E+00  0.90733265243E+03  0.90733265243E+03  0.00000000000E+00 0.  1.
         22   -1    0    0    0    0 -0.00000000000E+00 -0.00000000000E+00 -0.54212810268E+03  0.54212810268E+03  0.00000000000E+00 0.  1.
         24    2    1    2    0    0 -0.14328120938E+03  0.34793195854E+02 -0.50132513898E+03  0.52866518534E+03  0.80124351947E+02 0.  0.
         25    2    1    2    0    0  0.14844639233E+03 -0.17213122354E+01  0.38259809534E+03  0.42903290447E+03  0.12509450928E+03 0.  0.
        -24    2    1    2    0    0 -0.51651829501E+01 -0.33071883619E+02  0.48393159339E+03  0.49176266531E+03  0.80748395090E+02 0.  0.
        -13    1    3    3    0    0 -0.15218615587E+03  0.36694327509E+02 -0.44790193390E+03  0.47447153982E+03  0.00000000000E+00 0.  1.
         14    1    3    3    0    0  0.89049464822E+01 -0.19011316547E+01 -0.53423205081E+02  0.54193645518E+02  0.00000000000E+00 0. -1.
         11    1    5    5    0    0  0.33129750019E+02 -0.31399333301E+02  0.32942317254E+03  0.33257048137E+03  0.00000000000E+00 0. -1.
        -12    1    5    5    0    0 -0.38294932969E+02 -0.16725503180E+01  0.15450842085E+03  0.15919218394E+03  0.00000000000E+00 0.  1.
          5    1    4    4  501    0  0.39354571346E+01  0.42542150786E+02  0.82781925902E+02  0.93250426661E+02  0.41800000000E+01 0. -1.
         -5    1    4    4    0  501  0.14451093520E+03 -0.44263463021E+02  0.29981616943E+03  0.33578247781E+03  0.41800000000E+01 0. -1.
</event>
<event>
11    1  0.8037748E-009  0.1352507E+03  0.7561462E-02  0.1112981E+00
         22   -1    0    0    0    0  0.00000000000E+00  0.00000000000E+00  0.72313745240E+03  0.72313745240E+03  0.00000000000E+00 0. -1.
         22   -1    0    0    0    0 -0.00000000000E+00 -0.00000000000E+00 -0.21551815055E+04  0.21551815055E+04  0.00000000000E+00 0.  1.
         24    2    1    2    0    0  0.12936256374E+02 -0.45629656412E+02 -0.14222779935E+04  0.14253604973E+04  0.80798787610E+02 0.  0.
         25    2    1    2    0    0  0.87926616373E+01  0.74135790840E+02 -0.72133045715E+03  0.73589329376E+03  0.12509150656E+03 0.  0.
        -24    2    1    2    0    0 -0.21728918011E+02 -0.28506134428E+02  0.71156439754E+03  0.71706516690E+03  0.81079073488E+02 0.  0.
        -11    1    3    3    0    0  0.81291356948E+00 -0.48439150679E+02 -0.13887936569E+04  0.13896383823E+04  0.00000000000E+00 0.  1.
         12    1    3    3    0    0  0.12123342804E+02  0.28094942664E+01 -0.33484336593E+02  0.35722114941E+02  0.00000000000E+00 0. -1.
         11    1    5    5    0    0  0.11785191063E+02 -0.48008949349E+02  0.43370724114E+03  0.43651543038E+03  0.00000000000E+00 0. -1.
        -12    1    5    5    0    0 -0.33514109074E+02  0.19502814921E+02  0.27785715640E+03  0.28054973652E+03  0.00000000000E+00 0.  1.
          5    1    4    4  501    0 -0.37009229838E+02  0.56065206729E+02 -0.17768025733E+03  0.19000193879E+03  0.41800000000E+01 0.  1.
         -5    1    4    4    0  501  0.45801891475E+02  0.18070584112E+02 -0.54365019982E+03  0.54589135498E+03  0.41800000000E+01 0.  1.
</event>
<event>
11    1  0.8037748E-009  0.2586644E+03  0.7561462E-02  0.1019382E+00
         22   -1    0    0    0    0  0.00000000000E+00  0.00000000000E+00  0.74623760154E+03  0.74623760154E+03  0.00000000000E+00 0. -1.
         22   -1    0    0    0    0 -0.00000000000E+00 -0.00000000000E+00 -0.19376016050E+03  0.19376016050E+03  0.00000000000E+00 0. -1.
        -24    2    1    2    0    0  0.69309480480E+01  0.20424960739E+03  0.88358349366E+01  0.21952890357E+03  0.79680156645E+02 0.  0.
         25    2    1    2    0    0  0.40451580523E+02 -0.29989850378E+03  0.30888740474E+03  0.45014889213E+03  0.12508858198E+03 0.  0.
         24    2    1    2    0    0 -0.47382528571E+02  0.95648896392E+02  0.23475420136E+03  0.27031996635E+03  0.81052660385E+02 0.  0.
        -11    1    5    5    0    0  0.14371518157E+02 -0.20777126148E+01  0.52694831945E+02  0.54658967586E+02  0.00000000000E+00 0.  1.
         12    1    5    5    0    0 -0.61754046729E+02  0.97726609006E+02  0.18205936942E+03  0.21566099877E+03  0.00000000000E+00 0. -1.
         13    1    3    3    0    0  0.27476617943E+02  0.18364844947E+03  0.23102468209E+02  0.18712413411E+03  0.00000000000E+00 0. -1.
        -14    1    3    3    0    0 -0.20545669895E+02  0.20601157915E+02 -0.14266633273E+02  0.32404769461E+02  0.00000000000E+00 0.  1.
          5    1    4    4  501    0  0.80652696696E+02 -0.13436447823E+03  0.15738295472E+03  0.22213855436E+03  0.41800000000E+01 0.  1.
         -5    1    4    4    0  501 -0.40201116173E+02 -0.16553402555E+03  0.15150445002E+03  0.22801033777E+03  0.41800000000E+01 0.  1.
</event>
<event>
11    1  0.8037748E-009  0.1611294E+03  0.7561462E-02  0.1086020E+00
         22   -1    0    0    0    0  0.00000000000E+00  0.00000000000E+00  0.25453567043E+03  0.25453567043E+03  0.00000000000E+00 0.  1.
         22   -1    0    0    0    0 -0.00000000000E+00 -0.00000000000E+00 -0.73498394028E+03  0.73498394028E+03  0.00000000000E+00 0.  1.
         24    2    1    2    0    0  0.97558424936E+02  0.13733135172E+02 -0.53927587700E+03  0.55397823186E+03  0.79794514734E+02 0.  0.
         25    2    1    2    0    0 -0.12053596513E+03  0.40989864807E+01 -0.13565997892E+03  0.22044761630E+03  0.12509117104E+03 0.  0.
        -24    2    1    2    0    0  0.22977540191E+02 -0.17832121653E+02  0.19448758606E+03  0.21509376255E+03  0.87143293708E+02 0.  0.
        -11    1    3    3    0    0  0.36622039904E+02 -0.12727993362E+02 -0.37166423643E+03  0.37368098730E+03  0.00000000000E+00 0.  1.
         12    1    3    3    0    0  0.60936385032E+02  0.26461128534E+02 -0.16761164056E+03  0.18029724456E+03  0.00000000000E+00 0. -1.
         13    1    5    5    0    0 -0.26523889877E+02 -0.11367181831E+02  0.24269014289E+02  0.37705631032E+02  0.00000000000E+00 0. -1.
        -14    1    5    5    0    0  0.49501430068E+02 -0.64649398221E+01  0.17021857178E+03  0.17738813152E+03  0.00000000000E+00 0.  1.
          5    1    4    4  501    0 -0.12587065316E+03  0.38725112130E+02 -0.78785322899E+02  0.15351760531E+03  0.41800000000E+01 0.  1.
         -5    1    4    4    0  501  0.53346880290E+01 -0.34626125649E+02 -0.56874656023E+02  0.66930010993E+02  0.41800000000E+01 0.  1.
</event>
<event>
11    1  0.8037748E-009  0.1482423E+03  0.7561462E-02  0.1098688E+00
         22   -1    0    0    0    0  0.00000000000E+00  0.00000000000E+00  0.38336075788E+03  0.38336075788E+03  0.00000000000E+00 0.  1.
         22   -1    0    0    0    0 -0.00000000000E+00 -0.00000000000E+00 -0.18287543918E+03  0.18287543918E+03  0.00000000000E+00 0. -1.
         24    2    1    2    0    0 -0.51260771106E+01  0.99308218924E+01 -0.10901840824E+03  0.13412325054E+03  0.77324867340E+02 0.  0.
         25    2    1    2    0    0  0.36803315252E+02  0.64331641921E+02  0.52871944612E+02  0.15471628470E+03  0.12509453249E+03 0.  0.
        -24    2    1    2    0    0 -0.31677238142E+02 -0.74262463813E+02  0.25663178233E+03  0.27739666181E+03  0.67606769871E+02 0.  0.
        -11    1    3    3    0    0  0.60687415490E+01 -0.16177581242E+02  0.38775564221E+01  0.17708167681E+02  0.00000000000E+00 0.  1.
         12    1    3    3    0    0 -0.11194818660E+02  0.26108403134E+02 -0.11289596467E+03  0.11641508286E+03  0.00000000000E+00 0. -1.
         11    1    5    5    0    0 -0.11606015362E+02  0.12020778196E+02  0.39467053057E+02  0.42858452819E+02  0.00000000000E+00 0. -1.
        -12    1    5    5    0    0 -0.20071222780E+02 -0.86283242009E+02  0.21716472928E+03  0.23453820899E+03  0.00000000000E+00 0.  1.
          5    1    4    4  501    0  0.79082146597E+02  0.62287844072E+02  0.48911883902E+02  0.11199824202E+03  0.41800000000E+01 0.  1.
         -5    1    4    4    0  501 -0.42278831345E+02  0.20437978488E+01  0.39600607099E+01  0.42718042679E+02  0.41800000000E+01 0.  1.
</event>
<event>
11    1  0.8037748E-009  0.1491244E+03  0.7561462E-02  0.1097777E+00
         22   -1    0    0    0    0  0.00000000000E+00  0.00000000000E+00  0.32982524440E+03  0.32982524440E+03  0.00000000000E+00 0.  1.
         22   -1    0    0    0    0 -0.00000000000E+00 -0.00000000000E+00 -0.53503209317E+03  0.53503209317E+03  0.00000000000E+00 0.  1.
         24    2    1    2    0    0 -0.71463106193E+01 -0.55420272122E+02 -0.44564351215E+03  0.45630117795E+03  0.80561459517E+02 0.  0.
         25    2    1    2    0    0  0.17653655395E+02 -0.33505676147E+02 -0.10837441125E+02  0.13116449678E+03  0.12510952482E+03 0.  0.
        -24    2    1    2    0    0 -0.10507344776E+02  0.88925948270E+02  0.25127410451E+03  0.27739166284E+03  0.76086992595E+02 0.  0.
        -11    1    3    3    0    0 -0.28069657628E+02 -0.31500123872E+02 -0.38956988118E+03  0.39184800089E+03  0.00000000000E+00 0.  1.
         12    1    3    3    0    0  0.20923347009E+02 -0.23920148250E+02 -0.56073630979E+02  0.64453177063E+02  0.00000000000E+00 0. -1.
         11    1    5    5    0    0  0.12269627932E+02 -0.10661242688E+01  0.35071009250E+01  0.12805473339E+02  0.00000000000E+00 0. -1.
        -12    1    5    5    0    0 -0.22776972708E+02  0.89992072538E+02  0.24776700359E+03  0.26458618950E+03  0.00000000000E+00 0.  1.
          5    1    4    4  501    0  0.11958071268E+02  0.44275107651E+02 -0.24050642607E+02  0.51953695112E+02  0.41800000000E+01 0.  1.
         -5    1    4    4    0  501  0.56955841274E+01 -0.77780783799E+02  0.13213201482E+02  0.79210801664E+02  0.41800000000E+01 0.  1.
</event>
<event>
11    1  0.8037748E-009  0.2122253E+03  0.7561462E-02  0.1046200E+00
         22   -1    0    0    0    0  0.00000000000E+00  0.00000000000E+00  0.15696131017E+03  0.15696131017E+03  0.00000000000E+00 0. -1.
         22   -1    0    0    0    0 -0.00000000000E+00 -0.00000000000E+00 -0.52588479502E+03  0.52588479502E+03  0.00000000000E+00 0. -1.
        -24    2    1    2    0    0 -0.54947748719E+02 -0.64653048577E+02 -0.53907630614E+02  0.12794345890E+03  0.79146852486E+02 0.  0.
         25    2    1    2    0    0  0.36083252893E+02  0.18969567160E+03 -0.33211952645E+03  0.40402640212E+03  0.12508998678E+03 0.  0.
         24    2    1    2    0    0  0.18864495826E+02 -0.12504262302E+03  0.17103672224E+02  0.15087624417E+03  0.80495830177E+02 0.  0.
        -13    1    5    5    0    0  0.19702127192E+02 -0.10263519160E+03  0.46096882758E+02  0.11422381088E+03  0.00000000000E+00 0.  1.
         14    1    5    5    0    0 -0.83763136608E+00 -0.22407431416E+02 -0.28993210533E+02  0.36652433289E+02  0.00000000000E+00 0. -1.
         13    1    3    3    0    0 -0.12937391091E+02 -0.22529702661E+02  0.20201348750E+02  0.32909847790E+02  0.00000000000E+00 0. -1.
        -14    1    3    3    0    0 -0.42010357629E+02 -0.42123345916E+02 -0.74108979364E+02  0.95033611115E+02  0.00000000000E+00 0.  1.
          5    1    4    4  501    0  0.82870196136E+02  0.11736669826E+03 -0.20192777300E+03  0.24786026139E+03  0.41800000000E+01 0. -1.
         -5    1    4    4    0  501 -0.46786943242E+02  0.72328973333E+02 -0.13019175346E+03  0.15616614073E+03  0.41800000000E+01 0. -1.
</event>
<event>
11    1  0.8037748E-009  0.2254395E+03  0.7561462E-02  0.1037863E+00
         22   -1    0    0    0    0  0.00000000000E+00  0.00000000000E+00  0.52621786302E+03  0.52621786302E+03  0.00000000000E+00 0. -1.
         22   -1    0    0    0    0 -0.00000000000E+00 -0.00000000000E+00 -0.21589390780E+04  0.21589390780E+04  0.00000000000E+00 0.  1.
         24    2    1    2    0    0  0.25308254439E+02 -0.48894436191E+02 -0.19440675903E+04  0.19465314809E+04  0.80961948155E+02 0.  0.
         25    2    1    2    0    0 -0.17464086261E+03  0.15293788508E+03 -0.97627405667E+02  0.28119030080E+03  0.12508975713E+03 0.  0.
        -24    2    1    2    0    0  0.14933260817E+03 -0.10404344889E+03  0.40897378102E+03  0.45743515923E+03  0.94138749842E+02 0.  0.
        -11    1    3    3    0    0  0.43365531342E+02 -0.58945519143E+02 -0.12375601723E+04  0.12397218735E+04  0.00000000000E+00 0.  1.
         12    1    3    3    0    0 -0.18057276903E+02  0.10051082952E+02 -0.70650741799E+03  0.70680960746E+03  0.00000000000E+00 0. -1.
         13    1    5    5    0    0  0.15293922358E+03 -0.96403426163E+02  0.41077341450E+03  0.44879708638E+03  0.00000000000E+00 0. -1.
        -14    1    5    5    0    0 -0.36066154101E+01 -0.76400227233E+01 -0.17996334793E+01  0.86380728515E+01  0.00000000000E+00 0.  1.
          5    1    4    4  501    0 -0.78780226934E+02  0.14720586309E+01 -0.57014380243E+02  0.97347845722E+02  0.41800000000E+01 0. -1.
         -5    1    4    4    0  501 -0.95860635676E+02  0.15146582645E+03 -0.40613025424E+02  0.18384245507E+03  0.41800000000E+01 0. -1.
</event>
<event>
11    1  0.8037748E-009  0.1767051E+03  0.7561462E-02  0.1072340E+00
         22   -1    0    0    0    0  0.00000000000E+00  0.00000000000E+00  0.43864498684E+04  0.43864498684E+04  0.00000000000E+00 0. -1.
         22   -1    0    0    0    0 -0.00000000000E+00 -0.00000000000E+00 -0.47492011447E+02  0.47492011447E+02  0.00000000000E+00 0. -1.
         24    2    1    2    0    0  0.50934980458E+02 -0.25244254804E+01  0.19361245674E+03  0.21590770034E+03  0.80805981860E+02 0.  0.
         25    2    1    2    0    0 -0.17279932206E+03 -0.12785665118E+02  0.29186267059E+03  0.36175703008E+03  0.12514492154E+03 0.  0.
        -24    2    1    2    0    0  0.12186434161E+03  0.15310090598E+02  0.38534827296E+04  0.38562771494E+04  0.80367835956E+02 0.  0.
        -11    1    3    3    0    0 -0.14116772437E+02  0.81838638890E+01  0.10051476822E+03  0.10183063155E+03  0.00000000000E+00 0.  1.
         12    1    3    3    0    0  0.65051752895E+02 -0.10708289369E+02  0.93097688514E+02  0.11407706878E+03  0.00000000000E+00 0. -1.
         11    1    5    5    0    0  0.30485613584E+02 -0.26513455587E+02  0.67650862192E+03  0.67771398945E+03  0.00000000000E+00 0. -1.
        -12    1    5    5    0    0  0.91378728021E+02  0.41823546185E+02  0.31769741077E+04  0.31785631600E+04  0.00000000000E+00 0.  1.
          5    1    4    4  501    0 -0.13385244355E+03 -0.21696380284E+02  0.10756651706E+03  0.17313358297E+03  0.41800000000E+01 0.  1.
         -5    1    4    4    0  501 -0.38946878518E+02  0.89107151660E+01  0.18429615353E+03  0.18862344711E+03  0.41800000000E+01 0.  1.
</event>
<event>
11    1  0.8037748E-009  0.1390689E+03  0.7561462E-02  0.1108603E+00
         22   -1    0    0    0    0  0.00000000000E+00  0.00000000000E+00  0.13761552083E+04  0.13761552083E+04  0.00000000000E+00 0. -1.
         22   -1    0    0    0    0 -0.00000000000E+00 -0.00000000000E+00 -0.37412775713E+03  0.37412775713E+03  0.00000000000E+00 0. -1.
         24    2    1    2    0    0 -0.32517901360E+02  0.50451912750E+02 -0.21429079482E+03  0.23667452725E+03  0.80569707060E+02 0.  0.
         25    2    1    2    0    0  0.74885308704E+02 -0.20765837391E+02 -0.10996642625E+03  0.18379329364E+03  0.12509328688E+03 0.  0.
        -24    2    1    2    0    0 -0.42367407344E+02 -0.29686075359E+02  0.13262846722E+04  0.13298151446E+04  0.81859798254E+02 0.  0.
        -11    1    3    3    0    0 -0.48250768178E+01 -0.18690025771E+02 -0.16743758566E+02  0.25552923131E+02  0.00000000000E+00 0.  1.
         12    1    3    3    0    0 -0.27692824543E+02  0.69141938520E+02 -0.19754703625E+03  0.21112160412E+03  0.00000000000E+00 0. -1.
         11    1    5    5    0    0 -0.49192341734E+02 -0.47538101911E+01  0.11943463460E+04  0.11953684283E+04  0.00000000000E+00 0. -1.
        -12    1    5    5    0    0  0.68249343906E+01 -0.24932265168E+02  0.13193832627E+03  0.13444671627E+03  0.00000000000E+00 0.  1.
          5    1    4    4  501    0  0.68620550391E+02 -0.68241761135E+02 -0.57551890993E+02  0.11267391205E+03  0.41800000000E+01 0. -1.
         -5    1    4    4    0  501  0.62647583134E+01  0.47475923744E+02 -0.52414535256E+02  0.71119381593E+02  0.41800000000E+01 0. -1.
</event>
<event>
11    1  0.8037748E-009  0.1792563E+03  0.7561462E-02  0.1070246E+00
         22   -1    0    0    0    0  0.00000000000E+00  0.00000000000E+00  0.50679581803E+03  0.50679581803E+03  0.00000000000E+00 0.  1.
         22   -1    0    0    0    0 -0.00000000000E+00 -0.00000000000E+00 -0.32396175418E+03  0.32396175418E+03  0.00000000000E+00 0.  1.
         24    2    1    2    0    0  0.83624267462E+02  0.88087110306E+02 -0.22220138567E+03  0.26455136460E+03  0.76561162504E+02 0.  0.
         25    2    1    2    0    0 -0.17116756149E+03 -0.10850650751E+03  0.14377152729E+03  0.27819405362E+03  0.12509869358E+03 0.  0.
        -24    2    1    2    0    0  0.87543294028E+02  0.20419397202E+02  0.26126392224E+03  0.28801215399E+03  0.81310415511E+02 0.  0.
        -11    1    3    3    0    0  0.78067599205E+02  0.98875985034E+02 -0.17383011856E+03  0.21468097396E+03  0.00000000000E+00 0.  1.
         12    1    3    3    0    0  0.55566682570E+01 -0.10788874728E+02 -0.48371267114E+02  0.49870390636E+02  0.00000000000E+00 0. -1.
         11    1    5    5    0    0  0.19221070206E+02 -0.10678452545E+02  0.72718619584E+01  0.23159422811E+02  0.00000000000E+00 0. -1.
        -12    1    5    5    0    0  0.68322223822E+02  0.31097849747E+02  0.25399206028E+03  0.26485273118E+03  0.00000000000E+00 0.  1.
          5    1    4    4  501    0 -0.62930481525E+02 -0.34328483539E+02  0.12693295887E+03  0.14583599945E+03  0.41800000000E+01 0. -1.
         -5    1    4    4    0  501 -0.10823707997E+03 -0.74178023968E+02  0.16838568416E+02  0.13235805418E+03  0.41800000000E+01 0. -1.
</event>
<event>
11    1  0.8037748E-009  0.1513210E+03  0.7561462E-02  0.1095537E+00
         22   -1    0    0    0    0  0.00000000000E+00  0.00000000000E+00  0.38422933640E+04  0.38422933640E+04  0.00000000000E+00 0.  1.
         22   -1    0    0    0    0 -0.00000000000E+00 -0.00000000000E+00 -0.26633252498E+03  0.26633252498E+03  0.00000000000E+00 0. -1.
         24    2    1    2    0    0 -0.23339414529E+02 -0.29260745750E+02 -0.24331070183E+03  0.25944565599E+03  0.81920884215E+02 0.  0.
         25    2    1    2    0    0  0.30305705395E+02  0.11202148050E+03  0.50760125525E+03  0.53551407963E+03  0.12509615211E+03 0.  0.
        -24    2    1    2    0    0 -0.69662908655E+01 -0.82760734749E+02  0.33116702856E+04  0.33136661534E+04  0.79532553295E+02 0.  0.
        -13    1    3    3    0    0 -0.41363481863E+02  0.21490907028E+01 -0.62058245148E+02  0.74610870613E+02  0.00000000000E+00 0.  1.
         14    1    3    3    0    0  0.18024067334E+02 -0.31409836453E+02 -0.18125245669E+03  0.18483478537E+03  0.00000000000E+00 0. -1.
         11    1    5    5    0    0  0.24085757333E+02 -0.58704478484E+02  0.12390692210E+04  0.12406929008E+04  0.00000000000E+00 0. -1.
        -12    1    5    5    0    0 -0.31052048198E+02 -0.24056256265E+02  0.20726010646E+04  0.20729732526E+04  0.00000000000E+00 0.  1.
          5    1    4    4  501    0  0.27526073757E+02  0.89465490533E+02  0.14796834994E+03  0.17513955497E+03  0.41800000000E+01 0. -1.
         -5    1    4    4    0  501  0.27796316371E+01  0.22555989966E+02  0.35963290532E+03  0.36037452466E+03  0.41800000000E+01 0. -1.
</event>
<event>
11    1  0.8037748E-009  0.2156800E+03  0.7561462E-02  0.1043958E+00
         22   -1    0    0    0    0  0.00000000000E+00  0.00000000000E+00  0.89174577013E+02  0.89174577013E+02  0.00000000000E+00 0. -1.
         22   -1    0    0    0    0 -0.00000000000E+00 -0.00000000000E+00 -0.30496297308E+04  0.30496297308E+04  0.00000000000E+00 0.  1.
         24    2    1    2    0    0 -0.97751565899E+02  0.24356949575E+02 -0.22980378543E+04  0.23016974566E+04  0.81759235501E+02 0.  0.
         25    2    1    2    0    0  0.25419238916E+03 -0.84707536848E+01 -0.57156617480E+03  0.63798187329E+03  0.12508978413E+03 0.  0.
        -24    2    1    2    0    0 -0.15644082326E+03 -0.15886195890E+02 -0.90851124656E+02  0.19912497783E+03  0.81674521988E+02 0.  0.
        -11    1    3    3    0    0 -0.49346903463E+02 -0.20199821565E+02 -0.59349889827E+03  0.59588932859E+03  0.00000000000E+00 0.  1.
         12    1    3    3    0    0 -0.48404662436E+02  0.44556771140E+02 -0.17045389560E+04  0.17058081281E+04  0.00000000000E+00 0. -1.
         11    1    5    5    0    0 -0.99769896927E+02 -0.22936749855E+02 -0.13920478484E+02  0.10331459988E+03  0.00000000000E+00 0. -1.
        -12    1    5    5    0    0 -0.56670926336E+02  0.70505539646E+01 -0.76930646173E+02  0.95810377953E+02  0.00000000000E+00 0.  1.
          5    1    4    4  501    0  0.93375349307E+02 -0.53843810463E+02 -0.30323163609E+03  0.32184625104E+03  0.41800000000E+01 0.  1.
         -5    1    4    4    0  501  0.16081703985E+03  0.45373056778E+02 -0.26833453871E+03  0.31613562225E+03  0.41800000000E+01 0.  1.
</event>
<event>
11    1  0.8037748E-009  0.1394395E+03  0.7561462E-02  0.1108186E+00
         22   -1    0    0    0    0  0.00000000000E+00  0.00000000000E+00  0.23257776953E+03  0.23257776953E+03  0.00000000000E+00 0.  1.
         22   -1    0    0    0    0 -0.00000000000E+00 -0.00000000000E+00 -0.10684276680E+04  0.10684276680E+04  0.00000000000E+00 0. -1.
         24    2    1    2    0    0 -0.47129265903E+02  0.48024415789E+02 -0.84051445587E+03  0.84688005808E+03  0.78827469983E+02 0.  0.
         25    2    1    2    0    0 -0.14130990468E+02 -0.45091376880E+02 -0.19288022614E+03  0.23470385305E+03  0.12510075875E+03 0.  0.
        -24    2    1    2    0    0  0.61260256372E+02 -0.29330389085E+01  0.19754478351E+03  0.21942152643E+03  0.73215046541E+02 0.  0.
        -11    1    3    3    0    0 -0.56882252907E+01 -0.11606364860E+02 -0.25043535384E+02  0.28182304319E+02  0.00000000000E+00 0.  1.
         12    1    3    3    0    0 -0.41441040613E+02  0.59630780648E+02 -0.81547092049E+03  0.81869775376E+03  0.00000000000E+00 0. -1.
         11    1    5    5    0    0  0.10809515669E+02 -0.96718946363E+01 -0.91984125834E+00  0.14534004362E+02  0.00000000000E+00 0. -1.
        -12    1    5    5    0    0  0.50450740702E+02  0.67388557279E+01  0.19846462477E+03  0.20488752206E+03  0.00000000000E+00 0.  1.
          5    1    4    4  501    0 -0.56797349982E+00  0.22823516703E+02 -0.15285000400E+03  0.15460217214E+03  0.41800000000E+01 0.  1.
         -5    1    4    4    0  501 -0.13563016968E+02 -0.67914893583E+02 -0.40030222142E+02  0.80101680909E+02  0.41800000000E+01 0.  1.
</event>
<event>
11    1  0.8037748E-009  0.1927924E+03  0.7561462E-02  0.1059741E+00
         22   -1    0    0    0    0  0.00000000000E+00  0.00000000000E+00  0.37538161646E+03  0.37538161646E+03  0.00000000000E+00 0.  1.
         22   -1    0    0    0    0 -0.00000000000E+00 -0.00000000000E+00 -0.30636169074E+03  0.30636169074E+03  0.00000000000E+00 0. -1.
         24    2    1    2    0    0  0.41780916724E+02  0.13214120984E+03 -0.18771683191E+03  0.24650257514E+03  0.79491925545E+02 0.  0.
         25    2    1    2    0    0 -0.66256829623E+02 -0.19718971446E+03  0.15577837622E+03  0.28842400940E+03  0.12509098984E+03 0.  0.
        -24    2    1    2    0    0  0.24475912900E+02  0.65048504623E+02  0.10095838142E+03  0.14681672266E+03  0.80821884457E+02 0.  0.
        -11    1    3    3    0    0  0.37978480898E+01  0.11929918885E+03 -0.13363260477E+03  0.17917698839E+03  0.00000000000E+00 0.  1.
         12    1    3    3    0    0  0.37983068634E+02  0.12842020994E+02 -0.54084227141E+02  0.67325586752E+02  0.00000000000E+00 0. -1.
         11    1    5    5    0    0  0.36617523515E+02  0.12507105093E+00  0.18077424034E+02  0.40836894236E+02  0.00000000000E+00 0. -1.
        -12    1    5    5    0    0 -0.12141610615E+02  0.64923433572E+02  0.82880957390E+02  0.10597982842E+03  0.00000000000E+00 0.  1.
          5    1    4    4  501    0 -0.57336857847E+02 -0.75003634684E+02  0.57384366693E+01  0.94675564635E+02  0.41800000000E+01 0. -1.
         -5    1    4    4    0  501 -0.89199717764E+01 -0.12218607978E+03  0.15003993955E+03  0.19374844476E+03  0.41800000000E+01 0. -1.
</event>
<event>
11    1  0.8037748E-009  0.1491237E+03  0.7561462E-02  0.1097778E+00
         22   -1    0    0    0    0  0.00000000000E+00  0.00000000000E+00  0.21932316084E+04  0.21932316084E+04  0.00000000000E+00 0.  1.
         22   -1    0    0    0    0 -0.00000000000E+00 -0.00000000000E+00 -0.27478125825E+03  0.27478125825E+03  0.00000000000E+00 0. -1.
        -24    2    1    2    0    0  0.24141668497E+02 -0.76593244504E+02 -0.24840844506E+03  0.27288978559E+03  0.79452717007E+02 0.  0.
         25    2    1    2    0    0 -0.87076594784E+02  0.11299444464E+03  0.73105022247E+03  0.75526952443E+03  0.12509016301E+03 0.  0.
         24    2    1    2    0    0  0.62934926287E+02 -0.36401200133E+02  0.14358085727E+04  0.14398535566E+04  0.79662755902E+02 0.  0.
        -11    1    5    5    0    0  0.69977271522E+02 -0.52705886362E+02  0.12892004740E+04  0.12921735917E+04  0.00000000000E+00 0.  1.
         12    1    5    5    0    0 -0.70423452344E+01  0.16304686229E+02  0.14660809870E+03  0.14767996487E+03  0.00000000000E+00 0. -1.
         11    1    3    3    0    0  0.35491212247E+02 -0.84513054357E+02 -0.23947244124E+03  0.25641593675E+03  0.00000000000E+00 0. -1.
        -12    1    3    3    0    0 -0.11349543750E+02  0.79198098534E+01 -0.89360038215E+01  0.16473848844E+02  0.00000000000E+00 0.  1.
          5    1    4    4  501    0  0.23663963825E+02  0.61812925123E+02  0.21600835735E+03  0.22595996048E+03  0.41800000000E+01 0. -1.
         -5    1    4    4    0  501 -0.11074055861E+03  0.51181519514E+02  0.51504186512E+03  0.52930956395E+03  0.41800000000E+01 0. -1.
</event>
<event>
11    1  0.8037748E-009  0.1340098E+03  0.7561462E-02  0.1114438E+00
         22   -1    0    0    0    0  0.00000000000E+00  0.00000000000E+00  0.14183115783E+04  0.14183115783E+04  0.00000000000E+00 0.  1.
         22   -1    0    0    0    0 -0.00000000000E+00 -0.00000000000E+00 -0.34858573093E+03  0.34858573093E+03  0.00000000000E+00 0.  1.
         24    2    1    2    0    0  0.12249771830E+02 -0.46555672538E+02 -0.33132797411E+03  0.34431124552E+03  0.80340026190E+02 0.  0.
         25    2    1    2    0    0  0.62154564186E+00  0.44135141146E+02  0.49483575409E+03  0.51230723548E+03  0.12509189820E+03 0.  0.
        -24    2    1    2    0    0 -0.12871317472E+02  0.24205313927E+01  0.90621806736E+03  0.91027882819E+03  0.84881268036E+02 0.  0.
        -13    1    3    3    0    0 -0.25228942491E+02 -0.47686019380E+02 -0.23071470460E+03  0.23693824280E+03  0.00000000000E+00 0.  1.
         14    1    3    3    0    0  0.37478714321E+02  0.11303468420E+01 -0.10061326951E+03  0.10737300272E+03  0.00000000000E+00 0. -1.
         11    1    5    5    0    0  0.26219941644E+01  0.24564691350E+02  0.82545022828E+02  0.86162519161E+02  0.00000000000E+00 0. -1.
        -12    1    5    5    0    0 -0.15493311636E+02 -0.22144159958E+02  0.82367304453E+03  0.82411630903E+03  0.00000000000E+00 0.  1.
          5    1    4    4  501    0  0.94611054162E+01 -0.12708507836E+02  0.40636535853E+03  0.40669558111E+03  0.41800000000E+01 0.  1.
         -5    1    4    4    0  501 -0.88395597744E+01  0.56843648982E+02  0.88470395564E+02  0.10561165437E+03  0.41800000000E+01 0.  1.
</event>
<event>
11    1  0.8037748E-009  0.2053718E+03  0.7561462E-02  0.1050789E+00
         22   -1    0    0    0    0  0.00000000000E+00  0.00000000000E+00  0.11688918878E+03  0.11688918878E+03  0.00000000000E+00 0.  1.
         22   -1    0    0    0    0 -0.00000000000E+00 -0.00000000000E+00 -0.22897451777E+04  0.22897451777E+04  0.00000000000E+00 0.  1.
         24    2    1    2    0    0  0.49983090237E+02 -0.15219296029E+03 -0.18729821772E+04  0.18815856149E+04  0.81493458583E+02 0.  0.
         25    2    1    2    0    0 -0.46965613955E+02  0.17656840446E+03 -0.36078624414E+03  0.42331514177E+03  0.12508726930E+03 0.  0.
        -24    2    1    2    0    0 -0.30174762825E+01 -0.24375444170E+02  0.60912432348E+02  0.10173360983E+03  0.77692570519E+02 0.  0.
        -13    1    3    3    0    0  0.43161904376E+02 -0.16173955016E+03 -0.17066763484E+04  0.17148664060E+04  0.00000000000E+00 0.  1.
         14    1    3    3    0    0  0.68211858608E+01  0.95465898714E+01 -0.16630582874E+03  0.16671920893E+03  0.00000000000E+00 0. -1.
         11    1    5    5    0    0  0.32592888255E+01  0.24095653026E+02  0.89376571986E+00  0.24331507877E+02  0.00000000000E+00 0. -1.
        -12    1    5    5    0    0 -0.62767651080E+01 -0.48471097196E+02  0.60018666628E+02  0.77402101958E+02  0.00000000000E+00 0.  1.
          5    1    4    4  501    0  0.33955872737E+02  0.40898917655E+02 -0.43349555002E+02  0.68719568374E+02  0.41800000000E+01 0. -1.
         -5    1    4    4    0  501 -0.80921486691E+02  0.13566948680E+03 -0.31743668914E+03  0.35459557339E+03  0.41800000000E+01 0. -1.
</event>
<event>
11    1  0.8037748E-009  0.1335400E+03  0.7561462E-02  0.1114994E+00
         22   -1    0    0    0    0  0.00000000000E+00  0.00000000000E+00  0.65174729478E+02  0.65174729478E+02  0.00000000000E+00 0.  1.
         22   -1    0    0    0    0 -0.00000000000E+00 -0.00000000000E+00 -0.90465904194E+03  0.90465904194E+03  0.00000000000E+00 0.  1.
         24    2    1    2    0    0  0.47953302931E+02 -0.56123974984E+02 -0.55680759260E+03  0.56742256785E+03  0.80524875014E+02 0.  0.
         25    2    1    2    0    0  0.57486192069E+01  0.63487552526E+02 -0.23480837598E+03  0.27358032193E+03  0.12508998029E+03 0.  0.
        -24    2    1    2    0    0 -0.53701922138E+02 -0.73635775419E+01 -0.47868343876E+02  0.12883088163E+03  0.10662034985E+03 0.  0.
        -13    1    3    3    0    0  0.22523079604E+02 -0.63816625820E+02 -0.50171150609E+03  0.50625515917E+03  0.00000000000E+00 0.  1.
         14    1    3    3    0    0  0.25430223327E+02  0.76926508355E+01 -0.55096086513E+02  0.61167408678E+02  0.00000000000E+00 0. -1.
         11    1    5    5    0    0  0.17457215643E+02  0.53689226291E+01 -0.53295492947E+02  0.56338168915E+02  0.00000000000E+00 0. -1.
        -12    1    5    5    0    0 -0.71159137781E+02 -0.12732500171E+02  0.54271490712E+01  0.72492712720E+02  0.00000000000E+00 0.  1.
          5    1    4    4  501    0  0.18605822973E+02  0.53589689661E+02 -0.24661053243E+03  0.25308547685E+03  0.41800000000E+01 0.  1.
         -5    1    4    4    0  501 -0.12857203766E+02  0.98978628652E+01  0.11802156451E+02  0.20494845080E+02  0.41800000000E+01 0.  1.
</event>
<event>
11    1  0.8037748E-009  0.1294226E+03  0.7561462E-02  0.1119980E+00
         22   -1    0    0    0    0  0.00000000000E+00  0.00000000000E+00  0.11508991091E+04  0.11508991091E+04  0.00000000000E+00 0.  1.
         22   -1    0    0    0    0 -0.00000000000E+00 -0.00000000000E+00 -0.99872844078E+03  0.99872844078E+03  0.00000000000E+00 0.  1.
        -24    2    1    2    0    0  0.77534689427E+01 -0.35044222063E+02 -0.91245904108E+03  0.91624889219E+03  0.75115357970E+02 0.  0.
         25    2    1    2    0    0  0.22431203684E+02  0.20150450843E+02 -0.32518934465E+02  0.13272091258E+03  0.12509260557E+03 0.  0.
         24    2    1    2    0    0 -0.30184672627E+02  0.14893771219E+02  0.10971486439E+04  0.11006577451E+04  0.81113416069E+02 0.  0.
        -11    1    5    5    0    0  0.17872062910E+02  0.20820160168E+02  0.70459472459E+03  0.70512879365E+03  0.00000000000E+00 0.  1.
         12    1    5    5    0    0 -0.48056735537E+02 -0.59263889489E+01  0.39255391927E+03  0.39552895147E+03  0.00000000000E+00 0. -1.
         11    1    3    3    0    0 -0.92353287616E+00  0.80841271443E+01 -0.65554823994E+03  0.65559873468E+03  0.00000000000E+00 0. -1.
        -12    1    3    3    0    0  0.86770018189E+01 -0.43128349207E+02 -0.25691080114E+03  0.26065015751E+03  0.00000000000E+00 0.  1.
          5    1    4    4  501    0  0.36116029150E+02  0.50825020871E+02  0.23918810420E+02  0.66911375714E+02  0.41800000000E+01 0.  1.
         -5    1    4    4    0  501 -0.13684825466E+02 -0.30674570027E+02 -0.56437744885E+02  0.65809536863E+02  0.41800000000E+01 0.  1.
</event>
<event>
11    1  0.8037748E-009  0.1419681E+03  0.7561462E-02  0.1105380E+00
         22   -1    0    0    0    0  0.00000000000E+00  0.00000000000E+00  0.22836185818E+04  0.22836185818E+04  0.00000000000E+00 0.  1.
         22   -1    0    0    0    0 -0.00000000000E+00 -0.00000000000E+00 -0.50818106564E+03  0.50818106564E+03  0.00000000000E+00 0.  1.
        -24    2    1    2    0    0  0.65692844715E+02 -0.90924466755E+01 -0.30564711163E+03  0.32291512810E+03  0.80347997343E+02 0.  0.
         25    2    1    2    0    0 -0.57938256461E+02  0.59112224018E+02 -0.16373302925E+03  0.22205307562E+03  0.12509183400E+03 0.  0.
         24    2    1    2    0    0 -0.77545882547E+01 -0.50019777343E+02  0.22448176571E+04  0.22468314438E+04  0.80517770423E+02 0.  0.
        -11    1    5    5    0    0 -0.40760616876E+01 -0.47913561190E+01  0.17316403463E+04  0.17316517722E+04  0.00000000000E+00 0.  1.
         12    1    5    5    0    0 -0.36785265671E+01 -0.45228421224E+02  0.51317731082E+03  0.51517967155E+03  0.00000000000E+00 0. -1.
         13    1    3    3    0    0 -0.56798071131E+01 -0.14968463405E+02 -0.10363370560E+02  0.19071301868E+02  0.00000000000E+00 0. -1.
        -14    1    3    3    0    0  0.71372651829E+02  0.58760167299E+01 -0.29528374107E+03  0.30384382623E+03  0.00000000000E+00 0.  1.
          5    1    4    4  501    0  0.79785551936E+01  0.54438384376E+02 -0.11952557447E+02  0.56458224078E+02  0.41800000000E+01 0.  1.
         -5    1    4    4    0  501 -0.65916811654E+02  0.46738396421E+01 -0.15178047180E+03  0.16559485154E+03  0.41800000000E+01 0.  1.
</event>
<event>
11    1  0.8037748E-009  0.2380283E+03  0.7561462E-02  0.1030477E+00
         22   -1    0    0    0    0  0.00000000000E+00  0.00000000000E+00  0.62914065624E+03  0.62914065624E+03  0.00000000000E+00 0.  1.
         22   -1    0    0    0    0 -0.00000000000E+00 -0.00000000000E+00 -0.26827737632E+04  0.26827737632E+04  0.00000000000E+00 0.  1.
        -24    2    1    2    0    0  0.68849311098E+02 -0.24398664162E+02 -0.24250411983E+04  0.24275111660E+04  0.81548300092E+02 0.  0.
         25    2    1    2    0    0  0.73296272048E+02  0.17196957409E+03 -0.18187382325E+03  0.28926270541E+03  0.12509575232E+03 0.  0.
         24    2    1    2    0    0 -0.14214558315E+03 -0.14757090993E+03  0.55328191454E+03  0.59514054806E+03  0.78031113779E+02 0.  0.
        -13    1    5    5    0    0 -0.40046717268E+02 -0.59933741033E+02  0.29771952435E+03  0.30632124976E+03  0.00000000000E+00 0.  1.
         14    1    5    5    0    0 -0.10209886588E+03 -0.87637168897E+02  0.25556239019E+03  0.28881929829E+03  0.00000000000E+00 0. -1.
         11    1    3    3    0    0  0.23903428368E+02 -0.19733024903E+02 -0.23882754557E+03  0.24083056841E+03  0.00000000000E+00 0. -1.
        -12    1    3    3    0    0  0.44945882730E+02 -0.46656392594E+01 -0.21862136527E+04  0.21866805976E+04  0.00000000000E+00 0.  1.
          5    1    4    4  501    0  0.95221849154E+02  0.16242801485E+03 -0.12131453514E+03  0.22401952906E+03  0.41800000000E+01 0. -1.
         -5    1    4    4    0  501 -0.21925577105E+02  0.95415592400E+01 -0.60559288103E+02  0.65243176346E+02  0.41800000000E+01 0. -1.
</event>
<event>
11    1  0.8037748E-009  0.1279128E+03  0.7561462E-02  0.1121860E+00
         22   -1    0    0    0    0  0.00000000000E+00  0.00000000000E+00  0.12757655609E+03  0.12757655609E+03  0.00000000000E+00 0. -1.
         22   -1    0    0    0    0 -0.00000000000E+00 -0.00000000000E+00 -0.22553787050E+04  0.22553787050E+04  0.00000000000E+00 0. -1.
        -24    2    1    2    0    0 -0.87961629585E+01 -0.21061255654E+02 -0.15463641414E+04  0.15486410796E+04  0.80784817723E+02 0.  0.
         25    2    1    2    0    0  0.21165369922E+02  0.43960276748E+02 -0.68691219108E+03  0.69991309855E+03  0.12509799535E+03 0.  0.
         24    2    1    2    0    0 -0.12369206964E+02 -0.22899021094E+02  0.10547418354E+03  0.13440108294E+03  0.79129547292E+02 0.  0.
        -13    1    5    5    0    0  0.13859024887E+02 -0.43873549268E+02  0.40655521953E+02  0.61398960589E+02  0.00000000000E+00 0.  1.
         14    1    5    5    0    0 -0.26228231850E+02  0.20974528174E+02  0.64818661586E+02  0.73002122352E+02  0.00000000000E+00 0. -1.
         11    1    3    3    0    0  0.11828215257E+02 -0.33098428143E+01 -0.13808747035E+04  0.13809293278E+04  0.00000000000E+00 0. -1.
        -12    1    3    3    0    0 -0.20624378216E+02 -0.17751412839E+02 -0.16548943793E+03  0.16771175182E+03  0.00000000000E+00 0.  1.
          5    1    4    4  501    0 -0.28292607357E+02  0.64714267983E+02 -0.51339032887E+03  0.51824271368E+03  0.41800000000E+01 0. -1.
         -5    1    4    4    0  501  0.49457977279E+02 -0.20753991235E+02 -0.17352186222E+03  0.18167038486E+03  0.41800000000E+01 0. -1.
</event>
<event>
11    1  0.8037748E-009  0.5397999E+03  0.7561462E-02  0.9308736E-01
         22   -1    0    0    0    0  0.00000000000E+00  0.00000000000E+00  0.69447460414E+03  0.69447460414E+03  0.00000000000E+00 0.  1.
         22   -1    0    0    0    0 -0.00000000000E+00 -0.00000000000E+00 -0.69751584732E+03  0.69751584732E+03  0.00000000000E+00 0.  1.
        -24    2    1    2    0    0 -0.19714831667E+02 -0.56220228344E+02 -0.11823107797E+03  0.15557313152E+03  0.81700812656E+02 0.  0.
         25    2    1    2    0    0  0.39471512876E+03  0.40411547350E+03 -0.21573419417E+03  0.61749354255E+03  0.12509070215E+03 0.  0.
         24    2    1    2    0    0 -0.37500029709E+03 -0.34789524515E+03  0.33092402897E+03  0.61892377739E+03  0.10908531000E+03 0.  0.
        -13    1    5    5    0    0 -0.36410970004E+03 -0.30382136898E+03  0.28004533927E+03  0.55073468200E+03  0.00000000000E+00 0.  1.
         14    1    5    5    0    0 -0.10890597050E+02 -0.44073876173E+02  0.50878689699E+02  0.68189095393E+02  0.00000000000E+00 0. -1.
         11    1    3    3    0    0 -0.35045351435E+02  0.39738725994E+01 -0.23817710120E+02  0.42558802098E+02  0.00000000000E+00 0. -1.
        -12    1    3    3    0    0  0.15330519768E+02 -0.60194100944E+02 -0.94413367854E+02  0.11301432942E+03  0.00000000000E+00 0.  1.
          5    1    4    4  501    0  0.14353602442E+03  0.13764035118E+03 -0.14037933328E+02  0.19940409362E+03  0.41800000000E+01 0.  1.
         -5    1    4    4    0  501  0.25117910434E+03  0.26647512232E+03 -0.20169626084E+03  0.41808944893E+03  0.41800000000E+01 0.  1.
</event>
<event>
11    1  0.8037748E-009  0.2188511E+03  0.7561462E-02  0.1041940E+00
         22   -1    0    0    0    0  0.00000000000E+00  0.00000000000E+00  0.54406901232E+02  0.54406901232E+02  0.00000000000E+00 0. -1.
         22   -1    0    0    0    0 -0.00000000000E+00 -0.00000000000E+00 -0.37517176326E+04  0.37517176326E+04  0.00000000000E+00 0.  1.
         24    2    1    2    0    0 -0.56229093380E+02  0.12722026533E+03 -0.24934005186E+04  0.24986126278E+04  0.81683599131E+02 0.  0.
         25    2    1    2    0    0  0.11698867334E+03 -0.26362964802E+03 -0.95740573659E+03  0.10076989605E+04  0.12507801359E+03 0.  0.
        -24    2    1    2    0    0 -0.60759579958E+02  0.13640938270E+03 -0.24650447613E+03  0.29981294559E+03  0.82608107031E+02 0.  0.
        -11    1    3    3    0    0 -0.65927008456E+02  0.12311718574E+03 -0.19028035260E+04  0.19079217673E+04  0.00000000000E+00 0.  1.
         12    1    3    3    0    0  0.96979150754E+01  0.41030795825E+01 -0.59059699269E+03  0.59069086042E+03  0.00000000000E+00 0. -1.
         11    1    5    5    0    0 -0.72898313742E+02  0.96036235066E+02 -0.13714403584E+03  0.18260780147E+03  0.00000000000E+00 0. -1.
        -12    1    5    5    0    0  0.12138733784E+02  0.40373147634E+02 -0.10936044029E+03  0.11720514412E+03  0.00000000000E+00 0.  1.
          5    1    4    4  501    0 -0.21126767505E+02 -0.17755926399E+02 -0.14674946111E+03  0.14938035334E+03  0.41800000000E+01 0. -1.
         -5    1    4    4    0  501  0.13811544084E+03 -0.24587372163E+03 -0.81065627548E+03  0.85831860714E+03  0.41800000000E+01 0. -1.
</event>
<event>
11    1  0.8037748E-009  0.1772184E+03  0.7561462E-02  0.1071915E+00
         22   -1    0    0    0    0  0.00000000000E+00  0.00000000000E+00  0.37817474191E+04  0.37817474191E+04  0.00000000000E+00 0.  1.
         22   -1    0    0    0    0 -0.00000000000E+00 -0.00000000000E+00 -0.55015287500E+02  0.55015287500E+02  0.00000000000E+00 0. -1.
         24    2    1    2    0    0 -0.61863779712E+02 -0.53045394478E+02  0.25387199219E+02  0.11733932955E+03  0.80517496605E+02 0.  0.
         25    2    1    2    0    0  0.17101371297E+03  0.32880545436E+02  0.17172074908E+04  0.17305416578E+04  0.12508414201E+03 0.  0.
        -24    2    1    2    0    0 -0.10914993325E+03  0.20164849042E+02  0.19841374416E+04  0.19888817193E+04  0.80800848222E+02 0.  0.
        -11    1    3    3    0    0 -0.48354379406E+02 -0.27148403899E+02  0.53315757768E+02  0.76926925510E+02  0.00000000000E+00 0.  1.
         12    1    3    3    0    0 -0.13509400306E+02 -0.25896990579E+02 -0.27928558549E+02  0.40412404040E+02  0.00000000000E+00 0. -1.
         13    1    5    5    0    0 -0.37784926463E+02  0.24369890946E+02  0.31267661694E+03  0.31589279674E+03  0.00000000000E+00 0. -1.
        -14    1    5    5    0    0 -0.71365006791E+02 -0.42050419041E+01  0.16714608246E+04  0.16729889225E+04  0.00000000000E+00 0.  1.
          5    1    4    4  501    0  0.75018427242E+02  0.22552306752E+02  0.30145667831E+03  0.31149634390E+03  0.41800000000E+01 0. -1.
         -5    1    4    4    0  501  0.95995285724E+02  0.10328238684E+02  0.14157508125E+04  0.14190453139E+04  0.41800000000E+01 0. -1.
</event>
<event>
11    1  0.8037748E-009  0.2217613E+03  0.7561462E-02  0.1040120E+00
         22   -1    0    0    0    0  0.00000000000E+00  0.00000000000E+00  0.40296944608E+03  0.40296944608E+03  0.00000000000E+00 0. -1.
         22   -1    0    0    0    0 -0.00000000000E+00 -0.00000000000E+00 -0.44118548197E+03  0.44118548197E+03  0.00000000000E+00 0.  1.
        -24    2    1    2    0    0 -0.77466631280E+01 -0.49572165184E+02 -0.30703502246E+03  0.32164030990E+03  0.81636839607E+02 0.  0.
         25    2    1    2    0    0 -0.17512354533E+03  0.23553988152E+01  0.47616339937E+02  0.22042726767E+03  0.12508821077E+03 0.  0.
         24    2    1    2    0    0  0.18287020846E+03  0.47216766369E+02  0.22120264664E+03  0.30208735048E+03  0.81579533422E+02 0.  0.
        -13    1    5    5    0    0 -0.83605814149E+01  0.46041326358E+01  0.72746615612E+01  0.12000752466E+02  0.00000000000E+00 0.  1.
         14    1    5    5    0    0  0.19123078987E+03  0.42612633733E+02  0.21392798508E+03  0.29008659802E+03  0.00000000000E+00 0. -1.
         11    1    3    3    0    0 -0.18028455345E+02  0.18909586167E+02 -0.70900165625E+02  0.75560777767E+02  0.00000000000E+00 0. -1.
        -12    1    3    3    0    0  0.10281792217E+02 -0.68481751351E+02 -0.23613485684E+03  0.24607953213E+03  0.00000000000E+00 0.  1.
          5    1    4    4  501    0  0.36102847467E+01  0.26391595912E+02 -0.13251527278E+02  0.30043732557E+02  0.41800000000E+01 0. -1.
         -5    1    4    4    0  501 -0.17873383008E+03 -0.24036197097E+02  0.60867867214E+02  0.19038353512E+03  0.41800000000E+01 0. -1.
</event>
<event>
11    1  0.8037748E-009  0.1544193E+03  0.7561462E-02  0.1092447E+00
         22   -1    0    0    0    0  0.00000000000E+00  0.00000000000E+00  0.29939830406E+03  0.29939830406E+03  0.00000000000E+00 0.  1.
         22   -1    0    0    0    0 -0.00000000000E+00 -0.00000000000E+00 -0.10490103444E+04  0.10490103444E+04  0.00000000000E+00 0. -1.
         24    2    1    2    0    0 -0.43047657460E+02  0.72817346631E+02 -0.85434039357E+03  0.86232477439E+03  0.80938505482E+02 0.  0.
         25    2    1    2    0    0 -0.43532007643E+02 -0.10272724411E+03 -0.13623724101E+03  0.21600464348E+03  0.12509795280E+03 0.  0.
        -24    2    1    2    0    0  0.86579665102E+02  0.29909897477E+02  0.24096559418E+03  0.27007923064E+03  0.80546464022E+02 0.  0.
        -13    1    3    3    0    0 -0.66734143359E+02  0.61295801960E+02 -0.64496641336E+03  0.65130046491E+03  0.00000000000E+00 0.  1.
         14    1    3    3    0    0  0.23686485900E+02  0.11521544670E+02 -0.20937398021E+03  0.21102430949E+03  0.00000000000E+00 0. -1.
         13    1    5    5    0    0  0.92017409316E-02  0.35174093459E+02  0.73806509904E+02  0.81759512227E+02  0.00000000000E+00 0. -1.
        -14    1    5    5    0    0  0.86570463361E+02 -0.52641959826E+01  0.16715908427E+03  0.18831971841E+03  0.00000000000E+00 0.  1.
          5    1    4    4  501    0 -0.45155747666E+01 -0.10805089342E+03 -0.13916831065E+03  0.17629712724E+03  0.41800000000E+01 0. -1.
         -5    1    4    4    0  501 -0.39016432876E+02  0.53236493134E+01  0.29310696429E+01  0.39707516236E+02  0.41800000000E+01 0. -1.
</event>
<event>
11    1  0.8037748E-009  0.1339963E+03  0.7561462E-02  0.1114454E+00
         22   -1    0    0    0    0  0.00000000000E+00  0.00000000000E+00  0.81686984706E+02  0.81686984706E+02  0.00000000000E+00 0.  1.
         22   -1    0    0    0    0 -0.00000000000E+00 -0.00000000000E+00 -0.63598090595E+03  0.63598090595E+03  0.00000000000E+00 0.  1.
        -24    2    1    2    0    0  0.24127165590E+02  0.14484173262E+02 -0.46298425705E+03  0.46863049390E+03  0.66844641807E+02 0.  0.
         25    2    1    2    0    0 -0.38349241331E+02 -0.50467051428E+02 -0.54775193960E+02  0.15055058730E+03  0.12509024691E+03 0.  0.
         24    2    1    2    0    0  0.14222075741E+02  0.35982878167E+02 -0.36534470229E+02  0.98486809455E+02  0.82872487366E+02 0.  0.
        -11    1    5    5    0    0  0.24712532445E+02  0.13885801652E+02  0.21454287958E+02  0.35550122632E+02  0.00000000000E+00 0.  1.
         12    1    5    5    0    0 -0.10490456704E+02  0.22097076515E+02 -0.57988758187E+02  0.62936686824E+02  0.00000000000E+00 0. -1.
         13    1    3    3    0    0  0.11882642014E+02  0.31049939654E+02 -0.10689051150E+03  0.11194140156E+03  0.00000000000E+00 0. -1.
        -14    1    3    3    0    0  0.12244523576E+02 -0.16565766392E+02 -0.35609374555E+03  0.35668909234E+03  0.00000000000E+00 0.  1.
          5    1    4    4  501    0 -0.72285650019E+02 -0.46506605696E+02 -0.23405630744E+00  0.86055835098E+02  0.41800000000E+01 0.  1.
         -5    1    4    4    0  501  0.33936408688E+02 -0.39604457329E+01 -0.54541137653E+02  0.64494752201E+02  0.41800000000E+01 0.  1.
</event>
<event>
11    1  0.8037748E-009  0.1967328E+03  0.7561462E-02  0.1056858E+00
         22   -1    0    0    0    0  0.00000000000E+00  0.00000000000E+00  0.10820914499E+04  0.10820914499E+04  0.00000000000E+00 0. -1.
         22   -1    0    0    0    0 -0.00000000000E+00 -0.00000000000E+00 -0.64025568956E+03  0.64025568956E+03  0.00000000000E+00 0.  1.
        -24    2    1    2    0    0  0.15074183240E+03 -0.19999871679E+02 -0.60751090209E+03  0.63145204623E+03  0.80864674768E+02 0.  0.
         25    2    1    2    0    0 -0.13951816101E+03  0.31395068349E+02  0.49014606260E+03  0.52568251750E+03  0.12509188205E+03 0.  0.
         24    2    1    2    0    0 -0.11223671390E+02 -0.11395196670E+02  0.55920059985E+03  0.56521257574E+03  0.80648146854E+02 0.  0.
        -11    1    5    5    0    0 -0.34922779618E+02  0.16798625811E+02  0.17442000797E+03  0.17867325918E+03  0.00000000000E+00 0.  1.
         12    1    5    5    0    0  0.23699108228E+02 -0.28193822482E+02  0.38478059188E+03  0.38653931656E+03  0.00000000000E+00 0. -1.
         13    1    3    3    0    0  0.69179636265E+01  0.18067399248E+02 -0.12612195521E+03  0.12759716581E+03  0.00000000000E+00 0. -1.
        -14    1    3    3    0    0  0.14382386878E+03 -0.38067270926E+02 -0.48138894688E+03  0.50385488042E+03  0.00000000000E+00 0.  1.
          5    1    4    4  501    0 -0.10730528488E+03  0.56427479323E+02  0.20975123658E+03  0.24230463931E+03  0.41800000000E+01 0. -1.
         -5    1    4    4    0  501 -0.32212876135E+02 -0.25032410974E+02  0.28039482602E+03  0.28337787819E+03  0.41800000000E+01 0. -1.
</event>
<event>
11    1  0.8037748E-009  0.1784876E+03  0.7561462E-02  0.1070873E+00
         22   -1    0    0    0    0  0.00000000000E+00  0.00000000000E+00  0.75221631983E+03  0.75221631983E+03  0.00000000000E+00 0.  1.
         22   -1    0    0    0    0 -0.00000000000E+00 -0.00000000000E+00 -0.42828726033E+03  0.42828726033E+03  0.00000000000E+00 0. -1.
        -24    2    1    2    0    0  0.84710562416E+02  0.90129837604E+02 -0.30858954567E+03  0.34178821150E+03  0.79324692318E+02 0.  0.
         25    2    1    2    0    0 -0.62873549745E+02 -0.14408087839E+03  0.26473690283E+01  0.20091402446E+03  0.12508818444E+03 0.  0.
         24    2    1    2    0    0 -0.21837012671E+02  0.53951040781E+02  0.62987123615E+03  0.63780134420E+03  0.81640741169E+02 0.  0.
        -11    1    5    5    0    0 -0.43696314056E+02  0.54379169766E+01  0.36432793853E+03  0.36697927134E+03  0.00000000000E+00 0.  1.
         12    1    5    5    0    0  0.21859301384E+02  0.48513123804E+02  0.26554329762E+03  0.27082207286E+03  0.00000000000E+00 0. -1.
         11    1    3    3    0    0  0.94073527862E+02  0.96836676947E+02 -0.27663650529E+03  0.30782288204E+03  0.00000000000E+00 0. -1.
        -12    1    3    3    0    0 -0.93629654461E+01 -0.67068393426E+01 -0.31953040383E+02  0.33965329464E+02  0.00000000000E+00 0.  1.
          5    1    4    4  501    0 -0.45661287118E+02 -0.15361734443E+03 -0.29485699076E+02  0.16300343708E+03  0.41800000000E+01 0.  1.
         -5    1    4    4    0  501 -0.17212262627E+02  0.95364660442E+01  0.32133068105E+02  0.37910587376E+02  0.41800000000E+01 0.  1.
</event>
<event>
11    1  0.8037748E-009  0.1682562E+03  0.7561462E-02  0.1079559E+00
         22   -1    0    0    0    0  0.00000000000E+00  0.00000000000E+00  0.19584108644E+04  0.19584108644E+04  0.00000000000E+00 0. -1.
         22   -1    0    0    0    0 -0.00000000000E+00 -0.00000000000E+00 -0.20170840818E+03  0.20170840818E+03  0.00000000000E+00 0. -1.
         24    2    1    2    0    0 -0.10552594769E+03 -0.54231043639E+01 -0.93532473776E+02  0.16219320712E+03  0.79957345432E+02 0.  0.
         25    2    1    2    0    0  0.13861339462E+03 -0.66848418709E+02  0.64697876423E+02  0.20859956375E+03  0.12508228703E+03 0.  0.
        -24    2    1    2    0    0 -0.33087446936E+02  0.72271523072E+02  0.17855370536E+04  0.17893265018E+04  0.85022396447E+02 0.  0.
        -11    1    3    3    0    0  0.19968772859E+01 -0.19022991982E+02 -0.32766920348E+02  0.37941175679E+02  0.00000000000E+00 0.  1.
         12    1    3    3    0    0 -0.10752282497E+03  0.13599887618E+02 -0.60765553428E+02  0.12425203144E+03  0.00000000000E+00 0. -1.
         11    1    5    5    0    0 -0.27721142490E+02  0.33414650767E+02  0.15451699610E+04  0.15457798061E+04  0.00000000000E+00 0. -1.
        -12    1    5    5    0    0 -0.53663044462E+01  0.38856872305E+02  0.24036709265E+03  0.24354669568E+03  0.00000000000E+00 0.  1.
          5    1    4    4  501    0  0.12600420491E+03  0.40079276955E+01  0.44095016494E+02  0.13362247573E+03  0.41800000000E+01 0. -1.
         -5    1    4    4    0  501  0.12609189710E+02 -0.70856346404E+02  0.20602859930E+02  0.74977088021E+02  0.41800000000E+01 0. -1.
</event>
<event>
11    1  0.8037748E-009  0.1426739E+03  0.7561462E-02  0.1104609E+00
         22   -1    0    0    0    0  0.00000000000E+00  0.00000000000E+00  0.58253739145E+03  0.58253739145E+03  0.00000000000E+00 0. -1.
         22   -1    0    0    0    0 -0.00000000000E+00 -0.00000000000E+00 -0.38316420512E+03  0.38316420512E+03  0.00000000000E+00 0.  1.
         24    2    1    2    0    0  0.15243317201E+02  0.12162337244E+01 -0.32820821019E+03  0.33886308691E+03  0.82907927787E+02 0.  0.
         25    2    1    2    0    0 -0.62114242774E+02  0.47371451177E+02  0.79599785513E+02  0.16758489222E+03  0.12508531770E+03 0.  0.
        -24    2    1    2    0    0  0.46870925573E+02 -0.48587684902E+02  0.44798161101E+03  0.45925361744E+03  0.75290866283E+02 0.  0.
        -11    1    3    3    0    0  0.42471502484E+02 -0.91058159026E+01 -0.27311852767E+03  0.27655103428E+03  0.00000000000E+00 0.  1.
         12    1    3    3    0    0 -0.27228185283E+02  0.10322049627E+02 -0.55089682518E+02  0.62312052625E+02  0.00000000000E+00 0. -1.
         13    1    5    5    0    0  0.41514101651E+02 -0.42589707849E+02  0.44724042980E+03  0.45117768772E+03  0.00000000000E+00 0. -1.
        -14    1    5    5    0    0  0.53568239221E+01 -0.59979770523E+01  0.74118120566E+00  0.80759297193E+01  0.00000000000E+00 0.  1.
          5    1    4    4  501    0 -0.67456011620E+02  0.48990598329E+02 -0.41198421704E+01  0.83575341625E+02  0.41800000000E+01 0.  1.
         -5    1    4    4    0  501  0.53417688464E+01 -0.16191471515E+01  0.83719627684E+02  0.84009550596E+02  0.41800000000E+01 0.  1.
</event>
<event>
11    1  0.8037748E-009  0.1453185E+03  0.7561462E-02  0.1101761E+00
         22   -1    0    0    0    0  0.00000000000E+00  0.00000000000E+00  0.61150939202E+03  0.61150939202E+03  0.00000000000E+00 0.  1.
         22   -1    0    0    0    0 -0.00000000000E+00 -0.00000000000E+00 -0.44072553992E+03  0.44072553992E+03  0.00000000000E+00 0.  1.
         24    2    1    2    0    0  0.65273998388E+02  0.32116462877E+02 -0.38759669000E+03  0.40264903989E+03  0.81258188328E+02 0.  0.
         25    2    1    2    0    0 -0.10276979183E+03 -0.14074590130E+02  0.11818150777E+03  0.20094797353E+03  0.12511392842E+03 0.  0.
        -24    2    1    2    0    0  0.37495793442E+02 -0.18041872747E+02  0.44019903432E+03  0.44863791852E+03  0.75956226964E+02 0.  0.
        -11    1    3    3    0    0  0.72028220969E+02 -0.22457556527E+01 -0.22249467051E+03  0.23387386865E+03  0.00000000000E+00 0.  1.
         12    1    3    3    0    0 -0.67542225805E+01  0.34362218529E+02 -0.16510201950E+03  0.16877517124E+03  0.00000000000E+00 0. -1.
         13    1    5    5    0    0  0.34548112491E+02 -0.31116943288E+02  0.12853943521E+03  0.13669024340E+03  0.00000000000E+00 0. -1.
        -14    1    5    5    0    0  0.29476809519E+01  0.13075070541E+02  0.31165959912E+03  0.31194767512E+03  0.00000000000E+00 0.  1.
          5    1    4    4  501    0 -0.38413039603E+02  0.51290042413E+02  0.77134191013E+02  0.10036625870E+03  0.41800000000E+01 0. -1.
         -5    1    4    4    0  501 -0.64356752227E+02 -0.65364632543E+02  0.41047316760E+02  0.10058171483E+03  0.41800000000E+01 0. -1.
</event>
<event>
11    1  0.8037748E-009  0.1404502E+03  0.7561462E-02  0.1107057E+00
         22   -1    0    0    0    0  0.00000000000E+00  0.00000000000E+00  0.15370415866E+03  0.15370415866E+03  0.00000000000E+00 0.  1.
         22   -1    0    0    0    0 -0.00000000000E+00 -0.00000000000E+00 -0.33278458891E+03  0.33278458891E+03  0.00000000000E+00 0. -1.
        -24    2    1    2    0    0  0.15617756403E+01 -0.61647347562E+02 -0.17126040394E+03  0.19999165420E+03  0.82847457325E+02 0.  0.
         25    2    1    2    0    0 -0.37622629439E+02  0.66867455344E+02 -0.84797260775E+02  0.16948136961E+03  0.12508653157E+03 0.  0.
         24    2    1    2    0    0  0.36060853799E+02 -0.52201077815E+01  0.76977234469E+02  0.11701572376E+03  0.80246808533E+02 0.  0.
        -13    1    5    5    0    0  0.31372674034E+02  0.29248327963E+02  0.69130952655E+02  0.81355995352E+02  0.00000000000E+00 0.  1.
         14    1    5    5    0    0  0.46881797646E+01 -0.34468435744E+02  0.78462818141E+01  0.35659728413E+02  0.00000000000E+00 0. -1.
         11    1    3    3    0    0  0.19300496494E+02 -0.49457790150E+02 -0.17036970641E+03  0.17845004633E+03  0.00000000000E+00 0. -1.
        -12    1    3    3    0    0 -0.17738720854E+02 -0.12189557412E+02 -0.89069752917E+00  0.21541607868E+02  0.00000000000E+00 0.  1.
          5    1    4    4  501    0 -0.55026956231E+01 -0.32575579335E+02  0.22980680565E+01  0.33379657652E+02  0.41800000000E+01 0.  1.
         -5    1    4    4    0  501 -0.32119933816E+02  0.99443034679E+02 -0.87095328832E+02  0.13610171196E+03  0.41800000000E+01 0.  1.
</event>
<event>
11    1  0.8037748E-009  0.1471999E+03  0.7561462E-02  0.1099775E+00
         22   -1    0    0    0    0  0.00000000000E+00  0.00000000000E+00  0.64653984489E+02  0.64653984489E+02  0.00000000000E+00 0. -1.
         22   -1    0    0    0    0 -0.00000000000E+00 -0.00000000000E+00 -0.33335826105E+04  0.33335826105E+04  0.00000000000E+00 0. -1.
         24    2    1    2    0    0 -0.28078556614E+02 -0.57609331183E+01 -0.24282589454E+04  0.24298216618E+04  0.82281275924E+02 0.  0.
         25    2    1    2    0    0 -0.21887507469E+02  0.66156146611E+02 -0.84424347716E+03  0.85630017952E+03  0.12508896835E+03 0.  0.
        -24    2    1    2    0    0  0.49966064083E+02 -0.60395213492E+02  0.35737965509E+01  0.11211475370E+03  0.80079689082E+02 0.  0.
        -13    1    3    3    0    0 -0.54997127830E+02 -0.53001372350E+01 -0.12044569791E+04  0.12057235961E+04  0.00000000000E+00 0.  1.
         14    1    3    3    0    0  0.26918571216E+02 -0.46079588325E+00 -0.12238019662E+04  0.12240980657E+04  0.00000000000E+00 0. -1.
         11    1    5    5    0    0  0.88575287105E+01 -0.67372911283E+02  0.13434885324E+02  0.69268038325E+02  0.00000000000E+00 0. -1.
        -12    1    5    5    0    0  0.41108535373E+02  0.69776977910E+01 -0.98610887735E+01  0.42846715379E+02  0.00000000000E+00 0.  1.
          5    1    4    4  501    0  0.11389324060E+02  0.87568212325E+02 -0.37102560777E+03  0.38141235236E+03  0.41800000000E+01 0.  1.
         -5    1    4    4    0  501 -0.33276831529E+02 -0.21412065715E+02 -0.47321786939E+03  0.47488782716E+03  0.41800000000E+01 0.  1.
</event>
<event>
11    1  0.8037748E-009  0.1912588E+03  0.7561462E-02  0.1060883E+00
         22   -1    0    0    0    0  0.00000000000E+00  0.00000000000E+00  0.20654184407E+03  0.20654184407E+03  0.00000000000E+00 0.  1.
         22   -1    0    0    0    0 -0.00000000000E+00 -0.00000000000E+00 -0.12478200300E+04  0.12478200300E+04  0.00000000000E+00 0. -1.
        -24    2    1    2    0    0 -0.93528470658E+02 -0.11059288451E+03 -0.11365425171E+04  0.11482921334E+04  0.76600062747E+02 0.  0.
         25    2    1    2    0    0  0.73245510269E+02  0.12371470894E+03  0.18398516407E+02  0.19145742837E+03  0.12508879842E+03 0.  0.
         24    2    1    2    0    0  0.20282960389E+02 -0.13121824424E+02  0.76865814778E+02  0.11461231226E+03  0.81511029198E+02 0.  0.
        -11    1    5    5    0    0  0.14782308560E+02 -0.29603748795E+02  0.87972888616E+02  0.93990040539E+02  0.00000000000E+00 0.  1.
         12    1    5    5    0    0  0.55006518287E+01  0.16481924371E+02 -0.11107073839E+02  0.20622271717E+02  0.00000000000E+00 0. -1.
         13    1    3    3    0    0 -0.14828228348E+02  0.95852065903E+01 -0.20237286971E+03  0.20314165239E+03  0.00000000000E+00 0. -1.
        -14    1    3    3    0    0 -0.78700242310E+02 -0.12017809110E+03 -0.93416964738E+03  0.94515048104E+03  0.00000000000E+00 0.  1.
          5    1    4    4  501    0 -0.31675446895E+02  0.91417049199E+01  0.13782926056E+02  0.35977022605E+02  0.41800000000E+01 0.  1.
         -5    1    4    4    0  501  0.10492095716E+03  0.11457300402E+03  0.46155903512E+01  0.15548040576E+03  0.41800000000E+01 0.  1.
</event>
<event>
11    1  0.8037748E-009  0.1395640E+03  0.7561462E-02  0.1108046E+00
         22   -1    0    0    0    0  0.00000000000E+00  0.00000000000E+00  0.30483995518E+03  0.30483995518E+03  0.00000000000E+00 0.  1.
         22   -1    0    0    0    0 -0.00000000000E+00 -0.00000000000E+00 -0.40787468636E+03  0.40787468636E+03  0.00000000000E+00 0. -1.
         24    2    1    2    0    0 -0.11052526285E+02 -0.15361206414E+02 -0.29391345870E+03  0.30514848106E+03  0.79826996010E+02 0.  0.
         25    2    1    2    0    0  0.64690216111E+02 -0.15071358588E+02 -0.46759431236E+02  0.14915114250E+03  0.12509056315E+03 0.  0.
        -24    2    1    2    0    0 -0.53637689826E+02  0.30432565003E+02  0.23763815876E+03  0.25841501798E+03  0.80642942875E+02 0.  0.
        -11    1    3    3    0    0 -0.41455534106E+02 -0.10957694823E+02 -0.99836580599E+02  0.10865530456E+03  0.00000000000E+00 0.  1.
         12    1    3    3    0    0  0.30403007822E+02 -0.44035115918E+01 -0.19407687810E+03  0.19649317650E+03  0.00000000000E+00 0. -1.
         13    1    5    5    0    0 -0.59771897705E+01 -0.57364768802E+01 -0.41981167406E+01  0.92875265124E+01  0.00000000000E+00 0. -1.
        -14    1    5    5    0    0 -0.47660500055E+02  0.36169041883E+02  0.24183627550E+03  0.24912749147E+03  0.00000000000E+00 0.  1.
          5    1    4    4  501    0  0.88065425970E+02  0.27190952411E+02 -0.38514091652E+02  0.99978371662E+02  0.41800000000E+01 0.  1.
         -5    1    4    4    0  501 -0.23375209859E+02 -0.42262310999E+02 -0.82453395844E+01  0.49172770838E+02  0.41800000000E+01 0.  1.
</event>
<event>
11    1  0.8037748E-009  0.1552413E+03  0.7561462E-02  0.1091640E+00
         22   -1    0    0    0    0  0.00000000000E+00  0.00000000000E+00  0.93083759851E+03  0.93083759851E+03  0.00000000000E+00 0. -1.
         22   -1    0    0    0    0 -0.00000000000E+00 -0.00000000000E+00 -0.78560925321E+03  0.78560925321E+03  0.00000000000E+00 0.  1.
        -24    2    1    2    0    0  0.95134525497E+01  0.71413658474E+02 -0.67878899139E+03  0.68756013941E+03  0.82425930838E+02 0.  0.
         25    2    1    2    0    0 -0.42089864585E+02 -0.15378915688E+03  0.77687657408E+01  0.20280396458E+03  0.12508570204E+03 0.  0.
         24    2    1    2    0    0  0.32576412035E+02  0.82375498407E+02  0.81624857096E+03  0.82608274773E+03  0.91126456881E+02 0.  0.
        -13    1    5    5    0    0  0.63904404748E+01  0.40184700290E+02  0.97889122829E+02  0.10600909506E+03  0.00000000000E+00 0.  1.
         14    1    5    5    0    0  0.26185971561E+02  0.42190798116E+02  0.71835944813E+03  0.72007365267E+03  0.00000000000E+00 0. -1.
         13    1    3    3    0    0 -0.52756803504E+01 -0.13463459629E+02 -0.32733021747E+02  0.35784749001E+02  0.00000000000E+00 0. -1.
        -14    1    3    3    0    0  0.14789132900E+02  0.84877118104E+02 -0.64605596964E+03  0.65177539041E+03  0.00000000000E+00 0.  1.
          5    1    4    4  501    0  0.23702746266E+02 -0.71989280293E+02  0.48553261199E+02  0.90106427245E+02  0.41800000000E+01 0.  1.
         -5    1    4    4    0  501 -0.65792610852E+02 -0.81799876588E+02 -0.40784495459E+02  0.11269753734E+03  0.41800000000E+01 0.  1.
</event>
<event>
11    1  0.8037748E-009  0.1499319E+03  0.7561462E-02  0.1096948E+00
         22   -1    0    0    0    0  0.00000000000E+00  0.00000000000E+00  0.20517635995E+04  0.20517635995E+04  0.00000000000E+00 0. -1.
         22   -1    0    0    0    0 -0.00000000000E+00 -0.00000000000E+00 -0.20533431871E+03  0.20533431871E+03  0.00000000000E+00 0. -1.
         24    2    1    2    0    0  0.12486385787E+02  0.26589724593E+02 -0.15828355015E+03  0.17932868005E+03  0.79007404429E+02 0.  0.
         25    2    1    2    0    0 -0.66271779218E+02  0.36950166435E+02  0.11893721039E+03  0.18853927631E+03  0.12507491825E+03 0.  0.
        -24    2    1    2    0    0  0.53785393431E+02 -0.63539891028E+02  0.18857756205E+04  0.18892299618E+04  0.78166305984E+02 0.  0.
        -11    1    3    3    0    0  0.29201745480E+02 -0.13132825589E+02 -0.29541983963E+02  0.43565374594E+02  0.00000000000E+00 0.  1.
         12    1    3    3    0    0 -0.16715359693E+02  0.39722550181E+02 -0.12874156619E+03  0.13576330545E+03  0.00000000000E+00 0. -1.
         11    1    5    5    0    0  0.67268621373E+02 -0.31468630124E+02  0.99128081537E+03  0.99405884988E+03  0.00000000000E+00 0. -1.
        -12    1    5    5    0    0 -0.13483227942E+02 -0.32071260904E+02  0.89449480515E+03  0.89517111194E+03  0.00000000000E+00 0.  1.
          5    1    4    4  501    0 -0.91458472433E+02 -0.55978319570E+01  0.99281914373E+02  0.13516789125E+03  0.41800000000E+01 0. -1.
         -5    1    4    4    0  501  0.25186693215E+02  0.42547998392E+02  0.19655296020E+02  0.53371385066E+02  0.41800000000E+01 0. -1.
</event>
<event>
11    1  0.8037748E-009  0.1322890E+03  0.7561462E-02  0.1116488E+00
         22   -1    0    0    0    0  0.00000000000E+00  0.00000000000E+00  0.47667683293E+03  0.47667683293E+03  0.00000000000E+00 0.  1.
         22   -1    0    0    0    0 -0.00000000000E+00 -0.00000000000E+00 -0.50019003473E+03  0.50019003473E+03  0.00000000000E+00 0. -1.
        -24    2    1    2    0    0  0.19269500182E+01 -0.45980161240E+02 -0.46290879289E+03  0.47213771564E+03  0.80694384121E+02 0.  0.
         25    2    1    2    0    0  0.26131966668E+02  0.20114832581E+01  0.13916029783E+03  0.18894546818E+03  0.12509146936E+03 0.  0.
         24    2    1    2    0    0 -0.28058916686E+02  0.43968677982E+02  0.30023529326E+03  0.31578368384E+03  0.82810362954E+02 0.  0.
        -13    1    5    5    0    0 -0.57689685567E+02  0.27291826561E+02  0.19118809715E+03  0.20155850791E+03  0.00000000000E+00 0.  1.
         14    1    5    5    0    0  0.29630768882E+02  0.16676851421E+02  0.10904719611E+03  0.11422517593E+03  0.00000000000E+00 0. -1.
         11    1    3    3    0    0 -0.93543568236E+01 -0.24938861431E+02 -0.43322939931E+03  0.43404742048E+03  0.00000000000E+00 0. -1.
        -12    1    3    3    0    0  0.11281306842E+02 -0.21041299809E+02 -0.29679393579E+02  0.38090295154E+02  0.00000000000E+00 0.  1.
          5    1    4    4  501    0  0.81832652966E+01 -0.38235759148E+02 -0.35913689881E+01  0.39488092379E+02  0.41800000000E+01 0.  1.
         -5    1    4    4    0  501  0.17948701371E+02  0.40247242406E+02  0.14275166682E+03  0.14945737580E+03  0.41800000000E+01 0.  1.
</event>
<event>
11    1  0.8037748E-009  0.1492424E+03  0.7561462E-02  0.1097655E+00
         22   -1    0    0    0    0  0.00000000000E+00  0.00000000000E+00  0.77432949826E+03  0.77432949826E+03  0.00000000000E+00 0. -1.
         22   -1    0    0    0    0 -0.00000000000E+00 -0.00000000000E+00 -0.96153174755E+03  0.96153174755E+03  0.00000000000E+00 0. -1.
         24    2    1    2    0    0 -0.31452519562E+02 -0.17138770704E+02 -0.86326498710E+03  0.86766109217E+03  0.79538257929E+02 0.  0.
         25    2    1    2    0    0  0.73824173279E+02 -0.52246184343E+02 -0.26400705072E+02  0.15660074242E+03  0.12508846054E+03 0.  0.
        -24    2    1    2    0    0 -0.42371653716E+02  0.69384955047E+02  0.70246344288E+03  0.71159941122E+03  0.79430500660E+02 0.  0.
        -13    1    3    3    0    0 -0.33318985515E+02 -0.14438266555E+02 -0.14803891934E+03  0.15242749088E+03  0.00000000000E+00 0.  1.
         14    1    3    3    0    0  0.18664659527E+01 -0.27005041493E+01 -0.71522606775E+03  0.71523360129E+03  0.00000000000E+00 0. -1.
         11    1    5    5    0    0 -0.33195353544E+02  0.61369893295E+01  0.44663243123E+03  0.44790637722E+03  0.00000000000E+00 0. -1.
        -12    1    5    5    0    0 -0.91763001721E+01  0.63247965718E+02  0.25583101166E+03  0.26369303400E+03  0.00000000000E+00 0.  1.
          5    1    4    4  501    0  0.46405987972E+02 -0.91365976053E+02 -0.33997172225E+02  0.10804877333E+03  0.41800000000E+01 0. -1.
         -5    1    4    4    0  501  0.27418185306E+02  0.39119791709E+02  0.75964671529E+01  0.48551969085E+02  0.41800000000E+01 0. -1.
</event>
<event>
11    1  0.1175551E-008  0.1637263E+03  0.7561462E-02  0.1083624E+00
         22   -1    0    0    0    0  0.00000000000E+00  0.00000000000E+00  0.69938216744E+03  0.69938216744E+03  0.00000000000E+00 0. -1.
         22   -1    0    0    0    0 -0.00000000000E+00 -0.00000000000E+00 -0.73369012484E+03  0.73369012484E+03  0.00000000000E+00 0.  1.
        -24    2    1    2    0    0  0.67359284759E+02  0.64346338075E+02 -0.60287818504E+03  0.61521426719E+03  0.79679132080E+02 0.  0.
         25    2    1    2    0    0 -0.16805246972E+03 -0.45492316060E+02 -0.19750996844E+02  0.21528551828E+03  0.12508624666E+03 0.  0.
         24    2    1    2    0    0  0.10069318496E+03 -0.18854022016E+02  0.58832122449E+03  0.60257250681E+03  0.80480874388E+02 0.  0.
        -11    1    5    5    0    0  0.25344779667E+02 -0.31918776046E+01  0.31962805844E+02  0.40916584613E+02  0.00000000000E+00 0.  1.
         12    1    5    5    0    0  0.75348405297E+02 -0.15662144411E+02  0.55635841864E+03  0.56165592220E+03  0.00000000000E+00 0. -1.
         13    1    3    3    0    0 -0.32522119640E+01  0.20412708554E+02 -0.30613415541E+02  0.36938283180E+02  0.00000000000E+00 0. -1.
        -14    1    3    3    0    0  0.70611496723E+02  0.43933629521E+02 -0.57226476949E+03  0.57827598401E+03  0.00000000000E+00 0.  1.
          5    1    4    4  501    0 -0.13743694976E+03 -0.60577482667E+02  0.31547053495E+02  0.15352926611E+03  0.41800000000E+01 0.  1.
         -5    1    4    4    0  501 -0.30615519959E+02  0.15085166607E+02 -0.51298050339E+02  0.61756252174E+02  0.41800000000E+01 0.  1.
</event>
<event>
11    1  0.8037748E-009  0.1922095E+03  0.7561462E-02  0.1060174E+00
         22   -1    0    0    0    0  0.00000000000E+00  0.00000000000E+00  0.17876103566E+04  0.17876103566E+04  0.00000000000E+00 0.  1.
         22   -1    0    0    0    0 -0.00000000000E+00 -0.00000000000E+00 -0.48176411863E+03  0.48176411863E+03  0.00000000000E+00 0. -1.
         24    2    1    2    0    0 -0.23428264663E+02 -0.34872626865E+02 -0.41204527897E+03  0.42193805900E+03  0.80532167605E+02 0.  0.
         25    2    1    2    0    0  0.16736925959E+03  0.21190835770E+02  0.12185616871E+03  0.24281061125E+03  0.12508615634E+03 0.  0.
        -24    2    1    2    0    0 -0.14394099493E+03  0.13681791095E+02  0.15960353483E+04  0.16046258050E+04  0.81172284687E+02 0.  0.
        -13    1    3    3    0    0  0.22268909482E+02 -0.27836953296E+02 -0.93689101705E+02  0.10024194769E+03  0.00000000000E+00 0.  1.
         14    1    3    3    0    0 -0.45697174145E+02 -0.70356735684E+01 -0.31835617726E+03  0.32169611131E+03  0.00000000000E+00 0. -1.
         11    1    5    5    0    0 -0.24544330094E+02  0.34591295127E+02  0.53810092422E+03  0.53976993848E+03  0.00000000000E+00 0. -1.
        -12    1    5    5    0    0 -0.11939666484E+03 -0.20909504032E+02  0.10579344240E+04  0.10648558665E+04  0.00000000000E+00 0.  1.
          5    1    4    4  501    0  0.25217636789E+02  0.48036164367E+02  0.70907639538E+02  0.89379908464E+02  0.41800000000E+01 0.  1.
         -5    1    4    4    0  501  0.14215162280E+03 -0.26845328597E+02  0.50948529172E+02  0.15343070279E+03  0.41800000000E+01 0.  1.
</event>
<event>
11    1  0.8037748E-009  0.1370729E+03  0.7561462E-02  0.1110872E+00
         22   -1    0    0    0    0  0.00000000000E+00  0.00000000000E+00  0.31408933857E+03  0.31408933857E+03  0.00000000000E+00 0.  1.
         22   -1    0    0    0    0 -0.00000000000E+00 -0.00000000000E+00 -0.26395823661E+03  0.26395823661E+03  0.00000000000E+00 0.  1.
        -24    2    1    2    0    0  0.20802363242E+02 -0.54949099256E+02 -0.19548505862E+03  0.21927648975E+03  0.80097621598E+02 0.  0.
         25    2    1    2    0    0  0.33319068856E+02  0.44784854122E+02  0.61609503347E+02  0.15019210319E+03  0.12508434534E+03 0.  0.
         24    2    1    2    0    0 -0.54121432098E+02  0.10164245133E+02  0.18400665724E+03  0.20857898224E+03  0.81328350740E+02 0.  0.
        -13    1    5    5    0    0 -0.16104595800E+02  0.42637234563E+02  0.11197935267E+03  0.12089940944E+03  0.00000000000E+00 0.  1.
         14    1    5    5    0    0 -0.38016836298E+02 -0.32472989430E+02  0.72027304565E+02  0.87679572807E+02  0.00000000000E+00 0. -1.
         13    1    3    3    0    0 -0.12337571435E+02 -0.15225524810E+02 -0.28340552815E+01  0.19800609688E+02  0.00000000000E+00 0. -1.
        -14    1    3    3    0    0  0.33139934677E+02 -0.39723574445E+02 -0.19265100334E+03  0.19947588006E+03  0.00000000000E+00 0.  1.
          5    1    4    4  501    0 -0.13535014765E+02  0.34189202307E+02  0.87827836780E+02  0.95306345500E+02  0.41800000000E+01 0.  1.
         -5    1    4    4    0  501  0.46854083620E+02  0.10595651815E+02 -0.26218333433E+02  0.54885757691E+02  0.41800000000E+01 0.  1.
</event>
<event>
11    1  0.8037748E-009  0.1305144E+03  0.7561462E-02  0.1118639E+00
         22   -1    0    0    0    0  0.00000000000E+00  0.00000000000E+00  0.76247142593E+03  0.76247142593E+03  0.00000000000E+00 0.  1.
         22   -1    0    0    0    0 -0.00000000000E+00 -0.00000000000E+00 -0.19794922978E+03  0.19794922978E+03  0.00000000000E+00 0. -1.
         24    2    1    2    0    0  0.10920713578E+02 -0.22473322224E+02 -0.15623259382E+03  0.17725481902E+03  0.79914549978E+02 0.  0.
         25    2    1    2    0    0 -0.25694668690E+02  0.53652076706E+02  0.14418639263E+03  0.19995370734E+03  0.12511198155E+03 0.  0.
        -24    2    1    2    0    0  0.14773955112E+02 -0.31178754481E+02  0.57656839734E+03  0.58321212935E+03  0.80714847017E+02 0.  0.
        -11    1    3    3    0    0  0.24849800786E+02 -0.39743732332E+02 -0.49227737231E+02  0.67973869772E+02  0.00000000000E+00 0.  1.
         12    1    3    3    0    0 -0.13929087208E+02  0.17270410108E+02 -0.10700485659E+03  0.10928094925E+03  0.00000000000E+00 0. -1.
         13    1    5    5    0    0 -0.15438767791E+02  0.15627663298E+02  0.64842036735E+02  0.68462173052E+02  0.00000000000E+00 0. -1.
        -14    1    5    5    0    0  0.30212722903E+02 -0.46806417779E+02  0.51172636061E+03  0.51474995630E+03  0.00000000000E+00 0.  1.
          5    1    4    4  501    0 -0.73622436359E+02  0.24041451787E+02  0.57773164412E+02  0.96713315865E+02  0.41800000000E+01 0.  1.
         -5    1    4    4    0  501  0.47927767668E+02  0.29610624919E+02  0.86413228215E+02  0.10324039148E+03  0.41800000000E+01 0.  1.
</event>
<event>
11    1  0.8037748E-009  0.1722432E+03  0.7561462E-02  0.1076096E+00
         22   -1    0    0    0    0  0.00000000000E+00  0.00000000000E+00  0.20877365751E+04  0.20877365751E+04  0.00000000000E+00 0. -1.
         22   -1    0    0    0    0 -0.00000000000E+00 -0.00000000000E+00 -0.29474696154E+03  0.29474696154E+03  0.00000000000E+00 0.  1.
        -24    2    1    2    0    0 -0.55466674330E+02 -0.25927808549E+02 -0.25916736459E+03  0.27810691741E+03  0.80168144721E+02 0.  0.
         25    2    1    2    0    0  0.15349032252E+02  0.13645321486E+03  0.34978458844E+03  0.39604516752E+03  0.12508974287E+03 0.  0.
         24    2    1    2    0    0  0.40117642078E+02 -0.11052540631E+03  0.17023723897E+04  0.17083314517E+04  0.80618267094E+02 0.  0.
        -13    1    5    5    0    0 -0.26513827053E+01 -0.38489301498E+02  0.10353631816E+04  0.10360817410E+04  0.00000000000E+00 0.  1.
         14    1    5    5    0    0  0.42769024784E+02 -0.72036104813E+02  0.66700920807E+03  0.67224971069E+03  0.00000000000E+00 0. -1.
         13    1    3    3    0    0 -0.19158207919E+02 -0.34308740759E+02 -0.41038167923E+02  0.56817759984E+02  0.00000000000E+00 0. -1.
        -14    1    3    3    0    0 -0.36308466411E+02  0.83809322100E+01 -0.21812919666E+03  0.22128915743E+03  0.00000000000E+00 0.  1.
          5    1    4    4  501    0 -0.10868383356E+02  0.59989299234E+02  0.33749165773E+02  0.69809142451E+02  0.41800000000E+01 0. -1.
         -5    1    4    4    0  501  0.26217415608E+02  0.76463915626E+02  0.31603542267E+03  0.32623602507E+03  0.41800000000E+01 0. -1.
</event>
<event>
11    1  0.8037748E-009  0.1894200E+03  0.7561462E-02  0.1062268E+00
         22   -1    0    0    0    0  0.00000000000E+00  0.00000000000E+00  0.77380322773E+03  0.77380322773E+03  0.00000000000E+00 0.  1.
         22   -1    0    0    0    0 -0.00000000000E+00 -0.00000000000E+00 -0.21914390347E+04  0.21914390347E+04  0.00000000000E+00 0.  1.
        -24    2    1    2    0    0 -0.14953527397E+03 -0.28498451549E+02 -0.16368994907E+04  0.16459395240E+04  0.80647469457E+02 0.  0.
         25    2    1    2    0    0  0.10701854786E+03  0.41088823763E+02 -0.53405190646E+03  0.56035678600E+03  0.12508808015E+03 0.  0.
         24    2    1    2    0    0  0.42516726111E+02 -0.12590372215E+02  0.75331559015E+03  0.75894595240E+03  0.80922128132E+02 0.  0.
        -13    1    5    5    0    0  0.22117494111E+02 -0.46968919707E+02  0.45946272440E+03  0.46238648129E+03  0.00000000000E+00 0.  1.
         14    1    5    5    0    0  0.20399232000E+02  0.34378547493E+02  0.29385286575E+03  0.29655947111E+03  0.00000000000E+00 0. -1.
         13    1    3    3    0    0  0.46542035359E+01 -0.63475880303E+01 -0.19104531584E+02  0.20662444468E+02  0.00000000000E+00 0. -1.
        -14    1    3    3    0    0 -0.15418947750E+03 -0.22150863519E+02 -0.16177949591E+04  0.16252770796E+04  0.00000000000E+00 0.  1.
          5    1    4    4  501    0  0.95354780370E+01  0.48963308043E+02 -0.33298807633E+03  0.33672965752E+03  0.41800000000E+01 0. -1.
         -5    1    4    4    0  501  0.97483069819E+02 -0.78744842793E+01 -0.20106383013E+03  0.22362712848E+03  0.41800000000E+01 0. -1.
</event>
<event>
11    1  0.8037748E-009  0.1482587E+03  0.7561462E-02  0.1098671E+00
         22   -1    0    0    0    0  0.00000000000E+00  0.00000000000E+00  0.70753947135E+03  0.70753947135E+03  0.00000000000E+00 0. -1.
         22   -1    0    0    0    0 -0.00000000000E+00 -0.00000000000E+00 -0.10377806537E+04  0.10377806537E+04  0.00000000000E+00 0. -1.
        -24    2    1    2    0    0  0.73662017216E+01  0.36631530956E+02 -0.96739830542E+03  0.97151448627E+03  0.81146692641E+02 0.  0.
         25    2    1    2    0    0 -0.46236365793E+02  0.35323598036E+02  0.12451524343E+02  0.13852152471E+03  0.12509042429E+03 0.  0.
         24    2    1    2    0    0  0.38870164071E+02 -0.71955128992E+02  0.62470559875E+03  0.63528411404E+03  0.81488589356E+02 0.  0.
        -13    1    5    5    0    0 -0.49372624168E+01 -0.55116819099E+02  0.18549987849E+03  0.19357800812E+03  0.00000000000E+00 0.  1.
         14    1    5    5    0    0  0.43807426488E+02 -0.16838309893E+02  0.43920572027E+03  0.44170610592E+03  0.00000000000E+00 0. -1.
         13    1    3    3    0    0 -0.83891777290E+01  0.60738121345E-02 -0.77417918070E+03  0.77422463289E+03  0.00000000000E+00 0. -1.
        -14    1    3    3    0    0  0.15755379451E+02  0.36625457144E+02 -0.19321912472E+03  0.19728985339E+03  0.00000000000E+00 0.  1.
          5    1    4    4  501    0  0.11160053126E+01 -0.38746530311E+02  0.29478923987E+02  0.48877586258E+02  0.41800000000E+01 0.  1.
         -5    1    4    4    0  501 -0.47352371106E+02  0.74070128347E+02 -0.17027399644E+02  0.89643938452E+02  0.41800000000E+01 0.  1.
</event>
<event>
11    1  0.8037748E-009  0.1425881E+03  0.7561462E-02  0.1104702E+00
         22   -1    0    0    0    0  0.00000000000E+00  0.00000000000E+00  0.15370951595E+04  0.15370951595E+04  0.00000000000E+00 0. -1.
         22   -1    0    0    0    0 -0.00000000000E+00 -0.00000000000E+00 -0.59084730669E+03  0.59084730669E+03  0.00000000000E+00 0. -1.
         24    2    1    2    0    0 -0.51407372551E+02  0.44721568034E+02 -0.56916819576E+03  0.57879160627E+03  0.80028443824E+02 0.  0.
         25    2    1    2    0    0  0.48590100776E+02 -0.90155998760E+02  0.42375994718E+03  0.45355156528E+03  0.12508967793E+03 0.  0.
        -24    2    1    2    0    0  0.28172717758E+01  0.45434430725E+02  0.10916561014E+04  0.10955992946E+04  0.80947799279E+02 0.  0.
        -13    1    3    3    0    0  0.12509394607E+02 -0.13513052778E+01 -0.17661173458E+02  0.21684741808E+02  0.00000000000E+00 0.  1.
         14    1    3    3    0    0 -0.63916767158E+02  0.46072873312E+02 -0.55150702230E+03  0.55710686446E+03  0.00000000000E+00 0. -1.
         13    1    5    5    0    0  0.73062960227E+01  0.31947894317E+02  0.10639973565E+04  0.10645019608E+04  0.00000000000E+00 0. -1.
        -14    1    5    5    0    0 -0.44890242468E+01  0.13486536408E+02  0.27658744855E+02  0.31097333807E+02  0.00000000000E+00 0.  1.
          5    1    4    4  501    0  0.65928483999E+02 -0.11353080463E+03  0.36342989191E+03  0.38643830987E+03  0.41800000000E+01 0. -1.
         -5    1    4    4    0  501 -0.17338383224E+02  0.23374805868E+02  0.60330055270E+02  0.67113255405E+02  0.41800000000E+01 0. -1.
</event>
<event>
11    1  0.8037748E-009  0.1329963E+03  0.7561462E-02  0.1115641E+00
         22   -1    0    0    0    0  0.00000000000E+00  0.00000000000E+00  0.91791334965E+03  0.91791334965E+03  0.00000000000E+00 0. -1.
         22   -1    0    0    0    0 -0.00000000000E+00 -0.00000000000E+00 -0.31997535135E+03  0.31997535135E+03  0.00000000000E+00 0. -1.
        -24    2    1    2    0    0 -0.37342422174E+01 -0.14282791957E+02 -0.29818955093E+03  0.30942748102E+03  0.81304458759E+02 0.  0.
         25    2    1    2    0    0 -0.16271158304E+02 -0.29947474476E+02  0.32586953499E+03  0.35071302996E+03  0.12508826377E+03 0.  0.
         24    2    1    2    0    0  0.20005400522E+02  0.44230266433E+02  0.57025801424E+03  0.57774819002E+03  0.79007820780E+02 0.  0.
        -13    1    5    5    0    0  0.75753943439E+01 -0.20165242482E+02  0.70853483727E+02  0.74055653127E+02  0.00000000000E+00 0.  1.
         14    1    5    5    0    0  0.12430006178E+02  0.64395508914E+02  0.49940453051E+03  0.50369253689E+03  0.00000000000E+00 0. -1.
         13    1    3    3    0    0 -0.21151978642E+02 -0.27085451499E+02 -0.27711467791E+03  0.27923748423E+03  0.00000000000E+00 0. -1.
        -14    1    3    3    0    0  0.17417736424E+02  0.12802659542E+02 -0.21074873019E+02  0.30189996791E+02  0.00000000000E+00 0.  1.
          5    1    4    4  501    0 -0.24938502465E+02 -0.76282002901E+02  0.23321288939E+03  0.24667103002E+03  0.41800000000E+01 0. -1.
         -5    1    4    4    0  501  0.86673441610E+01  0.46334528425E+02  0.92656645594E+02  0.10404199994E+03  0.41800000000E+01 0. -1.
</event>
<event>
11    1  0.8037748E-009  0.1311783E+03  0.7561462E-02  0.1117830E+00
         22   -1    0    0    0    0  0.00000000000E+00  0.00000000000E+00  0.30846661535E+03  0.30846661535E+03  0.00000000000E+00 0. -1.
         22   -1    0    0    0    0 -0.00000000000E+00 -0.00000000000E+00 -0.27569868297E+03  0.27569868297E+03  0.00000000000E+00 0.  1.
        -24    2    1    2    0    0 -0.25241614647E+02 -0.24658850735E+02 -0.21435590333E+03  0.23150424544E+03  0.80003527019E+02 0.  0.
         25    2    1    2    0    0  0.25238243049E+02 -0.19509027633E+02  0.56973081450E+02  0.14110650868E+03  0.12509014234E+03 0.  0.
         24    2    1    2    0    0  0.33715982619E-02  0.44167878368E+02  0.19015075426E+03  0.21155454420E+03  0.81530450354E+02 0.  0.
        -13    1    5    5    0    0  0.40030881810E+02  0.29678847732E+02  0.93695476075E+02  0.10612326671E+03  0.00000000000E+00 0.  1.
         14    1    5    5    0    0 -0.40027510211E+02  0.14489030636E+02  0.96455278185E+02  0.10543127749E+03  0.00000000000E+00 0. -1.
         13    1    3    3    0    0  0.25460959362E+02 -0.51502360330E+01 -0.31935422227E+02  0.41166206720E+02  0.00000000000E+00 0. -1.
        -14    1    3    3    0    0 -0.50702574009E+02 -0.19508614702E+02 -0.18242048110E+03  0.19033803872E+03  0.00000000000E+00 0.  1.
          5    1    4    4  501    0  0.22022654384E+02  0.44142260147E+02 -0.78252911150E+01  0.50122290630E+02  0.41800000000E+01 0. -1.
         -5    1    4    4    0  501  0.32155886650E+01 -0.63651287780E+02  0.64798372565E+02  0.90984218047E+02  0.41800000000E+01 0. -1.
</event>
<event>
11    1  0.8037748E-009  0.2459404E+03  0.7561462E-02  0.1026084E+00
         22   -1    0    0    0    0  0.00000000000E+00  0.00000000000E+00  0.10804200488E+04  0.10804200488E+04  0.00000000000E+00 0.  1.
         22   -1    0    0    0    0 -0.00000000000E+00 -0.00000000000E+00 -0.26763145201E+03  0.26763145201E+03  0.00000000000E+00 0.  1.
        -24    2    1    2    0    0  0.11862805158E+02 -0.86369756269E+02 -0.12244591832E+03  0.17091882981E+03  0.81362045983E+02 0.  0.
         25    2    1    2    0    0 -0.22044489618E+03  0.10339719945E+03  0.69131632815E+02  0.28233576936E+03  0.12508945158E+03 0.  0.
         24    2    1    2    0    0  0.20858209102E+03 -0.17027443184E+02  0.86610288232E+03  0.89479690167E+03  0.82041879372E+02 0.  0.
        -13    1    5    5    0    0  0.19802515501E+03 -0.11359547355E+02  0.68077904247E+03  0.70908610620E+03  0.00000000000E+00 0.  1.
         14    1    5    5    0    0  0.10556936004E+02 -0.56678958300E+01  0.18532383984E+03  0.18571079547E+03  0.00000000000E+00 0. -1.
         11    1    3    3    0    0 -0.11166852991E+02 -0.14083151131E+01  0.78156423528E+01  0.13702781563E+02  0.00000000000E+00 0. -1.
        -12    1    3    3    0    0  0.23029658149E+02 -0.84961441156E+02 -0.13026156067E+03  0.15721604825E+03  0.00000000000E+00 0.  1.
          5    1    4    4  501    0 -0.49914455563E+02 -0.20461121147E+02 -0.13742447219E+02  0.55825062546E+02  0.41800000000E+01 0.  1.
         -5    1    4    4    0  501 -0.17053044061E+03  0.12385832060E+03  0.82874080034E+02  0.22651070681E+03  0.41800000000E+01 0.  1.
</event>
<event>
11    1  0.8037748E-009  0.1402409E+03  0.7561462E-02  0.1107290E+00
         22   -1    0    0    0    0  0.00000000000E+00  0.00000000000E+00  0.55086806703E+03  0.55086806703E+03  0.00000000000E+00 0. -1.
         22   -1    0    0    0    0 -0.00000000000E+00 -0.00000000000E+00 -0.37050719968E+03  0.37050719968E+03  0.00000000000E+00 0. -1.
        -24    2    1    2    0    0  0.28784593562E+02  0.57979893558E+02 -0.30501795637E+03  0.32151449423E+03  0.78392572399E+02 0.  0.
         25    2    1    2    0    0 -0.20301831971E+02 -0.45565379205E+02  0.31080096135E+02  0.13820645937E+03  0.12508670942E+03 0.  0.
         24    2    1    2    0    0 -0.84827615907E+01 -0.12414514353E+02  0.45429872758E+03  0.46165431311E+03  0.80692586548E+02 0.  0.
        -11    1    5    5    0    0  0.14187962588E+02  0.30315211343E+02  0.20334663287E+03  0.20608290425E+03  0.00000000000E+00 0.  1.
         12    1    5    5    0    0 -0.22670724178E+02 -0.42729725696E+02  0.25095209471E+03  0.25557140887E+03  0.00000000000E+00 0. -1.
         13    1    3    3    0    0 -0.16410143110E+02  0.45756284483E+01 -0.15558739987E+03  0.15651730949E+03  0.00000000000E+00 0. -1.
        -14    1    3    3    0    0  0.45194736672E+02  0.53404265110E+02 -0.14943055650E+03  0.16499718474E+03  0.00000000000E+00 0.  1.
          5    1    4    4  501    0  0.35244572842E+02 -0.43031671725E+02  0.54261939694E+02  0.77818604367E+02  0.41800000000E+01 0. -1.
         -5    1    4    4    0  501 -0.55546404814E+02 -0.25337074799E+01 -0.23181843559E+02  0.60387855005E+02  0.41800000000E+01 0. -1.
</event>
<event>
11    1  0.8037748E-009  0.1727998E+03  0.7561462E-02  0.1075621E+00
         22   -1    0    0    0    0  0.00000000000E+00  0.00000000000E+00  0.62652579843E+03  0.62652579843E+03  0.00000000000E+00 0.  1.
         22   -1    0    0    0    0 -0.00000000000E+00 -0.00000000000E+00 -0.33639883414E+03  0.33639883414E+03  0.00000000000E+00 0.  1.
        -24    2    1    2    0    0 -0.98087022065E+02 -0.39627506801E+02 -0.16673896377E+03  0.21273750035E+03  0.79145175598E+02 0.  0.
         25    2    1    2    0    0  0.12332361628E+03  0.13804313676E+03 -0.48445609794E+02  0.22860343297E+03  0.12509168844E+03 0.  0.
         24    2    1    2    0    0 -0.25236594220E+02 -0.98415629959E+02  0.50531153786E+03  0.52158369925E+03  0.79920479969E+02 0.  0.
        -13    1    5    5    0    0 -0.19962769973E+02 -0.47100038369E+02  0.41025184484E+03  0.41342895640E+03  0.00000000000E+00 0.  1.
         14    1    5    5    0    0 -0.52738242467E+01 -0.51315591590E+02  0.95059693023E+02  0.10815474285E+03  0.00000000000E+00 0. -1.
         11    1    3    3    0    0 -0.83354473615E+02 -0.98841570622E+00 -0.14168186355E+03  0.16438581355E+03  0.00000000000E+00 0. -1.
        -12    1    3    3    0    0 -0.14732548450E+02 -0.38639091094E+02 -0.25057100223E+02  0.48351686796E+02  0.00000000000E+00 0.  1.
          5    1    4    4  501    0 -0.24626781614E+02  0.28033064741E+02 -0.18194529827E+02  0.41723427556E+02  0.41800000000E+01 0. -1.
         -5    1    4    4    0  501  0.14795039790E+03  0.11001007202E+03 -0.30251079967E+02  0.18688000541E+03  0.41800000000E+01 0. -1.
</event>
<event>
11    1  0.8037748E-009  0.1413189E+03  0.7561462E-02  0.1106095E+00
         22   -1    0    0    0    0  0.00000000000E+00  0.00000000000E+00  0.58118331938E+03  0.58118331938E+03  0.00000000000E+00 0.  1.
         22   -1    0    0    0    0 -0.00000000000E+00 -0.00000000000E+00 -0.19728483241E+04  0.19728483241E+04  0.00000000000E+00 0.  1.
        -24    2    1    2    0    0 -0.58158959448E+02 -0.18806446142E+02 -0.19007029118E+04  0.19033710077E+04  0.80084250189E+02 0.  0.
         25    2    1    2    0    0 -0.84649381251E+01  0.39027353165E+02  0.68987558944E+00  0.13129951357E+03  0.12507716364E+03 0.  0.
         24    2    1    2    0    0  0.66623897573E+02 -0.20220907023E+02  0.50834803150E+03  0.51936112219E+03  0.80440197053E+02 0.  0.
        -13    1    5    5    0    0  0.49700582387E+02 -0.82345811039E+01  0.48699930445E+03  0.48959807878E+03  0.00000000000E+00 0.  1.
         14    1    5    5    0    0  0.16923315186E+02 -0.11986325919E+02  0.21348727050E+02  0.29763043403E+02  0.00000000000E+00 0. -1.
         11    1    3    3    0    0  0.11893192533E+02 -0.15878963897E+00 -0.56235401318E+02  0.57479505950E+02  0.00000000000E+00 0. -1.
        -12    1    3    3    0    0 -0.70052151982E+02 -0.18647656503E+02 -0.18444675105E+04  0.18458915017E+04  0.00000000000E+00 0.  1.
          5    1    4    4  501    0 -0.43350077281E+02  0.30594571866E+02 -0.47316362660E+02  0.71214939467E+02  0.41800000000E+01 0. -1.
         -5    1    4    4    0  501  0.34885139156E+02  0.84327812991E+01  0.48006238250E+02  0.60084574104E+02  0.41800000000E+01 0. -1.
</event>
<event>
11    1  0.8037748E-009  0.1505258E+03  0.7561462E-02  0.1096343E+00
         22   -1    0    0    0    0  0.00000000000E+00  0.00000000000E+00  0.35709753754E+03  0.35709753754E+03  0.00000000000E+00 0.  1.
         22   -1    0    0    0    0 -0.00000000000E+00 -0.00000000000E+00 -0.39145323585E+03  0.39145323585E+03  0.00000000000E+00 0.  1.
        -24    2    1    2    0    0 -0.79733046753E+02 -0.21265529768E+02 -0.33187826022E+03  0.35156979101E+03  0.81538683101E+02 0.  0.
         25    2    1    2    0    0  0.10454743369E+03  0.11935843842E+02  0.12778503866E+03  0.20748592054E+03  0.12509500734E+03 0.  0.
         24    2    1    2    0    0 -0.24814386936E+02  0.93296859264E+01  0.16973752325E+03  0.18949506184E+03  0.79967210928E+02 0.  0.
        -11    1    5    5    0    0  0.25759811193E+02 -0.58081125634E+01  0.90565633185E+02  0.94336821859E+02  0.00000000000E+00 0.  1.
         12    1    5    5    0    0 -0.50574198129E+02  0.15137798490E+02  0.79171890064E+02  0.95158239979E+02  0.00000000000E+00 0. -1.
         11    1    3    3    0    0 -0.54170294424E+02  0.81412669376E+01 -0.81631068457E+02  0.98307336261E+02  0.00000000000E+00 0. -1.
        -12    1    3    3    0    0 -0.25562752330E+02 -0.29406796706E+02 -0.25024719176E+03  0.25326245474E+03  0.00000000000E+00 0.  1.
          5    1    4    4  501    0  0.11979205133E+03 -0.55511572998E+01  0.13705097529E+03  0.18215760521E+03  0.41800000000E+01 0. -1.
         -5    1    4    4    0  501 -0.15244617638E+02  0.17487001142E+02 -0.92659366338E+01  0.25328315332E+02  0.41800000000E+01 0. -1.
</event>
<event>
11    1  0.8037748E-009  0.1326438E+03  0.7561462E-02  0.1116063E+00
         22   -1    0    0    0    0  0.00000000000E+00  0.00000000000E+00  0.27865789232E+04  0.27865789232E+04  0.00000000000E+00 0.  1.
         22   -1    0    0    0    0 -0.00000000000E+00 -0.00000000000E+00 -0.12331290070E+02  0.12331290070E+02  0.00000000000E+00 0.  1.
        -24    2    1    2    0    0 -0.20994195595E+02  0.41510260092E+02  0.27998091250E+03  0.29350363316E+03  0.74774416574E+02 0.  0.
         25    2    1    2    0    0 -0.92428510788E+01  0.87573747051E+01  0.10305400551E+04  0.10381828344E+04  0.12509464618E+03 0.  0.
         24    2    1    2    0    0  0.30237046673E+02 -0.50267634798E+02  0.14637266656E+04  0.14672237458E+04  0.82514571899E+02 0.  0.
        -11    1    5    5    0    0  0.35455739791E+02 -0.65449165339E+02  0.13778698514E+04  0.13798789911E+04  0.00000000000E+00 0.  1.
         12    1    5    5    0    0 -0.52186931178E+01  0.15181530541E+02  0.85856814134E+02  0.87344754626E+02  0.00000000000E+00 0. -1.
         11    1    3    3    0    0 -0.15979383705E+02  0.16162385931E+02  0.25960256488E+03  0.26059557770E+03  0.00000000000E+00 0. -1.
        -12    1    3    3    0    0 -0.50148118898E+01  0.25347874162E+02  0.20378347617E+02  0.32908055464E+02  0.00000000000E+00 0.  1.
          5    1    4    4  501    0  0.20403651877E+02 -0.17761679935E+02  0.51468001504E+02  0.58294200937E+02  0.41800000000E+01 0.  1.
         -5    1    4    4    0  501 -0.29646502956E+02  0.26519054640E+02  0.97907205360E+03  0.97988863343E+03  0.41800000000E+01 0.  1.
</event>
<event>
11    1  0.8037748E-009  0.3287777E+03  0.7561462E-02  0.9886975E-01
         22   -1    0    0    0    0  0.00000000000E+00  0.00000000000E+00  0.23450465345E+04  0.23450465345E+04  0.00000000000E+00 0.  1.
         22   -1    0    0    0    0 -0.00000000000E+00 -0.00000000000E+00 -0.12803423268E+03  0.12803423268E+03  0.00000000000E+00 0.  1.
        -24    2    1    2    0    0  0.28315944759E+03 -0.19749775991E+03  0.56477057579E+03  0.66682152632E+03  0.80625720262E+02 0.  0.
         25    2    1    2    0    0  0.24953561123E+02  0.35207635709E+03  0.79346658270E+03  0.87739206522E+03  0.12508867581E+03 0.  0.
         24    2    1    2    0    0 -0.30811300871E+03 -0.15457859719E+03  0.85877514335E+03  0.92886717565E+03  0.80444479746E+02 0.  0.
        -13    1    5    5    0    0 -0.21823397005E+03 -0.66685507213E+02  0.54485127087E+03  0.59070799040E+03  0.00000000000E+00 0.  1.
         14    1    5    5    0    0 -0.89879038663E+02 -0.87893089975E+02  0.31392387248E+03  0.33815918525E+03  0.00000000000E+00 0. -1.
         11    1    3    3    0    0  0.78159465556E+02 -0.76064048137E+02  0.24377734614E+03  0.26706185794E+03  0.00000000000E+00 0. -1.
        -12    1    3    3    0    0  0.20499998203E+03 -0.12143371177E+03  0.32099322964E+03  0.39975966838E+03  0.00000000000E+00 0.  1.
          5    1    4    4  501    0  0.34436670729E+02  0.22467588310E+03  0.36267291799E+03  0.42803534268E+03  0.41800000000E+01 0.  1.
         -5    1    4    4    0  501 -0.94831096066E+01  0.12740047399E+03  0.43079366470E+03  0.44935672254E+03  0.41800000000E+01 0.  1.
</event>
<event>
11    1  0.8037748E-009  0.1683475E+03  0.7561462E-02  0.1079479E+00
         22   -1    0    0    0    0  0.00000000000E+00  0.00000000000E+00  0.65001520567E+03  0.65001520567E+03  0.00000000000E+00 0.  1.
         22   -1    0    0    0    0 -0.00000000000E+00 -0.00000000000E+00 -0.22776488811E+03  0.22776488811E+03  0.00000000000E+00 0.  1.
        -24    2    1    2    0    0  0.10912455414E+03 -0.25602988795E+02 -0.16421259738E+03  0.21558326768E+03  0.83346786466E+02 0.  0.
         25    2    1    2    0    0 -0.11864403252E+03  0.76092394334E+01  0.18768389521E+03  0.25497456573E+03  0.12510986239E+03 0.  0.
         24    2    1    2    0    0  0.95194783841E+01  0.17993749361E+02  0.39877901973E+03  0.40722226037E+03  0.79942900127E+02 0.  0.
        -11    1    5    5    0    0  0.44215994531E+02  0.16350748619E+02  0.25371230530E+03  0.25805490698E+03  0.00000000000E+00 0.  1.
         12    1    5    5    0    0 -0.34696516147E+02  0.16430007426E+01  0.14506671443E+03  0.14916735339E+03  0.00000000000E+00 0. -1.
         13    1    3    3    0    0  0.12122942718E+03 -0.13287972762E+02 -0.13768177406E+03  0.18392774435E+03  0.00000000000E+00 0. -1.
        -14    1    3    3    0    0 -0.12104873039E+02 -0.12315016032E+02 -0.26530823322E+02  0.31655523330E+02  0.00000000000E+00 0.  1.
          5    1    4    4  501    0 -0.32172306329E+02 -0.11169845247E+02 -0.12139044626E+02  0.36395762690E+02  0.41800000000E+01 0. -1.
         -5    1    4    4    0  501 -0.86471726196E+02  0.18779084680E+02  0.19982293983E+03  0.21857880304E+03  0.41800000000E+01 0. -1.
</event>
<event>
11    1  0.8037748E-009  0.1667736E+03  0.7561462E-02  0.1080874E+00
         22   -1    0    0    0    0  0.00000000000E+00  0.00000000000E+00  0.54380657809E+03  0.54380657809E+03  0.00000000000E+00 0.  1.
         22   -1    0    0    0    0 -0.00000000000E+00 -0.00000000000E+00 -0.66732728654E+03  0.66732728654E+03  0.00000000000E+00 0. -1.
        -24    2    1    2    0    0  0.99937977396E+02  0.50630042008E+02 -0.61509768266E+03  0.63033363990E+03  0.80151967490E+02 0.  0.
         25    2    1    2    0    0 -0.48061514153E+02 -0.71464826925E+02  0.11299157022E+03  0.18930332954E+03  0.12510605502E+03 0.  0.
         24    2    1    2    0    0 -0.51876463243E+02  0.20834784917E+02  0.37858540400E+03  0.39149689520E+03  0.82569093065E+02 0.  0.
        -11    1    5    5    0    0 -0.30569553859E+02  0.46305907427E+02  0.31410015840E+03  0.31896339005E+03  0.00000000000E+00 0.  1.
         12    1    5    5    0    0 -0.21306909384E+02 -0.25471122510E+02  0.64485245600E+02  0.72533505151E+02  0.00000000000E+00 0. -1.
         11    1    3    3    0    0  0.81917637940E+02  0.56876053593E+02 -0.59217797142E+03  0.60051655657E+03  0.00000000000E+00 0. -1.
        -12    1    3    3    0    0  0.18020339456E+02 -0.62460115853E+01 -0.22919711236E+02  0.29817083324E+02  0.00000000000E+00 0.  1.
          5    1    4    4  501    0  0.17188300877E+02 -0.11332981734E+02 -0.20241124754E+02  0.29172756012E+02  0.41800000000E+01 0. -1.
         -5    1    4    4    0  501 -0.65249815031E+02 -0.60131845192E+02  0.13323269497E+03  0.16013057352E+03  0.41800000000E+01 0. -1.
</event>
<event>
11    1  0.8037748E-009  0.1262050E+03  0.7561462E-02  0.1124022E+00
         22   -1    0    0    0    0  0.00000000000E+00  0.00000000000E+00  0.45593728155E+03  0.45593728155E+03  0.00000000000E+00 0. -1.
         22   -1    0    0    0    0 -0.00000000000E+00 -0.00000000000E+00 -0.24304980540E+03  0.24304980540E+03  0.00000000000E+00 0.  1.
         24    2    1    2    0    0  0.95139212875E+01 -0.13362433933E+02 -0.20893970230E+03  0.22445118374E+03  0.80333463430E+02 0.  0.
         25    2    1    2    0    0 -0.11391888370E+02  0.22818675629E+02  0.18944830461E+03  0.22844979411E+03  0.12509269056E+03 0.  0.
        -24    2    1    2    0    0  0.18779670829E+01 -0.94562416959E+01  0.23237887384E+03  0.24608610910E+03  0.80408238504E+02 0.  0.
        -11    1    3    3    0    0  0.18546379713E+02  0.54089315122E+01 -0.20135842754E+03  0.20228307167E+03  0.00000000000E+00 0.  1.
         12    1    3    3    0    0 -0.90324584253E+01 -0.18771365445E+02 -0.75812747540E+01  0.22168112071E+02  0.00000000000E+00 0. -1.
         13    1    5    5    0    0 -0.21955335101E+02  0.24792855937E+02  0.15151133633E+03  0.15508838603E+03  0.00000000000E+00 0. -1.
        -14    1    5    5    0    0  0.23833302184E+02 -0.34249097633E+02  0.80867537506E+02  0.90997723070E+02  0.00000000000E+00 0.  1.
          5    1    4    4  501    0 -0.44167539225E+02 -0.18316938033E+02  0.16202831596E+03  0.16898795612E+03  0.41800000000E+01 0. -1.
         -5    1    4    4    0  501  0.32775650855E+02  0.41135613662E+02  0.27419988654E+02  0.59461837998E+02  0.41800000000E+01 0. -1.
</event>
<event>
11    1  0.8037748E-009  0.1412867E+03  0.7561462E-02  0.1106130E+00
         22   -1    0    0    0    0  0.00000000000E+00  0.00000000000E+00  0.13054821481E+03  0.13054821481E+03  0.00000000000E+00 0.  1.
         22   -1    0    0    0    0 -0.00000000000E+00 -0.00000000000E+00 -0.11960130270E+04  0.11960130270E+04  0.00000000000E+00 0.  1.
         24    2    1    2    0    0  0.24401900930E+02  0.27332961332E+01 -0.10067278105E+04  0.10103201038E+04  0.81504012100E+02 0.  0.
         25    2    1    2    0    0 -0.20564933886E+02 -0.67944927153E+02 -0.12181956159E+03  0.18848601514E+03  0.12509013825E+03 0.  0.
        -24    2    1    2    0    0 -0.38369670443E+01  0.65211631020E+02  0.63082559928E+02  0.12775512286E+03  0.89859239442E+02 0.  0.
        -11    1    3    3    0    0  0.25201701220E+02 -0.15602862617E+02 -0.95452085774E+03  0.95498096469E+03  0.00000000000E+00 0.  1.
         12    1    3    3    0    0 -0.79980028971E+00  0.18336158750E+02 -0.52206952761E+02  0.55339139086E+02  0.00000000000E+00 0. -1.
         11    1    5    5    0    0 -0.42111661603E+02  0.58305782139E+02  0.36580568661E+02  0.80691351936E+02  0.00000000000E+00 0. -1.
        -12    1    5    5    0    0  0.38274694559E+02  0.69058488815E+01  0.26501991267E+02  0.47063770922E+02  0.00000000000E+00 0.  1.
          5    1    4    4  501    0 -0.71312658568E+02 -0.52192168322E+02 -0.90996744275E+02  0.12691492259E+03  0.41800000000E+01 0.  1.
         -5    1    4    4    0  501  0.50747724682E+02 -0.15752758831E+02 -0.30822817312E+02  0.61571092553E+02  0.41800000000E+01 0.  1.
</event>
<event>
11    1  0.8037748E-009  0.2172977E+03  0.7561462E-02  0.1042924E+00
         22   -1    0    0    0    0  0.00000000000E+00  0.00000000000E+00  0.50439709483E+03  0.50439709483E+03  0.00000000000E+00 0.  1.
         22   -1    0    0    0    0 -0.00000000000E+00 -0.00000000000E+00 -0.37086239175E+03  0.37086239175E+03  0.00000000000E+00 0. -1.
         24    2    1    2    0    0  0.49498065109E+02  0.10372827818E+02 -0.14021503773E+03  0.16804406689E+03  0.77594443136E+02 0.  0.
         25    2    1    2    0    0 -0.21631600867E+03 -0.54337263577E+02 -0.11053218785E+03  0.27858577326E+03  0.12509002635E+03 0.  0.
        -24    2    1    2    0    0  0.16681794357E+03  0.43964435759E+02  0.38428192866E+03  0.42862964643E+03  0.79307472494E+02 0.  0.
        -11    1    3    3    0    0  0.97167597540E+01 -0.32558388771E+02 -0.47526626358E+02  0.58422977607E+02  0.00000000000E+00 0.  1.
         12    1    3    3    0    0  0.39781305355E+02  0.42931216589E+02 -0.92688411368E+02  0.10962108928E+03  0.00000000000E+00 0. -1.
         11    1    5    5    0    0  0.92879661081E+02 -0.15097618349E+02  0.16815712804E+03  0.19269506801E+03  0.00000000000E+00 0. -1.
        -12    1    5    5    0    0  0.73938282485E+02  0.59062054108E+02  0.21612480062E+03  0.23593457842E+03  0.00000000000E+00 0.  1.
          5    1    4    4  501    0 -0.33797290282E+02 -0.60914315094E+02 -0.51031713167E+02  0.86455299216E+02  0.41800000000E+01 0.  1.
         -5    1    4    4    0  501 -0.18251871839E+03  0.65770515167E+01 -0.59500474683E+02  0.19213047405E+03  0.41800000000E+01 0.  1.
</event>
<event>
11    1  0.8037748E-009  0.1345923E+03  0.7561462E-02  0.1113752E+00
         22   -1    0    0    0    0  0.00000000000E+00  0.00000000000E+00  0.13597111790E+04  0.13597111790E+04  0.00000000000E+00 0.  1.
         22   -1    0    0    0    0 -0.00000000000E+00 -0.00000000000E+00 -0.61306298615E+03  0.61306298615E+03  0.00000000000E+00 0. -1.
        -24    2    1    2    0    0  0.50192831240E+01  0.13719001084E+02 -0.49159970143E+03  0.50047562916E+03  0.92694038355E+02 0.  0.
         25    2    1    2    0    0  0.44496568426E+02 -0.18073096359E+02 -0.76377711375E+02  0.15423990467E+03  0.12509920856E+03 0.  0.
         24    2    1    2    0    0 -0.49515851550E+02  0.43540952748E+01  0.13146256057E+04  0.13180586313E+04  0.81038847955E+02 0.  0.
        -13    1    5    5    0    0 -0.66288748997E+02  0.41311193453E+01  0.12296955557E+04  0.12314878903E+04  0.00000000000E+00 0.  1.
         14    1    5    5    0    0  0.16772897448E+02  0.22297592950E+00  0.84930049991E+02  0.86570741008E+02  0.00000000000E+00 0. -1.
         13    1    3    3    0    0  0.32831522492E+01  0.24734645727E+02 -0.48817179794E+03  0.48880904870E+03  0.00000000000E+00 0. -1.
        -14    1    3    3    0    0  0.17361308748E+01 -0.11015644643E+02 -0.34279034874E+01  0.11666580460E+02  0.00000000000E+00 0.  1.
          5    1    4    4  501    0  0.33742963012E+02 -0.16813201762E+02 -0.11122280904E+03  0.11751279486E+03  0.41800000000E+01 0.  1.
         -5    1    4    4    0  501  0.10753605414E+02 -0.12598945965E+01  0.34845097660E+02  0.36727109806E+02  0.41800000000E+01 0.  1.
</event>
<event>
11    1  0.8037748E-009  0.1381647E+03  0.7561462E-02  0.1109625E+00
         22   -1    0    0    0    0  0.00000000000E+00  0.00000000000E+00  0.21993300403E+04  0.21993300403E+04  0.00000000000E+00 0. -1.
         22   -1    0    0    0    0 -0.00000000000E+00 -0.00000000000E+00 -0.29731028674E+03  0.29731028674E+03  0.00000000000E+00 0. -1.
         24    2    1    2    0    0 -0.90919004293E+01 -0.12903107385E+02 -0.22064794292E+03  0.23531698085E+03  0.80245958957E+02 0.  0.
         25    2    1    2    0    0  0.19959774116E+02 -0.44921516299E+02 -0.19564482776E+01  0.13442119366E+03  0.12509554111E+03 0.  0.
        -24    2    1    2    0    0 -0.10867873687E+02  0.57824623684E+02  0.21246241447E+04  0.21269021525E+04  0.78887338413E+02 0.  0.
        -13    1    3    3    0    0 -0.27865834442E+02 -0.19632055270E+02 -0.35934044246E+02  0.49529565505E+02  0.00000000000E+00 0.  1.
         14    1    3    3    0    0  0.18773934013E+02  0.67289478846E+01 -0.18471389867E+03  0.18578741535E+03  0.00000000000E+00 0. -1.
         13    1    5    5    0    0  0.16295756300E+02  0.53501288592E+02  0.18623623742E+04  0.18632019623E+04  0.00000000000E+00 0. -1.
        -14    1    5    5    0    0 -0.27163629987E+02  0.43233350923E+01  0.26226177049E+03  0.26370019014E+03  0.00000000000E+00 0.  1.
          5    1    4    4  501    0 -0.23038456737E+02  0.71919090818E+01 -0.47078500632E+02  0.53069310028E+02  0.41800000000E+01 0.  1.
         -5    1    4    4    0  501  0.42998230853E+02 -0.52113425381E+02  0.45122052355E+02  0.81351883630E+02  0.41800000000E+01 0.  1.
</event>
<event>
11    1  0.8037748E-009  0.1727154E+04  0.7561462E-02  0.8189065E-01
         22   -1    0    0    0    0  0.00000000000E+00  0.00000000000E+00  0.26730149822E+04  0.26730149822E+04  0.00000000000E+00 0. -1.
         22   -1    0    0    0    0 -0.00000000000E+00 -0.00000000000E+00 -0.14194134303E+04  0.14194134303E+04  0.00000000000E+00 0. -1.
         24    2    1    2    0    0 -0.15852831061E+04 -0.58643383896E+03  0.33194301145E+03  0.17241688064E+04  0.74462984719E+02 0.  0.
         25    2    1    2    0    0  0.16411940535E+04  0.62627596731E+03  0.36121904122E+03  0.17977389478E+04  0.12508645168E+03 0.  0.
        -24    2    1    2    0    0 -0.55910947382E+02 -0.39842128349E+02  0.56043949927E+03  0.57052065831E+03  0.81779948633E+02 0.  0.
        -11    1    3    3    0    0 -0.10213252913E+04 -0.34030836938E+03  0.21810468826E+03  0.10984010160E+04  0.00000000000E+00 0.  1.
         12    1    3    3    0    0 -0.56395781483E+03 -0.24612546959E+03  0.11383832319E+03  0.62576779041E+03  0.00000000000E+00 0. -1.
         11    1    5    5    0    0 -0.72643796984E+02 -0.31425612789E+02  0.33157528117E+03  0.34089126927E+03  0.00000000000E+00 0. -1.
        -12    1    5    5    0    0  0.16732849602E+02 -0.84165155604E+01  0.22886421810E+03  0.22962938905E+03  0.00000000000E+00 0.  1.
          5    1    4    4  501    0  0.10709771474E+04  0.37901596705E+03  0.17933892789E+03  0.11501413292E+04  0.41800000000E+01 0.  1.
         -5    1    4    4    0  501  0.57021690604E+03  0.24726000027E+03  0.18188011333E+03  0.64759761866E+03  0.41800000000E+01 0.  1.
</event>
<event>
11    1  0.8037748E-009  0.4827956E+03  0.7561462E-02  0.9432809E-01
         22   -1    0    0    0    0  0.00000000000E+00  0.00000000000E+00  0.15722941987E+04  0.15722941987E+04  0.00000000000E+00 0. -1.
         22   -1    0    0    0    0 -0.00000000000E+00 -0.00000000000E+00 -0.11858736499E+04  0.11858736499E+04  0.00000000000E+00 0.  1.
         24    2    1    2    0    0  0.20011896599E+01 -0.47416275050E+02 -0.92965346911E+03  0.93441115491E+03  0.81340800876E+02 0.  0.
         25    2    1    2    0    0  0.30129983800E+03 -0.31517012315E+03  0.33950516433E+02  0.45487918900E+03  0.12509452470E+03 0.  0.
        -24    2    1    2    0    0 -0.30330102766E+03  0.36258639820E+03  0.12821235015E+04  0.13688775048E+04  0.80774627951E+02 0.  0.
        -11    1    3    3    0    0  0.47676994557E+01 -0.35517316902E+02 -0.91327853661E+03  0.91398134346E+03  0.00000000000E+00 0.  1.
         12    1    3    3    0    0 -0.27665097958E+01 -0.11898958147E+02 -0.16374932501E+02  0.20429811449E+02  0.00000000000E+00 0. -1.
         13    1    5    5    0    0 -0.21612675504E+03  0.24566672050E+03  0.98434200485E+03  0.10373003877E+04  0.00000000000E+00 0. -1.
        -14    1    5    5    0    0 -0.87174272622E+02  0.11691967770E+03  0.29778149661E+03  0.33157711707E+03  0.00000000000E+00 0.  1.
          5    1    4    4  501    0  0.12156427193E+03 -0.21608301544E+03  0.27622313680E+02  0.24949991259E+03  0.41800000000E+01 0.  1.
         -5    1    4    4    0  501  0.17973556607E+03 -0.99087107712E+02  0.63282027533E+01  0.20537927641E+03  0.41800000000E+01 0.  1.
</event>
<event>
11    1  0.8037748E-009  0.5102807E+03  0.7561462E-02  0.9370838E-01
         22   -1    0    0    0    0  0.00000000000E+00  0.00000000000E+00  0.34605495620E+04  0.34605495620E+04  0.00000000000E+00 0. -1.
         22   -1    0    0    0    0 -0.00000000000E+00 -0.00000000000E+00 -0.30544326853E+03  0.30544326853E+03  0.00000000000E+00 0. -1.
         24    2    1    2    0    0 -0.48003549041E+03 -0.21498915950E+02  0.49252541300E+01  0.48729917451E+03  0.80869969094E+02 0.  0.
         25    2    1    2    0    0  0.65696238504E+03  0.35782030054E+02  0.27898778014E+04  0.28691366108E+04  0.12508723254E+03 0.  0.
        -24    2    1    2    0    0 -0.17692689463E+03 -0.14283114105E+02  0.36030323802E+03  0.40955704529E+03  0.80071322143E+02 0.  0.
        -11    1    3    3    0    0 -0.13843826659E+03  0.21409614415E+02 -0.22698964187E+02  0.14191112789E+03  0.00000000000E+00 0.  1.
         12    1    3    3    0    0 -0.34159722383E+03 -0.42908530364E+02  0.27624218317E+02  0.34538804661E+03  0.00000000000E+00 0. -1.
         11    1    5    5    0    0 -0.12759611888E+03 -0.42512537948E+02  0.28566983176E+03  0.31574568598E+03  0.00000000000E+00 0. -1.
        -12    1    5    5    0    0 -0.49330775746E+02  0.28229423843E+02  0.74633406258E+02  0.93811359312E+02  0.00000000000E+00 0.  1.
          5    1    4    4  501    0  0.95879506767E+01 -0.45822328992E+01  0.12127790501E+02  0.16657771729E+02  0.41800000000E+01 0. -1.
         -5    1    4    4    0  501  0.64737443436E+03  0.40364262953E+02  0.27777500109E+04  0.28524788390E+04  0.41800000000E+01 0. -1.
</event>
<event>
11    1  0.8037748E-009  0.1386224E+03  0.7561462E-02  0.1109106E+00
         22   -1    0    0    0    0  0.00000000000E+00  0.00000000000E+00  0.73729721218E+03  0.73729721218E+03  0.00000000000E+00 0. -1.
         22   -1    0    0    0    0 -0.00000000000E+00 -0.00000000000E+00 -0.10844323786E+04  0.10844323786E+04  0.00000000000E+00 0.  1.
         24    2    1    2    0    0 -0.56849087066E+02 -0.12233258722E+02 -0.87854103520E+03  0.88421136362E+03  0.81325971922E+02 0.  0.
         25    2    1    2    0    0  0.64790378596E+02  0.53006266148E+02 -0.17189864890E+03  0.22848170845E+03  0.12508912099E+03 0.  0.
        -24    2    1    2    0    0 -0.79412915303E+01 -0.40773007426E+02  0.70330451763E+03  0.70903651877E+03  0.79812518924E+02 0.  0.
        -13    1    3    3    0    0 -0.77131513945E+02 -0.12700372303E+02 -0.62712730275E+03  0.63198039824E+03  0.00000000000E+00 0.  1.
         14    1    3    3    0    0  0.20282426879E+02  0.46711358189E+00 -0.25141373245E+03  0.25223096538E+03  0.00000000000E+00 0. -1.
         13    1    5    5    0    0  0.16208182478E+01 -0.68910861804E+01  0.59723845787E+03  0.59728041126E+03  0.00000000000E+00 0. -1.
        -14    1    5    5    0    0 -0.95621097781E+01 -0.33881921246E+02  0.10606605977E+03  0.11175610751E+03  0.00000000000E+00 0.  1.
          5    1    4    4  501    0 -0.14230205344E+02  0.67551577083E+02 -0.67114779109E+02  0.96372092877E+02  0.41800000000E+01 0.  1.
         -5    1    4    4    0  501  0.79020583940E+02 -0.14545310935E+02 -0.10478386979E+03  0.13210961557E+03  0.41800000000E+01 0.  1.
</event>
<event>
11    1  0.8037748E-009  0.1543139E+03  0.7561462E-02  0.1092551E+00
         22   -1    0    0    0    0  0.00000000000E+00  0.00000000000E+00  0.14269177433E+04  0.14269177433E+04  0.00000000000E+00 0. -1.
         22   -1    0    0    0    0 -0.00000000000E+00 -0.00000000000E+00 -0.38962085517E+03  0.38962085517E+03  0.00000000000E+00 0.  1.
        -24    2    1    2    0    0 -0.61820577310E+02  0.67644184415E+02 -0.35014239591E+03  0.37148131457E+03  0.83672876151E+02 0.  0.
         25    2    1    2    0    0  0.91794763512E+02  0.18091539138E+00  0.20310980253E+03  0.25559234558E+03  0.12509014309E+03 0.  0.
         24    2    1    2    0    0 -0.29974186202E+02 -0.67825099807E+02  0.11843294815E+04  0.11894649384E+04  0.81803561755E+02 0.  0.
        -13    1    5    5    0    0  0.56693716272E+01  0.56631500848E+01  0.52960576080E+03  0.52966638077E+03  0.00000000000E+00 0.  1.
         14    1    5    5    0    0 -0.35643557829E+02 -0.73488249891E+02  0.65472372074E+03  0.65979855759E+03  0.00000000000E+00 0. -1.
         11    1    3    3    0    0 -0.30270446098E+02 -0.12827318940E+02 -0.56364631508E+02  0.65251909575E+02  0.00000000000E+00 0. -1.
        -12    1    3    3    0    0 -0.31550131212E+02  0.80471503356E+02 -0.29377776440E+03  0.30622940500E+03  0.00000000000E+00 0.  1.
          5    1    4    4  501    0  0.12138960257E+03 -0.95478822622E+01  0.14384814038E+03  0.18851089507E+03  0.41800000000E+01 0. -1.
         -5    1    4    4    0  501 -0.29594839060E+02  0.97287976536E+01  0.59261662152E+02  0.67081450519E+02  0.41800000000E+01 0. -1.
</event>
<event>
11    1  0.8037748E-009  0.2448582E+03  0.7561462E-02  0.1026674E+00
         22   -1    0    0    0    0  0.00000000000E+00  0.00000000000E+00  0.50771572859E+03  0.50771572859E+03  0.00000000000E+00 0.  1.
         22   -1    0    0    0    0 -0.00000000000E+00 -0.00000000000E+00 -0.64890474880E+03  0.64890474880E+03  0.00000000000E+00 0.  1.
        -24    2    1    2    0    0 -0.16191821107E+03 -0.12453146418E+03 -0.45786317606E+03  0.50764087710E+03  0.79592584233E+02 0.  0.
         25    2    1    2    0    0  0.24376434678E+03  0.77135901350E+02 -0.24890767278E+02  0.28571822533E+03  0.12507737587E+03 0.  0.
         24    2    1    2    0    0 -0.81846135708E+02  0.47395562831E+02  0.34156492313E+03  0.36326137496E+03  0.79668692219E+02 0.  0.
        -13    1    5    5    0    0 -0.65583152473E+02 -0.72849290184E+01  0.16483767016E+03  0.17755471715E+03  0.00000000000E+00 0.  1.
         14    1    5    5    0    0 -0.16262983235E+02  0.54680491849E+02  0.17672725297E+03  0.18570665781E+03  0.00000000000E+00 0. -1.
         13    1    3    3    0    0 -0.84732826362E+02 -0.45743173946E+02 -0.13038455428E+03  0.16208708098E+03  0.00000000000E+00 0. -1.
        -14    1    3    3    0    0 -0.77185384708E+02 -0.78788290235E+02 -0.32747862178E+03  0.34555379612E+03  0.00000000000E+00 0.  1.
          5    1    4    4  501    0  0.57775177555E+02 -0.26550706370E+02  0.22414105759E+02  0.67548321128E+02  0.41800000000E+01 0. -1.
         -5    1    4    4    0  501  0.18598916922E+03  0.10368660772E+03 -0.47304873037E+02  0.21816990421E+03  0.41800000000E+01 0. -1.
</event>
<event>
11    1  0.8037748E-009  0.1352900E+03  0.7561462E-02  0.1112935E+00
         22   -1    0    0    0    0  0.00000000000E+00  0.00000000000E+00  0.38077294473E+03  0.38077294473E+03  0.00000000000E+00 0. -1.
         22   -1    0    0    0    0 -0.00000000000E+00 -0.00000000000E+00 -0.12963930602E+04  0.12963930602E+04  0.00000000000E+00 0.  1.
         24    2    1    2    0    0  0.13925351192E+02  0.30904279549E+02 -0.12489936211E+04  0.12519673070E+04  0.79297429912E+02 0.  0.
         25    2    1    2    0    0  0.36467853390E+02 -0.44463179656E+02  0.92291454555E+02  0.16574619913E+03  0.12508881351E+03 0.  0.
        -24    2    1    2    0    0 -0.50393204582E+02  0.13558900106E+02  0.24108205111E+03  0.25945249874E+03  0.80447031615E+02 0.  0.
        -11    1    3    3    0    0  0.65949930549E+00  0.19113870070E+02 -0.11945652649E+04  0.11947183547E+04  0.00000000000E+00 0.  1.
         12    1    3    3    0    0  0.13265851887E+02  0.11790409479E+02 -0.54428356204E+02  0.57248952314E+02  0.00000000000E+00 0. -1.
         11    1    5    5    0    0 -0.35494678805E+01  0.39241585823E+02  0.13567602124E+03  0.14128157530E+03  0.00000000000E+00 0. -1.
        -12    1    5    5    0    0 -0.46843736701E+02 -0.25682685717E+02  0.10540602987E+03  0.11817092344E+03  0.00000000000E+00 0.  1.
          5    1    4    4  501    0 -0.38440391487E+02 -0.13166983966E+01 -0.72136557394E+00  0.38696125913E+02  0.41800000000E+01 0. -1.
         -5    1    4    4    0  501  0.74908244877E+02 -0.43146481259E+02  0.93012820129E+02  0.12705007322E+03  0.41800000000E+01 0. -1.
</event>
<event>
11    1  0.8559185E-009  0.1612435E+03  0.7561462E-02  0.1085913E+00
         22   -1    0    0    0    0  0.00000000000E+00  0.00000000000E+00  0.16035463246E+04  0.16035463246E+04  0.00000000000E+00 0.  1.
         22   -1    0    0    0    0 -0.00000000000E+00 -0.00000000000E+00 -0.10708485624E+04  0.10708485624E+04  0.00000000000E+00 0.  1.
         24    2    1    2    0    0  0.92658902783E+02 -0.55397963180E+02 -0.83433924787E+03  0.84519360842E+03  0.81090372968E+02 0.  0.
         25    2    1    2    0    0 -0.71324321991E+02  0.26637193335E+02 -0.20654154064E+03  0.25318607150E+03  0.12508828809E+03 0.  0.
        -24    2    1    2    0    0 -0.21334580793E+02  0.28760769845E+02  0.15735785508E+04  0.15760152071E+04  0.79950806383E+02 0.  0.
        -11    1    3    3    0    0  0.16848160113E+02 -0.35225305797E+02 -0.51037001478E+03  0.51186153855E+03  0.00000000000E+00 0.  1.
         12    1    3    3    0    0  0.75810742670E+02 -0.20172657382E+02 -0.32396923310E+03  0.33333206987E+03  0.00000000000E+00 0. -1.
         13    1    5    5    0    0 -0.25587216433E+02  0.42199075486E+02  0.51867370051E+03  0.52101619477E+03  0.00000000000E+00 0. -1.
        -14    1    5    5    0    0  0.42526356402E+01 -0.13438305641E+02  0.10549048502E+04  0.10549990123E+04  0.00000000000E+00 0.  1.
          5    1    4    4  501    0  0.10844889437E+02 -0.26400313054E+02 -0.52010400612E+01  0.29310601733E+02  0.41800000000E+01 0.  1.
         -5    1    4    4    0  501 -0.82169211428E+02  0.53037506389E+02 -0.20134050057E+03  0.22387546976E+03  0.41800000000E+01 0.  1.
</event>
<event>
11    1  0.8037748E-009  0.1898393E+03  0.7561462E-02  0.1061951E+00
         22   -1    0    0    0    0  0.00000000000E+00  0.00000000000E+00  0.15634449548E+04  0.15634449548E+04  0.00000000000E+00 0. -1.
         22   -1    0    0    0    0 -0.00000000000E+00 -0.00000000000E+00 -0.68462341655E+03  0.68462341655E+03  0.00000000000E+00 0.  1.
        -24    2    1    2    0    0  0.13355591580E+03 -0.32135405929E+02 -0.55236026204E+03  0.57497882047E+03  0.81418167221E+02 0.  0.
         25    2    1    2    0    0 -0.20109292780E+03  0.16651045984E+02 -0.60011397441E+00  0.23740785063E+03  0.12508598827E+03 0.  0.
         24    2    1    2    0    0  0.67537012001E+02  0.15484359945E+02  0.14317819143E+04  0.14356817003E+04  0.79884172565E+02 0.  0.
        -11    1    5    5    0    0 -0.10114903608E+02 -0.38644202040E+01  0.59116460307E+03  0.59126375920E+03  0.00000000000E+00 0.  1.
         12    1    5    5    0    0  0.77651915608E+02  0.19348780149E+02  0.84061731121E+03  0.84441794107E+03  0.00000000000E+00 0. -1.
         11    1    3    3    0    0  0.59848218255E+01 -0.31527429945E+02 -0.11474337629E+03  0.11914629383E+03  0.00000000000E+00 0. -1.
        -12    1    3    3    0    0  0.12757109397E+03 -0.60797598367E+00 -0.43761688575E+03  0.45583252664E+03  0.00000000000E+00 0.  1.
          5    1    4    4  501    0 -0.17387758907E+03  0.13388515651E+02 -0.49381428004E+02  0.18129717638E+03  0.41800000000E+01 0. -1.
         -5    1    4    4    0  501 -0.27215338729E+02  0.32625303325E+01  0.48781314029E+02  0.56110674250E+02  0.41800000000E+01 0. -1.
</event>
<event>
11    1  0.8037748E-009  0.1305118E+03  0.7561462E-02  0.1118642E+00
         22   -1    0    0    0    0  0.00000000000E+00  0.00000000000E+00  0.95484947854E+03  0.95484947854E+03  0.00000000000E+00 0.  1.
         22   -1    0    0    0    0 -0.00000000000E+00 -0.00000000000E+00 -0.14891010084E+04  0.14891010084E+04  0.00000000000E+00 0. -1.
         24    2    1    2    0    0 -0.22034099645E+02  0.36830791595E+01 -0.14714813396E+04  0.14737778334E+04  0.79149876610E+02 0.  0.
         25    2    1    2    0    0 -0.10589977151E+02 -0.26905129268E+02  0.29345610572E+03  0.32031121823E+03  0.12508699749E+03 0.  0.
        -24    2    1    2    0    0  0.32624076797E+02  0.23222050108E+02  0.64377370402E+03  0.64986143525E+03  0.79194122482E+02 0.  0.
        -13    1    3    3    0    0 -0.29864627568E+02 -0.17775465787E+02 -0.28991368461E+03  0.29198939653E+03  0.00000000000E+00 0.  1.
         14    1    3    3    0    0  0.78305279232E+01  0.21458544946E+02 -0.11815676550E+04  0.11817884369E+04  0.00000000000E+00 0. -1.
         13    1    5    5    0    0  0.14622340556E+02  0.49797690681E+01  0.18666632086E+02  0.24229199259E+02  0.00000000000E+00 0. -1.
        -14    1    5    5    0    0  0.18001736241E+02  0.18242281040E+02  0.62510707194E+03  0.62563223599E+03  0.00000000000E+00 0.  1.
          5    1    4    4  501    0 -0.43483626194E+02 -0.49052120515E+02  0.26028015155E+03  0.26844024654E+03  0.41800000000E+01 0.  1.
         -5    1    4    4    0  501  0.32893649042E+02  0.22146991247E+02  0.33175954179E+02  0.51870971692E+02  0.41800000000E+01 0.  1.
</event>
<event>
11    1  0.8037748E-009  0.2906755E+03  0.7561462E-02  0.1004217E+00
         22   -1    0    0    0    0  0.00000000000E+00  0.00000000000E+00  0.12985319927E+04  0.12985319927E+04  0.00000000000E+00 0. -1.
         22   -1    0    0    0    0 -0.00000000000E+00 -0.00000000000E+00 -0.11120893149E+03  0.11120893149E+03  0.00000000000E+00 0. -1.
         24    2    1    2    0    0 -0.15401808568E+03 -0.18016053133E+03  0.23122088408E+03  0.34091327757E+03  0.81113364009E+02 0.  0.
         25    2    1    2    0    0  0.20336149097E+03  0.23844130615E+03  0.52576190717E+03  0.62472591979E+03  0.12508692712E+03 0.  0.
        -24    2    1    2    0    0 -0.49343405287E+02 -0.58280774822E+02  0.43034026995E+03  0.44410172683E+03  0.78753891752E+02 0.  0.
        -13    1    3    3    0    0 -0.16783666667E+02  0.89060719792E+00  0.67668472053E-01  0.16807415833E+02  0.00000000000E+00 0.  1.
         14    1    3    3    0    0 -0.13723441901E+03 -0.18105113853E+03  0.23115321561E+03  0.32410586174E+03  0.00000000000E+00 0. -1.
         13    1    5    5    0    0 -0.36303159466E+02 -0.60515925652E+02  0.42324682807E+03  0.42908970404E+03  0.00000000000E+00 0. -1.
        -14    1    5    5    0    0 -0.13040245820E+02  0.22351508309E+01  0.70934418873E+01  0.15012022785E+02  0.00000000000E+00 0.  1.
          5    1    4    4  501    0  0.15877178818E+03  0.14988730956E+03  0.25160770250E+03  0.33316451588E+03  0.41800000000E+01 0. -1.
         -5    1    4    4    0  501  0.44589702787E+02  0.88553996597E+02  0.27415420467E+03  0.29156140390E+03  0.41800000000E+01 0. -1.
</event>
<event>
11    1  0.8037748E-009  0.1405179E+03  0.7561462E-02  0.1106981E+00
         22   -1    0    0    0    0  0.00000000000E+00  0.00000000000E+00  0.11257905820E+03  0.11257905820E+03  0.00000000000E+00 0.  1.
         22   -1    0    0    0    0 -0.00000000000E+00 -0.00000000000E+00 -0.12354337638E+04  0.12354337638E+04  0.00000000000E+00 0.  1.
         24    2    1    2    0    0  0.64013035455E+02 -0.87823042740E+00 -0.10621023965E+04  0.10677339316E+04  0.88858359207E+02 0.  0.
         25    2    1    2    0    0 -0.60574339187E+02  0.73623177763E+02 -0.66513244662E+02  0.17077046942E+03  0.12509563797E+03 0.  0.
        -24    2    1    2    0    0 -0.34386962678E+01 -0.72744947336E+02  0.57609355798E+01  0.10950842099E+03  0.81579739485E+02 0.  0.
        -11    1    3    3    0    0  0.45156260279E+02  0.25909797304E+02 -0.93596980017E+03  0.93741659484E+03  0.00000000000E+00 0.  1.
         12    1    3    3    0    0  0.18856775176E+02 -0.26788027732E+02 -0.12613259631E+03  0.13031733672E+03  0.00000000000E+00 0. -1.
         13    1    5    5    0    0  0.43874364904E+01  0.16148351795E+02 -0.90910538226E+01  0.19043794902E+02  0.00000000000E+00 0. -1.
        -14    1    5    5    0    0 -0.78261327582E+01 -0.88893299131E+02  0.14851989402E+02  0.90464626090E+02  0.00000000000E+00 0.  1.
          5    1    4    4  501    0  0.59647442173E+01  0.87403113940E+02 -0.49036891778E+02  0.10048368850E+03  0.41800000000E+01 0.  1.
         -5    1    4    4    0  501 -0.66539083405E+02 -0.13779936177E+02 -0.17476352884E+02  0.70286780916E+02  0.41800000000E+01 0.  1.
</event>
<event>
11    1  0.8037748E-009  0.1869631E+03  0.7561462E-02  0.1064146E+00
         22   -1    0    0    0    0  0.00000000000E+00  0.00000000000E+00  0.92845507212E+02  0.92845507212E+02  0.00000000000E+00 0. -1.
         22   -1    0    0    0    0 -0.00000000000E+00 -0.00000000000E+00 -0.20640232535E+04  0.20640232535E+04  0.00000000000E+00 0.  1.
         24    2    1    2    0    0 -0.25360360052E+02  0.12725746223E+03 -0.15155406957E+04  0.15232122445E+04  0.80463232531E+02 0.  0.
         25    2    1    2    0    0  0.45919395032E+02 -0.21138327724E+03 -0.45153913769E+03  0.51606798647E+03  0.12508834099E+03 0.  0.
        -24    2    1    2    0    0 -0.20559034980E+02  0.84125815013E+02 -0.40979128889E+01  0.11758852978E+03  0.79438295387E+02 0.  0.
        -13    1    3    3    0    0 -0.31818532815E+02  0.62221454810E+02 -0.11310113166E+04  0.11331683577E+04  0.00000000000E+00 0.  1.
         14    1    3    3    0    0  0.64581727630E+01  0.65036007422E+02 -0.38452937911E+03  0.39004388684E+03  0.00000000000E+00 0. -1.
         11    1    5    5    0    0 -0.45279840743E+02  0.79849899514E+02 -0.82289013873E+01  0.92162819228E+02  0.00000000000E+00 0. -1.
        -12    1    5    5    0    0  0.24720805763E+02  0.42759154991E+01  0.41309884984E+01  0.25425710548E+02  0.00000000000E+00 0.  1.
          5    1    4    4  501    0  0.34355405037E+02 -0.72207415224E+02 -0.29757152941E+03  0.30815660334E+03  0.41800000000E+01 0.  1.
         -5    1    4    4    0  501  0.11563989995E+02 -0.13917586202E+03 -0.15396760828E+03  0.20791138313E+03  0.41800000000E+01 0.  1.
</event>
<event>
11    1  0.8037748E-009  0.1306730E+03  0.7561462E-02  0.1118445E+00
         22   -1    0    0    0    0  0.00000000000E+00  0.00000000000E+00  0.79083988125E+03  0.79083988125E+03  0.00000000000E+00 0.  1.
         22   -1    0    0    0    0 -0.00000000000E+00 -0.00000000000E+00 -0.54365683292E+02  0.54365683292E+02  0.00000000000E+00 0. -1.
        -24    2    1    2    0    0 -0.34080395849E+02 -0.17090695582E+02  0.16789318321E+02  0.92887325559E+02  0.83021736811E+02 0.  0.
         25    2    1    2    0    0  0.31155142932E+02  0.17579918401E+02  0.33745487186E+03  0.36166553886E+03  0.12508587049E+03 0.  0.
         24    2    1    2    0    0  0.29252529167E+01 -0.48922281933E+00  0.38223000777E+03  0.39065270012E+03  0.80628511236E+02 0.  0.
        -11    1    5    5    0    0 -0.59330787914E+01 -0.36513027963E+02  0.26822647952E+03  0.27076529865E+03  0.00000000000E+00 0.  1.
         12    1    5    5    0    0  0.88583317081E+01  0.36023805144E+02  0.11400352825E+03  0.11988740147E+03  0.00000000000E+00 0. -1.
         11    1    3    3    0    0  0.24950321548E+02  0.23494627066E+01  0.17784627095E+02  0.30729976917E+02  0.00000000000E+00 0. -1.
        -12    1    3    3    0    0 -0.59030717397E+02 -0.19440158289E+02 -0.99530877388E+00  0.62157348643E+02  0.00000000000E+00 0.  1.
          5    1    4    4  501    0  0.69383210458E+02 -0.21078096166E+02  0.22952104362E+03  0.24073989677E+03  0.41800000000E+01 0.  1.
         -5    1    4    4    0  501 -0.38228067526E+02  0.38658014567E+02  0.10793382825E+03  0.12092564210E+03  0.41800000000E+01 0.  1.
</event>
<event>
11    1  0.8037748E-009  0.1526410E+03  0.7561462E-02  0.1094210E+00
         22   -1    0    0    0    0  0.00000000000E+00  0.00000000000E+00  0.79471589436E+03  0.79471589436E+03  0.00000000000E+00 0.  1.
         22   -1    0    0    0    0 -0.00000000000E+00 -0.00000000000E+00 -0.21565451815E+03  0.21565451815E+03  0.00000000000E+00 0. -1.
         24    2    1    2    0    0 -0.70633578485E+02  0.24761901700E+01 -0.17110644677E+03  0.20194898951E+03  0.80689183357E+02 0.  0.
         25    2    1    2    0    0 -0.28165896246E+02  0.32838570850E+02  0.18215059414E+03  0.22516059160E+03  0.12508702418E+03 0.  0.
        -24    2    1    2    0    0  0.98799474731E+02 -0.35314761020E+02  0.56801722885E+03  0.58326083140E+03  0.80877417217E+02 0.  0.
        -13    1    3    3    0    0 -0.63683701819E+02 -0.31506569734E+02 -0.98164256714E+02  0.12117961508E+03  0.00000000000E+00 0.  1.
         14    1    3    3    0    0 -0.69498766655E+01  0.33982759904E+02 -0.72942190059E+02  0.80769374437E+02  0.00000000000E+00 0. -1.
         11    1    5    5    0    0  0.54019194951E+02  0.18113712530E+02  0.17303588491E+03  0.18217463454E+03  0.00000000000E+00 0. -1.
        -12    1    5    5    0    0  0.44780279780E+02 -0.53428473550E+02  0.39498134395E+03  0.40108619686E+03  0.00000000000E+00 0.  1.
          5    1    4    4  501    0  0.10163773339E+02  0.74501555800E+02  0.96520653130E+02  0.12242341682E+03  0.41800000000E+01 0.  1.
         -5    1    4    4    0  501 -0.38329669585E+02 -0.41662984950E+02  0.85629941005E+02  0.10273717478E+03  0.41800000000E+01 0.  1.
</event>
<event>
11    1  0.8037748E-009  0.2749991E+03  0.7561462E-02  0.1011365E+00
         22   -1    0    0    0    0  0.00000000000E+00  0.00000000000E+00  0.58499568838E+03  0.58499568838E+03  0.00000000000E+00 0. -1.
         22   -1    0    0    0    0 -0.00000000000E+00 -0.00000000000E+00 -0.33156376392E+03  0.33156376392E+03  0.00000000000E+00 0. -1.
        -24    2    1    2    0    0  0.90664536478E+02  0.23382113015E+03 -0.21561283192E+03  0.34087093479E+03  0.82533155856E+02 0.  0.
         25    2    1    2    0    0 -0.63077073631E+02 -0.19928083960E+03  0.34744880822E+03  0.42433503159E+03  0.12509186403E+03 0.  0.
         24    2    1    2    0    0 -0.27587462847E+02 -0.34540290553E+02  0.12159594815E+03  0.15135348592E+03  0.78537910053E+02 0.  0.
        -13    1    5    5    0    0  0.24096354611E+02 -0.14222944895E+01  0.58692326050E+02  0.63462164825E+02  0.00000000000E+00 0.  1.
         14    1    5    5    0    0 -0.51683817458E+02 -0.33117996063E+02  0.62903622103E+02  0.87891321096E+02  0.00000000000E+00 0. -1.
         13    1    3    3    0    0  0.10577879221E+03  0.21512080457E+03 -0.19151556646E+03  0.30682947322E+03  0.00000000000E+00 0. -1.
        -14    1    3    3    0    0 -0.15114255732E+02  0.18700325588E+02 -0.24097265458E+02  0.34041461572E+02  0.00000000000E+00 0.  1.
          5    1    4    4  501    0 -0.68776536219E+02 -0.12718321236E+03  0.12769653932E+03  0.19294988986E+03  0.41800000000E+01 0.  1.
         -5    1    4    4    0  501  0.56994625876E+01 -0.72097627241E+02  0.21975226890E+03  0.23138514173E+03  0.41800000000E+01 0.  1.
</event>
<event>
11    1  0.8037748E-009  0.1558879E+03  0.7561462E-02  0.1091010E+00
         22   -1    0    0    0    0  0.00000000000E+00  0.00000000000E+00  0.29696269941E+04  0.29696269941E+04  0.00000000000E+00 0. -1.
         22   -1    0    0    0    0 -0.00000000000E+00 -0.00000000000E+00 -0.81480205951E+02  0.81480205951E+02  0.00000000000E+00 0. -1.
         24    2    1    2    0    0 -0.18053740125E+01  0.92098813773E+01 -0.49781651064E+02  0.93806180858E+02  0.78951285576E+02 0.  0.
         25    2    1    2    0    0  0.44324783665E+02  0.75401861062E+02  0.76962824160E+03  0.78461782154E+03  0.12508944203E+03 0.  0.
        -24    2    1    2    0    0 -0.42519409652E+02 -0.84611742439E+02  0.21683001976E+04  0.21726831976E+04  0.10029697527E+03 0.  0.
        -13    1    3    3    0    0 -0.88020408435E+01 -0.41466884014E+01  0.20092107195E+02  0.22324061441E+02  0.00000000000E+00 0.  1.
         14    1    3    3    0    0  0.69966668310E+01  0.13356569779E+02 -0.69873758259E+02  0.71482119416E+02  0.00000000000E+00 0. -1.
         11    1    5    5    0    0 -0.48566689693E+02 -0.12262226623E+02  0.14165369272E+04  0.14174222912E+04  0.00000000000E+00 0. -1.
        -12    1    5    5    0    0  0.60472800405E+01 -0.72349515817E+02  0.75176327037E+03  0.75526090639E+03  0.00000000000E+00 0.  1.
          5    1    4    4  501    0  0.46211329820E+01 -0.14622116053E+01 -0.30571963084E+01  0.70930798729E+01  0.41800000000E+01 0. -1.
         -5    1    4    4    0  501  0.39703650683E+02  0.76864072667E+02  0.77268543791E+03  0.77752474167E+03  0.41800000000E+01 0. -1.
</event>
<event>
11    1  0.8037748E-009  0.1302251E+03  0.7561462E-02  0.1118993E+00
         22   -1    0    0    0    0  0.00000000000E+00  0.00000000000E+00  0.11908121512E+04  0.11908121512E+04  0.00000000000E+00 0. -1.
         22   -1    0    0    0    0 -0.00000000000E+00 -0.00000000000E+00 -0.23555489253E+03  0.23555489253E+03  0.00000000000E+00 0.  1.
         24    2    1    2    0    0 -0.31434626148E+00  0.36184301444E+02 -0.21627574298E+03  0.23289927832E+03  0.78469575983E+02 0.  0.
         25    2    1    2    0    0 -0.17876432061E+02 -0.37613881993E+02  0.51029968296E+03  0.52705576401E+03  0.12509053125E+03 0.  0.
        -24    2    1    2    0    0  0.18190778323E+02  0.14295805486E+01  0.66123331870E+03  0.66641200140E+03  0.80885757306E+02 0.  0.
        -13    1    3    3    0    0  0.34654749609E+02  0.23861368699E+00 -0.11109678670E+03  0.11637656389E+03  0.00000000000E+00 0.  1.
         14    1    3    3    0    0 -0.34969095871E+02  0.35945687757E+02 -0.10517895628E+03  0.11652271443E+03  0.00000000000E+00 0. -1.
         11    1    5    5    0    0  0.33910946771E+00  0.21762910243E+02  0.58696284059E+03  0.58736625328E+03  0.00000000000E+00 0. -1.
        -12    1    5    5    0    0  0.17851668855E+02 -0.20333329695E+02  0.74270478108E+02  0.79045748120E+02  0.00000000000E+00 0.  1.
          5    1    4    4  501    0 -0.48628811034E+02  0.16536317947E+02  0.36905957497E+03  0.37264011238E+03  0.41800000000E+01 0. -1.
         -5    1    4    4    0  501  0.30752378973E+02 -0.54150199940E+02  0.14124010799E+03  0.15441565164E+03  0.41800000000E+01 0. -1.
</event>
<event>
11    1  0.8037748E-009  0.1958395E+03  0.7561462E-02  0.1057505E+00
         22   -1    0    0    0    0  0.00000000000E+00  0.00000000000E+00  0.37956775793E+04  0.37956775793E+04  0.00000000000E+00 0. -1.
         22   -1    0    0    0    0 -0.00000000000E+00 -0.00000000000E+00 -0.46802358084E+03  0.46802358084E+03  0.00000000000E+00 0.  1.
        -24    2    1    2    0    0 -0.49658531919E+02 -0.95911400470E+02 -0.44772343725E+03  0.46760624052E+03  0.80835347373E+02 0.  0.
         25    2    1    2    0    0  0.16513945226E+03  0.13662252911E+03  0.22211148946E+04  0.22349357257E+04  0.12509823709E+03 0.  0.
         24    2    1    2    0    0 -0.11548092034E+03 -0.40711128638E+02  0.15542625412E+04  0.15611591940E+04  0.80577559149E+02 0.  0.
        -13    1    5    5    0    0  0.11831170897E+02 -0.44931179962E+01  0.21482008795E+03  0.21519255308E+03  0.00000000000E+00 0.  1.
         14    1    5    5    0    0 -0.12731209123E+03 -0.36218010642E+02  0.13394424532E+04  0.13459666409E+04  0.00000000000E+00 0. -1.
         13    1    3    3    0    0 -0.33680753669E+02 -0.45415758910E+02 -0.92178457703E+02  0.10813811719E+03  0.00000000000E+00 0. -1.
        -14    1    3    3    0    0 -0.15977778251E+02 -0.50495641561E+02 -0.35554497954E+03  0.35946812333E+03  0.00000000000E+00 0.  1.
          5    1    4    4  501    0  0.10645706541E+03  0.13654639964E+03  0.12371948639E+04  0.12492584319E+04  0.41800000000E+01 0.  1.
         -5    1    4    4    0  501  0.58682386845E+02  0.76129471062E-01  0.98392003064E+03  0.98567729375E+03  0.41800000000E+01 0.  1.
</event>
<event>
11    1  0.8037748E-009  0.1605772E+03  0.7561462E-02  0.1086536E+00
         22   -1    0    0    0    0  0.00000000000E+00  0.00000000000E+00  0.35984109449E+03  0.35984109449E+03  0.00000000000E+00 0.  1.
         22   -1    0    0    0    0 -0.00000000000E+00 -0.00000000000E+00 -0.39305367885E+03  0.39305367885E+03  0.00000000000E+00 0. -1.
         24    2    1    2    0    0  0.84917999910E+02 -0.48938452176E+02 -0.31773914431E+03  0.34228853797E+03  0.81223399238E+02 0.  0.
         25    2    1    2    0    0 -0.10938744722E+03  0.95422435337E+02  0.14463322355E+03  0.24007643075E+03  0.12508744330E+03 0.  0.
        -24    2    1    2    0    0  0.24469447309E+02 -0.46483983160E+02  0.13989333640E+03  0.17052980462E+03  0.82162973116E+02 0.  0.
        -13    1    3    3    0    0  0.90756218422E+01 -0.48693811375E+02 -0.97575886058E+02  0.10942809382E+03  0.00000000000E+00 0.  1.
         14    1    3    3    0    0  0.75842378068E+02 -0.24464080092E+00 -0.22016325826E+03  0.23286044414E+03  0.00000000000E+00 0. -1.
         11    1    5    5    0    0  0.46939804415E+01  0.61959662251E+01 -0.86835939197E+01  0.11654537881E+02  0.00000000000E+00 0. -1.
        -12    1    5    5    0    0  0.19775466868E+02 -0.52679949386E+02  0.14857693032E+03  0.15887526674E+03  0.00000000000E+00 0.  1.
          5    1    4    4  501    0 -0.36577931645E+02  0.29106805354E+02  0.13273625013E+03  0.14078897578E+03  0.41800000000E+01 0.  1.
         -5    1    4    4    0  501 -0.72809515575E+02  0.66315629983E+02  0.11896973421E+02  0.99287454972E+02  0.41800000000E+01 0.  1.
</event>
<event>
11    1  0.8037748E-009  0.1852960E+03  0.7561462E-02  0.1065438E+00
         22   -1    0    0    0    0  0.00000000000E+00  0.00000000000E+00  0.91720376081E+03  0.91720376081E+03  0.00000000000E+00 0.  1.
         22   -1    0    0    0    0 -0.00000000000E+00 -0.00000000000E+00 -0.44397876703E+03  0.44397876703E+03  0.00000000000E+00 0.  1.
        -24    2    1    2    0    0 -0.14813356970E+03  0.46856466602E+01 -0.31607439419E+03  0.35824209432E+03  0.80429259149E+02 0.  0.
         25    2    1    2    0    0  0.94301086720E+02 -0.59719813494E+02 -0.32194086871E+02  0.17071486469E+03  0.12509178517E+03 0.  0.
         24    2    1    2    0    0  0.53832482977E+02  0.55034166834E+02  0.82149347484E+03  0.83222556883E+03  0.10872521541E+03 0.  0.
        -13    1    5    5    0    0  0.54270176389E+02  0.18444885996E+02  0.74734268681E+03  0.74953756236E+03  0.00000000000E+00 0.  1.
         14    1    5    5    0    0 -0.43769341163E+00  0.36589280839E+02  0.74150788030E+02  0.82688006466E+02  0.00000000000E+00 0. -1.
         11    1    3    3    0    0 -0.63055046096E+01  0.24559575019E+02 -0.44340694758E+02  0.51078658215E+02  0.00000000000E+00 0. -1.
        -12    1    3    3    0    0 -0.14182806509E+03 -0.19873928359E+02 -0.27173369943E+03  0.30716343611E+03  0.00000000000E+00 0.  1.
          5    1    4    4  501    0  0.85736423787E+02 -0.26809559865E+01  0.24933517762E+02  0.89426364103E+02  0.41800000000E+01 0.  1.
         -5    1    4    4    0  501  0.85646629336E+01 -0.57038857508E+02 -0.57127604633E+02  0.81288500590E+02  0.41800000000E+01 0.  1.
</event>
<event>
11    1  0.8037748E-009  0.1475491E+03  0.7561462E-02  0.1099410E+00
         22   -1    0    0    0    0  0.00000000000E+00  0.00000000000E+00  0.71824891425E+03  0.71824891425E+03  0.00000000000E+00 0. -1.
         22   -1    0    0    0    0 -0.00000000000E+00 -0.00000000000E+00 -0.75825678906E+03  0.75825678906E+03  0.00000000000E+00 0.  1.
         24    2    1    2    0    0  0.76739929867E+02  0.14014533768E+02 -0.72837101063E+03  0.73639259649E+03  0.75261564150E+02 0.  0.
         25    2    1    2    0    0 -0.89265504012E+02 -0.42160871212E+02  0.28984242268E+03  0.33076433609E+03  0.12510214538E+03 0.  0.
        -24    2    1    2    0    0  0.12525574145E+02  0.28146337443E+02  0.39852071314E+03  0.40934877073E+03  0.88309404804E+02 0.  0.
        -11    1    3    3    0    0  0.71479799644E+02  0.39915757341E+02 -0.53692777153E+03  0.54313355749E+03  0.00000000000E+00 0.  1.
         12    1    3    3    0    0  0.52601302224E+01 -0.25901223573E+02 -0.19144323911E+03  0.19325903899E+03  0.00000000000E+00 0. -1.
         13    1    5    5    0    0  0.24988414382E+02  0.52643803221E+02  0.33652986198E+03  0.34153790255E+03  0.00000000000E+00 0. -1.
        -14    1    5    5    0    0 -0.12462840237E+02 -0.24497465778E+02  0.61990851162E+02  0.67810868186E+02  0.00000000000E+00 0.  1.
          5    1    4    4  501    0  0.25804338507E+01 -0.20703146160E+02 -0.44156826460E+01  0.21731303528E+02  0.41800000000E+01 0. -1.
         -5    1    4    4    0  501 -0.91845937863E+02 -0.21457725052E+02  0.29425810532E+03  0.30903303256E+03  0.41800000000E+01 0. -1.
</event>
<event>
11    1  0.8037748E-009  0.1578001E+03  0.7561462E-02  0.1089165E+00
         22   -1    0    0    0    0  0.00000000000E+00  0.00000000000E+00  0.24553887687E+04  0.24553887687E+04  0.00000000000E+00 0. -1.
         22   -1    0    0    0    0 -0.00000000000E+00 -0.00000000000E+00 -0.34713839910E+02  0.34713839910E+02  0.00000000000E+00 0. -1.
        -24    2    1    2    0    0 -0.46924390385E+02 -0.68384494932E+02  0.16571251499E+03  0.20211449804E+03  0.80692596511E+02 0.  0.
         25    2    1    2    0    0  0.36290791166E+02  0.14478013147E+03  0.63483572262E+03  0.66403447418E+03  0.12508828962E+03 0.  0.
         24    2    1    2    0    0  0.10633599220E+02 -0.76395636539E+02  0.16201266912E+04  0.16239536364E+04  0.80408649730E+02 0.  0.
        -11    1    5    5    0    0 -0.92375582899E+00  0.16506551805E+02  0.34434963685E+03  0.34474627188E+03  0.00000000000E+00 0.  1.
         12    1    5    5    0    0  0.11557355048E+02 -0.92902188345E+02  0.12757770543E+04  0.12792073645E+04  0.00000000000E+00 0. -1.
         13    1    3    3    0    0 -0.55183897106E+02 -0.65818670912E+02  0.84658174210E+02  0.12060002654E+03  0.00000000000E+00 0. -1.
        -14    1    3    3    0    0  0.82595067208E+01 -0.25658240196E+01  0.81054340781E+02  0.81514471498E+02  0.00000000000E+00 0.  1.
          5    1    4    4  501    0  0.66797591831E+02  0.14843166772E+03  0.55490622537E+03  0.57830119282E+03  0.41800000000E+01 0.  1.
         -5    1    4    4    0  501 -0.30506800666E+02 -0.36515362520E+01  0.79929497246E+02  0.85733281367E+02  0.41800000000E+01 0.  1.
</event>
<event>
11    1  0.8037748E-009  0.2276795E+03  0.7561462E-02  0.1036511E+00
         22   -1    0    0    0    0  0.00000000000E+00  0.00000000000E+00  0.13244280216E+03  0.13244280216E+03  0.00000000000E+00 0.  1.
         22   -1    0    0    0    0 -0.00000000000E+00 -0.00000000000E+00 -0.16311029661E+04  0.16311029661E+04  0.00000000000E+00 0.  1.
         24    2    1    2    0    0 -0.12825815838E+02 -0.15831545768E+02 -0.12329310560E+04  0.12357297310E+04  0.80584363982E+02 0.  0.
         25    2    1    2    0    0 -0.11231728903E+03  0.15749054833E+03 -0.21732160557E+03  0.31669469145E+03  0.12509356943E+03 0.  0.
        -24    2    1    2    0    0  0.12514310487E+03 -0.14165900256E+03 -0.48407502297E+02  0.21112134580E+03  0.80627952161E+02 0.  0.
        -11    1    3    3    0    0 -0.24324732578E+02 -0.21625035812E+02 -0.11989395673E+04  0.11993812658E+04  0.00000000000E+00 0.  1.
         12    1    3    3    0    0  0.11498916740E+02  0.57934900435E+01 -0.33991488784E+02  0.36348465206E+02  0.00000000000E+00 0. -1.
         11    1    5    5    0    0  0.14442769320E+02 -0.17920390789E+02 -0.38426492138E+02  0.44792067263E+02  0.00000000000E+00 0. -1.
        -12    1    5    5    0    0  0.11070033555E+03 -0.12373861177E+03 -0.99810101593E+01  0.16632927853E+03  0.00000000000E+00 0.  1.
          5    1    4    4  501    0 -0.10914020595E+02 -0.95457199614E+01  0.90695145325E+01  0.17605825996E+02  0.41800000000E+01 0.  1.
         -5    1    4    4    0  501 -0.10140326843E+03  0.16703626829E+03 -0.22639112011E+03  0.29908886545E+03  0.41800000000E+01 0.  1.
</event>
<event>
11    1  0.8037748E-009  0.1596596E+03  0.7561462E-02  0.1087398E+00
         22   -1    0    0    0    0  0.00000000000E+00  0.00000000000E+00  0.69506419105E+03  0.69506419105E+03  0.00000000000E+00 0.  1.
         22   -1    0    0    0    0 -0.00000000000E+00 -0.00000000000E+00 -0.31229933665E+03  0.31229933665E+03  0.00000000000E+00 0.  1.
        -24    2    1    2    0    0  0.30226050292E+02  0.27698593641E+02 -0.25832959638E+03  0.27357098912E+03  0.80162831289E+02 0.  0.
         25    2    1    2    0    0 -0.60374146860E+01  0.74381724509E+02  0.99427315410E+02  0.17635897508E+03  0.12509039022E+03 0.  0.
         24    2    1    2    0    0 -0.24188635606E+02 -0.10208031815E+03  0.54166713537E+03  0.55743356350E+03  0.79519876355E+02 0.  0.
        -13    1    5    5    0    0 -0.46065381861E+02 -0.50430182309E+02  0.20377792133E+03  0.21492013380E+03  0.00000000000E+00 0.  1.
         14    1    5    5    0    0  0.21876746255E+02 -0.51650135841E+02  0.33788921404E+03  0.34251342970E+03  0.00000000000E+00 0. -1.
         13    1    3    3    0    0  0.13385414139E+01 -0.19461854854E+02 -0.16658733692E+02  0.25652853558E+02  0.00000000000E+00 0. -1.
        -14    1    3    3    0    0  0.28887508879E+02  0.47160448495E+02 -0.24167086268E+03  0.24791813556E+03  0.00000000000E+00 0.  1.
          5    1    4    4  501    0  0.23598875521E+02  0.41466254822E+02  0.11860739073E+03  0.12791224629E+03  0.41800000000E+01 0. -1.
         -5    1    4    4    0  501 -0.29636290207E+02  0.32915469687E+02 -0.19180075318E+02  0.48446728797E+02  0.41800000000E+01 0. -1.
</event>
<event>
11    1  0.8037748E-009  0.1494993E+03  0.7561462E-02  0.1097391E+00
         22   -1    0    0    0    0  0.00000000000E+00  0.00000000000E+00  0.48912372460E+02  0.48912372460E+02  0.00000000000E+00 0.  1.
         22   -1    0    0    0    0 -0.00000000000E+00 -0.00000000000E+00 -0.21065092511E+04  0.21065092511E+04  0.00000000000E+00 0.  1.
         24    2    1    2    0    0 -0.81281422864E+02  0.17194825794E+01 -0.16551756816E+04  0.16591422224E+04  0.80850174060E+02 0.  0.
         25    2    1    2    0    0  0.85545944145E+02 -0.16552244954E+02 -0.38272412090E+03  0.41196840605E+03  0.12509248376E+03 0.  0.
        -24    2    1    2    0    0 -0.42645212813E+01  0.14832762374E+02 -0.19697076091E+02  0.84310995128E+02  0.80511937696E+02 0.  0.
        -11    1    3    3    0    0 -0.29838392347E+02  0.38077578709E+01 -0.12904537922E+04  0.12908043301E+04  0.00000000000E+00 0.  1.
         12    1    3    3    0    0 -0.51443030516E+02 -0.20882752915E+01 -0.36472188939E+03  0.36833789227E+03  0.00000000000E+00 0. -1.
         11    1    5    5    0    0  0.15070955523E+02  0.32929673235E+02  0.16224034832E+02  0.39682696304E+02  0.00000000000E+00 0. -1.
        -12    1    5    5    0    0 -0.19335476805E+02 -0.18096910861E+02 -0.35921110923E+02  0.44628298824E+02  0.00000000000E+00 0.  1.
          5    1    4    4  501    0  0.16712912277E+01  0.45383564821E+02 -0.15306827091E+03  0.15971796746E+03  0.41800000000E+01 0. -1.
         -5    1    4    4    0  501  0.83874652918E+02 -0.61935809774E+02 -0.22965585000E+03  0.25225043860E+03  0.41800000000E+01 0. -1.
</event>
<event>
11    1  0.8037748E-009  0.1361582E+03  0.7561462E-02  0.1111926E+00
         22   -1    0    0    0    0  0.00000000000E+00  0.00000000000E+00  0.35985677071E+03  0.35985677071E+03  0.00000000000E+00 0.  1.
         22   -1    0    0    0    0 -0.00000000000E+00 -0.00000000000E+00 -0.98533887835E+03  0.98533887835E+03  0.00000000000E+00 0.  1.
        -24    2    1    2    0    0  0.59370668387E+01  0.13824010162E+02 -0.93739157297E+03  0.94101112106E+03  0.81071677389E+02 0.  0.
         25    2    1    2    0    0  0.36426791482E+02  0.23768209998E+02  0.84302265253E+02  0.15699373956E+03  0.12509325877E+03 0.  0.
         24    2    1    2    0    0 -0.42363858320E+02 -0.37592220160E+02  0.22760720007E+03  0.24719078843E+03  0.78040866554E+02 0.  0.
        -13    1    5    5    0    0 -0.16361489827E+02 -0.21500217527E+02  0.21035059450E+03  0.21207859465E+03  0.00000000000E+00 0.  1.
         14    1    5    5    0    0 -0.26002368494E+02 -0.16092002633E+02  0.17256605568E+02  0.35112193776E+02  0.00000000000E+00 0. -1.
         11    1    3    3    0    0  0.97042235753E+01 -0.25441969646E+02 -0.13879134693E+03  0.14143727853E+03  0.00000000000E+00 0. -1.
        -12    1    3    3    0    0 -0.37671567366E+01  0.39265979808E+02 -0.79860022604E+03  0.79957384254E+03  0.00000000000E+00 0.  1.
          5    1    4    4  501    0 -0.38129998585E+02 -0.22577571077E+02  0.30230641699E+02  0.53805274885E+02  0.41800000000E+01 0.  1.
         -5    1    4    4    0  501  0.74556790067E+02  0.46345781075E+02  0.54071623554E+02  0.10318846468E+03  0.41800000000E+01 0.  1.
</event>
<event>
11    1  0.8037748E-009  0.1406978E+03  0.7561462E-02  0.1106782E+00
         22   -1    0    0    0    0  0.00000000000E+00  0.00000000000E+00  0.13897601386E+04  0.13897601386E+04  0.00000000000E+00 0. -1.
         22   -1    0    0    0    0 -0.00000000000E+00 -0.00000000000E+00 -0.26290234689E+03  0.26290234689E+03  0.00000000000E+00 0. -1.
         24    2    1    2    0    0  0.17598161681E+02  0.42020706526E+01 -0.13232789526E+03  0.15535810619E+03  0.79360674162E+02 0.  0.
         25    2    1    2    0    0  0.44957171936E+02 -0.20620071514E+02 -0.78379712474E+02  0.15568529477E+03  0.12509275368E+03 0.  0.
        -24    2    1    2    0    0 -0.62555333618E+02  0.16418000861E+02  0.13375653994E+04  0.13416190845E+04  0.81718111131E+02 0.  0.
        -11    1    3    3    0    0  0.43543404195E+01 -0.21117674327E+02 -0.16859237769E+01  0.21627731930E+02  0.00000000000E+00 0.  1.
         12    1    3    3    0    0  0.13243821262E+02  0.25319744980E+02 -0.13064197148E+03  0.13373037426E+03  0.00000000000E+00 0. -1.
         13    1    5    5    0    0 -0.38938044960E+02 -0.52970475715E+01  0.11880735919E+04  0.11887233024E+04  0.00000000000E+00 0. -1.
        -14    1    5    5    0    0 -0.23617288657E+02  0.21715048433E+02  0.14949180756E+03  0.15289578208E+03  0.00000000000E+00 0.  1.
          5    1    4    4  501    0  0.72608956451E+02  0.27541430761E+02 -0.55166825607E+02  0.95349053550E+02  0.41800000000E+01 0. -1.
         -5    1    4    4    0  501 -0.27651784515E+02 -0.48161502275E+02 -0.23212886867E+02  0.60336241223E+02  0.41800000000E+01 0. -1.
</event>
<event>
11    1  0.8037748E-009  0.1503207E+03  0.7561462E-02  0.1096552E+00
         22   -1    0    0    0    0  0.00000000000E+00  0.00000000000E+00  0.18257726195E+03  0.18257726195E+03  0.00000000000E+00 0.  1.
         22   -1    0    0    0    0 -0.00000000000E+00 -0.00000000000E+00 -0.28201408634E+03  0.28201408634E+03  0.00000000000E+00 0. -1.
         24    2    1    2    0    0  0.42856754281E+02  0.36067235171E+02 -0.12039187128E+03  0.15544463418E+03  0.80816364580E+02 0.  0.
         25    2    1    2    0    0 -0.11323731176E+03 -0.53590277826E+02 -0.44558106449E+02  0.18256150554E+03  0.12509465137E+03 0.  0.
        -24    2    1    2    0    0  0.70380557479E+02  0.17523042655E+02  0.65513153345E+02  0.12658520858E+03  0.80444775306E+02 0.  0.
        -11    1    3    3    0    0 -0.18554435809E+02  0.30989877817E+02 -0.52886794912E+02  0.64044146425E+02  0.00000000000E+00 0.  1.
         12    1    3    3    0    0  0.61411190090E+02  0.50773573546E+01 -0.67505076372E+02  0.91400487756E+02  0.00000000000E+00 0. -1.
         13    1    5    5    0    0  0.17636711346E+02  0.20203645235E+02 -0.14672848135E+02  0.30570138048E+02  0.00000000000E+00 0. -1.
        -14    1    5    5    0    0  0.52743846134E+02 -0.26806025807E+01  0.80186001480E+02  0.96015070528E+02  0.00000000000E+00 0.  1.
          5    1    4    4  501    0 -0.58487543104E+02 -0.86373257107E+02  0.38565652780E+00  0.10439709466E+03  0.41800000000E+01 0. -1.
         -5    1    4    4    0  501 -0.54749768657E+02  0.32782979280E+02 -0.44943762977E+02  0.78164410885E+02  0.41800000000E+01 0. -1.
</event>
<event>
11    1  0.8037748E-009  0.2046221E+03  0.7561462E-02  0.1051302E+00
         22   -1    0    0    0    0  0.00000000000E+00  0.00000000000E+00  0.17575164394E+04  0.17575164394E+04  0.00000000000E+00 0. -1.
         22   -1    0    0    0    0 -0.00000000000E+00 -0.00000000000E+00 -0.15823376369E+03  0.15823376369E+03  0.00000000000E+00 0.  1.
         24    2    1    2    0    0  0.11856356327E+03  0.86887900668E+02 -0.37359222718E+02  0.17245081657E+03  0.82077687564E+02 0.  0.
         25    2    1    2    0    0 -0.17088152890E+03 -0.21563565504E+03  0.42854508334E+03  0.52440209693E+03  0.12508972046E+03 0.  0.
        -24    2    1    2    0    0  0.52317965635E+02  0.12874775437E+03  0.12080968150E+04  0.12188972895E+04  0.83063434548E+02 0.  0.
        -11    1    3    3    0    0  0.25185606222E+02  0.66201821515E+02 -0.28676945604E+02  0.76415725750E+02  0.00000000000E+00 0.  1.
         12    1    3    3    0    0  0.93377957045E+02  0.20686079153E+02 -0.86822771141E+01  0.96035090818E+02  0.00000000000E+00 0. -1.
         11    1    5    5    0    0  0.59066216422E+02  0.99591901440E+02  0.11175624348E+04  0.11235449080E+04  0.00000000000E+00 0. -1.
        -12    1    5    5    0    0 -0.67482507873E+01  0.29155852933E+02  0.90534380284E+02  0.95352381524E+02  0.00000000000E+00 0.  1.
          5    1    4    4  501    0 -0.16843815526E+03 -0.12963306483E+03  0.26669208845E+03  0.34105466730E+03  0.41800000000E+01 0. -1.
         -5    1    4    4    0  501 -0.24433736419E+01 -0.86002590214E+02  0.16185299489E+03  0.18334742963E+03  0.41800000000E+01 0. -1.
</event>
<event>
11    1  0.8037748E-009  0.2613077E+03  0.7561462E-02  0.1018042E+00
         22   -1    0    0    0    0  0.00000000000E+00  0.00000000000E+00  0.57328235276E+03  0.57328235276E+03  0.00000000000E+00 0. -1.
         22   -1    0    0    0    0 -0.00000000000E+00 -0.00000000000E+00 -0.36150508908E+03  0.36150508908E+03  0.00000000000E+00 0. -1.
         24    2    1    2    0    0 -0.21341757703E+03  0.98295715756E+02 -0.25071413992E+03  0.35340434325E+03  0.82631349692E+02 0.  0.
         25    2    1    2    0    0  0.16184451309E+03 -0.12058454355E+03  0.24238406943E+03  0.33931019244E+03  0.12508833289E+03 0.  0.
        -24    2    1    2    0    0  0.51573063937E+02  0.22288827794E+02  0.22010733417E+03  0.24207290614E+03  0.83638989503E+02 0.  0.
        -11    1    3    3    0    0 -0.19569800636E+02  0.17297234306E+01  0.29502493195E+01  0.19866378913E+02  0.00000000000E+00 0.  1.
         12    1    3    3    0    0 -0.19384777639E+03  0.96565992325E+02 -0.25366438924E+03  0.33353796434E+03  0.00000000000E+00 0. -1.
         11    1    5    5    0    0 -0.18972067996E+01 -0.11493868552E+02  0.13769896715E+03  0.13819086063E+03  0.00000000000E+00 0. -1.
        -12    1    5    5    0    0  0.53470270736E+02  0.33782696345E+02  0.82408367023E+02  0.10388204551E+03  0.00000000000E+00 0.  1.
          5    1    4    4  501    0  0.62301198104E+02 -0.11713410072E+03  0.17206275733E+03  0.21731291194E+03  0.41800000000E+01 0. -1.
         -5    1    4    4    0  501  0.99543314988E+02 -0.34504428246E+01  0.70321312097E+02  0.12199728050E+03  0.41800000000E+01 0. -1.
</event>
<event>
11    1  0.8037748E-009  0.1918524E+03  0.7561462E-02  0.1060440E+00
         22   -1    0    0    0    0  0.00000000000E+00  0.00000000000E+00  0.83832967959E+03  0.83832967959E+03  0.00000000000E+00 0. -1.
         22   -1    0    0    0    0 -0.00000000000E+00 -0.00000000000E+00 -0.38991640766E+03  0.38991640766E+03  0.00000000000E+00 0. -1.
         24    2    1    2    0    0  0.29030933309E+02 -0.64642289138E+01 -0.33083992831E+03  0.34171902398E+03  0.80201320671E+02 0.  0.
         25    2    1    2    0    0 -0.13194891803E+03 -0.91235734936E+02  0.20138950069E+03  0.28624978218E+03  0.12508689184E+03 0.  0.
        -24    2    1    2    0    0  0.10291798472E+03  0.97699963850E+02  0.57786369955E+03  0.60027728109E+03  0.79176792194E+02 0.  0.
        -11    1    3    3    0    0  0.17559806689E+01  0.20418943957E+02 -0.20368263097E+02  0.28894339966E+02  0.00000000000E+00 0.  1.
         12    1    3    3    0    0  0.27274952640E+02 -0.26883172871E+02 -0.31047166522E+03  0.31282468401E+03  0.00000000000E+00 0. -1.
         11    1    5    5    0    0  0.55363223526E+02  0.72972018342E+02  0.48033383970E+03  0.48898936547E+03  0.00000000000E+00 0. -1.
        -12    1    5    5    0    0  0.47554761196E+02  0.24727945508E+02  0.97529859846E+02  0.11128791562E+03  0.00000000000E+00 0.  1.
          5    1    4    4  501    0 -0.92342986730E+02 -0.47705653136E+02  0.35068226501E+02  0.10977390149E+03  0.41800000000E+01 0. -1.
         -5    1    4    4    0  501 -0.39605931300E+02 -0.43530081800E+02  0.16632127419E+03  0.17647588069E+03  0.41800000000E+01 0. -1.
</event>
<event>
11    1  0.8037748E-009  0.1256873E+03  0.7561462E-02  0.1124684E+00
         22   -1    0    0    0    0  0.00000000000E+00  0.00000000000E+00  0.63097058717E+03  0.63097058717E+03  0.00000000000E+00 0.  1.
         22   -1    0    0    0    0 -0.00000000000E+00 -0.00000000000E+00 -0.27595802641E+03  0.27595802641E+03  0.00000000000E+00 0.  1.
         24    2    1    2    0    0 -0.12170817813E+02  0.31781627793E-01 -0.24642179223E+03  0.25986867793E+03  0.81608212005E+02 0.  0.
         25    2    1    2    0    0  0.14081552256E+02  0.84168074041E+01  0.19099016546E+03  0.22889747211E+03  0.12509067383E+03 0.  0.
        -24    2    1    2    0    0 -0.19107344430E+01 -0.84485890319E+01  0.41044418753E+03  0.41816246353E+03  0.79500850712E+02 0.  0.
        -13    1    3    3    0    0 -0.17023745454E+02 -0.39326971207E+02 -0.12844800756E+03  0.13540793633E+03  0.00000000000E+00 0.  1.
         14    1    3    3    0    0  0.48529276418E+01  0.39358752835E+02 -0.11797378467E+03  0.12446074161E+03  0.00000000000E+00 0. -1.
         11    1    5    5    0    0 -0.35629578937E+02 -0.22893781278E+02  0.18775201923E+03  0.19246925168E+03  0.00000000000E+00 0. -1.
        -12    1    5    5    0    0  0.33718844495E+02  0.14445192246E+02  0.22269216830E+03  0.22569321185E+03  0.00000000000E+00 0.  1.
          5    1    4    4  501    0 -0.26131010183E+01  0.43904404129E+02  0.18351073450E+03  0.18875403857E+03  0.41800000000E+01 0. -1.
         -5    1    4    4    0  501  0.16694653274E+02 -0.35487596724E+02  0.74794309522E+01  0.40143433543E+02  0.41800000000E+01 0. -1.
</event>
<event>
11    1  0.8037748E-009  0.1330357E+03  0.7561462E-02  0.1115594E+00
         22   -1    0    0    0    0  0.00000000000E+00  0.00000000000E+00  0.22040256062E+03  0.22040256062E+03  0.00000000000E+00 0. -1.
         22   -1    0    0    0    0 -0.00000000000E+00 -0.00000000000E+00 -0.27376743885E+04  0.27376743885E+04  0.00000000000E+00 0. -1.
        -24    2    1    2    0    0 -0.40323847614E+02  0.15700377623E+02 -0.23703310673E+04  0.23720312427E+04  0.78678669718E+02 0.  0.
         25    2    1    2    0    0  0.84255365776E+02 -0.12732924914E+02 -0.33863209817E+03  0.37091816834E+03  0.12508995026E+03 0.  0.
         24    2    1    2    0    0 -0.43931518163E+02 -0.29674527090E+01  0.19169133762E+03  0.21512753807E+03  0.87152192482E+02 0.  0.
        -13    1    5    5    0    0 -0.45099756162E+02  0.53589862796E+01  0.32821403186E+02  0.56035267885E+02  0.00000000000E+00 0.  1.
         14    1    5    5    0    0  0.11682379989E+01 -0.83264389887E+01  0.15886993443E+03  0.15909227019E+03  0.00000000000E+00 0. -1.
         11    1    3    3    0    0 -0.41328910523E+02  0.39413513292E+02 -0.20609489992E+04  0.20617401100E+04  0.00000000000E+00 0. -1.
        -12    1    3    3    0    0  0.10050629095E+01 -0.23713135669E+02 -0.30938206808E+03  0.31029113265E+03  0.00000000000E+00 0.  1.
          5    1    4    4  501    0  0.32777744262E+02  0.21354695112E+02 -0.16110861414E+02  0.42513948038E+02  0.41800000000E+01 0. -1.
         -5    1    4    4    0  501  0.51477621514E+02 -0.34087620026E+02 -0.32252123676E+03  0.32840422031E+03  0.41800000000E+01 0. -1.
</event>
<event>
11    1  0.8037748E-009  0.1605503E+03  0.7561462E-02  0.1086561E+00
         22   -1    0    0    0    0  0.00000000000E+00  0.00000000000E+00  0.11274170092E+04  0.11274170092E+04  0.00000000000E+00 0. -1.
         22   -1    0    0    0    0 -0.00000000000E+00 -0.00000000000E+00 -0.15581080593E+03  0.15581080593E+03  0.00000000000E+00 0. -1.
         24    2    1    2    0    0  0.35358508132E+02 -0.99582759755E+02 -0.10486987640E+03  0.16998954662E+03  0.82047576730E+02 0.  0.
         25    2    1    2    0    0 -0.65717643465E+02  0.20584288173E+02  0.36373438776E+03  0.39075433928E+03  0.12507488655E+03 0.  0.
        -24    2    1    2    0    0  0.30359135333E+02  0.78998471582E+02  0.71274169193E+03  0.72248392925E+03  0.82582522368E+02 0.  0.
        -13    1    3    3    0    0  0.37823381908E+02 -0.19280340284E+02 -0.71163970178E+02  0.82865254431E+02  0.00000000000E+00 0.  1.
         14    1    3    3    0    0 -0.24648737756E+01 -0.80302419472E+02 -0.33705906221E+02  0.87124292192E+02  0.00000000000E+00 0. -1.
         11    1    5    5    0    0 -0.11208439557E+02 -0.95794672925E+01  0.19642878600E+03  0.19698137800E+03  0.00000000000E+00 0. -1.
        -12    1    5    5    0    0  0.41567574890E+02  0.88577938875E+02  0.51631290593E+03  0.52550255125E+03  0.00000000000E+00 0.  1.
          5    1    4    4  501    0 -0.74055930312E+01 -0.68973678183E+01  0.29934700884E+03  0.29954719260E+03  0.41800000000E+01 0. -1.
         -5    1    4    4    0  501 -0.58312050434E+02  0.27481655992E+02  0.64387378919E+02  0.91207146683E+02  0.41800000000E+01 0. -1.
</event>
<event>
11    1  0.8037748E-009  0.2174225E+03  0.7561462E-02  0.1042844E+00
         22   -1    0    0    0    0  0.00000000000E+00  0.00000000000E+00  0.63090861381E+03  0.63090861381E+03  0.00000000000E+00 0. -1.
         22   -1    0    0    0    0 -0.00000000000E+00 -0.00000000000E+00 -0.14569072504E+03  0.14569072504E+03  0.00000000000E+00 0. -1.
         24    2    1    2    0    0 -0.12936280417E+03 -0.13662534949E+03  0.37754094709E+02  0.20877890784E+03  0.82231620834E+02 0.  0.
         25    2    1    2    0    0  0.17060290027E+03  0.41026300387E+02  0.22746142092E+03  0.31332787884E+03  0.12508858759E+03 0.  0.
        -24    2    1    2    0    0 -0.41240096099E+02  0.95599049100E+02  0.22000237315E+03  0.25449255218E+03  0.74333647892E+02 0.  0.
        -11    1    3    3    0    0 -0.22598653854E+02 -0.70455888597E+02  0.37985394790E+02  0.83172240630E+02  0.00000000000E+00 0.  1.
         12    1    3    3    0    0 -0.10676415031E+03 -0.66169460890E+02 -0.23130008099E+00  0.12560666721E+03  0.00000000000E+00 0. -1.
         11    1    5    5    0    0 -0.31689912567E+02  0.28221628585E+02  0.28134996969E+02  0.50914525756E+02  0.00000000000E+00 0. -1.
        -12    1    5    5    0    0 -0.95501835320E+01  0.67377420515E+02  0.19186737618E+03  0.20357802642E+03  0.00000000000E+00 0.  1.
          5    1    4    4  501    0  0.17816361700E+03  0.28594349761E+02  0.15083503531E+03  0.23522030426E+03  0.41800000000E+01 0. -1.
         -5    1    4    4    0  501 -0.75607167268E+01  0.12431950626E+02  0.76626385619E+02  0.78107574580E+02  0.41800000000E+01 0. -1.
</event>
<event>
11    1  0.8037748E-009  0.1386684E+03  0.7561462E-02  0.1109054E+00
         22   -1    0    0    0    0  0.00000000000E+00  0.00000000000E+00  0.44506037932E+03  0.44506037932E+03  0.00000000000E+00 0. -1.
         22   -1    0    0    0    0 -0.00000000000E+00 -0.00000000000E+00 -0.38843591845E+03  0.38843591845E+03  0.00000000000E+00 0. -1.
        -24    2    1    2    0    0 -0.13278874276E+02  0.58228160615E+02 -0.34585338040E+03  0.36015115129E+03  0.80792597737E+02 0.  0.
         25    2    1    2    0    0 -0.39777529523E+02 -0.74021104326E+02  0.22812432293E+03  0.27340426162E+03  0.12509119801E+03 0.  0.
         24    2    1    2    0    0  0.53056403799E+02  0.15792943711E+02  0.17435351834E+03  0.19994088485E+03  0.80701976571E+02 0.  0.
        -13    1    5    5    0    0  0.53426848627E+02  0.13475690219E+02  0.46593688783E+02  0.72159505372E+02  0.00000000000E+00 0.  1.
         14    1    5    5    0    0 -0.37044482865E+00  0.23172534917E+01  0.12775982956E+03  0.12778137948E+03  0.00000000000E+00 0. -1.
         11    1    3    3    0    0 -0.65464619775E+01  0.78639365362E+02 -0.27704886139E+03  0.28806783497E+03  0.00000000000E+00 0. -1.
        -12    1    3    3    0    0 -0.67324122981E+01 -0.20411204748E+02 -0.68804519012E+02  0.72083316316E+02  0.00000000000E+00 0.  1.
          5    1    4    4  501    0 -0.16851083738E+02 -0.18208025211E+02 -0.10479418502E+02  0.27254023875E+02  0.41800000000E+01 0. -1.
         -5    1    4    4    0  501 -0.22926445785E+02 -0.55813079114E+02  0.23860374144E+03  0.24615023775E+03  0.41800000000E+01 0. -1.
</event>
<event>
11    1  0.8037748E-009  0.1493242E+03  0.7561462E-02  0.1097571E+00
         22   -1    0    0    0    0  0.00000000000E+00  0.00000000000E+00  0.33987308428E+02  0.33987308428E+02  0.00000000000E+00 0. -1.
         22   -1    0    0    0    0 -0.00000000000E+00 -0.00000000000E+00 -0.21808778477E+04  0.21808778477E+04  0.00000000000E+00 0. -1.
         24    2    1    2    0    0  0.52318913610E+02 -0.22178346831E+02 -0.15334280764E+04  0.15366655754E+04  0.81916281316E+02 0.  0.
         25    2    1    2    0    0 -0.63755973045E+02  0.93327050721E+02 -0.45122787627E+03  0.48169299703E+03  0.12508710793E+03 0.  0.
        -24    2    1    2    0    0  0.11437059436E+02 -0.71148703890E+02 -0.16223458652E+03  0.19650658368E+03  0.84272367788E+02 0.  0.
        -11    1    3    3    0    0  0.10417811714E+02 -0.27249367586E+01 -0.21633701394E+02  0.24165535733E+02  0.00000000000E+00 0.  1.
         12    1    3    3    0    0  0.41901101896E+02 -0.19453410072E+02 -0.15117943750E+04  0.15125000396E+04  0.00000000000E+00 0. -1.
         13    1    5    5    0    0  0.16594574226E+02 -0.71012111604E+02 -0.60814269845E+02  0.94955122584E+02  0.00000000000E+00 0. -1.
        -14    1    5    5    0    0 -0.51575147905E+01 -0.13659228655E+00 -0.10142031668E+03  0.10155146110E+03  0.00000000000E+00 0.  1.
          5    1    4    4  501    0 -0.36821060032E+02 -0.28676859496E+01 -0.28720123740E+03  0.28959633500E+03  0.41800000000E+01 0. -1.
         -5    1    4    4    0  501 -0.26934913014E+02  0.96194736671E+02 -0.16402663888E+03  0.19209666203E+03  0.41800000000E+01 0. -1.
</event>
<event>
11    1  0.8037748E-009  0.1309235E+03  0.7561462E-02  0.1118139E+00
         22   -1    0    0    0    0  0.00000000000E+00  0.00000000000E+00  0.17054056629E+03  0.17054056629E+03  0.00000000000E+00 0. -1.
         22   -1    0    0    0    0 -0.00000000000E+00 -0.00000000000E+00 -0.24935876017E+03  0.24935876017E+03  0.00000000000E+00 0.  1.
         24    2    1    2    0    0  0.35839730909E+02  0.70580262248E+01 -0.14225166302E+03  0.16927667212E+03  0.84170981027E+02 0.  0.
         25    2    1    2    0    0 -0.53507551030E+02  0.53651420812E+02  0.12080975259E+01  0.14625439517E+03  0.12508939057E+03 0.  0.
        -24    2    1    2    0    0  0.17667820121E+02 -0.60709447037E+02  0.62225371610E+02  0.10436825916E+03  0.54981340668E+02 0.  0.
        -13    1    3    3    0    0  0.62257490213E+02 -0.45326989233E+01 -0.88929453727E+02  0.10865076248E+03  0.00000000000E+00 0.  1.
         14    1    3    3    0    0 -0.26417759304E+02  0.11590725148E+02 -0.53322209294E+02  0.60625909644E+02  0.00000000000E+00 0. -1.
         11    1    5    5    0    0  0.14345560481E+02 -0.12123576674E+01  0.36920606826E+02  0.39628223844E+02  0.00000000000E+00 0. -1.
        -12    1    5    5    0    0  0.33222596397E+01 -0.59497089370E+02  0.25304764784E+02  0.64740035321E+02  0.00000000000E+00 0.  1.
          5    1    4    4  501    0 -0.36423707976E+02  0.72574394330E+02 -0.45282342531E+02  0.93068212405E+02  0.41800000000E+01 0. -1.
         -5    1    4    4    0  501 -0.17083843053E+02 -0.18922973518E+02  0.46490440057E+02  0.53186182763E+02  0.41800000000E+01 0. -1.
</event>
<event>
11    1  0.8037748E-009  0.1721136E+03  0.7561462E-02  0.1076207E+00
         22   -1    0    0    0    0  0.00000000000E+00  0.00000000000E+00  0.11012255487E+03  0.11012255487E+03  0.00000000000E+00 0. -1.
         22   -1    0    0    0    0 -0.00000000000E+00 -0.00000000000E+00 -0.16796025157E+04  0.16796025157E+04  0.00000000000E+00 0. -1.
        -24    2    1    2    0    0 -0.28196852918E+02 -0.26456347684E+02 -0.12432120857E+04  0.12463837992E+04  0.80008025186E+02 0.  0.
         25    2    1    2    0    0 -0.92797107121E+02  0.14717642988E+01 -0.34722947454E+03  0.38056491590E+03  0.12509147872E+03 0.  0.
         24    2    1    2    0    0  0.12099396004E+03  0.24984583385E+02  0.20961599429E+02  0.16277635542E+03  0.10388929426E+03 0.  0.
        -13    1    5    5    0    0  0.17776045140E+02  0.26579700297E+02 -0.33289242852E+02  0.46158877135E+02  0.00000000000E+00 0.  1.
         14    1    5    5    0    0  0.10321791490E+03 -0.15951169111E+01  0.54250842281E+02  0.11661747829E+03  0.00000000000E+00 0. -1.
         11    1    3    3    0    0 -0.29808453936E+01 -0.24259567638E+02 -0.11345266689E+04  0.11347899253E+04  0.00000000000E+00 0. -1.
        -12    1    3    3    0    0 -0.25216007524E+02 -0.21967800458E+01 -0.10868541677E+03  0.11159387392E+03  0.00000000000E+00 0.  1.
          5    1    4    4  501    0 -0.11828187871E+03 -0.21158455337E+02 -0.24903222840E+03  0.27653716974E+03  0.41800000000E+01 0. -1.
         -5    1    4    4    0  501  0.25484771590E+02  0.22630219635E+02 -0.98197246138E+02  0.10402774617E+03  0.41800000000E+01 0. -1.
</event>
<event>
11    1  0.8037748E-009  0.1362592E+03  0.7561462E-02  0.1111809E+00
         22   -1    0    0    0    0  0.00000000000E+00  0.00000000000E+00  0.23208440822E+03  0.23208440822E+03  0.00000000000E+00 0. -1.
         22   -1    0    0    0    0 -0.00000000000E+00 -0.00000000000E+00 -0.16808131947E+04  0.16808131947E+04  0.00000000000E+00 0.  1.
         24    2    1    2    0    0  0.29486479786E+02  0.29469428737E+02 -0.12983664998E+04  0.13015617484E+04  0.81052559544E+02 0.  0.
         25    2    1    2    0    0 -0.62020227632E+02  0.13876472869E+02 -0.35767685075E+03  0.38420881661E+03  0.12507845563E+03 0.  0.
        -24    2    1    2    0    0  0.32533747846E+02 -0.43345901606E+02  0.20731456411E+03  0.22712703785E+03  0.75299740352E+02 0.  0.
        -11    1    3    3    0    0  0.37487194974E+02  0.50549089424E+02 -0.11214339074E+04  0.11231983391E+04  0.00000000000E+00 0.  1.
         12    1    3    3    0    0 -0.80007151878E+01 -0.21079660687E+02 -0.17693259241E+03  0.17836340935E+03  0.00000000000E+00 0. -1.
         11    1    5    5    0    0  0.22044377831E+02 -0.65039318488E+02  0.15233153890E+03  0.16709567704E+03  0.00000000000E+00 0. -1.
        -12    1    5    5    0    0  0.10489370015E+02  0.21693416882E+02  0.54983025209E+02  0.60031360808E+02  0.00000000000E+00 0.  1.
          5    1    4    4  501    0  0.18322059654E+02 -0.38771119959E+02 -0.89829632465E+02  0.99627972385E+02  0.41800000000E+01 0.  1.
         -5    1    4    4    0  501 -0.80342287286E+02  0.52647592827E+02 -0.26784721829E+03  0.28458084423E+03  0.41800000000E+01 0.  1.
</event>
<event>
11    1  0.8037748E-009  0.2394944E+03  0.7561462E-02  0.1029649E+00
         22   -1    0    0    0    0  0.00000000000E+00  0.00000000000E+00  0.91043716470E+03  0.91043716470E+03  0.00000000000E+00 0. -1.
         22   -1    0    0    0    0 -0.00000000000E+00 -0.00000000000E+00 -0.41000453829E+03  0.41000453829E+03  0.00000000000E+00 0. -1.
        -24    2    1    2    0    0  0.19775041752E+03 -0.53556535840E+02 -0.33540396470E+03  0.40086200697E+03  0.78873309392E+02 0.  0.
         25    2    1    2    0    0 -0.19535188674E+03  0.32918893217E+02  0.31658525857E+03  0.39385243787E+03  0.12508998235E+03 0.  0.
         24    2    1    2    0    0 -0.23985307843E+01  0.20637642623E+02  0.51925133254E+03  0.52572725815E+03  0.79596095211E+02 0.  0.
        -11    1    5    5    0    0 -0.39164855593E+02 -0.39776678044E+00  0.21454876490E+03  0.21809451312E+03  0.00000000000E+00 0.  1.
         12    1    5    5    0    0  0.36766324809E+02  0.21035409403E+02  0.30470256764E+03  0.30763274503E+03  0.00000000000E+00 0. -1.
         11    1    3    3    0    0  0.13514414924E+03 -0.31816749385E+01 -0.17196681427E+03  0.21873876962E+03  0.00000000000E+00 0. -1.
        -12    1    3    3    0    0  0.62606268290E+02 -0.50374860901E+02 -0.16343715043E+03  0.18212323735E+03  0.00000000000E+00 0.  1.
          5    1    4    4  501    0 -0.16712408723E+03 -0.33438556042E+01  0.30244673794E+03  0.34559100624E+03  0.41800000000E+01 0.  1.
         -5    1    4    4    0  501 -0.28227799510E+02  0.36262748821E+02  0.14138520637E+02  0.48261431631E+02  0.41800000000E+01 0.  1.
</event>
<event>
11    1  0.8037748E-009  0.1319418E+03  0.7561462E-02  0.1116906E+00
         22   -1    0    0    0    0  0.00000000000E+00  0.00000000000E+00  0.12457744400E+04  0.12457744400E+04  0.00000000000E+00 0.  1.
         22   -1    0    0    0    0 -0.00000000000E+00 -0.00000000000E+00 -0.71410371982E+03  0.71410371982E+03  0.00000000000E+00 0.  1.
         24    2    1    2    0    0 -0.14160293357E+02 -0.17576257125E+02 -0.67921089465E+03  0.68483490244E+03  0.84628396300E+02 0.  0.
         25    2    1    2    0    0  0.21961895033E+02  0.57602769541E+02  0.13083284214E+03  0.19122188600E+03  0.12509265850E+03 0.  0.
        -24    2    1    2    0    0 -0.78016016758E+01 -0.40026512416E+02  0.10800487727E+04  0.10838213714E+04  0.80625225669E+02 0.  0.
        -11    1    3    3    0    0 -0.32484736680E+02  0.24362680917E+02 -0.37657540723E+03  0.37875828132E+03  0.00000000000E+00 0.  1.
         12    1    3    3    0    0  0.18324443323E+02 -0.41938938041E+02 -0.30263548742E+03  0.30607662112E+03  0.00000000000E+00 0. -1.
         11    1    5    5    0    0 -0.28464724090E+02  0.10166384846E+01  0.15262914491E+03  0.15526406522E+03  0.00000000000E+00 0. -1.
        -12    1    5    5    0    0  0.20663122415E+02 -0.41043150901E+02  0.92741962776E+03  0.92855730616E+03  0.00000000000E+00 0.  1.
          5    1    4    4  501    0 -0.31401840419E+02 -0.24806764429E+02  0.48537906581E+02  0.63046426690E+02  0.41800000000E+01 0. -1.
         -5    1    4    4    0  501  0.53363735453E+02  0.82409533969E+02  0.82294935563E+02  0.12817545931E+03  0.41800000000E+01 0. -1.
</event>
<event>
11    1  0.8037748E-009  0.2314238E+03  0.7561462E-02  0.1034288E+00
         22   -1    0    0    0    0  0.00000000000E+00  0.00000000000E+00  0.14698742095E+04  0.14698742095E+04  0.00000000000E+00 0.  1.
         22   -1    0    0    0    0 -0.00000000000E+00 -0.00000000000E+00 -0.15010474425E+03  0.15010474425E+03  0.00000000000E+00 0. -1.
         24    2    1    2    0    0 -0.52376442982E+02 -0.10503220754E+03 -0.58899121177E+02  0.16353094927E+03  0.97458752792E+02 0.  0.
         25    2    1    2    0    0 -0.27681992845E+02  0.25190196961E+03  0.77960610415E+03  0.82924901046E+03  0.12508936282E+03 0.  0.
        -24    2    1    2    0    0  0.80058435827E+02 -0.14686976208E+03  0.59906248230E+03  0.62719899405E+03  0.80762864450E+02 0.  0.
        -13    1    3    3    0    0 -0.36425495538E+02  0.74741529390E+01 -0.25516543140E+02  0.45097379759E+02  0.00000000000E+00 0.  1.
         14    1    3    3    0    0 -0.15950947444E+02 -0.11250636048E+03 -0.33382578037E+02  0.11843356952E+03  0.00000000000E+00 0. -1.
         11    1    5    5    0    0 -0.25999192021E+01 -0.16084086402E+02  0.12390690054E+02  0.20469162544E+02  0.00000000000E+00 0. -1.
        -12    1    5    5    0    0  0.82658355029E+02 -0.13078567567E+03  0.58667179225E+03  0.60672983150E+03  0.00000000000E+00 0.  1.
          5    1    4    4  501    0 -0.48631106582E+02  0.33449427283E+02  0.22859568097E+03  0.23612985087E+03  0.41800000000E+01 0. -1.
         -5    1    4    4    0  501  0.20949113737E+02  0.21845254233E+03  0.55101042319E+03  0.59311915959E+03  0.41800000000E+01 0. -1.
</event>
<event>
11    1  0.8037748E-009  0.1462846E+03  0.7561462E-02  0.1100737E+00
         22   -1    0    0    0    0  0.00000000000E+00  0.00000000000E+00  0.11139449808E+04  0.11139449808E+04  0.00000000000E+00 0.  1.
         22   -1    0    0    0    0 -0.00000000000E+00 -0.00000000000E+00 -0.22241904834E+03  0.22241904834E+03  0.00000000000E+00 0. -1.
        -24    2    1    2    0    0  0.54341790948E+02 -0.54542143365E+02 -0.14401716340E+03  0.18165864850E+03  0.79567867721E+02 0.  0.
         25    2    1    2    0    0 -0.38516911436E+02  0.60522233419E+02  0.31999584334E+02  0.14770941377E+03  0.12509038458E+03 0.  0.
         24    2    1    2    0    0 -0.15824879513E+02 -0.59800900534E+01  0.10035435116E+04  0.10069959669E+04  0.81578854418E+02 0.  0.
        -13    1    5    5    0    0 -0.12814929829E+02 -0.69216005865E+01  0.10037309691E+04  0.10038366348E+04  0.00000000000E+00 0.  1.
         14    1    5    5    0    0 -0.30099496840E+01  0.94151053308E+00 -0.18745754516E+00  0.31593321312E+01  0.00000000000E+00 0. -1.
         13    1    3    3    0    0  0.18804613064E+02 -0.63985028428E+02 -0.12133456327E+03  0.13845495145E+03  0.00000000000E+00 0. -1.
        -14    1    3    3    0    0  0.35537177884E+02  0.94428850628E+01 -0.22682600127E+02  0.43203697051E+02  0.00000000000E+00 0.  1.
          5    1    4    4  501    0 -0.56568582185E+02 -0.20361459932E+00  0.56118876702E+02  0.79792522655E+02  0.41800000000E+01 0.  1.
         -5    1    4    4    0  501  0.18051670750E+02  0.60725848018E+02 -0.24119292368E+02  0.67916891115E+02  0.41800000000E+01 0.  1.
</event>
<event>
11    1  0.8037748E-009  0.1808001E+03  0.7561462E-02  0.1068997E+00
         22   -1    0    0    0    0  0.00000000000E+00  0.00000000000E+00  0.17581454724E+04  0.17581454724E+04  0.00000000000E+00 0. -1.
         22   -1    0    0    0    0 -0.00000000000E+00 -0.00000000000E+00 -0.60025966195E+02  0.60025966195E+02  0.00000000000E+00 0.  1.
         24    2    1    2    0    0 -0.49848233953E+01 -0.37213589559E+02  0.26527149995E+02  0.93908402251E+02  0.81886498364E+02 0.  0.
         25    2    1    2    0    0 -0.89030028785E+02  0.12209639713E+03  0.42231303198E+03  0.46564918656E+03  0.12508793606E+03 0.  0.
        -24    2    1    2    0    0  0.94014852180E+02 -0.84882807573E+02  0.12492793243E+04  0.12586138498E+04  0.85826041870E+02 0.  0.
        -13    1    3    3    0    0  0.32919503500E+02  0.46300247648E+01  0.14029509206E+02  0.36082654678E+02  0.00000000000E+00 0.  1.
         14    1    3    3    0    0 -0.37904326896E+02 -0.41843614324E+02  0.12497640789E+02  0.57825747573E+02  0.00000000000E+00 0. -1.
         11    1    5    5    0    0  0.75110115345E+02 -0.74825582805E+02  0.12025191821E+04  0.12071838222E+04  0.00000000000E+00 0. -1.
        -12    1    5    5    0    0  0.18904736835E+02 -0.10057224768E+02  0.46760142134E+02  0.51430027583E+02  0.00000000000E+00 0.  1.
          5    1    4    4  501    0 -0.71124052805E+02 -0.79168570055E+00  0.13594538872E+03  0.15348576080E+03  0.41800000000E+01 0. -1.
         -5    1    4    4    0  501 -0.17905975980E+02  0.12288808283E+03  0.28636764326E+03  0.31216342576E+03  0.41800000000E+01 0. -1.
</event>
<event>
11    1  0.8037748E-009  0.1744938E+03  0.7561462E-02  0.1074186E+00
         22   -1    0    0    0    0  0.00000000000E+00  0.00000000000E+00  0.30509106582E+03  0.30509106582E+03  0.00000000000E+00 0.  1.
         22   -1    0    0    0    0 -0.00000000000E+00 -0.00000000000E+00 -0.74675581146E+03  0.74675581146E+03  0.00000000000E+00 0.  1.
        -24    2    1    2    0    0 -0.47325160088E+02  0.11710304850E+03 -0.35483898948E+03  0.38662009971E+03  0.87244474351E+02 0.  0.
         25    2    1    2    0    0  0.10479733342E+03 -0.72702397021E+02 -0.34309775424E+03  0.38682344518E+03  0.12509272223E+03 0.  0.
         24    2    1    2    0    0 -0.57472173334E+02 -0.44400651475E+02  0.25627199807E+03  0.27840333239E+03  0.80985245130E+02 0.  0.
        -11    1    5    5    0    0 -0.32315622143E+02 -0.12900351366E+02  0.22421341755E+03  0.22689727876E+03  0.00000000000E+00 0.  1.
         12    1    5    5    0    0 -0.25156551191E+02 -0.31500300109E+02  0.32058580519E+02  0.51506053622E+02  0.00000000000E+00 0. -1.
         11    1    3    3    0    0 -0.23606559311E+02 -0.10487114077E+01 -0.12386405293E+03  0.12609787090E+03  0.00000000000E+00 0. -1.
        -12    1    3    3    0    0 -0.23718600777E+02  0.11815175990E+03 -0.23097493655E+03  0.26052222881E+03  0.00000000000E+00 0.  1.
          5    1    4    4  501    0 -0.11373538790E+01 -0.15435667962E+02  0.63049372150E+01  0.17227247388E+02  0.41800000000E+01 0.  1.
         -5    1    4    4    0  501  0.10593468730E+03 -0.57266729058E+02 -0.34940269145E+03  0.36959619780E+03  0.41800000000E+01 0.  1.
</event>
<event>
11    1  0.8037748E-009  0.1813670E+03  0.7561462E-02  0.1068542E+00
         22   -1    0    0    0    0  0.00000000000E+00  0.00000000000E+00  0.11089248357E+03  0.11089248357E+03  0.00000000000E+00 0. -1.
         22   -1    0    0    0    0 -0.00000000000E+00 -0.00000000000E+00 -0.14310711406E+04  0.14310711406E+04  0.00000000000E+00 0. -1.
        -24    2    1    2    0    0 -0.23398531241E+02 -0.25563024286E+02 -0.11097601875E+04  0.11131914587E+04  0.80166018492E+02 0.  0.
         25    2    1    2    0    0  0.32611704005E+02  0.14949333358E+03 -0.19712904775E+03  0.27913994572E+03  0.12508983893E+03 0.  0.
         24    2    1    2    0    0 -0.92131727647E+01 -0.12393030930E+03 -0.13289421740E+02  0.14963221970E+03  0.82277508030E+02 0.  0.
        -13    1    5    5    0    0  0.23346572159E+02 -0.24518914454E+02 -0.28078184856E+02  0.43984361566E+02  0.00000000000E+00 0.  1.
         14    1    5    5    0    0 -0.32559744923E+02 -0.99411394842E+02  0.14788763116E+02  0.10564785813E+03  0.00000000000E+00 0. -1.
         13    1    3    3    0    0 -0.16776099014E+02 -0.36132027664E+02 -0.10822844372E+04  0.10830173424E+04  0.00000000000E+00 0. -1.
        -14    1    3    3    0    0 -0.66224322268E+01  0.10569003377E+02 -0.27475750263E+02  0.30174116284E+02  0.00000000000E+00 0.  1.
          5    1    4    4  501    0  0.29187876631E+02  0.64732319172E+02 -0.17855183305E+03  0.19219894581E+03  0.41800000000E+01 0.  1.
         -5    1    4    4    0  501  0.34238273739E+01  0.84761014410E+02 -0.18577214703E+02  0.86940999902E+02  0.41800000000E+01 0.  1.
</event>
<event>
11    1  0.8037748E-009  0.1603560E+03  0.7561462E-02  0.1086743E+00
         22   -1    0    0    0    0  0.00000000000E+00  0.00000000000E+00  0.53811277357E+03  0.53811277357E+03  0.00000000000E+00 0.  1.
         22   -1    0    0    0    0 -0.00000000000E+00 -0.00000000000E+00 -0.33903338837E+03  0.33903338837E+03  0.00000000000E+00 0. -1.
        -24    2    1    2    0    0 -0.39256997766E+02  0.42701169688E+01 -0.27944241960E+03  0.29362692997E+03  0.81051603069E+02 0.  0.
         25    2    1    2    0    0  0.11724690566E+03  0.47672939447E+02  0.15042646233E+03  0.23301996118E+03  0.12510250076E+03 0.  0.
         24    2    1    2    0    0 -0.77989907897E+02 -0.51943056416E+02  0.32809534247E+03  0.35049927079E+03  0.80141613597E+02 0.  0.
        -11    1    5    5    0    0 -0.71871297522E+02 -0.38818600847E+02  0.32574322888E+03  0.33582885276E+03  0.00000000000E+00 0.  1.
         12    1    5    5    0    0 -0.61186103752E+01 -0.13124455569E+02  0.23521135829E+01  0.14670418031E+02  0.00000000000E+00 0. -1.
         11    1    3    3    0    0  0.22997478041E+02 -0.61250939619E+01 -0.11610299418E+03  0.11851711282E+03  0.00000000000E+00 0. -1.
        -12    1    3    3    0    0 -0.62254475807E+02  0.10395210931E+02 -0.16333942542E+03  0.17510981716E+03  0.00000000000E+00 0.  1.
          5    1    4    4  501    0  0.49447183559E+02  0.40555184071E+02 -0.39501293377E+01  0.64209211479E+02  0.41800000000E+01 0. -1.
         -5    1    4    4    0  501  0.67799722104E+02  0.71177553762E+01  0.15437659167E+03  0.16881074970E+03  0.41800000000E+01 0. -1.
</event>
<event>
11    1  0.8037748E-009  0.1410052E+03  0.7561462E-02  0.1106441E+00
         22   -1    0    0    0    0  0.00000000000E+00  0.00000000000E+00  0.64532199234E+03  0.64532199234E+03  0.00000000000E+00 0. -1.
         22   -1    0    0    0    0 -0.00000000000E+00 -0.00000000000E+00 -0.86283351300E+03  0.86283351300E+03  0.00000000000E+00 0. -1.
         24    2    1    2    0    0 -0.57330030357E+02  0.10506011266E+02 -0.47534321211E+03  0.48541027823E+03  0.79214015550E+02 0.  0.
         25    2    1    2    0    0  0.79041208170E+02 -0.39067396345E+02 -0.36418112216E+03  0.39503032746E+03  0.12508915153E+03 0.  0.
        -24    2    1    2    0    0 -0.21711177812E+02  0.28561385079E+02  0.62201281361E+03  0.62771489965E+03  0.76412871873E+02 0.  0.
        -13    1    3    3    0    0  0.19992873867E+02 -0.12638822845E+01 -0.10602381054E+03  0.10789977203E+03  0.00000000000E+00 0.  1.
         14    1    3    3    0    0 -0.77322904224E+02  0.11769893550E+02 -0.36931940157E+03  0.37751050620E+03  0.00000000000E+00 0. -1.
         11    1    5    5    0    0 -0.25653439272E+02 -0.11009168929E+02  0.46171420948E+03  0.46255736075E+03  0.00000000000E+00 0. -1.
        -12    1    5    5    0    0  0.39422614599E+01  0.39570554008E+02  0.16029860413E+03  0.16515753890E+03  0.00000000000E+00 0.  1.
          5    1    4    4  501    0  0.77912459322E+02 -0.24024344562E+02 -0.94440593694E+02  0.12483596672E+03  0.41800000000E+01 0. -1.
         -5    1    4    4    0  501  0.11287488480E+01 -0.15043051783E+02 -0.26974052847E+03  0.27019436075E+03  0.41800000000E+01 0. -1.
</event>
<event>
11    1  0.8037748E-009  0.1456465E+03  0.7561462E-02  0.1101412E+00
         22   -1    0    0    0    0  0.00000000000E+00  0.00000000000E+00  0.31117241559E+03  0.31117241559E+03  0.00000000000E+00 0. -1.
         22   -1    0    0    0    0 -0.00000000000E+00 -0.00000000000E+00 -0.11765130854E+04  0.11765130854E+04  0.00000000000E+00 0. -1.
        -24    2    1    2    0    0 -0.74115238845E+02 -0.15167187297E+02 -0.98454192686E+03  0.99174080436E+03  0.92216620407E+02 0.  0.
         25    2    1    2    0    0  0.61812411288E+02  0.28615052432E+02 -0.15416643162E+03  0.20989117013E+03  0.12508964483E+03 0.  0.
         24    2    1    2    0    0  0.12302827557E+02 -0.13447865135E+02  0.27336768868E+03  0.28605352650E+03  0.82246715224E+02 0.  0.
        -13    1    5    5    0    0  0.22666382425E+02  0.16313868397E+02  0.31318395484E+02  0.41961280843E+02  0.00000000000E+00 0.  1.
         14    1    5    5    0    0 -0.10363554868E+02 -0.29761733532E+02  0.24204929320E+03  0.24409224566E+03  0.00000000000E+00 0. -1.
         13    1    3    3    0    0 -0.86602666125E+02  0.13570157029E+02 -0.69401351025E+03  0.69952764302E+03  0.00000000000E+00 0. -1.
        -14    1    3    3    0    0  0.12487427280E+02 -0.28737344326E+02 -0.29052841662E+03  0.29221316134E+03  0.00000000000E+00 0.  1.
          5    1    4    4  501    0  0.93207737139E+02  0.20464003958E+02 -0.66677971562E+02  0.11648983652E+03  0.41800000000E+01 0.  1.
         -5    1    4    4    0  501 -0.31395325851E+02  0.81510484743E+01 -0.87488460055E+02  0.93401333606E+02  0.41800000000E+01 0.  1.
</event>
<event>
11    1  0.8037748E-009  0.1355487E+03  0.7561462E-02  0.1112633E+00
         22   -1    0    0    0    0  0.00000000000E+00  0.00000000000E+00  0.18848070948E+03  0.18848070948E+03  0.00000000000E+00 0.  1.
         22   -1    0    0    0    0 -0.00000000000E+00 -0.00000000000E+00 -0.93788794844E+03  0.93788794844E+03  0.00000000000E+00 0.  1.
        -24    2    1    2    0    0 -0.40825691714E+02 -0.34728087770E+02 -0.35497407959E+03  0.36761062357E+03  0.79108761804E+02 0.  0.
         25    2    1    2    0    0  0.71293081874E+02  0.75575743525E+02 -0.55123725227E+03  0.57472272468E+03  0.12509718396E+03 0.  0.
         24    2    1    2    0    0 -0.30467390160E+02 -0.40847655755E+02  0.15680409290E+03  0.18403530968E+03  0.81759885116E+02 0.  0.
        -13    1    5    5    0    0 -0.44217188100E+02 -0.19538152808E+02  0.15025913350E+03  0.15784393032E+03  0.00000000000E+00 0.  1.
         14    1    5    5    0    0  0.13749797940E+02 -0.21309502947E+02  0.65449594036E+01  0.26191379361E+02  0.00000000000E+00 0. -1.
         13    1    3    3    0    0 -0.28435648435E+02  0.21407992469E+02 -0.97413187324E+02  0.10371218495E+03  0.00000000000E+00 0. -1.
        -14    1    3    3    0    0 -0.12390043279E+02 -0.56136080238E+02 -0.25756089227E+03  0.26389843861E+03  0.00000000000E+00 0.  1.
          5    1    4    4  501    0  0.63167272681E+02  0.86590055554E+02 -0.23681041502E+03  0.25997035815E+03  0.41800000000E+01 0.  1.
         -5    1    4    4    0  501  0.81258091925E+01 -0.11014312030E+02 -0.31442683726E+03  0.31475236652E+03  0.41800000000E+01 0.  1.
</event>
<event>
11    1  0.8037748E-009  0.1989062E+03  0.7561462E-02  0.1055300E+00
         22   -1    0    0    0    0  0.00000000000E+00  0.00000000000E+00  0.38233422709E+03  0.38233422709E+03  0.00000000000E+00 0.  1.
         22   -1    0    0    0    0 -0.00000000000E+00 -0.00000000000E+00 -0.30116219626E+03  0.30116219626E+03  0.00000000000E+00 0. -1.
        -24    2    1    2    0    0 -0.15012465904E+03 -0.46633931120E+02 -0.19928434151E+03  0.26592400708E+03  0.79304426032E+02 0.  0.
         25    2    1    2    0    0  0.12938611485E+03  0.64291784144E+02  0.92918732987E+02  0.21249970872E+03  0.12509210623E+03 0.  0.
         24    2    1    2    0    0  0.20738544186E+02 -0.17657853024E+02  0.18753763936E+03  0.20507270756E+03  0.78374499816E+02 0.  0.
        -13    1    5    5    0    0  0.20178510735E+02 -0.83614584915E+01  0.19302913707E+03  0.19426099465E+03  0.00000000000E+00 0.  1.
         14    1    5    5    0    0  0.56003345095E+00 -0.92963945321E+01 -0.54914977182E+01  0.10811712906E+02  0.00000000000E+00 0. -1.
         11    1    3    3    0    0 -0.12523000810E+03 -0.34115790948E+02 -0.19956222303E+03  0.23805781437E+03  0.00000000000E+00 0. -1.
        -12    1    3    3    0    0 -0.24894650933E+02 -0.12518140172E+02  0.27788151213E+00  0.27866192718E+02  0.00000000000E+00 0.  1.
          5    1    4    4  501    0  0.96943800008E+02  0.31735507484E+02  0.12112593048E+03  0.15841150915E+03  0.41800000000E+01 0. -1.
         -5    1    4    4    0  501  0.32442314841E+02  0.32556276660E+02 -0.28207197493E+02  0.54088199569E+02  0.41800000000E+01 0. -1.
</event>
<event>
11    1  0.8037748E-009  0.1558729E+03  0.7561462E-02  0.1091024E+00
         22   -1    0    0    0    0  0.00000000000E+00  0.00000000000E+00  0.78159562389E+03  0.78159562389E+03  0.00000000000E+00 0. -1.
         22   -1    0    0    0    0 -0.00000000000E+00 -0.00000000000E+00 -0.10712577621E+03  0.10712577621E+03  0.00000000000E+00 0.  1.
         24    2    1    2    0    0  0.17364676201E+02 -0.11657958586E+02 -0.52911454263E+02  0.96031022977E+02  0.77362105735E+02 0.  0.
         25    2    1    2    0    0  0.14449004135E+02  0.97788105775E+02  0.22492336660E+03  0.27568970119E+03  0.12507199185E+03 0.  0.
        -24    2    1    2    0    0 -0.31813680336E+02 -0.86130147189E+02  0.50245793534E+03  0.51700067593E+03  0.79970054490E+02 0.  0.
        -11    1    3    3    0    0  0.76322538468E+01 -0.38047955038E+01 -0.72386150745E+02  0.72886779236E+02  0.00000000000E+00 0.  1.
         12    1    3    3    0    0  0.97324223544E+01 -0.78531630823E+01  0.19474696482E+02  0.23144243741E+02  0.00000000000E+00 0. -1.
         11    1    5    5    0    0 -0.18746126061E+02 -0.59513250826E+02  0.46528560867E+03  0.46945068102E+03  0.00000000000E+00 0. -1.
        -12    1    5    5    0    0 -0.13067554275E+02 -0.26616896364E+02  0.37172326668E+02  0.47549994918E+02  0.00000000000E+00 0.  1.
          5    1    4    4  501    0  0.52409951186E+00  0.12652925102E+03  0.18850358447E+03  0.22707047321E+03  0.41800000000E+01 0. -1.
         -5    1    4    4    0  501  0.13924904623E+02 -0.28741145247E+02  0.36419782132E+02  0.48619227980E+02  0.41800000000E+01 0. -1.
</event>
<event>
11    1  0.8037748E-009  0.1473675E+03  0.7561462E-02  0.1099599E+00
         22   -1    0    0    0    0  0.00000000000E+00  0.00000000000E+00  0.21454354029E+04  0.21454354029E+04  0.00000000000E+00 0. -1.
         22   -1    0    0    0    0 -0.00000000000E+00 -0.00000000000E+00 -0.46278934631E+03  0.46278934631E+03  0.00000000000E+00 0. -1.
        -24    2    1    2    0    0  0.65217259372E+02 -0.40622496752E+02 -0.40305622003E+03  0.41809397864E+03  0.80279389093E+02 0.  0.
         25    2    1    2    0    0 -0.24151146700E+02  0.10675392358E+03  0.85700691950E+02  0.18701854738E+03  0.12510655608E+03 0.  0.
         24    2    1    2    0    0 -0.41066112672E+02 -0.66131426831E+02  0.20000015846E+04  0.20031122231E+04  0.79952791098E+02 0.  0.
        -13    1    5    5    0    0  0.12264149439E+02 -0.19625769749E+02  0.15155362790E+03  0.15331041168E+03  0.00000000000E+00 0.  1.
         14    1    5    5    0    0 -0.53330262111E+02 -0.46505657082E+02  0.18484479567E+04  0.18498018115E+04  0.00000000000E+00 0. -1.
         13    1    3    3    0    0  0.83909552700E+02 -0.37030851290E+02 -0.31999296240E+03  0.33287774478E+03  0.00000000000E+00 0. -1.
        -14    1    3    3    0    0 -0.18692293328E+02 -0.35916454621E+01 -0.83063257628E+02  0.85216233868E+02  0.00000000000E+00 0.  1.
          5    1    4    4  501    0  0.24178949232E+02  0.67220178490E+02  0.99864863111E+02  0.12285616495E+03  0.41800000000E+01 0. -1.
         -5    1    4    4    0  501 -0.48330095932E+02  0.39533745094E+02 -0.14164171161E+02  0.64162382426E+02  0.41800000000E+01 0. -1.
</event>
<event>
11    1  0.8037748E-009  0.1782617E+03  0.7561462E-02  0.1071058E+00
         22   -1    0    0    0    0  0.00000000000E+00  0.00000000000E+00  0.41174953764E+03  0.41174953764E+03  0.00000000000E+00 0. -1.
         22   -1    0    0    0    0 -0.00000000000E+00 -0.00000000000E+00 -0.21068642535E+03  0.21068642535E+03  0.00000000000E+00 0. -1.
         24    2    1    2    0    0  0.40693527072E+02  0.35471034550E+02 -0.10627388169E+03  0.14374743695E+03  0.80343202961E+02 0.  0.
         25    2    1    2    0    0 -0.45373561286E+02  0.99593612861E+02  0.43689106441E+02  0.17185220467E+03  0.12508714739E+03 0.  0.
        -24    2    1    2    0    0  0.46800342141E+01 -0.13506464741E+03  0.26364788753E+03  0.30683632137E+03  0.79837070426E+02 0.  0.
        -13    1    3    3    0    0  0.62839791137E+02  0.29518294618E+02 -0.96354361990E+02  0.11876166108E+03  0.00000000000E+00 0.  1.
         14    1    3    3    0    0 -0.22146264065E+02  0.59527399323E+01 -0.99195196982E+01  0.24985775869E+02  0.00000000000E+00 0. -1.
         11    1    5    5    0    0  0.30211893103E+02 -0.12271293704E+03  0.23308129704E+03  0.26513791587E+03  0.00000000000E+00 0. -1.
        -12    1    5    5    0    0 -0.25531858888E+02 -0.12351710371E+02  0.30566590493E+02  0.41698405506E+02  0.00000000000E+00 0.  1.
          5    1    4    4  501    0 -0.44741078131E+02 -0.33295329741E+01  0.51641360673E+02  0.68535774558E+02  0.41800000000E+01 0.  1.
         -5    1    4    4    0  501 -0.63248315503E+00  0.10292314583E+03 -0.79522542326E+01  0.10331643011E+03  0.41800000000E+01 0.  1.
</event>
<event>
11    1  0.8037748E-009  0.2216576E+03  0.7561462E-02  0.1040184E+00
         22   -1    0    0    0    0  0.00000000000E+00  0.00000000000E+00  0.61997483178E+03  0.61997483178E+03  0.00000000000E+00 0.  1.
         22   -1    0    0    0    0 -0.00000000000E+00 -0.00000000000E+00 -0.33351467151E+03  0.33351467151E+03  0.00000000000E+00 0.  1.
         24    2    1    2    0    0 -0.12181227163E+03  0.13060907218E+03 -0.22830729989E+03  0.30168480214E+03  0.83621393244E+02 0.  0.
         25    2    1    2    0    0  0.11888800178E+03 -0.17895117165E+03  0.18311029250E+03  0.30876544896E+03  0.12509534144E+03 0.  0.
        -24    2    1    2    0    0  0.29242698443E+01  0.48342099464E+02  0.33165716765E+03  0.34303925219E+03  0.73033839784E+02 0.  0.
        -13    1    3    3    0    0 -0.13163583721E+03  0.11139561131E+03 -0.18269712025E+03  0.25122741412E+03  0.00000000000E+00 0.  1.
         14    1    3    3    0    0  0.98235655882E+01  0.19213460876E+02 -0.45610179642E+02  0.50457388029E+02  0.00000000000E+00 0. -1.
         11    1    5    5    0    0  0.12150935373E+02  0.14011471989E+02  0.13592008001E+02  0.22993678681E+02  0.00000000000E+00 0. -1.
        -12    1    5    5    0    0 -0.92266655291E+01  0.34330627475E+02  0.31806515965E+03  0.32004557351E+03  0.00000000000E+00 0.  1.
          5    1    4    4  501    0 -0.26533905838E+02 -0.27252446117E+02  0.24282539163E+02  0.45319511103E+02  0.41800000000E+01 0.  1.
         -5    1    4    4    0  501  0.14542190762E+03 -0.15169872553E+03  0.15882775334E+03  0.26344593786E+03  0.41800000000E+01 0.  1.
</event>
<event>
11    1  0.8037748E-009  0.1408819E+03  0.7561462E-02  0.1106578E+00
         22   -1    0    0    0    0  0.00000000000E+00  0.00000000000E+00  0.37030554869E+03  0.37030554869E+03  0.00000000000E+00 0.  1.
         22   -1    0    0    0    0 -0.00000000000E+00 -0.00000000000E+00 -0.18650410606E+03  0.18650410606E+03  0.00000000000E+00 0.  1.
         24    2    1    2    0    0  0.47846693250E+02 -0.18065417040E+02 -0.53850422780E+02  0.10799018158E+03  0.78398634789E+02 0.  0.
         25    2    1    2    0    0 -0.44996661340E+02  0.81247569846E+02 -0.33057679666E+02  0.15926734724E+03  0.12508961018E+03 0.  0.
        -24    2    1    2    0    0 -0.28500319098E+01 -0.63182152806E+02  0.27070954508E+03  0.28955212594E+03  0.80973259314E+02 0.  0.
        -13    1    3    3    0    0  0.49452749679E+02 -0.39805533461E+02 -0.17919268358E+02  0.65963286178E+02  0.00000000000E+00 0.  1.
         14    1    3    3    0    0 -0.16060564286E+01  0.21740116421E+02 -0.35931154422E+02  0.42026895405E+02  0.00000000000E+00 0. -1.
         11    1    5    5    0    0 -0.14386685555E+02  0.16281924253E+02  0.72811991652E+02  0.75984629412E+02  0.00000000000E+00 0. -1.
        -12    1    5    5    0    0  0.11536653646E+02 -0.79464077059E+02  0.19789755342E+03  0.21356749652E+03  0.00000000000E+00 0.  1.
          5    1    4    4  501    0  0.89784913652E+01  0.69858292574E+02 -0.64533379525E+02  0.95618114505E+02  0.41800000000E+01 0.  1.
         -5    1    4    4    0  501 -0.53975152705E+02  0.11389277272E+02  0.31475699859E+02  0.63649232737E+02  0.41800000000E+01 0.  1.
</event>
<event>
11    1  0.8037748E-009  0.2654453E+03  0.7561462E-02  0.1015978E+00
         22   -1    0    0    0    0  0.00000000000E+00  0.00000000000E+00  0.44330995541E+03  0.44330995541E+03  0.00000000000E+00 0. -1.
         22   -1    0    0    0    0 -0.00000000000E+00 -0.00000000000E+00 -0.86850535432E+03  0.86850535432E+03  0.00000000000E+00 0. -1.
        -24    2    1    2    0    0  0.55863197223E+02  0.45206012206E+01 -0.55451098764E+03  0.56311965706E+03  0.80499565877E+02 0.  0.
         25    2    1    2    0    0  0.82204639575E+01 -0.23107613604E+03 -0.20443043623E+03  0.33302223414E+03  0.12509295942E+03 0.  0.
         24    2    1    2    0    0 -0.64083661181E+02  0.22655553482E+03  0.33374602497E+03  0.41567341855E+03  0.77226004165E+02 0.  0.
        -11    1    5    5    0    0  0.88588085962E+01  0.85593103284E+02  0.14945461831E+03  0.17245677938E+03  0.00000000000E+00 0.  1.
         12    1    5    5    0    0 -0.72942469777E+02  0.14096243153E+03  0.18429140665E+03  0.24321663917E+03  0.00000000000E+00 0. -1.
         13    1    3    3    0    0 -0.15665169531E+02  0.34700086960E+01 -0.24175297700E+03  0.24228483318E+03  0.00000000000E+00 0. -1.
        -14    1    3    3    0    0  0.71528366754E+02  0.10505925246E+01 -0.31275801064E+03  0.32083482388E+03  0.00000000000E+00 0.  1.
          5    1    4    4  501    0 -0.56907932848E+01 -0.53978952839E+02  0.91362043480E+01  0.55200136845E+02  0.41800000000E+01 0. -1.
         -5    1    4    4    0  501  0.13911257242E+02 -0.17709718320E+03 -0.21356664058E+03  0.27782209729E+03  0.41800000000E+01 0. -1.
</event>
<event>
11    1  0.8037748E-009  0.1933546E+03  0.7561462E-02  0.1059325E+00
         22   -1    0    0    0    0  0.00000000000E+00  0.00000000000E+00  0.24436653993E+04  0.24436653993E+04  0.00000000000E+00 0.  1.
         22   -1    0    0    0    0 -0.00000000000E+00 -0.00000000000E+00 -0.10450257290E+03  0.10450257290E+03  0.00000000000E+00 0. -1.
        -24    2    1    2    0    0 -0.16311491899E+03  0.11562078056E+02  0.98244776751E+01  0.18398525897E+03  0.83749010195E+02 0.  0.
         25    2    1    2    0    0  0.87812890225E+02  0.56034522372E+01  0.34622037328E+03  0.37849502653E+03  0.12508971128E+03 0.  0.
         24    2    1    2    0    0  0.75302028767E+02 -0.17165530293E+02  0.19831179754E+04  0.19856876867E+04  0.65066378540E+02 0.  0.
        -13    1    5    5    0    0  0.19953969320E+02 -0.22737749545E+02  0.12853073035E+04  0.12856632649E+04  0.00000000000E+00 0.  1.
         14    1    5    5    0    0  0.55348059447E+02  0.55722192519E+01  0.69781067191E+03  0.70002442182E+03  0.00000000000E+00 0. -1.
         11    1    3    3    0    0 -0.10422562092E+03 -0.32451406662E+02 -0.37397461946E+01  0.10922481198E+03  0.00000000000E+00 0. -1.
        -12    1    3    3    0    0 -0.58889298072E+02  0.44013484718E+02  0.13564223870E+02  0.74760446986E+02  0.00000000000E+00 0.  1.
          5    1    4    4  501    0  0.11930816304E+03 -0.45502119277E+00  0.25130033460E+03  0.27821569938E+03  0.41800000000E+01 0. -1.
         -5    1    4    4    0  501 -0.31495272818E+02  0.60584734300E+01  0.94920038685E+02  0.10027932715E+03  0.41800000000E+01 0. -1.
</event>
<event>
11    1  0.9021446E-009  0.1973561E+03  0.7561462E-02  0.1056409E+00
         22   -1    0    0    0    0  0.00000000000E+00  0.00000000000E+00  0.13217063759E+04  0.13217063759E+04  0.00000000000E+00 0. -1.
         22   -1    0    0    0    0 -0.00000000000E+00 -0.00000000000E+00 -0.61429127536E+03  0.61429127536E+03  0.00000000000E+00 0. -1.
        -24    2    1    2    0    0 -0.75683940251E+01 -0.53172006516E+01 -0.50093123946E+03  0.50565392512E+03  0.68324462045E+02 0.  0.
         25    2    1    2    0    0 -0.13112517359E+03 -0.59647037364E+02 -0.18205623074E+02  0.19164705267E+03  0.12508224443E+03 0.  0.
         24    2    1    2    0    0  0.13869356762E+03  0.64964238015E+02  0.12265519630E+04  0.12386966734E+04  0.80520015155E+02 0.  0.
        -11    1    5    5    0    0  0.88166920418E+01  0.32125408941E+02  0.39723240836E+03  0.39862684582E+03  0.00000000000E+00 0.  1.
         12    1    5    5    0    0  0.12987687557E+03  0.32838829074E+02  0.82931955468E+03  0.84006982762E+03  0.00000000000E+00 0. -1.
         11    1    3    3    0    0  0.53185114728E+01 -0.11308400868E+02 -0.48106790178E+03  0.48123018673E+03  0.00000000000E+00 0. -1.
        -12    1    3    3    0    0 -0.12886905498E+02  0.59912002160E+01 -0.19863337673E+02  0.24423738388E+02  0.00000000000E+00 0.  1.
          5    1    4    4  501    0 -0.39545875812E+02  0.36143658114E+02  0.13313779780E+02  0.55362166212E+02  0.41800000000E+01 0. -1.
         -5    1    4    4    0  501 -0.91579297778E+02 -0.95790695478E+02 -0.31519402854E+02  0.13628488646E+03  0.41800000000E+01 0. -1.
</event>
<event>
11    1  0.8037748E-009  0.1489590E+03  0.7561462E-02  0.1097947E+00
         22   -1    0    0    0    0  0.00000000000E+00  0.00000000000E+00  0.55308220402E+03  0.55308220402E+03  0.00000000000E+00 0.  1.
         22   -1    0    0    0    0 -0.00000000000E+00 -0.00000000000E+00 -0.19544005086E+04  0.19544005086E+04  0.00000000000E+00 0.  1.
        -24    2    1    2    0    0 -0.33852191939E+02  0.25449935397E+01 -0.15514220027E+04  0.15539693427E+04  0.82207295881E+02 0.  0.
         25    2    1    2    0    0 -0.17614111578E+02 -0.65296560763E+02 -0.38304818841E+03  0.40859292159E+03  0.12509341770E+03 0.  0.
         24    2    1    2    0    0  0.51466303517E+02  0.62751567224E+02  0.53315188659E+03  0.54492044834E+03  0.78107754148E+02 0.  0.
        -13    1    5    5    0    0 -0.16878857785E+01  0.59302304553E+02  0.28867727329E+03  0.29471033304E+03  0.00000000000E+00 0.  1.
         14    1    5    5    0    0  0.53154189295E+02  0.34492626706E+01  0.24447461330E+03  0.25021011530E+03  0.00000000000E+00 0. -1.
         11    1    3    3    0    0  0.20284827689E+02 -0.10769147913E+02 -0.18642408780E+03  0.18783340836E+03  0.00000000000E+00 0. -1.
        -12    1    3    3    0    0 -0.54137019628E+02  0.13314141453E+02 -0.13649979149E+04  0.13661359343E+04  0.00000000000E+00 0.  1.
          5    1    4    4  501    0 -0.12149937572E+02  0.35424485995E+02 -0.14916314891E+03  0.15384938279E+03  0.41800000000E+01 0. -1.
         -5    1    4    4    0  501 -0.54641740067E+01 -0.10072104676E+03 -0.23388503950E+03  0.25474353880E+03  0.41800000000E+01 0. -1.
</event>
<event>
11    1  0.8037748E-009  0.1528721E+03  0.7561462E-02  0.1093980E+00
         22   -1    0    0    0    0  0.00000000000E+00  0.00000000000E+00  0.14066684853E+04  0.14066684853E+04  0.00000000000E+00 0.  1.
         22   -1    0    0    0    0 -0.00000000000E+00 -0.00000000000E+00 -0.17091859911E+03  0.17091859911E+03  0.00000000000E+00 0. -1.
        -24    2    1    2    0    0 -0.47960042765E+01 -0.78996673467E+02 -0.46771972010E+02  0.12220460908E+03  0.80516290513E+02 0.  0.
         25    2    1    2    0    0  0.64638776900E+02  0.98434858235E+02  0.28844917602E+01  0.17182278991E+03  0.12508860078E+03 0.  0.
         24    2    1    2    0    0 -0.59842772624E+02 -0.19438184769E+02  0.12796373665E+04  0.12835596855E+04  0.78068405786E+02 0.  0.
        -11    1    5    5    0    0 -0.61691145463E+02 -0.30328063091E+02  0.12506706950E+04  0.12525584921E+04  0.00000000000E+00 0.  1.
         12    1    5    5    0    0  0.18483728392E+01  0.10889878323E+02  0.28966671467E+02  0.31001193330E+02  0.00000000000E+00 0. -1.
         11    1    3    3    0    0 -0.31027908488E+02 -0.13385761782E+02 -0.38239125896E+02  0.51030779662E+02  0.00000000000E+00 0. -1.
        -12    1    3    3    0    0  0.26231904211E+02 -0.65610911685E+02 -0.85328461144E+01  0.71173829414E+02  0.00000000000E+00 0.  1.
          5    1    4    4  501    0  0.10197356641E+03  0.70543679615E+02 -0.59383417554E+01  0.12420851534E+03  0.41800000000E+01 0. -1.
         -5    1    4    4    0  501 -0.37334789506E+02  0.27891178621E+02  0.88228335156E+01  0.47614274577E+02  0.41800000000E+01 0. -1.
</event>
<event>
11    1  0.8037748E-009  0.1474843E+03  0.7561462E-02  0.1099477E+00
         22   -1    0    0    0    0  0.00000000000E+00  0.00000000000E+00  0.17597269343E+03  0.17597269343E+03  0.00000000000E+00 0.  1.
         22   -1    0    0    0    0 -0.00000000000E+00 -0.00000000000E+00 -0.80280746085E+03  0.80280746085E+03  0.00000000000E+00 0. -1.
        -24    2    1    2    0    0 -0.60580327880E+01  0.78999008290E+02 -0.64427535809E+03  0.65440860117E+03  0.82959852748E+02 0.  0.
         25    2    1    2    0    0 -0.49538035329E+02 -0.70891180738E+02 -0.92319386343E+02  0.17789910623E+03  0.12508255855E+03 0.  0.
         24    2    1    2    0    0  0.55596068117E+02 -0.81078275519E+01  0.10975997701E+03  0.14647244688E+03  0.79058620549E+02 0.  0.
        -11    1    5    5    0    0  0.66554247335E+02  0.10318642806E+02  0.52698573882E+02  0.85516559314E+02  0.00000000000E+00 0.  1.
         12    1    5    5    0    0 -0.10958179218E+02 -0.18426470357E+02  0.57061403130E+02  0.60955887565E+02  0.00000000000E+00 0. -1.
         13    1    3    3    0    0 -0.13006388827E+01  0.91375922772E+02 -0.62043351581E+03  0.62712757751E+03  0.00000000000E+00 0. -1.
        -14    1    3    3    0    0 -0.47573939052E+01 -0.12376914482E+02 -0.23841842274E+02  0.27281023659E+02  0.00000000000E+00 0.  1.
          5    1    4    4  501    0 -0.58563612148E+02  0.17455236119E+02 -0.24042184498E+02  0.65801831063E+02  0.41800000000E+01 0. -1.
         -5    1    4    4    0  501  0.90255768189E+01 -0.88346416857E+02 -0.68277201845E+02  0.11209727517E+03  0.41800000000E+01 0. -1.
</event>
<event>
11    1  0.8037748E-009  0.1273022E+03  0.7561462E-02  0.1122629E+00
         22   -1    0    0    0    0  0.00000000000E+00  0.00000000000E+00  0.22003901889E+03  0.22003901889E+03  0.00000000000E+00 0. -1.
         22   -1    0    0    0    0 -0.00000000000E+00 -0.00000000000E+00 -0.38066405503E+03  0.38066405503E+03  0.00000000000E+00 0.  1.
         24    2    1    2    0    0 -0.87890785600E+01 -0.81740546679E+01 -0.22649241007E+03  0.24073760979E+03  0.80695240722E+02 0.  0.
         25    2    1    2    0    0  0.26187195974E+02 -0.77056974251E+01 -0.10757043260E+03  0.16722405073E+03  0.12508932076E+03 0.  0.
        -24    2    1    2    0    0 -0.17398117414E+02  0.15879752093E+02  0.17343780652E+03  0.19274141340E+03  0.80707612361E+02 0.  0.
        -13    1    3    3    0    0  0.13512620418E+02  0.56956907241E+01 -0.20823847767E+03  0.20875415058E+03  0.00000000000E+00 0.  1.
         14    1    3    3    0    0 -0.22301698978E+02 -0.13869745392E+02 -0.18253932397E+02  0.31983459201E+02  0.00000000000E+00 0. -1.
         13    1    5    5    0    0 -0.95417168967E+01  0.32921746365E+02  0.17029992966E+03  0.17371514553E+03  0.00000000000E+00 0. -1.
        -14    1    5    5    0    0 -0.78564005174E+01 -0.17041994272E+02  0.31378768621E+01  0.19026267870E+02  0.00000000000E+00 0.  1.
          5    1    4    4  501    0  0.56406650165E+02 -0.48535577476E+01 -0.12108767038E+03  0.13373467585E+03  0.41800000000E+01 0.  1.
         -5    1    4    4    0  501 -0.30219454191E+02 -0.28521396775E+01  0.13517237787E+02  0.33489374878E+02  0.41800000000E+01 0.  1.
</event>
<event>
11    1  0.8037748E-009  0.1359428E+03  0.7561462E-02  0.1112175E+00
         22   -1    0    0    0    0  0.00000000000E+00  0.00000000000E+00  0.32852951860E+03  0.32852951860E+03  0.00000000000E+00 0.  1.
         22   -1    0    0    0    0 -0.00000000000E+00 -0.00000000000E+00 -0.22674318648E+04  0.22674318648E+04  0.00000000000E+00 0. -1.
        -24    2    1    2    0    0 -0.46762523185E+02 -0.26276627612E+02 -0.22209116131E+04  0.22230094419E+04  0.80283192417E+02 0.  0.
         25    2    1    2    0    0 -0.81293371968E+00  0.16729079740E+02  0.80766452368E+02  0.14983801390E+03  0.12509071752E+03 0.  0.
         24    2    1    2    0    0  0.47575456904E+02  0.95475478725E+01  0.20124281449E+03  0.22311392760E+03  0.83226044802E+02 0.  0.
        -11    1    5    5    0    0  0.32550837843E+02 -0.35303229599E+02  0.85184150082E+02  0.97786576223E+02  0.00000000000E+00 0.  1.
         12    1    5    5    0    0  0.15024619061E+02  0.44850777471E+02  0.11605866441E+03  0.12532735138E+03  0.00000000000E+00 0. -1.
         13    1    3    3    0    0 -0.61341753686E+01 -0.26068198444E+02 -0.17868120409E+04  0.17870127164E+04  0.00000000000E+00 0. -1.
        -14    1    3    3    0    0 -0.40628347816E+02 -0.20842916867E+00 -0.43409957221E+03  0.43599672554E+03  0.00000000000E+00 0.  1.
          5    1    4    4  501    0  0.20694386367E+02  0.22567815479E+02 -0.26187451202E+02  0.40507023133E+02  0.41800000000E+01 0. -1.
         -5    1    4    4    0  501 -0.21507320087E+02 -0.58387357393E+01  0.10695390357E+03  0.10933099076E+03  0.41800000000E+01 0. -1.
</event>
<event>
11    1  0.8037748E-009  0.3656006E+03  0.7561462E-02  0.9757089E-01
         22   -1    0    0    0    0  0.00000000000E+00  0.00000000000E+00  0.15656227937E+04  0.15656227937E+04  0.00000000000E+00 0. -1.
         22   -1    0    0    0    0 -0.00000000000E+00 -0.00000000000E+00 -0.29591125290E+03  0.29591125290E+03  0.00000000000E+00 0. -1.
         24    2    1    2    0    0  0.19394500251E+03 -0.10862534652E+02 -0.12437628724E+03  0.24326666346E+03  0.77308150038E+02 0.  0.
         25    2    1    2    0    0  0.20165961585E+03  0.37199108624E+02  0.96217211090E+02  0.25875938674E+03  0.12509314198E+03 0.  0.
        -24    2    1    2    0    0 -0.39560461836E+03 -0.26336573973E+02  0.12978706170E+04  0.13595079964E+04  0.81223301787E+02 0.  0.
        -13    1    3    3    0    0  0.15191108611E+03  0.24698660460E+02 -0.94941149074E+02  0.18083369072E+03  0.00000000000E+00 0.  1.
         14    1    3    3    0    0  0.42033916407E+02 -0.35561195111E+02 -0.29435138167E+02  0.62432972740E+02  0.00000000000E+00 0. -1.
         11    1    5    5    0    0 -0.33872356680E+03  0.50988158523E+01  0.11213846009E+04  0.11714363302E+04  0.00000000000E+00 0. -1.
        -12    1    5    5    0    0 -0.56881051556E+02 -0.31435389825E+02  0.17648601606E+03  0.18807166619E+03  0.00000000000E+00 0.  1.
          5    1    4    4  501    0 -0.96260705048E+01  0.21027315367E+02  0.27007362350E+02  0.35800548124E+02  0.41800000000E+01 0.  1.
         -5    1    4    4    0  501  0.21128568635E+03  0.16171793258E+02  0.69209848740E+02  0.22295883861E+03  0.41800000000E+01 0.  1.
</event>
<event>
11    1  0.8037748E-009  0.6178344E+03  0.7561462E-02  0.9163000E-01
         22   -1    0    0    0    0  0.00000000000E+00  0.00000000000E+00  0.90193819301E+03  0.90193819301E+03  0.00000000000E+00 0.  1.
         22   -1    0    0    0    0 -0.00000000000E+00 -0.00000000000E+00 -0.14846660593E+04  0.14846660593E+04  0.00000000000E+00 0.  1.
        -24    2    1    2    0    0 -0.11050041233E+03  0.52137876433E+03 -0.54471283882E+03  0.76645531371E+03  0.81826121281E+02 0.  0.
         25    2    1    2    0    0  0.17724927957E+03 -0.68637831348E+03 -0.65448403910E+03  0.97289738952E+03  0.12508987480E+03 0.  0.
         24    2    1    2    0    0 -0.66748867234E+02  0.16499954915E+03  0.61646901166E+03  0.64725154903E+03  0.84972130105E+02 0.  0.
        -11    1    5    5    0    0 -0.12606112393E+01  0.10467937836E+03  0.39285280005E+03  0.40656202959E+03  0.00000000000E+00 0.  1.
         12    1    5    5    0    0 -0.65488255995E+02  0.60320170785E+02  0.22361621161E+03  0.24068951944E+03  0.00000000000E+00 0. -1.
         13    1    3    3    0    0 -0.68249946579E+02  0.15409935986E+03 -0.14965233412E+03  0.22538963824E+03  0.00000000000E+00 0. -1.
        -14    1    3    3    0    0 -0.42250465755E+02  0.36727940447E+03 -0.39506050470E+03  0.54106567547E+03  0.00000000000E+00 0.  1.
          5    1    4    4  501    0  0.46610357129E+02 -0.44401245506E+02 -0.65197806588E+02  0.91718168201E+02  0.41800000000E+01 0. -1.
         -5    1    4    4    0  501  0.13063892244E+03 -0.64197706797E+03 -0.58928623251E+03  0.88117922132E+03  0.41800000000E+01 0. -1.
</event>
<event>
11    1  0.8037748E-009  0.2342017E+03  0.7561462E-02  0.1032669E+00
         22   -1    0    0    0    0  0.00000000000E+00  0.00000000000E+00  0.21095363793E+04  0.21095363793E+04  0.00000000000E+00 0. -1.
         22   -1    0    0    0    0 -0.00000000000E+00 -0.00000000000E+00 -0.51027351258E+03  0.51027351258E+03  0.00000000000E+00 0. -1.
         24    2    1    2    0    0  0.12124952774E+03  0.10216256160E+03 -0.46266717210E+03  0.49578703241E+03  0.81272580840E+02 0.  0.
         25    2    1    2    0    0 -0.14415646660E+03  0.11685446945E+03  0.54721729835E+03  0.59121019735E+03  0.12508665773E+03 0.  0.
        -24    2    1    2    0    0  0.22906938858E+02 -0.21901703105E+03  0.15147127405E+04  0.15328126621E+04  0.81650372062E+02 0.  0.
        -11    1    3    3    0    0  0.28128794265E+02  0.70481843435E+02 -0.15150466570E+03  0.16944787709E+03  0.00000000000E+00 0.  1.
         12    1    3    3    0    0  0.93120733478E+02  0.31680718162E+02 -0.31116250640E+03  0.32633915532E+03  0.00000000000E+00 0. -1.
         13    1    5    5    0    0  0.16661293812E+02 -0.14766615632E+03  0.73852428791E+03  0.75332663319E+03  0.00000000000E+00 0. -1.
        -14    1    5    5    0    0  0.62456450464E+01 -0.71350874726E+02  0.77618845256E+03  0.77948602893E+03  0.00000000000E+00 0.  1.
          5    1    4    4  501    0 -0.68585024799E+02  0.76594425337E+02  0.13270006263E+03  0.16792078680E+03  0.41800000000E+01 0.  1.
         -5    1    4    4    0  501 -0.75571441802E+02  0.40260044115E+02  0.41451723572E+03  0.42328941054E+03  0.41800000000E+01 0.  1.
</event>
<event>
11    1  0.8037748E-009  0.1372494E+03  0.7561462E-02  0.1110669E+00
         22   -1    0    0    0    0  0.00000000000E+00  0.00000000000E+00  0.14973611290E+03  0.14973611290E+03  0.00000000000E+00 0. -1.
         22   -1    0    0    0    0 -0.00000000000E+00 -0.00000000000E+00 -0.33149362668E+04  0.33149362668E+04  0.00000000000E+00 0. -1.
         24    2    1    2    0    0 -0.16582289133E+02 -0.55488663752E+02 -0.30537617047E+04  0.30552422333E+04  0.75436005641E+02 0.  0.
         25    2    1    2    0    0 -0.37746025320E+01  0.26399693016E+02 -0.22884715203E+03  0.26216299702E+03  0.12508887478E+03 0.  0.
        -24    2    1    2    0    0  0.20356891665E+02  0.29088970735E+02  0.11740870282E+03  0.14726714940E+03  0.81499929668E+02 0.  0.
        -11    1    3    3    0    0  0.13610218716E+02  0.13808387854E+02 -0.56244239523E+03  0.56277647212E+03  0.00000000000E+00 0.  1.
         12    1    3    3    0    0 -0.30192507848E+02 -0.69297051606E+02 -0.24913193094E+04  0.24924657611E+04  0.00000000000E+00 0. -1.
         13    1    5    5    0    0  0.29020149987E+01  0.43600902847E+02  0.11663777136E+03  0.12455452673E+03  0.00000000000E+00 0. -1.
        -14    1    5    5    0    0  0.17454876666E+02 -0.14511932112E+02  0.77093145893E+00  0.22712622666E+02  0.00000000000E+00 0.  1.
          5    1    4    4  501    0  0.47223007243E+02  0.41804022742E+02 -0.68780304610E+02  0.93411944807E+02  0.41800000000E+01 0. -1.
         -5    1    4    4    0  501 -0.50997609775E+02 -0.15404329726E+02 -0.16006684742E+03  0.16875105221E+03  0.41800000000E+01 0. -1.
</event>
<event>
11    1  0.8037748E-009  0.1669663E+03  0.7561462E-02  0.1080702E+00
         22   -1    0    0    0    0  0.00000000000E+00  0.00000000000E+00  0.21949512804E+03  0.21949512804E+03  0.00000000000E+00 0. -1.
         22   -1    0    0    0    0 -0.00000000000E+00 -0.00000000000E+00 -0.15227727529E+04  0.15227727529E+04  0.00000000000E+00 0. -1.
         24    2    1    2    0    0  0.11243979781E+03  0.19601692200E+02 -0.13533258452E+04  0.13605705617E+04  0.81452291440E+02 0.  0.
         25    2    1    2    0    0 -0.57467698679E+02 -0.73216207225E+02 -0.10802698575E+03  0.18968591145E+03  0.12509103070E+03 0.  0.
        -24    2    1    2    0    0 -0.54972099133E+02  0.53614515025E+02  0.15807520602E+03  0.19201140779E+03  0.77357365913E+02 0.  0.
        -11    1    3    3    0    0  0.71606689607E+02 -0.21573655888E+02 -0.53628471707E+03  0.54147413455E+03  0.00000000000E+00 0.  1.
         12    1    3    3    0    0  0.40833108206E+02  0.41175348088E+02 -0.81704112810E+03  0.81909642718E+03  0.00000000000E+00 0. -1.
         11    1    5    5    0    0 -0.20896468521E+02  0.37778161564E+02  0.14644627331E+03  0.15267731611E+03  0.00000000000E+00 0. -1.
        -12    1    5    5    0    0 -0.34075630613E+02  0.15836353461E+02  0.11628932703E+02  0.39334091681E+02  0.00000000000E+00 0.  1.
          5    1    4    4  501    0  0.29921195478E+02 -0.18960975765E+02 -0.72469572796E+02  0.80771950094E+02  0.41800000000E+01 0. -1.
         -5    1    4    4    0  501 -0.87388894157E+02 -0.54255231460E+02 -0.35557412954E+02  0.10891396136E+03  0.41800000000E+01 0. -1.
</event>
<event>
11    1  0.8037748E-009  0.2455854E+03  0.7561462E-02  0.1026278E+00
         22   -1    0    0    0    0  0.00000000000E+00  0.00000000000E+00  0.20814873114E+04  0.20814873114E+04  0.00000000000E+00 0.  1.
         22   -1    0    0    0    0 -0.00000000000E+00 -0.00000000000E+00 -0.12477074246E+04  0.12477074246E+04  0.00000000000E+00 0.  1.
         24    2    1    2    0    0 -0.14364732497E+02 -0.75342938626E+02 -0.11661275124E+04  0.11714282922E+04  0.80671956867E+02 0.  0.
         25    2    1    2    0    0 -0.11443887609E+03  0.23717610842E+03  0.22353244137E+03  0.36737486314E+03  0.12509506367E+03 0.  0.
        -24    2    1    2    0    0  0.12880360858E+03 -0.16183316979E+03  0.17763749578E+04  0.17903915806E+04  0.84933367580E+02 0.  0.
        -11    1    3    3    0    0  0.27133735358E+02 -0.47414327876E+02 -0.80519520558E+03  0.80704626706E+03  0.00000000000E+00 0.  1.
         12    1    3    3    0    0 -0.41498467855E+02 -0.27928610750E+02 -0.36093230681E+03  0.36438202512E+03  0.00000000000E+00 0. -1.
         11    1    5    5    0    0  0.13912315732E+02 -0.46987526293E+01  0.40546810581E+03  0.40573392221E+03  0.00000000000E+00 0. -1.
        -12    1    5    5    0    0  0.11489129285E+03 -0.15713441716E+03  0.13709068520E+04  0.13846576584E+04  0.00000000000E+00 0.  1.
          5    1    4    4  501    0  0.15801400899E+02  0.16192871750E+02  0.57136992710E+02  0.61595468193E+02  0.41800000000E+01 0.  1.
         -5    1    4    4    0  501 -0.13024027699E+03  0.22098323667E+03  0.16639544866E+03  0.30577939495E+03  0.41800000000E+01 0.  1.
</event>
<event>
11    1  0.8037748E-009  0.1410185E+03  0.7561462E-02  0.1106426E+00
         22   -1    0    0    0    0  0.00000000000E+00  0.00000000000E+00  0.56055342462E+02  0.56055342462E+02  0.00000000000E+00 0. -1.
         22   -1    0    0    0    0 -0.00000000000E+00 -0.00000000000E+00 -0.22589394472E+04  0.22589394472E+04  0.00000000000E+00 0. -1.
        -24    2    1    2    0    0 -0.18451124889E+01 -0.62676346226E+02 -0.19388239447E+04  0.19415582759E+04  0.81722220402E+02 0.  0.
         25    2    1    2    0    0 -0.54536214170E+02  0.11841942810E+02 -0.20968299917E+03  0.25046151352E+03  0.12509827877E+03 0.  0.
         24    2    1    2    0    0  0.56381326659E+02  0.50834403416E+02 -0.54377160910E+02  0.12297500029E+03  0.80018650964E+02 0.  0.
        -13    1    5    5    0    0  0.52554221240E+01  0.48672732892E+02 -0.52478780518E+02  0.71768215761E+02  0.00000000000E+00 0.  1.
         14    1    5    5    0    0  0.51125904535E+02  0.21616705235E+01 -0.18983803917E+01  0.51206784532E+02  0.00000000000E+00 0. -1.
         11    1    3    3    0    0 -0.13830658556E+02 -0.53045650951E+02 -0.18786959518E+04  0.18794955727E+04  0.00000000000E+00 0. -1.
        -12    1    3    3    0    0  0.11985546067E+02 -0.96306952748E+01 -0.60127992841E+02  0.62062703205E+02  0.00000000000E+00 0.  1.
          5    1    4    4  501    0 -0.60068639660E+02  0.25352125898E+02 -0.33123797165E+02  0.73250461410E+02  0.41800000000E+01 0.  1.
         -5    1    4    4    0  501  0.55324254902E+01 -0.13510183088E+02 -0.17655920200E+03  0.17721105211E+03  0.41800000000E+01 0.  1.
</event>
<event>
11    1  0.8037748E-009  0.1316432E+03  0.7561462E-02  0.1117266E+00
         22   -1    0    0    0    0  0.00000000000E+00  0.00000000000E+00  0.36221241364E+03  0.36221241364E+03  0.00000000000E+00 0. -1.
         22   -1    0    0    0    0 -0.00000000000E+00 -0.00000000000E+00 -0.87305801461E+03  0.87305801461E+03  0.00000000000E+00 0. -1.
         24    2    1    2    0    0  0.11248014823E+02  0.21596281031E+02 -0.77187477652E+03  0.77663075895E+03  0.82290630889E+02 0.  0.
         25    2    1    2    0    0  0.17747899878E+02  0.95877171054E+01 -0.48642712455E+02  0.13572429356E+03  0.12509219847E+03 0.  0.
        -24    2    1    2    0    0 -0.28995914701E+02 -0.31183998136E+02  0.30967188800E+03  0.32291537575E+03  0.81021335909E+02 0.  0.
        -11    1    3    3    0    0 -0.34486355458E+02  0.12704149924E+02 -0.25099267091E+03  0.25366912502E+03  0.00000000000E+00 0.  1.
         12    1    3    3    0    0  0.45734370281E+02  0.88921311065E+01 -0.52088210561E+03  0.52296163393E+03  0.00000000000E+00 0. -1.
         13    1    5    5    0    0 -0.15078054945E+02 -0.45130105114E+02  0.85248728171E+02  0.97628990485E+02  0.00000000000E+00 0. -1.
        -14    1    5    5    0    0 -0.13917859756E+02  0.13946106978E+02  0.22442315983E+03  0.22528638527E+03  0.00000000000E+00 0.  1.
          5    1    4    4  501    0  0.42960201425E+02 -0.46194137769E+02 -0.12285924743E+02  0.64404142860E+02  0.41800000000E+01 0.  1.
         -5    1    4    4    0  501 -0.25212301548E+02  0.55781854875E+02 -0.36356787712E+02  0.71320150696E+02  0.41800000000E+01 0.  1.
</event>
<event>
11    1  0.8037748E-009  0.1263987E+03  0.7561462E-02  0.1123775E+00
         22   -1    0    0    0    0  0.00000000000E+00  0.00000000000E+00  0.29775965623E+03  0.29775965623E+03  0.00000000000E+00 0. -1.
         22   -1    0    0    0    0 -0.00000000000E+00 -0.00000000000E+00 -0.37482669582E+03  0.37482669582E+03  0.00000000000E+00 0.  1.
         24    2    1    2    0    0 -0.10284116461E+02  0.15202685896E+02 -0.32860673221E+03  0.33795475003E+03  0.76773328093E+02 0.  0.
         25    2    1    2    0    0  0.23103511292E+02 -0.17714472057E+01  0.97050263468E+02  0.16000886863E+03  0.12508866512E+03 0.  0.
        -24    2    1    2    0    0 -0.12819394831E+02 -0.13431238690E+02  0.15448942915E+03  0.17462273339E+03  0.79255159079E+02 0.  0.
        -11    1    3    3    0    0  0.14532601495E+01 -0.83520247135E+01 -0.29568737987E+03  0.29580888238E+03  0.00000000000E+00 0.  1.
         12    1    3    3    0    0 -0.11737376611E+02  0.23554710610E+02 -0.32919352342E+02  0.42145867653E+02  0.00000000000E+00 0. -1.
         13    1    5    5    0    0  0.27635597858E+02 -0.26383797076E+02  0.84761483675E+02  0.92974943570E+02  0.00000000000E+00 0. -1.
        -14    1    5    5    0    0 -0.40454992688E+02  0.12952558385E+02  0.69727945471E+02  0.81647789815E+02  0.00000000000E+00 0.  1.
          5    1    4    4  501    0 -0.32358814996E+01 -0.38993146535E+02 -0.12489032178E+02  0.41284194682E+02  0.41800000000E+01 0.  1.
         -5    1    4    4    0  501  0.26339392792E+02  0.37221699330E+02  0.10953929565E+03  0.11872467395E+03  0.41800000000E+01 0.  1.
</event>
<event>
11    1  0.1484694E-008  0.1705570E+03  0.7561462E-02  0.1077548E+00
         22   -1    0    0    0    0  0.00000000000E+00  0.00000000000E+00  0.28901191144E+04  0.28901191144E+04  0.00000000000E+00 0.  1.
         22   -1    0    0    0    0 -0.00000000000E+00 -0.00000000000E+00 -0.97824812550E+03  0.97824812550E+03  0.00000000000E+00 0.  1.
         24    2    1    2    0    0  0.69236008486E+02  0.19625852748E+01 -0.38982388936E+03  0.40419135832E+03  0.81305060228E+02 0.  0.
         25    2    1    2    0    0 -0.16831725062E+03  0.57910855311E+02 -0.55909823071E+03  0.59993577070E+03  0.12509090040E+03 0.  0.
        -24    2    1    2    0    0  0.99081242134E+02 -0.59873440586E+02  0.28607931090E+04  0.28642401109E+04  0.79575618065E+02 0.  0.
        -13    1    3    3    0    0  0.75441103752E+02  0.13656257137E+02 -0.38012801261E+03  0.38778236095E+03  0.00000000000E+00 0.  1.
         14    1    3    3    0    0 -0.62050952667E+01 -0.11693671863E+02 -0.96958767482E+01  0.16408997374E+02  0.00000000000E+00 0. -1.
         11    1    5    5    0    0  0.71912568721E+02  0.12281593779E+01  0.12601764611E+04  0.12622272533E+04  0.00000000000E+00 0. -1.
        -12    1    5    5    0    0  0.27168673413E+02 -0.61101599964E+02  0.16006166479E+04  0.16020128576E+04  0.00000000000E+00 0.  1.
          5    1    4    4  501    0 -0.15594793134E+03  0.59004172656E+01 -0.47681184603E+03  0.50171862745E+03  0.41800000000E+01 0. -1.
         -5    1    4    4    0  501 -0.12369319279E+02  0.52010438046E+02 -0.82286384684E+02  0.98217143256E+02  0.41800000000E+01 0. -1.
</event>
<event>
11    1  0.8037748E-009  0.7536237E+03  0.7561462E-02  0.8956811E-01
         22   -1    0    0    0    0  0.00000000000E+00  0.00000000000E+00  0.11624272371E+04  0.11624272371E+04  0.00000000000E+00 0.  1.
         22   -1    0    0    0    0 -0.00000000000E+00 -0.00000000000E+00 -0.12214713429E+03  0.12214713429E+03  0.00000000000E+00 0.  1.
         24    2    1    2    0    0 -0.16178153098E+03 -0.10243385203E+03  0.31959815039E+03  0.38158336066E+03  0.82443469072E+02 0.  0.
         25    2    1    2    0    0  0.27388646393E+03  0.19044716261E+03  0.35714206777E+03  0.50446119083E+03  0.12508684828E+03 0.  0.
        -24    2    1    2    0    0 -0.11210493295E+03 -0.88013310582E+02  0.36353988461E+03  0.39852981987E+03  0.79692601852E+02 0.  0.
        -11    1    3    3    0    0 -0.90988342812E+00 -0.28635063280E+02  0.69680613713E+02  0.75340445076E+02  0.00000000000E+00 0.  1.
         12    1    3    3    0    0 -0.16087164755E+03 -0.73798788747E+02  0.24991753667E+03  0.30624291558E+03  0.00000000000E+00 0. -1.
         13    1    5    5    0    0 -0.23861748480E+02 -0.51854152705E+02  0.72558724559E+02  0.92320120791E+02  0.00000000000E+00 0. -1.
        -14    1    5    5    0    0 -0.88243184472E+02 -0.36159157877E+02  0.29098116005E+03  0.30620969908E+03  0.00000000000E+00 0.  1.
          5    1    4    4  501    0  0.20307835617E+03  0.83113288514E+02  0.17117254454E+03  0.27832741488E+03  0.41800000000E+01 0.  1.
         -5    1    4    4    0  501  0.70808107761E+02  0.10733387410E+03  0.18596952323E+03  0.22613377595E+03  0.41800000000E+01 0.  1.
</event>
<event>
11    1  0.8037748E-009  0.1426753E+03  0.7561462E-02  0.1104607E+00
         22   -1    0    0    0    0  0.00000000000E+00  0.00000000000E+00  0.70103424846E+03  0.70103424846E+03  0.00000000000E+00 0.  1.
         22   -1    0    0    0    0 -0.00000000000E+00 -0.00000000000E+00 -0.10076766744E+03  0.10076766744E+03  0.00000000000E+00 0. -1.
         24    2    1    2    0    0 -0.42046597805E+01  0.78678788051E+02 -0.29508816015E+02  0.11841880446E+03  0.83331939706E+02 0.  0.
         25    2    1    2    0    0 -0.37292820935E+02 -0.19257303605E+02  0.19637964922E+03  0.23658984092E+03  0.12509271748E+03 0.  0.
        -24    2    1    2    0    0  0.41497480715E+02 -0.59421484446E+02  0.43339574781E+03  0.44679327051E+03  0.80866548304E+02 0.  0.
        -11    1    3    3    0    0  0.38035228526E+01  0.21632381972E+02  0.28954939104E+02  0.36343021811E+02  0.00000000000E+00 0.  1.
         12    1    3    3    0    0 -0.80081826331E+01  0.57046406079E+02 -0.58463755119E+02  0.82075782654E+02  0.00000000000E+00 0. -1.
         13    1    5    5    0    0 -0.17744775259E+02 -0.43585673787E+02  0.20208849379E+03  0.20749541520E+03  0.00000000000E+00 0. -1.
        -14    1    5    5    0    0  0.59242255975E+02 -0.15835810659E+02  0.23130725402E+03  0.23929785531E+03  0.00000000000E+00 0.  1.
          5    1    4    4  501    0  0.20130620914E+02  0.28254012808E+02  0.13647597046E+03  0.14087829517E+03  0.41800000000E+01 0.  1.
         -5    1    4    4    0  501 -0.57423441849E+02 -0.47511316412E+02  0.59903678760E+02  0.95711545751E+02  0.41800000000E+01 0.  1.
</event>
<event>
11    1  0.8037748E-009  0.1397098E+03  0.7561462E-02  0.1107883E+00
         22   -1    0    0    0    0  0.00000000000E+00  0.00000000000E+00  0.85707537120E+03  0.85707537120E+03  0.00000000000E+00 0.  1.
         22   -1    0    0    0    0 -0.00000000000E+00 -0.00000000000E+00 -0.10884421416E+03  0.10884421416E+03  0.00000000000E+00 0. -1.
        -24    2    1    2    0    0 -0.56784622458E+02 -0.15489388611E+02 -0.52133104988E+02  0.12007399579E+03  0.90749596814E+02 0.  0.
         25    2    1    2    0    0  0.91117794009E+02  0.25754933543E+02  0.30735692828E+03  0.34507870469E+03  0.12508102205E+03 0.  0.
         24    2    1    2    0    0 -0.34333171551E+02 -0.10265544932E+02  0.49300733374E+03  0.50076688489E+03  0.80169157350E+02 0.  0.
        -11    1    5    5    0    0 -0.47999521025E+02 -0.33430974062E+02  0.27825491446E+03  0.28433673957E+03  0.00000000000E+00 0.  1.
         12    1    5    5    0    0  0.13666349475E+02  0.23165429129E+02  0.21475241928E+03  0.21643014532E+03  0.00000000000E+00 0. -1.
         13    1    3    3    0    0 -0.63225494235E+02 -0.42905778352E+02 -0.51043368364E+02  0.91890121293E+02  0.00000000000E+00 0. -1.
        -14    1    3    3    0    0  0.64408717775E+01  0.27416389741E+02 -0.10897366239E+01  0.28183874496E+02  0.00000000000E+00 0.  1.
          5    1    4    4  501    0  0.11835237754E+03  0.38222656561E+02  0.26766079538E+03  0.29517457636E+03  0.41800000000E+01 0. -1.
         -5    1    4    4    0  501 -0.27234583527E+02 -0.12467723018E+02  0.39696132903E+02  0.49904128332E+02  0.41800000000E+01 0. -1.
</event>
<event>
11    1  0.8037748E-009  0.3171436E+03  0.7561462E-02  0.9931858E-01
         22   -1    0    0    0    0  0.00000000000E+00  0.00000000000E+00  0.99663032167E+03  0.99663032167E+03  0.00000000000E+00 0. -1.
         22   -1    0    0    0    0 -0.00000000000E+00 -0.00000000000E+00 -0.83835425188E+03  0.83835425188E+03  0.00000000000E+00 0. -1.
        -24    2    1    2    0    0  0.28062265237E+03 -0.58596215170E+02 -0.65439050882E+03  0.71888917475E+03  0.79950722838E+02 0.  0.
         25    2    1    2    0    0 -0.32082072586E+03  0.33191516579E+02  0.52231261394E+02  0.34986120781E+03  0.12508854924E+03 0.  0.
         24    2    1    2    0    0  0.40198073491E+02  0.25404698591E+02  0.76043531722E+03  0.76623419099E+03  0.81189161484E+02 0.  0.
        -11    1    5    5    0    0  0.26880629257E+02 -0.22406744697E+02  0.16160044884E+03  0.16534610822E+03  0.00000000000E+00 0.  1.
         12    1    5    5    0    0  0.13317444235E+02  0.47811443288E+02  0.59883486837E+03  0.60088808276E+03  0.00000000000E+00 0. -1.
         13    1    3    3    0    0  0.26903935640E+03 -0.48431756951E+02 -0.64573462307E+03  0.70121395723E+03  0.00000000000E+00 0. -1.
        -14    1    3    3    0    0  0.11583295968E+02 -0.10164458219E+02 -0.86558857457E+01  0.17675217521E+02  0.00000000000E+00 0.  1.
          5    1    4    4  501    0 -0.29761555174E+03  0.25140115724E+02  0.76649354967E+01  0.29880305503E+03  0.41800000000E+01 0. -1.
         -5    1    4    4    0  501 -0.23205174113E+02  0.80514008545E+01  0.44566325897E+02  0.51058152780E+02  0.41800000000E+01 0. -1.
</event>
<event>
11    1  0.8037748E-009  0.1381508E+03  0.7561462E-02  0.1109641E+00
         22   -1    0    0    0    0  0.00000000000E+00  0.00000000000E+00  0.72295952668E+03  0.72295952668E+03  0.00000000000E+00 0. -1.
         22   -1    0    0    0    0 -0.00000000000E+00 -0.00000000000E+00 -0.27699998570E+03  0.27699998570E+03  0.00000000000E+00 0.  1.
        -24    2    1    2    0    0  0.53230539659E+02 -0.93793725789E+01 -0.21570126358E+03  0.23679536397E+03  0.81385172531E+02 0.  0.
         25    2    1    2    0    0  0.71857144033E+01 -0.91864808449E+01  0.38554293754E+02  0.13141353467E+03  0.12508819930E+03 0.  0.
         24    2    1    2    0    0 -0.60416254062E+02  0.18565853424E+02  0.62310651080E+03  0.63175061374E+03  0.82778617362E+02 0.  0.
        -13    1    5    5    0    0  0.27328723221E+01  0.23710503090E+02  0.52902028599E+02  0.58036894971E+02  0.00000000000E+00 0.  1.
         14    1    5    5    0    0 -0.63149126384E+02 -0.51446496665E+01  0.57020448220E+03  0.57371371877E+03  0.00000000000E+00 0. -1.
         11    1    3    3    0    0  0.51583196359E+02 -0.40671666888E+02 -0.13251309528E+03  0.14790108537E+03  0.00000000000E+00 0. -1.
        -12    1    3    3    0    0  0.16473433001E+01  0.31292294309E+02 -0.83188168300E+02  0.88894278602E+02  0.00000000000E+00 0.  1.
          5    1    4    4  501    0 -0.25066344627E+02 -0.38424801855E+02 -0.26409520229E+02  0.53101056386E+02  0.41800000000E+01 0. -1.
         -5    1    4    4    0  501  0.32252059031E+02  0.29238321010E+02  0.64963813984E+02  0.78312478281E+02  0.41800000000E+01 0. -1.
</event>
<event>
11    1  0.1561717E-008  0.1515570E+03  0.7561462E-02  0.1095298E+00
         22   -1    0    0    0    0  0.00000000000E+00  0.00000000000E+00  0.47910805152E+03  0.47910805152E+03  0.00000000000E+00 0. -1.
         22   -1    0    0    0    0 -0.00000000000E+00 -0.00000000000E+00 -0.15241019250E+04  0.15241019250E+04  0.00000000000E+00 0. -1.
         24    2    1    2    0    0  0.54622289901E+02  0.22240310619E+02 -0.11059786147E+04  0.11105760369E+04  0.81928087803E+02 0.  0.
         25    2    1    2    0    0 -0.55827493812E+01  0.48967869737E+02 -0.39717876234E+03  0.41931870258E+03  0.12509270852E+03 0.  0.
        -24    2    1    2    0    0 -0.49039540520E+02 -0.71208180357E+02  0.45816350361E+03  0.47331523700E+03  0.81474143450E+02 0.  0.
        -13    1    3    3    0    0  0.32270625957E+02  0.23581062547E+02 -0.18247175201E+03  0.18679775184E+03  0.00000000000E+00 0.  1.
         14    1    3    3    0    0  0.22351663944E+02 -0.13407519281E+01 -0.92350686270E+03  0.92377828507E+03  0.00000000000E+00 0. -1.
         11    1    5    5    0    0 -0.59041801023E+02 -0.47376773981E+02  0.19976024158E+03  0.21362267458E+03  0.00000000000E+00 0. -1.
        -12    1    5    5    0    0  0.10002260502E+02 -0.23831406376E+02  0.25840326204E+03  0.25969256242E+03  0.00000000000E+00 0.  1.
          5    1    4    4  501    0 -0.16701475995E+02 -0.11914056778E+02 -0.31822262971E+03  0.31891064346E+03  0.41800000000E+01 0.  1.
         -5    1    4    4    0  501  0.11118726614E+02  0.60881926516E+02 -0.78956132626E+02  0.10040805912E+03  0.41800000000E+01 0.  1.
</event>
<event>
11    1  0.8037748E-009  0.1603915E+03  0.7561462E-02  0.1086710E+00
         22   -1    0    0    0    0  0.00000000000E+00  0.00000000000E+00  0.29895602343E+03  0.29895602343E+03  0.00000000000E+00 0. -1.
         22   -1    0    0    0    0 -0.00000000000E+00 -0.00000000000E+00 -0.17868648132E+04  0.17868648132E+04  0.00000000000E+00 0. -1.
         24    2    1    2    0    0 -0.99443976206E+02 -0.81270363527E+01 -0.16851670405E+04  0.16900062770E+04  0.79863061235E+02 0.  0.
         25    2    1    2    0    0  0.65430093483E+00 -0.57673189207E+02 -0.16879148911E+02  0.13877796692E+03  0.12509114106E+03 0.  0.
        -24    2    1    2    0    0  0.98789675271E+02  0.65800225560E+02  0.21413739965E+03  0.25703659277E+03  0.78255443701E+02 0.  0.
        -11    1    3    3    0    0 -0.96387339852E+02 -0.33423785361E+02 -0.12994250172E+04  0.13034235858E+04  0.00000000000E+00 0.  1.
         12    1    3    3    0    0 -0.30566363537E+01  0.25296749008E+02 -0.38574202337E+03  0.38658269119E+03  0.00000000000E+00 0. -1.
         11    1    5    5    0    0  0.56225894087E+02  0.77523540274E+02  0.16657714932E+03  0.19214368878E+03  0.00000000000E+00 0. -1.
        -12    1    5    5    0    0  0.42563781184E+02 -0.11723314714E+02  0.47560250335E+02  0.64892903992E+02  0.00000000000E+00 0.  1.
          5    1    4    4  501    0  0.12065571167E+02  0.49427209782E+01 -0.60158178202E+02  0.61696736566E+02  0.41800000000E+01 0.  1.
         -5    1    4    4    0  501 -0.11411270233E+02 -0.62615910185E+02  0.43279029292E+02  0.77081230355E+02  0.41800000000E+01 0.  1.
</event>
<event>
11    1  0.8037748E-009  0.1431090E+03  0.7561462E-02  0.1104135E+00
         22   -1    0    0    0    0  0.00000000000E+00  0.00000000000E+00  0.12799775466E+03  0.12799775466E+03  0.00000000000E+00 0.  1.
         22   -1    0    0    0    0 -0.00000000000E+00 -0.00000000000E+00 -0.47468808315E+03  0.47468808315E+03  0.00000000000E+00 0. -1.
         24    2    1    2    0    0 -0.25707986766E+02  0.52377726862E+01 -0.22333413193E+03  0.23869775761E+03  0.80063413336E+02 0.  0.
         25    2    1    2    0    0  0.11918197541E+02  0.64075607149E+02 -0.19113561452E+03  0.23754792198E+03  0.12509382573E+03 0.  0.
        -24    2    1    2    0    0  0.13789789224E+02 -0.69313379835E+02  0.67779417957E+02  0.12644015822E+03  0.79991006998E+02 0.  0.
        -13    1    3    3    0    0 -0.52998673316E+02  0.61736732814E+01 -0.17749626878E+03  0.18534265306E+03  0.00000000000E+00 0.  1.
         14    1    3    3    0    0  0.27290686550E+02 -0.93590059516E+00 -0.45837863154E+02  0.53355104544E+02  0.00000000000E+00 0. -1.
         13    1    5    5    0    0 -0.16845481432E+02 -0.19714473141E+02  0.62785075826E+02  0.67929348903E+02  0.00000000000E+00 0. -1.
        -14    1    5    5    0    0  0.30635270656E+02 -0.49598906694E+02  0.49943421315E+01  0.58510809316E+02  0.00000000000E+00 0.  1.
          5    1    4    4  501    0 -0.75838597055E+01  0.88727745434E+02 -0.72980859471E+02  0.11521200453E+03  0.41800000000E+01 0. -1.
         -5    1    4    4    0  501  0.19502057247E+02 -0.24652138285E+02 -0.11815475505E+03  0.12233591746E+03  0.41800000000E+01 0. -1.
</event>
<event>
11    1  0.8037748E-009  0.1567311E+03  0.7561462E-02  0.1090193E+00
         22   -1    0    0    0    0  0.00000000000E+00  0.00000000000E+00  0.15437480085E+04  0.15437480085E+04  0.00000000000E+00 0. -1.
         22   -1    0    0    0    0 -0.00000000000E+00 -0.00000000000E+00 -0.22638331393E+04  0.22638331393E+04  0.00000000000E+00 0.  1.
         24    2    1    2    0    0  0.14571419206E+02 -0.37232243125E+02 -0.22289500327E+04  0.22310940756E+04  0.89241020621E+02 0.  0.
         25    2    1    2    0    0 -0.98037405348E+02  0.75608962787E+02  0.21968671564E+03  0.28151482134E+03  0.12514109438E+03 0.  0.
        -24    2    1    2    0    0  0.83465986142E+02 -0.38376719662E+02  0.12891781862E+04  0.12949722509E+04  0.80829395490E+02 0.  0.
        -13    1    3    3    0    0  0.38719988075E+02  0.13965424962E+02 -0.96055207669E+03  0.96143359761E+03  0.00000000000E+00 0.  1.
         14    1    3    3    0    0 -0.24148568869E+02 -0.51197668087E+02 -0.12683979560E+04  0.12696604780E+04  0.00000000000E+00 0. -1.
         13    1    5    5    0    0 -0.65704966486E+01 -0.14808765455E+02  0.50970383201E+03  0.50996124101E+03  0.00000000000E+00 0. -1.
        -14    1    5    5    0    0  0.90036482791E+02 -0.23567954206E+02  0.77947435422E+03  0.78501100985E+03  0.00000000000E+00 0.  1.
          5    1    4    4  501    0  0.17757902476E+02  0.45902675657E+02  0.10386441006E+03  0.11501168119E+03  0.41800000000E+01 0. -1.
         -5    1    4    4    0  501 -0.11579530782E+03  0.29706287130E+02  0.11582230558E+03  0.16650314015E+03  0.41800000000E+01 0. -1.
</event>
<event>
11    1  0.8037748E-009  0.1938906E+03  0.7561462E-02  0.1058930E+00
         22   -1    0    0    0    0  0.00000000000E+00  0.00000000000E+00  0.22243124137E+04  0.22243124137E+04  0.00000000000E+00 0. -1.
         22   -1    0    0    0    0 -0.00000000000E+00 -0.00000000000E+00 -0.41152483486E+03  0.41152483486E+03  0.00000000000E+00 0. -1.
         24    2    1    2    0    0  0.10980596712E+03  0.96316747682E+02 -0.34330951055E+03  0.38140057918E+03  0.79187849235E+02 0.  0.
         25    2    1    2    0    0 -0.10494031414E+03 -0.14558240827E+03  0.20099774378E+03  0.29707815397E+03  0.12509448201E+03 0.  0.
        -24    2    1    2    0    0 -0.48656529831E+01  0.49265660593E+02  0.19550993456E+04  0.19573585154E+04  0.79925757666E+02 0.  0.
        -13    1    3    3    0    0  0.76631841225E+01 -0.98980086453E+01 -0.72814023294E+01  0.14481498055E+02  0.00000000000E+00 0.  1.
         14    1    3    3    0    0  0.10214278300E+03  0.10621475633E+03 -0.33602810822E+03  0.36691908113E+03  0.00000000000E+00 0. -1.
         13    1    5    5    0    0  0.18575338887E+02  0.62041123214E+02  0.15698677803E+04  0.15712030396E+04  0.00000000000E+00 0. -1.
        -14    1    5    5    0    0 -0.23440991871E+02 -0.12775462621E+02  0.38523156530E+03  0.38615547575E+03  0.00000000000E+00 0.  1.
          5    1    4    4  501    0 -0.73998758891E+02 -0.11530981521E+03  0.60190819703E+02  0.14970830630E+03  0.41800000000E+01 0. -1.
         -5    1    4    4    0  501 -0.30941555246E+02 -0.30272593069E+02  0.14080692408E+03  0.14736984766E+03  0.41800000000E+01 0. -1.
</event>
<event>
11    1  0.8037748E-009  0.1478947E+03  0.7561462E-02  0.1099050E+00
         22   -1    0    0    0    0  0.00000000000E+00  0.00000000000E+00  0.75591255018E+03  0.75591255018E+03  0.00000000000E+00 0.  1.
         22   -1    0    0    0    0 -0.00000000000E+00 -0.00000000000E+00 -0.28644743666E+04  0.28644743666E+04  0.00000000000E+00 0. -1.
         24    2    1    2    0    0  0.12484051760E+02 -0.77337571871E+02 -0.27197111428E+04  0.27219180016E+04  0.76628685568E+02 0.  0.
         25    2    1    2    0    0 -0.21919098514E+02  0.99865212310E+02 -0.94997287070E+02  0.18742149295E+03  0.12509525954E+03 0.  0.
        -24    2    1    2    0    0  0.94350467534E+01 -0.22527640439E+02  0.70614661343E+03  0.71104742228E+03  0.79679874383E+02 0.  0.
        -11    1    3    3    0    0 -0.24233770606E+02 -0.10210608861E+01 -0.49179077177E+03  0.49238854719E+03  0.00000000000E+00 0.  1.
         12    1    3    3    0    0  0.36717822366E+02 -0.76316510985E+02 -0.22279203710E+04  0.22295294544E+04  0.00000000000E+00 0. -1.
         11    1    5    5    0    0 -0.72583552314E+01 -0.28413703953E+02  0.90221597905E+02  0.94868113830E+02  0.00000000000E+00 0. -1.
        -12    1    5    5    0    0  0.16693401985E+02  0.58860635147E+01  0.61592501552E+03  0.61617930845E+03  0.00000000000E+00 0.  1.
          5    1    4    4  501    0  0.48740606160E+02  0.15588258854E+02 -0.34145167580E+02  0.61660403599E+02  0.41800000000E+01 0.  1.
         -5    1    4    4    0  501 -0.70659704673E+02  0.84276953456E+02 -0.60852119490E+02  0.12576108935E+03  0.41800000000E+01 0.  1.
</event>
<event>
11    1  0.8037748E-009  0.1381139E+03  0.7561462E-02  0.1109683E+00
         22   -1    0    0    0    0  0.00000000000E+00  0.00000000000E+00  0.15387575493E+04  0.15387575493E+04  0.00000000000E+00 0.  1.
         22   -1    0    0    0    0 -0.00000000000E+00 -0.00000000000E+00 -0.54224068325E+03  0.54224068325E+03  0.00000000000E+00 0.  1.
        -24    2    1    2    0    0 -0.26683313506E+02 -0.25550060017E+02 -0.48362108072E+03  0.49108763542E+03  0.76895456000E+02 0.  0.
         25    2    1    2    0    0  0.21833462926E+01  0.78320484738E+02  0.49131300664E+02  0.15556249062E+03  0.12508772303E+03 0.  0.
         24    2    1    2    0    0  0.24499967213E+02 -0.52770424721E+02  0.14310066461E+04  0.14343481065E+04  0.78673396412E+02 0.  0.
        -11    1    5    5    0    0  0.46585988915E+02 -0.24112474970E+02  0.11228604673E+04  0.11240850923E+04  0.00000000000E+00 0.  1.
         12    1    5    5    0    0 -0.22086021701E+02 -0.28657949751E+02  0.30814617878E+03  0.31026301413E+03  0.00000000000E+00 0. -1.
         13    1    3    3    0    0  0.86835310646E+01  0.17336744880E+02 -0.45571303046E+02  0.49524843221E+02  0.00000000000E+00 0. -1.
        -14    1    3    3    0    0 -0.35366844571E+02 -0.42886804897E+02 -0.43804977768E+03  0.44156279220E+03  0.00000000000E+00 0.  1.
          5    1    4    4  501    0  0.42721622560E+02  0.81897864403E+02  0.63536234294E+02  0.11219056420E+03  0.41800000000E+01 0. -1.
         -5    1    4    4    0  501 -0.40538276267E+02 -0.35773796651E+01 -0.14404933631E+02  0.43371926414E+02  0.41800000000E+01 0. -1.
</event>
<event>
11    1  0.8037748E-009  0.1695915E+03  0.7561462E-02  0.1078388E+00
         22   -1    0    0    0    0  0.00000000000E+00  0.00000000000E+00  0.46385716657E+02  0.46385716657E+02  0.00000000000E+00 0. -1.
         22   -1    0    0    0    0 -0.00000000000E+00 -0.00000000000E+00 -0.16560374922E+04  0.16560374922E+04  0.00000000000E+00 0. -1.
         24    2    1    2    0    0 -0.11221885352E+03 -0.14833796914E+02 -0.11797063120E+04  0.11883051842E+04  0.86885646398E+02 0.  0.
         25    2    1    2    0    0  0.11935742626E+03  0.14485487933E+02 -0.38650121682E+03  0.42365838704E+03  0.12508882338E+03 0.  0.
        -24    2    1    2    0    0 -0.71385727445E+01  0.34830898024E+00 -0.43444246691E+02  0.90459637617E+02  0.79021914222E+02 0.  0.
        -11    1    3    3    0    0  0.90188203216E+01  0.15215218927E+02 -0.13208359465E+03  0.13326259033E+03  0.00000000000E+00 0.  1.
         12    1    3    3    0    0 -0.12123767384E+03 -0.30049015841E+02 -0.10476227174E+04  0.10550425938E+04  0.00000000000E+00 0. -1.
         11    1    5    5    0    0 -0.11059062400E+02  0.27058142132E+02  0.97442929878E+01  0.30812289149E+02  0.00000000000E+00 0. -1.
        -12    1    5    5    0    0  0.39204896552E+01 -0.26709833152E+02 -0.53188539679E+02  0.59647348468E+02  0.00000000000E+00 0.  1.
          5    1    4    4  501    0  0.31842078187E+02  0.42069220609E+02 -0.43312874782E+02  0.68390165870E+02  0.41800000000E+01 0.  1.
         -5    1    4    4    0  501  0.87515348075E+02 -0.27583732676E+02 -0.34318834204E+03  0.35526822117E+03  0.41800000000E+01 0.  1.
</event>
<event>
11    1  0.8037748E-009  0.2782864E+03  0.7561462E-02  0.1009824E+00
         22   -1    0    0    0    0  0.00000000000E+00  0.00000000000E+00  0.32806127243E+03  0.32806127243E+03  0.00000000000E+00 0.  1.
         22   -1    0    0    0    0 -0.00000000000E+00 -0.00000000000E+00 -0.80311921039E+03  0.80311921039E+03  0.00000000000E+00 0.  1.
        -24    2    1    2    0    0 -0.16334550395E+02  0.53355718002E+02 -0.38676656409E+03  0.39855944258E+03  0.78406657801E+02 0.  0.
         25    2    1    2    0    0 -0.23284853545E+02 -0.29036777211E+03 -0.26927993925E+03  0.41595044850E+03  0.12508981749E+03 0.  0.
         24    2    1    2    0    0  0.39619403940E+02  0.23701205411E+03  0.18098856538E+03  0.31667059173E+03  0.98888785557E+02 0.  0.
        -11    1    5    5    0    0 -0.80610002843E+01  0.19728799981E+03  0.13067004927E+03  0.23677456868E+03  0.00000000000E+00 0.  1.
         12    1    5    5    0    0  0.47680404225E+02  0.39724054295E+02  0.50318516110E+02  0.79896023056E+02  0.00000000000E+00 0. -1.
         11    1    3    3    0    0  0.28079442395E+02  0.28423321936E+01 -0.13824624604E+03  0.14109769127E+03  0.00000000000E+00 0. -1.
        -12    1    3    3    0    0 -0.44413992790E+02  0.50513385808E+02 -0.24852031805E+03  0.25746175131E+03  0.00000000000E+00 0.  1.
          5    1    4    4  501    0 -0.52582287882E+02 -0.12716886999E+03 -0.18295782918E+03  0.22897130421E+03  0.41800000000E+01 0.  1.
         -5    1    4    4    0  501  0.29297434337E+02 -0.16319890212E+03 -0.86322110063E+02  0.18697914429E+03  0.41800000000E+01 0.  1.
</event>
<event>
11    1  0.8037748E-009  0.2322962E+03  0.7561462E-02  0.1033777E+00
         22   -1    0    0    0    0  0.00000000000E+00  0.00000000000E+00  0.50128826725E+03  0.50128826725E+03  0.00000000000E+00 0. -1.
         22   -1    0    0    0    0 -0.00000000000E+00 -0.00000000000E+00 -0.24356554764E+03  0.24356554764E+03  0.00000000000E+00 0. -1.
        -24    2    1    2    0    0 -0.24777295517E+02  0.18929326731E+03 -0.78109489845E+02  0.22081729450E+03  0.78824677146E+02 0.  0.
         25    2    1    2    0    0  0.36757952787E+02 -0.20397218761E+03  0.80368135860E+02  0.25507399591E+03  0.12509158932E+03 0.  0.
         24    2    1    2    0    0 -0.11980657270E+02  0.14678920302E+02  0.25546407359E+03  0.26896252447E+03  0.81975239082E+02 0.  0.
        -11    1    5    5    0    0 -0.41220432767E+02 -0.18624654692E+01  0.76950118957E+02  0.87315025411E+02  0.00000000000E+00 0.  1.
         12    1    5    5    0    0  0.29239775497E+02  0.16541385771E+02  0.17851395463E+03  0.18164749906E+03  0.00000000000E+00 0. -1.
         11    1    3    3    0    0 -0.48789363497E+02  0.11815413142E+03 -0.28935215739E+02  0.13106505054E+03  0.00000000000E+00 0. -1.
        -12    1    3    3    0    0  0.24012067980E+02  0.71139135883E+02 -0.49174274105E+02  0.89752243965E+02  0.00000000000E+00 0.  1.
          5    1    4    4  501    0  0.79019529843E+02 -0.16346274700E+03  0.73749859979E+02  0.19601191290E+03  0.41800000000E+01 0. -1.
         -5    1    4    4    0  501 -0.42261577056E+02 -0.40509440613E+02  0.66182758809E+01  0.59062083012E+02  0.41800000000E+01 0. -1.
</event>
<event>
11    1  0.8037748E-009  0.2272496E+03  0.7561462E-02  0.1036769E+00
         22   -1    0    0    0    0  0.00000000000E+00  0.00000000000E+00  0.25862256360E+03  0.25862256360E+03  0.00000000000E+00 0. -1.
         22   -1    0    0    0    0 -0.00000000000E+00 -0.00000000000E+00 -0.12983599805E+04  0.12983599805E+04  0.00000000000E+00 0.  1.
        -24    2    1    2    0    0 -0.23881897241E+02 -0.34281115826E+02 -0.10902063121E+04  0.10959712355E+04  0.10419983738E+03 0.  0.
         25    2    1    2    0    0 -0.84777729058E+02 -0.13730659707E+03 -0.64776244425E+02  0.21420406194E+03  0.12508818236E+03 0.  0.
         24    2    1    2    0    0  0.10865962630E+03  0.17158771290E+03  0.11524513960E+03  0.24680724671E+03  0.79894412973E+02 0.  0.
        -13    1    5    5    0    0  0.11712444960E+02 -0.71407508356E+01  0.14319820476E+01  0.13792108686E+02  0.00000000000E+00 0.  1.
         14    1    5    5    0    0  0.96947181339E+02  0.17872846373E+03  0.11381315755E+03  0.23301513803E+03  0.00000000000E+00 0. -1.
         13    1    3    3    0    0 -0.56193198797E+02 -0.50890222475E+02 -0.76044727085E+03  0.76421694700E+03  0.00000000000E+00 0. -1.
        -14    1    3    3    0    0  0.32311301556E+02  0.16609106649E+02 -0.32975904127E+03  0.33175428849E+03  0.00000000000E+00 0.  1.
          5    1    4    4  501    0 -0.56309213940E+02 -0.15145029624E+03 -0.25709972975E+02  0.16366549702E+03  0.41800000000E+01 0. -1.
         -5    1    4    4    0  501 -0.28468515118E+02  0.14143699167E+02 -0.39066271450E+02  0.50538564920E+02  0.41800000000E+01 0. -1.
</event>
<event>
11    1  0.8037748E-009  0.1354587E+03  0.7561462E-02  0.1112738E+00
         22   -1    0    0    0    0  0.00000000000E+00  0.00000000000E+00  0.14502516758E+04  0.14502516758E+04  0.00000000000E+00 0. -1.
         22   -1    0    0    0    0 -0.00000000000E+00 -0.00000000000E+00 -0.16205610010E+04  0.16205610010E+04  0.00000000000E+00 0.  1.
         24    2    1    2    0    0  0.61247038183E+01  0.51997660576E+02 -0.15703788462E+04  0.15733568180E+04  0.81367608049E+02 0.  0.
         25    2    1    2    0    0  0.13631793459E+02 -0.31547878751E+02  0.41425140369E+02  0.13617550832E+03  0.12508649953E+03 0.  0.
        -24    2    1    2    0    0 -0.19756497277E+02 -0.20449781825E+02  0.13586443806E+04  0.13612803504E+04  0.79756671766E+02 0.  0.
        -13    1    3    3    0    0 -0.33712296005E+02  0.37215391571E+01 -0.49916879568E+03  0.50031975310E+03  0.00000000000E+00 0.  1.
         14    1    3    3    0    0  0.39836999824E+02  0.48276121419E+02 -0.10712100505E+04  0.10730370649E+04  0.00000000000E+00 0. -1.
         13    1    5    5    0    0 -0.29287637982E+02  0.21713431084E+02  0.85764155483E+03  0.85841614349E+03  0.00000000000E+00 0. -1.
        -14    1    5    5    0    0  0.95311407053E+01 -0.42163212909E+02  0.50100282581E+03  0.50286420695E+03  0.00000000000E+00 0.  1.
          5    1    4    4  501    0  0.15085271164E+02 -0.31749694348E+02  0.85156158605E+02  0.92220671466E+02  0.41800000000E+01 0.  1.
         -5    1    4    4    0  501 -0.14534777049E+01  0.20181559656E+00 -0.43731018236E+02  0.43954836855E+02  0.41800000000E+01 0.  1.
</event>
<event>
11    1  0.8037748E-009  0.1485118E+03  0.7561462E-02  0.1098409E+00
         22   -1    0    0    0    0  0.00000000000E+00  0.00000000000E+00  0.27072771745E+03  0.27072771745E+03  0.00000000000E+00 0. -1.
         22   -1    0    0    0    0 -0.00000000000E+00 -0.00000000000E+00 -0.28344619290E+03  0.28344619290E+03  0.00000000000E+00 0. -1.
         24    2    1    2    0    0 -0.11314423789E+03  0.63794618342E+00 -0.16340744728E+03  0.22062855881E+03  0.95775474906E+02 0.  0.
         25    2    1    2    0    0 -0.10242998507E+01  0.43212716983E+02  0.13459698855E+02  0.13303018152E+03  0.12508987810E+03 0.  0.
        -24    2    1    2    0    0  0.11416853774E+03 -0.43850663167E+02  0.13722927297E+03  0.20051517001E+03  0.80106955835E+02 0.  0.
        -11    1    3    3    0    0 -0.23726400898E+02  0.39543565061E+02 -0.28654425716E+02  0.54292833324E+02  0.00000000000E+00 0.  1.
         12    1    3    3    0    0 -0.89417836994E+02 -0.38905618877E+02 -0.13475302156E+03  0.16633572549E+03  0.00000000000E+00 0. -1.
         11    1    5    5    0    0  0.18516734200E+02 -0.12166229269E+02  0.83364545591E+02  0.86258530255E+02  0.00000000000E+00 0. -1.
        -12    1    5    5    0    0  0.95651803542E+02 -0.31684433898E+02  0.53864727382E+02  0.11425663976E+03  0.00000000000E+00 0.  1.
          5    1    4    4  501    0  0.53601837176E+02  0.22282523073E+02  0.37944993803E+02  0.69476346607E+02  0.41800000000E+01 0.  1.
         -5    1    4    4    0  501 -0.54626137027E+02  0.20930193910E+02 -0.24485294948E+02  0.63553834914E+02  0.41800000000E+01 0.  1.
</event>
<event>
11    1  0.8037748E-009  0.1316893E+03  0.7561462E-02  0.1117211E+00
         22   -1    0    0    0    0  0.00000000000E+00  0.00000000000E+00  0.33876972815E+03  0.33876972815E+03  0.00000000000E+00 0. -1.
         22   -1    0    0    0    0 -0.00000000000E+00 -0.00000000000E+00 -0.80407357248E+03  0.80407357248E+03  0.00000000000E+00 0.  1.
        -24    2    1    2    0    0  0.14127641830E+02 -0.37527786670E+02 -0.73372563958E+03  0.73985137622E+03  0.86132570437E+02 0.  0.
         25    2    1    2    0    0 -0.20309107928E+02  0.68616864924E+02  0.27130993975E+02  0.14664376593E+03  0.12509024437E+03 0.  0.
         24    2    1    2    0    0  0.61814660973E+01 -0.31089078254E+02  0.24129080127E+03  0.25634815847E+03  0.80550519936E+02 0.  0.
        -11    1    5    5    0    0 -0.61693058678E+00  0.14540210238E+02  0.46878983503E+01  0.15289692870E+02  0.00000000000E+00 0.  1.
         12    1    5    5    0    0  0.67983966840E+01 -0.45629288492E+02  0.23660290292E+03  0.24105846560E+03  0.00000000000E+00 0. -1.
         13    1    3    3    0    0 -0.36423798114E+01 -0.46335108814E+02 -0.18437923809E+03  0.19014708169E+03  0.00000000000E+00 0. -1.
        -14    1    3    3    0    0  0.17770021642E+02  0.88073221442E+01 -0.54934640149E+03  0.54970429453E+03  0.00000000000E+00 0.  1.
          5    1    4    4  501    0 -0.16519470938E+02 -0.35028241326E+02  0.16495246789E+02  0.42301727826E+02  0.41800000000E+01 0.  1.
         -5    1    4    4    0  501 -0.37896369896E+01  0.10364510625E+03  0.10635747186E+02  0.10434203811E+03  0.41800000000E+01 0.  1.
</event>
<event>
11    1  0.8037748E-009  0.1271695E+03  0.7561462E-02  0.1122796E+00
         22   -1    0    0    0    0  0.00000000000E+00  0.00000000000E+00  0.18256347449E+03  0.18256347449E+03  0.00000000000E+00 0. -1.
         22   -1    0    0    0    0 -0.00000000000E+00 -0.00000000000E+00 -0.10139013747E+04  0.10139013747E+04  0.00000000000E+00 0. -1.
         24    2    1    2    0    0 -0.24865348527E+02  0.25764533957E+01 -0.50142029458E+03  0.50853800109E+03  0.81016437060E+02 0.  0.
         25    2    1    2    0    0  0.13592667232E+02 -0.20556086488E+02 -0.49058258022E+03  0.50687905398E+03  0.12509114298E+03 0.  0.
        -24    2    1    2    0    0  0.11272681295E+02  0.17979633092E+02  0.16066497459E+03  0.18104779411E+03  0.80713872073E+02 0.  0.
        -13    1    3    3    0    0 -0.13056402436E+02  0.24496943595E+02 -0.56792540314E+02  0.63213626105E+02  0.00000000000E+00 0.  1.
         14    1    3    3    0    0 -0.11808946091E+02 -0.21920490199E+02 -0.44462775426E+03  0.44532437499E+03  0.00000000000E+00 0. -1.
         13    1    5    5    0    0  0.24814450205E+02 -0.77690324108E+01  0.14631717584E+03  0.14860965901E+03  0.00000000000E+00 0. -1.
        -14    1    5    5    0    0 -0.13541768910E+02  0.25748665503E+02  0.14347798741E+02  0.32438135105E+02  0.00000000000E+00 0.  1.
          5    1    4    4  501    0  0.64903933615E+02  0.81472390862E+01 -0.20305780890E+03  0.21337489135E+03  0.41800000000E+01 0. -1.
         -5    1    4    4    0  501 -0.51311266383E+02 -0.28703325574E+02 -0.28752477132E+03  0.29350416263E+03  0.41800000000E+01 0. -1.
</event>
<event>
11    1  0.8037748E-009  0.1475153E+03  0.7561462E-02  0.1099445E+00
         22   -1    0    0    0    0  0.00000000000E+00  0.00000000000E+00  0.18313826890E+03  0.18313826890E+03  0.00000000000E+00 0.  1.
         22   -1    0    0    0    0 -0.00000000000E+00 -0.00000000000E+00 -0.25821342683E+04  0.25821342683E+04  0.00000000000E+00 0.  1.
         24    2    1    2    0    0 -0.40095250285E+02  0.79374997071E-01 -0.20124406666E+04  0.20144605138E+04  0.80784218983E+02 0.  0.
         25    2    1    2    0    0  0.10436998067E+03  0.42510473494E+02 -0.53752105295E+03  0.56327397576E+03  0.12509378958E+03 0.  0.
        -24    2    1    2    0    0 -0.64274730382E+02 -0.42589848491E+02  0.15096572006E+03  0.18753804762E+03  0.80216796940E+02 0.  0.
        -13    1    3    3    0    0 -0.61680074513E+02 -0.65649410833E+01 -0.17326087554E+04  0.17337187284E+04  0.00000000000E+00 0.  1.
         14    1    3    3    0    0  0.21584824227E+02  0.66443160804E+01 -0.27983191117E+03  0.28074178542E+03  0.00000000000E+00 0. -1.
         11    1    5    5    0    0 -0.18570758311E+02 -0.57147930244E+02  0.10569360244E+03  0.12158082329E+03  0.00000000000E+00 0. -1.
        -12    1    5    5    0    0 -0.45703972071E+02  0.14558081753E+02  0.45272117628E+02  0.65957224335E+02  0.00000000000E+00 0.  1.
          5    1    4    4  501    0  0.69929230211E+01  0.42904659678E+02 -0.34229512247E+03  0.34506975246E+03  0.41800000000E+01 0. -1.
         -5    1    4    4    0  501  0.97377057646E+02 -0.39418618431E+00 -0.19522593048E+03  0.21820422331E+03  0.41800000000E+01 0. -1.
</event>
<event>
11    1  0.8037748E-009  0.1568144E+03  0.7561462E-02  0.1090112E+00
         22   -1    0    0    0    0  0.00000000000E+00  0.00000000000E+00  0.52814148351E+03  0.52814148351E+03  0.00000000000E+00 0. -1.
         22   -1    0    0    0    0 -0.00000000000E+00 -0.00000000000E+00 -0.26957617786E+03  0.26957617786E+03  0.00000000000E+00 0. -1.
        -24    2    1    2    0    0  0.50383002669E+02 -0.88951603582E+02 -0.19571230856E+03  0.23525604781E+03  0.81186609551E+02 0.  0.
         25    2    1    2    0    0  0.39836808921E+01  0.63197888126E+02  0.57635101728E+02  0.15158901399E+03  0.12509029312E+03 0.  0.
         24    2    1    2    0    0 -0.54366683561E+02  0.25753715457E+02  0.39664251248E+03  0.41087259958E+03  0.88724406073E+02 0.  0.
        -13    1    5    5    0    0  0.10565147626E+02  0.57622897597E+01  0.44371694808E+01  0.12826332314E+02  0.00000000000E+00 0.  1.
         14    1    5    5    0    0 -0.64931831187E+02  0.19991425697E+02  0.39220534300E+03  0.39804626726E+03  0.00000000000E+00 0. -1.
         13    1    3    3    0    0  0.49238043297E+02 -0.14890194119E+02 -0.11340993673E+03  0.12453078551E+03  0.00000000000E+00 0. -1.
        -14    1    3    3    0    0  0.11449593717E+01 -0.74061409463E+02 -0.82302371826E+02  0.11072526230E+03  0.00000000000E+00 0.  1.
          5    1    4    4  501    0 -0.34308187559E+02 -0.10116914580E+02 -0.17254315972E+02  0.39932286610E+02  0.41800000000E+01 0.  1.
         -5    1    4    4    0  501  0.38291868451E+02  0.73314802706E+02  0.74889417700E+02  0.11165672738E+03  0.41800000000E+01 0.  1.
</event>
<event>
11    1  0.8037748E-009  0.1482244E+03  0.7561462E-02  0.1098707E+00
         22   -1    0    0    0    0  0.00000000000E+00  0.00000000000E+00  0.43650899178E+02  0.43650899178E+02  0.00000000000E+00 0.  1.
         22   -1    0    0    0    0 -0.00000000000E+00 -0.00000000000E+00 -0.20756714673E+04  0.20756714673E+04  0.00000000000E+00 0.  1.
         24    2    1    2    0    0  0.17044322445E+02 -0.82109512093E+02 -0.15532974518E+04  0.15576891784E+04  0.81425560782E+02 0.  0.
         25    2    1    2    0    0 -0.49885250538E+02  0.46301353144E+02 -0.43419293529E+03  0.45694884399E+03  0.12508552051E+03 0.  0.
        -24    2    1    2    0    0  0.32840928093E+02  0.35808158949E+02 -0.44530181058E+02  0.10468434408E+03  0.81333412969E+02 0.  0.
        -11    1    3    3    0    0 -0.35645596474E+01 -0.85849645344E+02 -0.14336239079E+04  0.14361964967E+04  0.00000000000E+00 0.  1.
         12    1    3    3    0    0  0.20608882092E+02  0.37401332509E+01 -0.11967354385E+03  0.12149268174E+03  0.00000000000E+00 0. -1.
         13    1    5    5    0    0 -0.42337693051E+01  0.25225895331E+02 -0.58363372745E+02  0.63722475438E+02  0.00000000000E+00 0. -1.
        -14    1    5    5    0    0  0.37074697398E+02  0.10582263618E+02  0.13833191687E+02  0.40961868642E+02  0.00000000000E+00 0.  1.
          5    1    4    4  501    0 -0.26913088539E+02 -0.39563021654E+02 -0.97397299581E+02  0.10859674665E+03  0.41800000000E+01 0. -1.
         -5    1    4    4    0  501 -0.22972161999E+02  0.85864374797E+02 -0.33679563571E+03  0.34835209734E+03  0.41800000000E+01 0. -1.
</event>
<event>
11    1  0.8037748E-009  0.1572881E+03  0.7561462E-02  0.1089656E+00
         22   -1    0    0    0    0  0.00000000000E+00  0.00000000000E+00  0.10328653177E+03  0.10328653177E+03  0.00000000000E+00 0.  1.
         22   -1    0    0    0    0 -0.00000000000E+00 -0.00000000000E+00 -0.69912358811E+03  0.69912358811E+03  0.00000000000E+00 0.  1.
        -24    2    1    2    0    0 -0.44565120257E+02  0.83979198942E+02 -0.49347622144E+03  0.50905337140E+03  0.81104858076E+02 0.  0.
         25    2    1    2    0    0  0.31323405185E+02 -0.92640313179E+02 -0.13122017768E+03  0.20598139739E+03  0.12508484201E+03 0.  0.
         24    2    1    2    0    0  0.13241715073E+02  0.86611142367E+01  0.28859342773E+02  0.87375351096E+02  0.80939683691E+02 0.  0.
        -13    1    5    5    0    0  0.16638491361E+02  0.40880733885E+02  0.32445337730E+02  0.54779318526E+02  0.00000000000E+00 0.  1.
         14    1    5    5    0    0 -0.33967762884E+01 -0.32219619648E+02 -0.35859949571E+01  0.32596032570E+02  0.00000000000E+00 0. -1.
         13    1    3    3    0    0  0.63155319010E+01 -0.38880635599E+01 -0.16672515259E+03  0.16689002213E+03  0.00000000000E+00 0. -1.
        -14    1    3    3    0    0 -0.50880652158E+02  0.87867262502E+02 -0.32675106886E+03  0.34216334927E+03  0.00000000000E+00 0.  1.
          5    1    4    4  501    0 -0.26031132046E+02 -0.96992582354E+02 -0.91804618565E+02  0.13612766529E+03  0.41800000000E+01 0. -1.
         -5    1    4    4    0  501  0.57354537231E+02  0.43522691746E+01 -0.39415559113E+02  0.69853732099E+02  0.41800000000E+01 0. -1.
</event>
<event>
11    1  0.8037748E-009  0.1366898E+03  0.7561462E-02  0.1111312E+00
         22   -1    0    0    0    0  0.00000000000E+00  0.00000000000E+00  0.35998642271E+03  0.35998642271E+03  0.00000000000E+00 0. -1.
         22   -1    0    0    0    0 -0.00000000000E+00 -0.00000000000E+00 -0.50414096894E+03  0.50414096894E+03  0.00000000000E+00 0. -1.
         24    2    1    2    0    0  0.33590997586E+02 -0.47645789553E+02 -0.40681308973E+03  0.41551394354E+03  0.61290055640E+02 0.  0.
         25    2    1    2    0    0  0.24346824641E+02  0.41318422705E+02 -0.32208013125E+02  0.13778749103E+03  0.12509219260E+03 0.  0.
        -24    2    1    2    0    0 -0.57937822227E+02  0.63273668480E+01  0.29486655663E+03  0.31082595707E+03  0.79181200777E+02 0.  0.
        -11    1    3    3    0    0  0.43740587159E+02 -0.29869961677E+02 -0.17606060970E+03  0.18385535582E+03  0.00000000000E+00 0.  1.
         12    1    3    3    0    0 -0.10149589573E+02 -0.17775827876E+02 -0.23075248003E+03  0.23165858772E+03  0.00000000000E+00 0. -1.
         13    1    5    5    0    0 -0.62540622685E+02 -0.14902278042E+02  0.27113612957E+03  0.27865428067E+03  0.00000000000E+00 0. -1.
        -14    1    5    5    0    0  0.46028004581E+01  0.21229644890E+02  0.23730427056E+02  0.32171676401E+02  0.00000000000E+00 0.  1.
          5    1    4    4  501    0  0.71534126270E+01  0.85024813879E+02 -0.11169542891E+02  0.86154636414E+02  0.41800000000E+01 0.  1.
         -5    1    4    4    0  501  0.17193412014E+02 -0.43706391174E+02 -0.21038470234E+02  0.51632854617E+02  0.41800000000E+01 0.  1.
</event>
<event>
11    1  0.8037748E-009  0.1714063E+03  0.7561462E-02  0.1076814E+00
         22   -1    0    0    0    0  0.00000000000E+00  0.00000000000E+00  0.65081467063E+03  0.65081467063E+03  0.00000000000E+00 0. -1.
         22   -1    0    0    0    0 -0.00000000000E+00 -0.00000000000E+00 -0.19286515261E+04  0.19286515261E+04  0.00000000000E+00 0.  1.
        -24    2    1    2    0    0 -0.82356237403E+02  0.83929271209E+02 -0.18652987325E+04  0.18709909968E+04  0.86262832115E+02 0.  0.
         25    2    1    2    0    0  0.94483983070E+02 -0.47687617326E+02  0.64199187408E+02  0.17598330423E+03  0.12508899153E+03 0.  0.
         24    2    1    2    0    0 -0.12127745667E+02 -0.36241653884E+02  0.52326268961E+03  0.53249189571E+03  0.91012290204E+02 0.  0.
        -11    1    5    5    0    0  0.29981358402E+02 -0.89132543935E+01  0.72722782565E+02  0.79163950505E+02  0.00000000000E+00 0.  1.
         12    1    5    5    0    0 -0.42109104070E+02 -0.27328399490E+02  0.45053990704E+03  0.45332794520E+03  0.00000000000E+00 0. -1.
         13    1    3    3    0    0  0.11298463409E+02  0.40364760239E+02 -0.46316690650E+03  0.46505972995E+03  0.00000000000E+00 0. -1.
        -14    1    3    3    0    0 -0.93654700812E+02  0.43564510970E+02 -0.14021318260E+04  0.14059312669E+04  0.00000000000E+00 0.  1.
          5    1    4    4  501    0 -0.35299518949E+01  0.35031530034E+02  0.16133486012E+02  0.38954209372E+02  0.41800000000E+01 0.  1.
         -5    1    4    4    0  501  0.98013934965E+02 -0.82719147359E+02  0.48065701397E+02  0.13702909486E+03  0.41800000000E+01 0.  1.
</event>
<event>
11    1  0.8037748E-009  0.1530556E+03  0.7561462E-02  0.1093797E+00
         22   -1    0    0    0    0  0.00000000000E+00  0.00000000000E+00  0.86331512982E+03  0.86331512982E+03  0.00000000000E+00 0. -1.
         22   -1    0    0    0    0 -0.00000000000E+00 -0.00000000000E+00 -0.70231232279E+02  0.70231232279E+02  0.00000000000E+00 0.  1.
        -24    2    1    2    0    0  0.81316012294E+02  0.94981930419E+01  0.34570112934E+02  0.11968167134E+03  0.80162960406E+02 0.  0.
         25    2    1    2    0    0 -0.11069614786E+03 -0.22936252712E+02  0.27535418695E+03  0.32287378311E+03  0.12509133748E+03 0.  0.
         24    2    1    2    0    0  0.29380135561E+02  0.13438059670E+02  0.48315959766E+03  0.49099090764E+03  0.81148633776E+02 0.  0.
        -11    1    5    5    0    0  0.18182152469E+02 -0.33063474734E+02  0.16524731279E+03  0.16950061479E+03  0.00000000000E+00 0.  1.
         12    1    5    5    0    0  0.11197983092E+02  0.46501534404E+02  0.31791228487E+03  0.32149029285E+03  0.00000000000E+00 0. -1.
         13    1    3    3    0    0 -0.98199255131E+01  0.15907584877E+02 -0.61176938941E+01  0.19669986586E+02  0.00000000000E+00 0. -1.
        -14    1    3    3    0    0  0.91135937807E+02 -0.64093918356E+01  0.40687806829E+02  0.10001168476E+03  0.00000000000E+00 0.  1.
          5    1    4    4  501    0 -0.67158125729E+02 -0.30934561180E+02  0.41628292893E+02  0.84956153962E+02  0.41800000000E+01 0. -1.
         -5    1    4    4    0  501 -0.43538022127E+02  0.79983084677E+01  0.23372589405E+03  0.23791762915E+03  0.41800000000E+01 0. -1.
</event>
<event>
11    1  0.8037748E-009  0.1827445E+03  0.7561462E-02  0.1067444E+00
         22   -1    0    0    0    0  0.00000000000E+00  0.00000000000E+00  0.28966137472E+03  0.28966137472E+03  0.00000000000E+00 0.  1.
         22   -1    0    0    0    0 -0.00000000000E+00 -0.00000000000E+00 -0.62823517590E+03  0.62823517590E+03  0.00000000000E+00 0. -1.
        -24    2    1    2    0    0 -0.34413056047E+01 -0.21158319382E+02 -0.51377057248E+03  0.52078070488E+03  0.82418592320E+02 0.  0.
         25    2    1    2    0    0 -0.11870254605E+03 -0.40966453488E+02  0.25933958523E+02  0.17913235879E+03  0.12508911628E+03 0.  0.
         24    2    1    2    0    0  0.12214385166E+03  0.62124772870E+02  0.14926281278E+03  0.21798348695E+03  0.80366693375E+02 0.  0.
        -13    1    5    5    0    0  0.95494735028E+02  0.77122372059E+02  0.93192859812E+02  0.15411688360E+03  0.00000000000E+00 0.  1.
         14    1    5    5    0    0  0.26649116628E+02 -0.14997599189E+02  0.56069952965E+02  0.63866603354E+02  0.00000000000E+00 0. -1.
         13    1    3    3    0    0  0.97789767166E+00  0.77405031029E+01 -0.45569619125E+03  0.45576297611E+03  0.00000000000E+00 0. -1.
        -14    1    3    3    0    0 -0.44192032763E+01 -0.28898822485E+02 -0.58074381235E+02  0.65017728771E+02  0.00000000000E+00 0.  1.
          5    1    4    4  501    0 -0.13257536603E+03 -0.66018079742E+02  0.24343446602E+02  0.15014889385E+03  0.41800000000E+01 0. -1.
         -5    1    4    4    0  501  0.13872819977E+02  0.25051626255E+02  0.15905119211E+01  0.28983464946E+02  0.41800000000E+01 0. -1.
</event>
<event>
11    1  0.8037748E-009  0.1314230E+03  0.7561462E-02  0.1117533E+00
         22   -1    0    0    0    0  0.00000000000E+00  0.00000000000E+00  0.30306019547E+03  0.30306019547E+03  0.00000000000E+00 0. -1.
         22   -1    0    0    0    0 -0.00000000000E+00 -0.00000000000E+00 -0.72643970663E+03  0.72643970663E+03  0.00000000000E+00 0.  1.
        -24    2    1    2    0    0 -0.68002717914E+01  0.30351826460E+02 -0.67276577600E+03  0.67821357908E+03  0.79952438541E+02 0.  0.
         25    2    1    2    0    0  0.16173344221E+02  0.14539046625E+02  0.57866557670E+02  0.13952849507E+03  0.12508677588E+03 0.  0.
         24    2    1    2    0    0 -0.93730724297E+01 -0.44890873085E+02  0.19151970717E+03  0.21175782795E+03  0.77836588360E+02 0.  0.
        -13    1    5    5    0    0  0.18679913214E+02 -0.24789587107E+01  0.65875161198E+01  0.19961957885E+02  0.00000000000E+00 0.  1.
         14    1    5    5    0    0 -0.28052985644E+02 -0.42411914375E+02  0.18493219105E+03  0.19179587006E+03  0.00000000000E+00 0. -1.
         13    1    3    3    0    0  0.28237460461E+02  0.17501620749E+02 -0.13039864544E+03  0.13456399086E+03  0.00000000000E+00 0. -1.
        -14    1    3    3    0    0 -0.35037732252E+02  0.12850205710E+02 -0.54236713055E+03  0.54364958822E+03  0.00000000000E+00 0.  1.
          5    1    4    4  501    0 -0.16268157063E+02 -0.27674862840E+02  0.76419695598E+02  0.82993934976E+02  0.41800000000E+01 0.  1.
         -5    1    4    4    0  501  0.32441501284E+02  0.42213909466E+02 -0.18553137928E+02  0.56534560093E+02  0.41800000000E+01 0.  1.
</event>
<event>
11    1  0.8037748E-009  0.2185679E+03  0.7561462E-02  0.1042118E+00
         22   -1    0    0    0    0  0.00000000000E+00  0.00000000000E+00  0.26143868492E+03  0.26143868492E+03  0.00000000000E+00 0. -1.
         22   -1    0    0    0    0 -0.00000000000E+00 -0.00000000000E+00 -0.44905761980E+03  0.44905761980E+03  0.00000000000E+00 0.  1.
         24    2    1    2    0    0  0.18770263973E+03 -0.16284751554E+02 -0.27955304131E+03  0.34632430721E+03  0.79329368846E+02 0.  0.
         25    2    1    2    0    0 -0.15624456107E+03  0.13408025259E+02 -0.41715775901E+02  0.20488807401E+03  0.12508708530E+03 0.  0.
        -24    2    1    2    0    0 -0.31458078666E+02  0.28767262949E+01  0.13364988232E+03  0.15928392350E+03  0.80691951112E+02 0.  0.
        -13    1    3    3    0    0  0.78458450124E+02  0.32155496275E+02 -0.10989693616E+03  0.13880576686E+03  0.00000000000E+00 0.  1.
         14    1    3    3    0    0  0.10924418961E+03 -0.48440247829E+02 -0.16965610515E+03  0.20751854035E+03  0.00000000000E+00 0. -1.
         13    1    5    5    0    0  0.14884968820E+02  0.19093778377E+02  0.91264370747E+02  0.94420972444E+02  0.00000000000E+00 0. -1.
        -14    1    5    5    0    0 -0.46343047487E+02 -0.16217052082E+02  0.42385511574E+02  0.64862951058E+02  0.00000000000E+00 0.  1.
          5    1    4    4  501    0 -0.11547774786E+03 -0.33165550254E+01 -0.84606313203E+02  0.14325435568E+03  0.41800000000E+01 0. -1.
         -5    1    4    4    0  501 -0.40766813212E+02  0.16724580285E+02  0.42890537303E+02  0.61633718331E+02  0.41800000000E+01 0. -1.
</event>
<event>
11    1  0.1514180E-008  0.1945909E+03  0.7561462E-02  0.1058416E+00
         22   -1    0    0    0    0  0.00000000000E+00  0.00000000000E+00  0.55335987579E+03  0.55335987579E+03  0.00000000000E+00 0. -1.
         22   -1    0    0    0    0 -0.00000000000E+00 -0.00000000000E+00 -0.10700816407E+04  0.10700816407E+04  0.00000000000E+00 0. -1.
        -24    2    1    2    0    0 -0.10519473151E+03  0.40844872429E+02 -0.66916379906E+03  0.68354797013E+03  0.81996355687E+02 0.  0.
         25    2    1    2    0    0  0.23341225915E+03  0.29948393639E+02 -0.33302406105E+03  0.42653336594E+03  0.12508995972E+03 0.  0.
         24    2    1    2    0    0 -0.12821752764E+03 -0.70793266069E+02  0.48546609516E+03  0.51336018047E+03  0.80062003668E+02 0.  0.
        -11    1    5    5    0    0 -0.10317058533E+03 -0.74997659520E+02  0.46014876814E+03  0.47749943186E+03  0.00000000000E+00 0.  1.
         12    1    5    5    0    0 -0.25046942308E+02  0.42043934517E+01  0.25317327020E+02  0.35860748608E+02  0.00000000000E+00 0. -1.
         11    1    3    3    0    0 -0.49727070256E+01 -0.18404761632E+02 -0.16594112639E+03  0.16703269289E+03  0.00000000000E+00 0. -1.
        -12    1    3    3    0    0 -0.10022202448E+03  0.59249634062E+02 -0.50322267268E+03  0.51651527724E+03  0.00000000000E+00 0.  1.
          5    1    4    4  501    0  0.83687176751E+02 -0.83730034536E+01 -0.35800804131E+02  0.91503118612E+02  0.41800000000E+01 0. -1.
         -5    1    4    4    0  501  0.14972508240E+03  0.38321397093E+02 -0.29722325691E+03  0.33503024733E+03  0.41800000000E+01 0. -1.
</event>
<event>
11    1  0.8037748E-009  0.1687689E+03  0.7561462E-02  0.1079108E+00
         22   -1    0    0    0    0  0.00000000000E+00  0.00000000000E+00  0.35274731260E+03  0.35274731260E+03  0.00000000000E+00 0.  1.
         22   -1    0    0    0    0 -0.00000000000E+00 -0.00000000000E+00 -0.30170791248E+03  0.30170791248E+03  0.00000000000E+00 0.  1.
         24    2    1    2    0    0  0.84654432471E+02  0.12148836755E+02 -0.11052936845E+03  0.16161515666E+03  0.81171118024E+02 0.  0.
         25    2    1    2    0    0 -0.16107796267E+03  0.63368528256E+02 -0.70419757583E+02  0.22487298908E+03  0.12508892249E+03 0.  0.
        -24    2    1    2    0    0  0.76423530202E+02 -0.75517365011E+02  0.23198852616E+03  0.26796707934E+03  0.80276092054E+02 0.  0.
        -11    1    3    3    0    0  0.78470540568E+02 -0.17349442094E+02 -0.10282745701E+03  0.13050714461E+03  0.00000000000E+00 0.  1.
         12    1    3    3    0    0  0.61838919026E+01  0.29498278849E+02 -0.77019114361E+01  0.31108012053E+02  0.00000000000E+00 0. -1.
         11    1    5    5    0    0  0.13176312174E+02 -0.55682650795E+02  0.16089344621E+03  0.17076555225E+03  0.00000000000E+00 0. -1.
        -12    1    5    5    0    0  0.63247218028E+02 -0.19834714216E+02  0.71095079951E+02  0.97201527095E+02  0.00000000000E+00 0.  1.
          5    1    4    4  501    0 -0.15627258890E+03  0.32026590791E+02 -0.14216962903E+02  0.16020742490E+03  0.41800000000E+01 0.  1.
         -5    1    4    4    0  501 -0.48053737714E+01  0.31341937465E+02 -0.56202794681E+02  0.64665564183E+02  0.41800000000E+01 0.  1.
</event>
<event>
11    1  0.8037748E-009  0.1381470E+03  0.7561462E-02  0.1109645E+00
         22   -1    0    0    0    0  0.00000000000E+00  0.00000000000E+00  0.72918088331E+03  0.72918088331E+03  0.00000000000E+00 0. -1.
         22   -1    0    0    0    0 -0.00000000000E+00 -0.00000000000E+00 -0.10897411634E+04  0.10897411634E+04  0.00000000000E+00 0.  1.
        -24    2    1    2    0    0 -0.26014293225E+02  0.28096363793E+02 -0.81074709094E+03  0.81648436473E+03  0.88711460763E+02 0.  0.
         25    2    1    2    0    0  0.72662735911E+01  0.28032526748E+02 -0.25674557430E+03  0.28705815814E+03  0.12508187296E+03 0.  0.
         24    2    1    2    0    0  0.18748019634E+02 -0.56128890541E+02  0.70693238514E+03  0.71537952385E+03  0.92263347995E+02 0.  0.
        -11    1    5    5    0    0 -0.10428725049E+02 -0.40024513734E+02  0.11002309348E+03  0.11754063597E+03  0.00000000000E+00 0.  1.
         12    1    5    5    0    0  0.29176744683E+02 -0.16104376807E+02  0.59690929166E+03  0.59783888788E+03  0.00000000000E+00 0. -1.
         11    1    3    3    0    0 -0.39090279615E+02  0.27712234365E+00 -0.14959913327E+03  0.15462220873E+03  0.00000000000E+00 0. -1.
        -12    1    3    3    0    0  0.13075986390E+02  0.27819241450E+02 -0.66114795767E+03  0.66186215600E+03  0.00000000000E+00 0.  1.
          5    1    4    4  501    0  0.29828584012E+01  0.73485828899E+02 -0.10306051117E+03  0.12668072409E+03  0.41800000000E+01 0.  1.
         -5    1    4    4    0  501  0.42834151899E+01 -0.45453302151E+02 -0.15368506313E+03  0.16037743405E+03  0.41800000000E+01 0.  1.
</event>
<event>
11    1  0.8037748E-009  0.2252532E+03  0.7561462E-02  0.1037976E+00
         22   -1    0    0    0    0  0.00000000000E+00  0.00000000000E+00  0.11182063438E+03  0.11182063438E+03  0.00000000000E+00 0. -1.
         22   -1    0    0    0    0 -0.00000000000E+00 -0.00000000000E+00 -0.18033330729E+04  0.18033330729E+04  0.00000000000E+00 0. -1.
         24    2    1    2    0    0 -0.14212554101E+03  0.11183477537E+03 -0.13645875602E+04  0.13788076472E+04  0.79401712795E+02 0.  0.
         25    2    1    2    0    0  0.17277454213E+03 -0.14451657515E+03 -0.35803089258E+03  0.44110070135E+03  0.12509047041E+03 0.  0.
        -24    2    1    2    0    0 -0.30649001123E+02  0.32681799786E+02  0.31106014305E+02  0.95245358733E+02  0.78080938309E+02 0.  0.
        -13    1    3    3    0    0 -0.24962804949E+02  0.15234258723E+02 -0.50970931105E+03  0.51054755512E+03  0.00000000000E+00 0.  1.
         14    1    3    3    0    0 -0.11716273606E+03  0.96600516642E+02 -0.85487824915E+03  0.86826009203E+03  0.00000000000E+00 0. -1.
         13    1    5    5    0    0 -0.42138968004E+02  0.13109577314E+02  0.49293113194E+02  0.66161655437E+02  0.00000000000E+00 0. -1.
        -14    1    5    5    0    0  0.11489966881E+02  0.19572222472E+02 -0.18187098889E+02  0.29083703296E+02  0.00000000000E+00 0.  1.
          5    1    4    4  501    0  0.17591215106E+03 -0.16209231192E+03 -0.32976430236E+03  0.40740762142E+03  0.41800000000E+01 0. -1.
         -5    1    4    4    0  501 -0.31376089292E+01  0.17575736771E+02 -0.28266590216E+02  0.33693079932E+02  0.41800000000E+01 0. -1.
</event>
<event>
11    1  0.8037748E-009  0.1467934E+03  0.7561462E-02  0.1100201E+00
         22   -1    0    0    0    0  0.00000000000E+00  0.00000000000E+00  0.10243179532E+04  0.10243179532E+04  0.00000000000E+00 0. -1.
         22   -1    0    0    0    0 -0.00000000000E+00 -0.00000000000E+00 -0.35636226260E+03  0.35636226260E+03  0.00000000000E+00 0. -1.
        -24    2    1    2    0    0  0.52319888821E+02  0.17939875910E+02 -0.29552682493E+03  0.31068151510E+03  0.78279560916E+02 0.  0.
         25    2    1    2    0    0  0.23172158544E+02 -0.43096770936E+02  0.40521478705E+02  0.14029677319E+03  0.12508762423E+03 0.  0.
         24    2    1    2    0    0 -0.75492047365E+02  0.25156895026E+02  0.92296103679E+03  0.92970192747E+03  0.78464513723E+02 0.  0.
        -13    1    5    5    0    0  0.10476860956E+02 -0.93668724839E+01  0.24992571706E+03  0.25032052845E+03  0.00000000000E+00 0.  1.
         14    1    5    5    0    0 -0.85968908321E+02  0.34523767510E+02  0.67303531973E+03  0.67938139902E+03  0.00000000000E+00 0. -1.
         11    1    3    3    0    0  0.36889307816E+02  0.36395100971E+02 -0.27249054059E+03  0.27737433032E+03  0.00000000000E+00 0. -1.
        -12    1    3    3    0    0  0.15430581004E+02 -0.18455225061E+02 -0.23036284342E+02  0.33307184788E+02  0.00000000000E+00 0.  1.
          5    1    4    4  501    0  0.40703653552E+02 -0.34356107270E+02 -0.33867435082E+02  0.63258241189E+02  0.41800000000E+01 0.  1.
         -5    1    4    4    0  501 -0.17531495008E+02 -0.87406636660E+01  0.74388913787E+02  0.77038532001E+02  0.41800000000E+01 0.  1.
</event>
<event>
11    1  0.8037748E-009  0.4063456E+03  0.7561462E-02  0.9631218E-01
         22   -1    0    0    0    0  0.00000000000E+00  0.00000000000E+00  0.13237907179E+04  0.13237907179E+04  0.00000000000E+00 0. -1.
         22   -1    0    0    0    0 -0.00000000000E+00 -0.00000000000E+00 -0.10247624425E+03  0.10247624425E+03  0.00000000000E+00 0.  1.
        -24    2    1    2    0    0 -0.30925029165E+03  0.55087245327E+02  0.45036409140E+03  0.55478474724E+03  0.79296617001E+02 0.  0.
         25    2    1    2    0    0  0.10015275434E+03 -0.80592612058E+02  0.30750692411E+03  0.35599681609E+03  0.12508989317E+03 0.  0.
         24    2    1    2    0    0  0.20909753731E+03  0.25505366731E+02  0.46344345817E+03  0.51548539886E+03  0.81074371211E+02 0.  0.
        -13    1    5    5    0    0 -0.70095576272E+01  0.48366591010E+01  0.14735930069E+02  0.17019835616E+02  0.00000000000E+00 0.  1.
         14    1    5    5    0    0  0.21610709494E+03  0.20668707630E+02  0.44870752810E+03  0.49846556324E+03  0.00000000000E+00 0. -1.
         13    1    3    3    0    0 -0.58517409895E+02 -0.12110680341E+02  0.51481414616E+02  0.78875166498E+02  0.00000000000E+00 0. -1.
        -14    1    3    3    0    0 -0.25073288175E+03  0.67197925668E+02  0.39888267678E+03  0.47590958074E+03  0.00000000000E+00 0.  1.
          5    1    4    4  501    0  0.61435724613E+02 -0.11055417836E+03  0.25113955944E+03  0.28122077684E+03  0.41800000000E+01 0. -1.
         -5    1    4    4    0  501  0.38717029722E+02  0.29961566306E+02  0.56367364665E+02  0.74776039246E+02  0.41800000000E+01 0. -1.
</event>
<event>
11    1  0.8037748E-009  0.2808364E+03  0.7561462E-02  0.1008644E+00
         22   -1    0    0    0    0  0.00000000000E+00  0.00000000000E+00  0.12241377754E+04  0.12241377754E+04  0.00000000000E+00 0. -1.
         22   -1    0    0    0    0 -0.00000000000E+00 -0.00000000000E+00 -0.69638217113E+03  0.69638217113E+03  0.00000000000E+00 0. -1.
        -24    2    1    2    0    0  0.52308293073E+02 -0.39303260871E+02 -0.58563958272E+03  0.59741850435E+03  0.98256015871E+02 0.  0.
         25    2    1    2    0    0  0.86862204204E+02 -0.18235593729E+03  0.74792621402E+02  0.24907917846E+03  0.12509104901E+03 0.  0.
         24    2    1    2    0    0 -0.13917049728E+03  0.22165919816E+03  0.10386025656E+04  0.10740222637E+04  0.79544366782E+02 0.  0.
        -11    1    5    5    0    0 -0.45284014060E+01  0.47583801291E+02  0.11449273714E+03  0.12406978448E+03  0.00000000000E+00 0.  1.
         12    1    5    5    0    0 -0.13464209587E+03  0.17407539687E+03  0.92410982842E+03  0.94995247922E+03  0.00000000000E+00 0. -1.
         11    1    3    3    0    0  0.23149396600E+01 -0.20465058041E+02 -0.46526851850E+03  0.46572413707E+03  0.00000000000E+00 0. -1.
        -12    1    3    3    0    0  0.49993353413E+02 -0.18838202830E+02 -0.12037106422E+03  0.13169436728E+03  0.00000000000E+00 0.  1.
          5    1    4    4  501    0  0.20852492648E+02 -0.83808472068E+02 -0.29217343073E+02  0.91267803612E+02  0.41800000000E+01 0. -1.
         -5    1    4    4    0  501  0.66009711556E+02 -0.98547465226E+02  0.10400996447E+03  0.15781137485E+03  0.41800000000E+01 0. -1.
</event>
<event>
11    1  0.8037748E-009  0.1430149E+03  0.7561462E-02  0.1104238E+00
         22   -1    0    0    0    0  0.00000000000E+00  0.00000000000E+00  0.21752944836E+03  0.21752944836E+03  0.00000000000E+00 0. -1.
         22   -1    0    0    0    0 -0.00000000000E+00 -0.00000000000E+00 -0.56647644593E+03  0.56647644593E+03  0.00000000000E+00 0. -1.
        -24    2    1    2    0    0  0.40486692294E+02  0.54394749304E+02 -0.46942628484E+03  0.48120723304E+03  0.81249019852E+02 0.  0.
         25    2    1    2    0    0 -0.73552462194E+02 -0.56755842855E+02  0.26992422906E+01  0.15583823799E+03  0.12508828929E+03 0.  0.
         24    2    1    2    0    0  0.33065769900E+02  0.23610935517E+01  0.11778004497E+03  0.14696042326E+03  0.81402132095E+02 0.  0.
        -11    1    5    5    0    0  0.14417406549E+02 -0.33840927850E+02  0.21946790428E+02  0.42833767280E+02  0.00000000000E+00 0.  1.
         12    1    5    5    0    0  0.18648363351E+02  0.36202021402E+02  0.95833254544E+02  0.10412665598E+03  0.00000000000E+00 0. -1.
         13    1    3    3    0    0  0.30270277429E+02  0.38707247890E+02 -0.45480871596E+03  0.45745547198E+03  0.00000000000E+00 0. -1.
        -14    1    3    3    0    0  0.10216414864E+02  0.15687501413E+02 -0.14617568877E+02  0.23751761054E+02  0.00000000000E+00 0.  1.
          5    1    4    4  501    0  0.19428552047E+02 -0.27141130431E+02 -0.37357266572E+02  0.50270740610E+02  0.41800000000E+01 0.  1.
         -5    1    4    4    0  501 -0.92981014241E+02 -0.29614712424E+02  0.40056508862E+02  0.10556749738E+03  0.41800000000E+01 0.  1.
</event>
<event>
11    1  0.8037748E-009  0.1621896E+03  0.7561462E-02  0.1085036E+00
         22   -1    0    0    0    0  0.00000000000E+00  0.00000000000E+00  0.11618310391E+03  0.11618310391E+03  0.00000000000E+00 0. -1.
         22   -1    0    0    0    0 -0.00000000000E+00 -0.00000000000E+00 -0.19776668983E+04  0.19776668983E+04  0.00000000000E+00 0.  1.
        -24    2    1    2    0    0  0.41349277143E+01 -0.60135307324E+01 -0.12470288493E+04  0.12498009633E+04  0.82874826125E+02 0.  0.
         25    2    1    2    0    0 -0.29424894599E+02 -0.94360257602E+02 -0.67794289724E+03  0.69643709985E+03  0.12509348302E+03 0.  0.
         24    2    1    2    0    0  0.25289966884E+02  0.10037378833E+03  0.63487952177E+02  0.14761193899E+03  0.83929045339E+02 0.  0.
        -11    1    5    5    0    0 -0.12366180686E+01  0.78751256751E+02  0.38532273285E+01  0.78855164859E+02  0.00000000000E+00 0.  1.
         12    1    5    5    0    0  0.26526584953E+02  0.21622531584E+02  0.59634724849E+02  0.68756774133E+02  0.00000000000E+00 0. -1.
         13    1    3    3    0    0  0.35106837157E+02  0.55147024421E+00 -0.27181428236E+03  0.27407261488E+03  0.00000000000E+00 0. -1.
        -14    1    3    3    0    0 -0.30971909443E+02 -0.65650009766E+01 -0.97521456693E+03  0.97572834845E+03  0.00000000000E+00 0.  1.
          5    1    4    4  501    0 -0.20787556180E+02 -0.21254072118E+02 -0.24232697062E+02  0.38581784309E+02  0.41800000000E+01 0. -1.
         -5    1    4    4    0  501 -0.86373384188E+01 -0.73106185484E+02 -0.65371020018E+03  0.65785531554E+03  0.41800000000E+01 0. -1.
</event>
<event>
11    1  0.8037748E-009  0.1432807E+03  0.7561462E-02  0.1103949E+00
         22   -1    0    0    0    0  0.00000000000E+00  0.00000000000E+00  0.21711786804E+03  0.21711786804E+03  0.00000000000E+00 0. -1.
         22   -1    0    0    0    0 -0.00000000000E+00 -0.00000000000E+00 -0.14775283216E+04  0.14775283216E+04  0.00000000000E+00 0. -1.
         24    2    1    2    0    0  0.43301776123E+02 -0.12390007461E+02 -0.13653950601E+04  0.13684872383E+04  0.80156690475E+02 0.  0.
         25    2    1    2    0    0  0.32118962853E+02  0.14776176427E+02 -0.51718048452E+02  0.13995480256E+03  0.12515041774E+03 0.  0.
        -24    2    1    2    0    0 -0.75420738976E+02 -0.23861689655E+01  0.15670265506E+03  0.18620414875E+03  0.66500234878E+02 0.  0.
        -13    1    3    3    0    0  0.32507015397E+02 -0.36474725249E+02 -0.43798315431E+03  0.44069984694E+03  0.00000000000E+00 0.  1.
         14    1    3    3    0    0  0.10794760726E+02  0.24084717787E+02 -0.92741190583E+03  0.92778739136E+03  0.00000000000E+00 0. -1.
         11    1    5    5    0    0 -0.83854771152E+02  0.49633891528E+01  0.15277848253E+03  0.17434885317E+03  0.00000000000E+00 0. -1.
        -12    1    5    5    0    0  0.84340321762E+01 -0.73495581183E+01  0.39241725299E+01  0.11855295582E+02  0.00000000000E+00 0.  1.
          5    1    4    4  501    0 -0.43497748265E+02  0.20275532144E+02 -0.41023855557E+02  0.63273852677E+02  0.41800000000E+01 0. -1.
         -5    1    4    4    0  501  0.75616711118E+02 -0.54993557174E+01 -0.10694192895E+02  0.76680949885E+02  0.41800000000E+01 0. -1.
</event>
<event>
11    1  0.8037748E-009  0.1264937E+03  0.7561462E-02  0.1123654E+00
         22   -1    0    0    0    0  0.00000000000E+00  0.00000000000E+00  0.44320943073E+03  0.44320943073E+03  0.00000000000E+00 0. -1.
         22   -1    0    0    0    0 -0.00000000000E+00 -0.00000000000E+00 -0.36777278876E+03  0.36777278876E+03  0.00000000000E+00 0.  1.
         24    2    1    2    0    0  0.10927976301E+02 -0.61442239834E+01 -0.23685910514E+03  0.25040393692E+03  0.80266579475E+02 0.  0.
         25    2    1    2    0    0 -0.16832928147E+02  0.23658348218E+02 -0.85598153625E+02  0.15432886198E+03  0.12508912354E+03 0.  0.
        -24    2    1    2    0    0  0.59049518458E+01 -0.17514124234E+02  0.39789390073E+03  0.40624942059E+03  0.79858765869E+02 0.  0.
        -11    1    3    3    0    0  0.10024478700E+02 -0.43060934528E+02 -0.12286297993E+03  0.13057582507E+03  0.00000000000E+00 0.  1.
         12    1    3    3    0    0  0.90349760123E+00  0.36916710545E+02 -0.11399612521E+03  0.11982811184E+03  0.00000000000E+00 0. -1.
         13    1    5    5    0    0  0.35465676727E+02 -0.32912856339E+02  0.25107916359E+03  0.25569868347E+03  0.00000000000E+00 0. -1.
        -14    1    5    5    0    0 -0.29560724882E+02  0.15398732105E+02  0.14681473714E+03  0.15055073712E+03  0.00000000000E+00 0.  1.
          5    1    4    4  501    0 -0.38473507935E+02  0.32256888338E+02  0.13733393685E+02  0.52218733805E+02  0.41800000000E+01 0. -1.
         -5    1    4    4    0  501  0.21640579788E+02 -0.85985401208E+01 -0.99331547310E+02  0.10211012818E+03  0.41800000000E+01 0. -1.
</event>
<event>
11    1  0.8037748E-009  0.2517954E+03  0.7561462E-02  0.1022947E+00
         22   -1    0    0    0    0  0.00000000000E+00  0.00000000000E+00  0.10380575090E+04  0.10380575090E+04  0.00000000000E+00 0.  1.
         22   -1    0    0    0    0 -0.00000000000E+00 -0.00000000000E+00 -0.27672825466E+03  0.27672825466E+03  0.00000000000E+00 0. -1.
        -24    2    1    2    0    0 -0.71846830620E+01 -0.72950114755E+02 -0.16484362180E+03  0.19769584564E+03  0.80851028570E+02 0.  0.
         25    2    1    2    0    0 -0.64137689064E+02  0.26695151249E+03  0.21161017249E+03  0.36851382281E+03  0.12508724685E+03 0.  0.
         24    2    1    2    0    0  0.71322372126E+02 -0.19400139773E+03  0.71456270360E+03  0.74857609516E+03  0.83921926675E+02 0.  0.
        -13    1    5    5    0    0  0.69480022919E+02 -0.18767694335E+03  0.57450311893E+03  0.60836168708E+03  0.00000000000E+00 0.  1.
         14    1    5    5    0    0  0.18423492070E+01 -0.63244543864E+01  0.14005958468E+03  0.14021440808E+03  0.00000000000E+00 0. -1.
         11    1    3    3    0    0 -0.66377319653E+01 -0.79878615795E+02 -0.82379135436E+02  0.11493900427E+03  0.00000000000E+00 0. -1.
        -12    1    3    3    0    0 -0.54695109670E+00  0.69285010396E+01 -0.82464486367E+02  0.82756841373E+02  0.00000000000E+00 0.  1.
          5    1    4    4  501    0 -0.72371362070E+01  0.56490703584E+02 -0.95886816933E+01  0.57905016610E+02  0.41800000000E+01 0. -1.
         -5    1    4    4    0  501 -0.56900552857E+02  0.21046080891E+03  0.22119885418E+03  0.31060880620E+03  0.41800000000E+01 0. -1.
</event>
<event>
11    1  0.8037748E-009  0.1348456E+03  0.7561462E-02  0.1113455E+00
         22   -1    0    0    0    0  0.00000000000E+00  0.00000000000E+00  0.25139370039E+03  0.25139370039E+03  0.00000000000E+00 0.  1.
         22   -1    0    0    0    0 -0.00000000000E+00 -0.00000000000E+00 -0.88064697973E+03  0.88064697973E+03  0.00000000000E+00 0.  1.
        -24    2    1    2    0    0  0.22344061758E+02  0.43285591728E+02 -0.69583516992E+03  0.70220654454E+03  0.80836550747E+02 0.  0.
         25    2    1    2    0    0 -0.71226152237E+02 -0.38298628498E+02 -0.13746325162E+03  0.20269206376E+03  0.12509187606E+03 0.  0.
         24    2    1    2    0    0  0.48882090479E+02 -0.49869632296E+01  0.20404514220E+03  0.22714207182E+03  0.86860647956E+02 0.  0.
        -11    1    5    5    0    0 -0.15307517106E+02 -0.12662033034E+02  0.11722956075E+03  0.11890087079E+03  0.00000000000E+00 0.  1.
         12    1    5    5    0    0  0.64189607585E+02  0.76750698048E+01  0.86815581454E+02  0.10824120104E+03  0.00000000000E+00 0. -1.
         13    1    3    3    0    0 -0.96673114055E+01  0.50486568773E+02 -0.56446879380E+03  0.56680452513E+03  0.00000000000E+00 0. -1.
        -14    1    3    3    0    0  0.32011373164E+02 -0.72009770451E+01 -0.13136637612E+03  0.13540201940E+03  0.00000000000E+00 0.  1.
          5    1    4    4  501    0  0.79739664531E+01 -0.64675564693E+02 -0.63499567577E+02  0.91083370007E+02  0.41800000000E+01 0. -1.
         -5    1    4    4    0  501 -0.79200118691E+02  0.26376936195E+02 -0.73963684044E+02  0.11160869375E+03  0.41800000000E+01 0. -1.
</event>
<event>
11    1  0.8037748E-009  0.1528214E+03  0.7561462E-02  0.1094030E+00
         22   -1    0    0    0    0  0.00000000000E+00  0.00000000000E+00  0.26028688088E+03  0.26028688088E+03  0.00000000000E+00 0. -1.
         22   -1    0    0    0    0 -0.00000000000E+00 -0.00000000000E+00 -0.58427997404E+03  0.58427997404E+03  0.00000000000E+00 0.  1.
         24    2    1    2    0    0 -0.27278769087E+02  0.34656268465E+02 -0.40864261787E+03  0.41844502468E+03  0.78500072280E+02 0.  0.
         25    2    1    2    0    0 -0.58919790083E+02 -0.58199821118E+02 -0.11782901353E+03  0.19076161193E+03  0.12509018873E+03 0.  0.
        -24    2    1    2    0    0  0.86198559170E+02  0.23543552653E+02  0.20247853824E+03  0.23536021831E+03  0.80077359085E+02 0.  0.
        -13    1    3    3    0    0 -0.22993228343E+02  0.48192446175E+02 -0.39552991760E+03  0.39911792260E+03  0.00000000000E+00 0.  1.
         14    1    3    3    0    0 -0.42855407440E+01 -0.13536177709E+02 -0.13112700267E+02  0.19327102078E+02  0.00000000000E+00 0. -1.
         13    1    5    5    0    0  0.43909428236E+02 -0.27954037928E+02  0.71930575428E+02  0.88788928397E+02  0.00000000000E+00 0. -1.
        -14    1    5    5    0    0  0.42289130934E+02  0.51497590581E+02  0.13054796281E+03  0.14657128991E+03  0.00000000000E+00 0.  1.
          5    1    4    4  501    0 -0.70507016458E+02 -0.86083660251E+02 -0.11511430133E+03  0.16015745597E+03  0.41800000000E+01 0. -1.
         -5    1    4    4    0  501  0.11587226375E+02  0.27883839133E+02 -0.27147121986E+01  0.30604155963E+02  0.41800000000E+01 0. -1.
</event>
<event>
11    1  0.8037748E-009  0.1664114E+03  0.7561462E-02  0.1081197E+00
         22   -1    0    0    0    0  0.00000000000E+00  0.00000000000E+00  0.41344540765E+03  0.41344540765E+03  0.00000000000E+00 0.  1.
         22   -1    0    0    0    0 -0.00000000000E+00 -0.00000000000E+00 -0.66860909287E+03  0.66860909287E+03  0.00000000000E+00 0. -1.
         24    2    1    2    0    0  0.12243844065E+02 -0.39407047829E+02 -0.33947257618E+03  0.35133776058E+03  0.80583899737E+02 0.  0.
         25    2    1    2    0    0 -0.82100505479E+02  0.12221330959E+03 -0.28118659575E+03  0.34115895336E+03  0.12508774435E+03 0.  0.
        -24    2    1    2    0    0  0.69856661414E+02 -0.82806261762E+02  0.36549548670E+03  0.38955778658E+03  0.80196559489E+02 0.  0.
        -11    1    3    3    0    0 -0.21692933326E+02 -0.23469965818E+01 -0.22824557006E+03  0.22928613565E+03  0.00000000000E+00 0.  1.
         12    1    3    3    0    0  0.33936777391E+02 -0.37060051247E+02 -0.11122700611E+03  0.12205162492E+03  0.00000000000E+00 0. -1.
         13    1    5    5    0    0  0.11034157296E+02 -0.74027167992E+02  0.18735413405E+03  0.20175070204E+03  0.00000000000E+00 0. -1.
        -14    1    5    5    0    0  0.58822504118E+02 -0.87790937694E+01  0.17814135266E+03  0.18780708454E+03  0.00000000000E+00 0.  1.
          5    1    4    4  501    0  0.21196990973E+02  0.46880348325E+02 -0.14686609714E+03  0.15567338364E+03  0.41800000000E+01 0.  1.
         -5    1    4    4    0  501 -0.10329749645E+03  0.75332961265E+02 -0.13432049861E+03  0.18548556972E+03  0.41800000000E+01 0.  1.
</event>
<event>
11    1  0.8037748E-009  0.1807475E+03  0.7561462E-02  0.1069040E+00
         22   -1    0    0    0    0  0.00000000000E+00  0.00000000000E+00  0.22954849081E+03  0.22954849081E+03  0.00000000000E+00 0. -1.
         22   -1    0    0    0    0 -0.00000000000E+00 -0.00000000000E+00 -0.33271938959E+03  0.33271938959E+03  0.00000000000E+00 0.  1.
        -24    2    1    2    0    0 -0.11345845806E+03 -0.91383597573E+02 -0.21748838875E+03  0.27415437786E+03  0.81459438046E+02 0.  0.
         25    2    1    2    0    0  0.55900934817E+02  0.60853589713E+02  0.28524733272E+02  0.15260590128E+03  0.12508727675E+03 0.  0.
         24    2    1    2    0    0  0.57557523248E+02  0.30530007861E+02  0.85792756697E+02  0.13550760126E+03  0.82200748390E+02 0.  0.
        -11    1    5    5    0    0  0.13903070592E+02 -0.15215065895E+02 -0.82359205518E+01  0.22195134363E+02  0.00000000000E+00 0.  1.
         12    1    5    5    0    0  0.43654452656E+02  0.45745073755E+02  0.94028677249E+02  0.11331246690E+03  0.00000000000E+00 0. -1.
         13    1    3    3    0    0 -0.27805526696E+02 -0.40630769128E+02 -0.20295604990E+02  0.53253340709E+02  0.00000000000E+00 0. -1.
        -14    1    3    3    0    0 -0.85652931369E+02 -0.50752828445E+02 -0.19719278376E+03  0.22090103715E+03  0.00000000000E+00 0.  1.
          5    1    4    4  501    0  0.12391355871E+02  0.92173352221E+02  0.32697969332E+02  0.98671688738E+02  0.41800000000E+01 0. -1.
         -5    1    4    4    0  501  0.43509578946E+02 -0.31319762509E+02 -0.41732360602E+01  0.53934212545E+02  0.41800000000E+01 0. -1.
</event>
<event>
11    1  0.8037748E-009  0.1423904E+03  0.7561462E-02  0.1104918E+00
         22   -1    0    0    0    0  0.00000000000E+00  0.00000000000E+00  0.55655041291E+03  0.55655041291E+03  0.00000000000E+00 0. -1.
         22   -1    0    0    0    0 -0.00000000000E+00 -0.00000000000E+00 -0.63717377746E+03  0.63717377746E+03  0.00000000000E+00 0. -1.
        -24    2    1    2    0    0  0.42900220977E+02 -0.26078762241E+02 -0.60000143262E+03  0.60755778294E+03  0.81266288627E+02 0.  0.
         25    2    1    2    0    0  0.35330345832E+02  0.11562656911E+02  0.14465838505E+03  0.19482143452E+03  0.12508962631E+03 0.  0.
         24    2    1    2    0    0 -0.78230566808E+02  0.14516105330E+02  0.37471968302E+03  0.39134497291E+03  0.80033168649E+02 0.  0.
        -11    1    5    5    0    0 -0.70718011896E+02  0.44180426514E+01  0.14606235024E+03  0.16234151184E+03  0.00000000000E+00 0.  1.
         12    1    5    5    0    0 -0.75125549118E+01  0.10098062678E+02  0.22865733278E+03  0.22900346107E+03  0.00000000000E+00 0. -1.
         13    1    3    3    0    0  0.80843168621E+01 -0.32182526918E+01 -0.48776209283E+03  0.48783969963E+03  0.00000000000E+00 0. -1.
        -14    1    3    3    0    0  0.34815904114E+02 -0.22860509549E+02 -0.11223933978E+03  0.11971808331E+03  0.00000000000E+00 0.  1.
          5    1    4    4  501    0 -0.31596814505E+02 -0.29528335355E+02  0.20962437465E+02  0.48240827731E+02  0.41800000000E+01 0.  1.
         -5    1    4    4    0  501  0.66927160337E+02  0.41090992266E+02  0.12369594759E+03  0.14658060679E+03  0.41800000000E+01 0.  1.
</event>
<event>
11    1  0.8037748E-009  0.4990452E+03  0.7561462E-02  0.9395657E-01
         22   -1    0    0    0    0  0.00000000000E+00  0.00000000000E+00  0.10499859364E+04  0.10499859364E+04  0.00000000000E+00 0.  1.
         22   -1    0    0    0    0 -0.00000000000E+00 -0.00000000000E+00 -0.46169487492E+03  0.46169487492E+03  0.00000000000E+00 0.  1.
        -24    2    1    2    0    0  0.42307707950E+02  0.49412387173E+03 -0.20276795112E+03  0.54172741009E+03  0.80033755858E+02 0.  0.
         25    2    1    2    0    0 -0.58377381569E+02 -0.42249384537E+03  0.68939125795E+03  0.82025377191E+03  0.12508787207E+03 0.  0.
         24    2    1    2    0    0  0.16069673619E+02 -0.71630026358E+02  0.10166775467E+03  0.14969962935E+03  0.81759107149E+02 0.  0.
        -13    1    5    5    0    0 -0.20520044696E+02 -0.59188227567E+02  0.89377798050E+02  0.10914535859E+03  0.00000000000E+00 0.  1.
         14    1    5    5    0    0  0.36589718315E+02 -0.12441798791E+02  0.12289956624E+02  0.40554270766E+02  0.00000000000E+00 0. -1.
         11    1    3    3    0    0  0.61697770567E+01  0.13179948087E+03 -0.92980235049E+02  0.16141404343E+03  0.00000000000E+00 0. -1.
        -12    1    3    3    0    0  0.36137930893E+02  0.36232439085E+03 -0.10978771607E+03  0.38031336666E+03  0.00000000000E+00 0.  1.
          5    1    4    4  501    0 -0.81409931608E+02 -0.30724004559E+03  0.42357068572E+03  0.52957872010E+03  0.41800000000E+01 0.  1.
         -5    1    4    4    0  501  0.23032550039E+02 -0.11525379978E+03  0.26582057223E+03  0.29067505181E+03  0.41800000000E+01 0.  1.
</event>
<event>
11    1  0.8037748E-009  0.1364919E+03  0.7561462E-02  0.1111540E+00
         22   -1    0    0    0    0  0.00000000000E+00  0.00000000000E+00  0.45405893821E+03  0.45405893821E+03  0.00000000000E+00 0.  1.
         22   -1    0    0    0    0 -0.00000000000E+00 -0.00000000000E+00 -0.44797322387E+03  0.44797322387E+03  0.00000000000E+00 0. -1.
         24    2    1    2    0    0 -0.33961586480E+02  0.20584090264E+02 -0.39889033661E+03  0.40886831196E+03  0.80515226869E+02 0.  0.
         25    2    1    2    0    0 -0.11717446353E+02 -0.54314530730E+02  0.91021048968E+02  0.16438221046E+03  0.12509721406E+03 0.  0.
        -24    2    1    2    0    0  0.45679032833E+02  0.33730440466E+02  0.31395500197E+03  0.32878163966E+03  0.79405961090E+02 0.  0.
        -13    1    3    3    0    0  0.23138241197E+02 -0.91438896333E+01 -0.13197901148E+03  0.13430356807E+03  0.00000000000E+00 0.  1.
         14    1    3    3    0    0 -0.57099827678E+02  0.29727979897E+02 -0.26691132512E+03  0.27456474389E+03  0.00000000000E+00 0. -1.
         13    1    5    5    0    0  0.29923199806E+02 -0.57711487522E+00  0.30170311678E+02  0.42496807586E+02  0.00000000000E+00 0. -1.
        -14    1    5    5    0    0  0.15755833027E+02  0.34307555342E+02  0.28378469029E+03  0.28628483207E+03  0.00000000000E+00 0.  1.
          5    1    4    4  501    0  0.28088438304E+02 -0.38292901442E+02 -0.14961639812E+02  0.49966285964E+02  0.41800000000E+01 0. -1.
         -5    1    4    4    0  501 -0.39805884656E+02 -0.16021629289E+02  0.10598268878E+03  0.11441592450E+03  0.41800000000E+01 0. -1.
</event>
<event>
11    1  0.8037748E-009  0.1303184E+03  0.7561462E-02  0.1118878E+00
         22   -1    0    0    0    0  0.00000000000E+00  0.00000000000E+00  0.85599436053E+03  0.85599436053E+03  0.00000000000E+00 0. -1.
         22   -1    0    0    0    0 -0.00000000000E+00 -0.00000000000E+00 -0.25575136491E+04  0.25575136491E+04  0.00000000000E+00 0.  1.
        -24    2    1    2    0    0  0.16021060916E+02 -0.33068876652E+02 -0.25142707787E+04  0.25158320857E+04  0.80643100435E+02 0.  0.
         25    2    1    2    0    0 -0.13852351639E+02  0.59379767342E+01  0.58988319704E+02  0.13911849918E+03  0.12508871947E+03 0.  0.
         24    2    1    2    0    0 -0.21687092772E+01  0.27130899918E+02  0.75376317051E+03  0.75855742470E+03  0.80682466028E+02 0.  0.
        -11    1    5    5    0    0 -0.57292490284E+01 -0.73573837050E+01  0.89089659181E+01  0.12896707454E+02  0.00000000000E+00 0.  1.
         12    1    5    5    0    0  0.35605397512E+01  0.34488283623E+02  0.74485420459E+03  0.74566071725E+03  0.00000000000E+00 0. -1.
         11    1    3    3    0    0  0.23944336126E+02 -0.40915384960E+02 -0.73543474782E+03  0.73696110363E+03  0.00000000000E+00 0. -1.
        -12    1    3    3    0    0 -0.79232752094E+01  0.78465083072E+01 -0.17788360309E+04  0.17788709821E+04  0.00000000000E+00 0.  1.
          5    1    4    4  501    0 -0.62639135817E+02 -0.14413655805E+02  0.68869665662E+01  0.64778989789E+02  0.41800000000E+01 0.  1.
         -5    1    4    4    0  501  0.48786784178E+02  0.20351632539E+02  0.52101353138E+02  0.74339509389E+02  0.41800000000E+01 0.  1.
</event>
<event>
11    1  0.8037748E-009  0.1716871E+03  0.7561462E-02  0.1076573E+00
         22   -1    0    0    0    0  0.00000000000E+00  0.00000000000E+00  0.13022605255E+04  0.13022605255E+04  0.00000000000E+00 0.  1.
         22   -1    0    0    0    0 -0.00000000000E+00 -0.00000000000E+00 -0.74357989698E+03  0.74357989698E+03  0.00000000000E+00 0. -1.
         24    2    1    2    0    0  0.10036877326E+03 -0.65346399046E+02 -0.69109605510E+03  0.70574951924E+03  0.78259721556E+02 0.  0.
         25    2    1    2    0    0 -0.36067657967E+02  0.83282872072E+02  0.96802128547E+02  0.18236155537E+03  0.12509265388E+03 0.  0.
        -24    2    1    2    0    0 -0.64301115289E+02 -0.17936473026E+02  0.11529745551E+04  0.11577293479E+04  0.80811928419E+02 0.  0.
        -13    1    3    3    0    0  0.30325663838E+02 -0.19432542745E+02 -0.67076387256E+02  0.76134823386E+02  0.00000000000E+00 0.  1.
         14    1    3    3    0    0  0.70043109417E+02 -0.45913856301E+02 -0.62401966784E+03  0.62961469585E+03  0.00000000000E+00 0. -1.
         11    1    5    5    0    0  0.76875529836E+01  0.21363906742E+02  0.23015900351E+03  0.23127620258E+03  0.00000000000E+00 0. -1.
        -12    1    5    5    0    0 -0.71988668272E+02 -0.39300379767E+02  0.92281555156E+03  0.92645314529E+03  0.00000000000E+00 0.  1.
          5    1    4    4  501    0 -0.78735876967E+02  0.43182842535E+02  0.82330047193E+02  0.12190080099E+03  0.41800000000E+01 0. -1.
         -5    1    4    4    0  501  0.42668219001E+02  0.40100029537E+02  0.14472081354E+02  0.60460754380E+02  0.41800000000E+01 0. -1.
</event>
<event>
11    1  0.8037748E-009  0.1540536E+03  0.7561462E-02  0.1092807E+00
         22   -1    0    0    0    0  0.00000000000E+00  0.00000000000E+00  0.15384082575E+04  0.15384082575E+04  0.00000000000E+00 0.  1.
         22   -1    0    0    0    0 -0.00000000000E+00 -0.00000000000E+00 -0.41860971374E+03  0.41860971374E+03  0.00000000000E+00 0.  1.
         24    2    1    2    0    0  0.31746123817E+02 -0.58331227971E+02 -0.28779235230E+03  0.30618162758E+03  0.80699457829E+02 0.  0.
         25    2    1    2    0    0 -0.83622497150E+02  0.13010134966E+03 -0.36086586873E+02  0.20216405807E+03  0.12509588886E+03 0.  0.
        -24    2    1    2    0    0  0.51876373333E+02 -0.71770121688E+02  0.14436774829E+04  0.14486722855E+04  0.81268738373E+02 0.  0.
        -13    1    3    3    0    0  0.55716617890E+02 -0.53711730950E+02 -0.24480407033E+03  0.25674564145E+03  0.00000000000E+00 0.  1.
         14    1    3    3    0    0 -0.23970494073E+02 -0.46194970215E+01 -0.42988281963E+02  0.49435986134E+02  0.00000000000E+00 0. -1.
         11    1    5    5    0    0 -0.12717669125E+02 -0.50166463292E+02  0.57072413130E+03  0.57306583147E+03  0.00000000000E+00 0. -1.
        -12    1    5    5    0    0  0.64594042458E+02 -0.21603658396E+02  0.87295335158E+03  0.87560645407E+03  0.00000000000E+00 0.  1.
          5    1    4    4  501    0 -0.95427436279E+02  0.11376570564E+03 -0.68647376798E+02  0.16364280038E+03  0.41800000000E+01 0. -1.
         -5    1    4    4    0  501  0.11804939129E+02  0.16335644020E+02  0.32560789925E+02  0.38521257689E+02  0.41800000000E+01 0. -1.
</event>
<event>
11    1  0.8037748E-009  0.4568916E+03  0.7561462E-02  0.9495368E-01
         22   -1    0    0    0    0  0.00000000000E+00  0.00000000000E+00  0.28121706707E+03  0.28121706707E+03  0.00000000000E+00 0.  1.
         22   -1    0    0    0    0 -0.00000000000E+00 -0.00000000000E+00 -0.26867665415E+04  0.26867665415E+04  0.00000000000E+00 0.  1.
        -24    2    1    2    0    0  0.43726872118E+03 -0.44200721145E+02 -0.21555960973E+04  0.22014207481E+04  0.80629630819E+02 0.  0.
         25    2    1    2    0    0 -0.44102513833E+03 -0.56976122999E+00 -0.38798645178E+03  0.60057065833E+03  0.12509249225E+03 0.  0.
         24    2    1    2    0    0  0.37564171435E+01  0.44770482375E+02  0.13803307461E+03  0.16599220215E+03  0.80509469800E+02 0.  0.
        -11    1    5    5    0    0 -0.10028617827E+02  0.22537373584E+02  0.13763624384E+03  0.13982933170E+03  0.00000000000E+00 0.  1.
         12    1    5    5    0    0  0.13785034971E+02  0.22233108790E+02  0.39683076207E+00  0.26162870452E+02  0.00000000000E+00 0. -1.
         11    1    3    3    0    0  0.17036642472E+02 -0.13351060475E+02 -0.57668306919E+02  0.61596522836E+02  0.00000000000E+00 0. -1.
        -12    1    3    3    0    0  0.42023207871E+03 -0.30849660670E+02 -0.20979277904E+04  0.21398242253E+04  0.00000000000E+00 0.  1.
          5    1    4    4  501    0 -0.27527942784E+01 -0.76588923620E+01 -0.39588015253E+02  0.40631513142E+02  0.41800000000E+01 0. -1.
         -5    1    4    4    0  501 -0.43827234405E+03  0.70891311320E+01 -0.34839843653E+03  0.55993914519E+03  0.41800000000E+01 0. -1.
</event>
<event>
11    1  0.8037748E-009  0.1498023E+03  0.7561462E-02  0.1097081E+00
         22   -1    0    0    0    0  0.00000000000E+00  0.00000000000E+00  0.97005555228E+03  0.97005555228E+03  0.00000000000E+00 0.  1.
         22   -1    0    0    0    0 -0.00000000000E+00 -0.00000000000E+00 -0.15311145903E+03  0.15311145903E+03  0.00000000000E+00 0. -1.
        -24    2    1    2    0    0  0.29926727588E+02 -0.78695645636E+02 -0.10360587761E+03  0.15622005428E+03  0.81128994932E+02 0.  0.
         25    2    1    2    0    0  0.26708566982E+02  0.76354072735E+02  0.26474707522E+03  0.30377908724E+03  0.12508967996E+03 0.  0.
         24    2    1    2    0    0 -0.56635294570E+02  0.23415729005E+01  0.65580289564E+03  0.66316786979E+03  0.80629684606E+02 0.  0.
        -11    1    5    5    0    0 -0.24576363793E+02 -0.39045398818E+02  0.31998916211E+03  0.32329801220E+03  0.00000000000E+00 0.  1.
         12    1    5    5    0    0 -0.32058930777E+02  0.41386971718E+02  0.33581373353E+03  0.33986985759E+03  0.00000000000E+00 0. -1.
         13    1    3    3    0    0  0.28701635656E+02 -0.70423049080E+02 -0.29381172343E+02  0.81525719986E+02  0.00000000000E+00 0. -1.
        -14    1    3    3    0    0  0.12250919314E+01 -0.82725965559E+01 -0.74224705267E+02  0.74694334296E+02  0.00000000000E+00 0.  1.
          5    1    4    4  501    0  0.15522307594E+02  0.49412054402E+02  0.26902781014E+03  0.27399986895E+03  0.41800000000E+01 0.  1.
         -5    1    4    4    0  501  0.11186259388E+02  0.26942018333E+02 -0.42807349173E+01  0.29779218297E+02  0.41800000000E+01 0.  1.
</event>
<event>
11    1  0.8037748E-009  0.1455518E+03  0.7561462E-02  0.1101513E+00
         22   -1    0    0    0    0  0.00000000000E+00  0.00000000000E+00  0.55927963506E+03  0.55927963506E+03  0.00000000000E+00 0. -1.
         22   -1    0    0    0    0 -0.00000000000E+00 -0.00000000000E+00 -0.30529865392E+03  0.30529865392E+03  0.00000000000E+00 0.  1.
         24    2    1    2    0    0 -0.11262694731E+02 -0.76739050425E+02 -0.24321482347E+03  0.26995103418E+03  0.87774599667E+02 0.  0.
         25    2    1    2    0    0  0.48393580448E+00  0.50811908311E+02  0.57750326369E+02  0.14684758107E+03  0.12508807957E+03 0.  0.
        -24    2    1    2    0    0  0.10778758926E+02  0.25927142113E+02  0.43944547824E+03  0.44777967373E+03  0.81276746476E+02 0.  0.
        -11    1    3    3    0    0 -0.10038032313E+02 -0.32188411054E+02 -0.21404924815E+03  0.21668857038E+03  0.00000000000E+00 0.  1.
         12    1    3    3    0    0 -0.12246624176E+01 -0.44550639371E+02 -0.29165575318E+02  0.53262463800E+02  0.00000000000E+00 0. -1.
         11    1    5    5    0    0 -0.23081969912E+01  0.22991850231E+02  0.43164716236E+03  0.43226522613E+03  0.00000000000E+00 0. -1.
        -12    1    5    5    0    0  0.13086955917E+02  0.29352918824E+01  0.77983158771E+01  0.15514447594E+02  0.00000000000E+00 0.  1.
          5    1    4    4  501    0  0.21947119760E+01  0.12116206764E+02 -0.39765496534E+02  0.41837618737E+02  0.41800000000E+01 0. -1.
         -5    1    4    4    0  501 -0.17107761715E+01  0.38695701547E+02  0.97515822903E+02  0.10500996234E+03  0.41800000000E+01 0. -1.
</event>
<event>
11    1  0.8037748E-009  0.1607628E+03  0.7561462E-02  0.1086362E+00
         22   -1    0    0    0    0  0.00000000000E+00  0.00000000000E+00  0.19046951573E+03  0.19046951573E+03  0.00000000000E+00 0. -1.
         22   -1    0    0    0    0 -0.00000000000E+00 -0.00000000000E+00 -0.28278949909E+03  0.28278949909E+03  0.00000000000E+00 0. -1.
        -24    2    1    2    0    0 -0.39629042755E+02 -0.10595823309E+03 -0.16226985672E+03  0.21376415068E+03  0.81030843049E+02 0.  0.
         25    2    1    2    0    0  0.27626776179E+02  0.62332788634E+02 -0.29385766382E+01  0.14249160549E+03  0.12508639855E+03 0.  0.
         24    2    1    2    0    0  0.12002266576E+02  0.43625444456E+02  0.72888450006E+02  0.11700325865E+03  0.79560056463E+02 0.  0.
        -13    1    5    5    0    0  0.25895010908E+02  0.30940253134E+02  0.85371707943E+02  0.94425522880E+02  0.00000000000E+00 0.  1.
         14    1    5    5    0    0 -0.13892744332E+02  0.12685191322E+02 -0.12483257938E+02  0.22577735774E+02  0.00000000000E+00 0. -1.
         13    1    3    3    0    0 -0.15409034000E+02 -0.94180856608E+02 -0.71956492289E+02  0.11952074658E+03  0.00000000000E+00 0. -1.
        -14    1    3    3    0    0 -0.24220008755E+02 -0.11777376483E+02 -0.90313364436E+02  0.94243404101E+02  0.00000000000E+00 0.  1.
          5    1    4    4  501    0  0.73232496913E+02  0.49542124601E+02 -0.22090775758E+02  0.91229904570E+02  0.41800000000E+01 0. -1.
         -5    1    4    4    0  501 -0.45605720735E+02  0.12790664033E+02  0.19152199120E+02  0.51261700921E+02  0.41800000000E+01 0. -1.
</event>
<event>
11    1  0.8037748E-009  0.1695075E+03  0.7561462E-02  0.1078461E+00
         22   -1    0    0    0    0  0.00000000000E+00  0.00000000000E+00  0.47111229543E+02  0.47111229543E+02  0.00000000000E+00 0.  1.
         22   -1    0    0    0    0 -0.00000000000E+00 -0.00000000000E+00 -0.11855721885E+04  0.11855721885E+04  0.00000000000E+00 0.  1.
        -24    2    1    2    0    0 -0.53365175357E+02  0.11765666185E+03 -0.69483162320E+03  0.71130452242E+03  0.80450027957E+02 0.  0.
         25    2    1    2    0    0  0.39496365650E+02 -0.78317777893E+02 -0.37741820137E+03  0.40716773037E+03  0.12508966664E+03 0.  0.
         24    2    1    2    0    0  0.13868809707E+02 -0.39338883958E+02 -0.66211134355E+02  0.11421116522E+03  0.83188847052E+02 0.  0.
        -13    1    5    5    0    0 -0.79463146226E+01 -0.63149189098E+00  0.17616643129E+02  0.19336204726E+02  0.00000000000E+00 0.  1.
         14    1    5    5    0    0  0.21815124329E+02 -0.38707392067E+02 -0.83827777484E+02  0.94874960490E+02  0.00000000000E+00 0. -1.
         11    1    3    3    0    0 -0.93460010248E+01  0.16500967759E+02 -0.20177930491E+02  0.27690766531E+02  0.00000000000E+00 0. -1.
        -12    1    3    3    0    0 -0.44019174332E+02  0.10115569409E+03 -0.67465369271E+03  0.68361375589E+03  0.00000000000E+00 0.  1.
          5    1    4    4  501    0  0.14121786751E+02 -0.67139942490E+02 -0.68711822745E+02  0.97190450783E+02  0.41800000000E+01 0.  1.
         -5    1    4    4    0  501  0.25374578899E+02 -0.11177835403E+02 -0.30870637862E+03  0.30997727959E+03  0.41800000000E+01 0.  1.
</event>
<event>
11    1  0.8037748E-009  0.1574666E+03  0.7561462E-02  0.1089485E+00
         22   -1    0    0    0    0  0.00000000000E+00  0.00000000000E+00  0.17261818217E+03  0.17261818217E+03  0.00000000000E+00 0.  1.
         22   -1    0    0    0    0 -0.00000000000E+00 -0.00000000000E+00 -0.33447484777E+03  0.33447484777E+03  0.00000000000E+00 0.  1.
         24    2    1    2    0    0  0.41724028042E+02  0.45236136208E+01 -0.17652557214E+03  0.19882230167E+03  0.81287590840E+02 0.  0.
         25    2    1    2    0    0  0.12661235958E+02 -0.88509358791E+02 -0.54211200296E+02  0.16303666451E+03  0.12509151149E+03 0.  0.
        -24    2    1    2    0    0 -0.54385264000E+02  0.83985745170E+02  0.68880106842E+02  0.14523406377E+03  0.79605915780E+02 0.  0.
        -13    1    3    3    0    0  0.40637474232E+02  0.37007212811E+02 -0.13722681464E+03  0.14782468254E+03  0.00000000000E+00 0.  1.
         14    1    3    3    0    0  0.10865538100E+01 -0.32483599190E+02 -0.39298757498E+02  0.50997619125E+02  0.00000000000E+00 0. -1.
         13    1    5    5    0    0 -0.27032573735E+02  0.34147237515E+02 -0.13091630594E+02  0.45477298340E+02  0.00000000000E+00 0. -1.
        -14    1    5    5    0    0 -0.27352690265E+02  0.49838507655E+02  0.81971737436E+02  0.99756765426E+02  0.00000000000E+00 0.  1.
          5    1    4    4  501    0  0.20172793131E+02 -0.96274320980E+02  0.89147629163E+01  0.98856622746E+02  0.41800000000E+01 0.  1.
         -5    1    4    4    0  501 -0.75115571728E+01  0.77649621889E+01 -0.63125963212E+02  0.64180041761E+02  0.41800000000E+01 0.  1.
</event>
<event>
11    1  0.8037748E-009  0.1508995E+03  0.7561462E-02  0.1095963E+00
         22   -1    0    0    0    0  0.00000000000E+00  0.00000000000E+00  0.42376063644E+03  0.42376063644E+03  0.00000000000E+00 0.  1.
         22   -1    0    0    0    0 -0.00000000000E+00 -0.00000000000E+00 -0.11646925054E+04  0.11646925054E+04  0.00000000000E+00 0.  1.
        -24    2    1    2    0    0 -0.13783203864E+02  0.26550630959E+02 -0.56413561682E+03  0.57010822535E+03  0.76677778581E+02 0.  0.
         25    2    1    2    0    0 -0.48542068193E+02  0.30934784855E+02 -0.58128200162E+03  0.59736870241E+03  0.12508919985E+03 0.  0.
         24    2    1    2    0    0  0.62325272057E+02 -0.57485415813E+02  0.40448574946E+03  0.42097621409E+03  0.80145110542E+02 0.  0.
        -11    1    5    5    0    0  0.57218377560E+02 -0.41844471170E+02  0.39631675135E+03  0.40260634608E+03  0.00000000000E+00 0.  1.
         12    1    5    5    0    0  0.51068944971E+01 -0.15640944644E+02  0.81689981099E+01  0.18369868015E+02  0.00000000000E+00 0. -1.
         13    1    3    3    0    0  0.14560607602E+02  0.42699686999E+02 -0.41509187750E+03  0.41753627547E+03  0.00000000000E+00 0. -1.
        -14    1    3    3    0    0 -0.28343811465E+02 -0.16149056040E+02 -0.14904373932E+03  0.15257194988E+03  0.00000000000E+00 0.  1.
          5    1    4    4  501    0 -0.35170139534E+02  0.28919796466E+02 -0.57818794944E+02  0.73714169542E+02  0.41800000000E+01 0. -1.
         -5    1    4    4    0  501 -0.13371928659E+02  0.20149883884E+01 -0.52346320667E+03  0.52365453287E+03  0.41800000000E+01 0. -1.
</event>
<event>
11    1  0.8037748E-009  0.1614837E+03  0.7561462E-02  0.1085690E+00
         22   -1    0    0    0    0  0.00000000000E+00  0.00000000000E+00  0.19912412426E+03  0.19912412426E+03  0.00000000000E+00 0. -1.
         22   -1    0    0    0    0 -0.00000000000E+00 -0.00000000000E+00 -0.14296711848E+04  0.14296711848E+04  0.00000000000E+00 0.  1.
        -24    2    1    2    0    0 -0.25799802018E+02  0.99692973969E+02 -0.12190198514E+04  0.12259702123E+04  0.79932750579E+02 0.  0.
         25    2    1    2    0    0  0.12091902420E+03 -0.59620676278E+02 -0.13099767643E+03  0.22579505073E+03  0.12508788210E+03 0.  0.
         24    2    1    2    0    0 -0.95119222180E+02 -0.40072297691E+02  0.11947046723E+03  0.17703004605E+03  0.80081141302E+02 0.  0.
        -11    1    5    5    0    0  0.12904316246E+02 -0.12462118900E+02  0.89855278277E+01  0.20064034878E+02  0.00000000000E+00 0.  1.
         12    1    5    5    0    0 -0.10802353843E+03 -0.27610178791E+02  0.11048493940E+03  0.15696601117E+03  0.00000000000E+00 0. -1.
         11    1    3    3    0    0  0.27603411005E+02  0.21608362123E+02 -0.27599632660E+03  0.27821366234E+03  0.00000000000E+00 0. -1.
        -12    1    3    3    0    0 -0.53403213023E+02  0.78084611846E+02 -0.94302352475E+03  0.94775654996E+03  0.00000000000E+00 0.  1.
          5    1    4    4  501    0  0.13045401039E+03 -0.15539970303E+02 -0.12257096677E+03  0.17972438287E+03  0.41800000000E+01 0.  1.
         -5    1    4    4    0  501 -0.95349861912E+01 -0.44080705975E+02 -0.84267096678E+01  0.46070667857E+02  0.41800000000E+01 0.  1.
</event>
<event>
11    1  0.8037748E-009  0.2211833E+03  0.7561462E-02  0.1040479E+00
         22   -1    0    0    0    0  0.00000000000E+00  0.00000000000E+00  0.40107916752E+04  0.40107916752E+04  0.00000000000E+00 0. -1.
         22   -1    0    0    0    0 -0.00000000000E+00 -0.00000000000E+00 -0.52665093008E+02  0.52665093008E+02  0.00000000000E+00 0. -1.
        -24    2    1    2    0    0 -0.13006745158E+02 -0.40278650488E+02  0.71521886621E+02  0.11928009093E+03  0.85561759698E+02 0.  0.
         25    2    1    2    0    0 -0.60336661689E+01  0.21775972852E+03  0.58374712178E+03  0.63550269838E+03  0.12508906014E+03 0.  0.
         24    2    1    2    0    0  0.19040411327E+02 -0.17748107803E+03  0.33028575738E+04  0.33086739789E+04  0.81198987464E+02 0.  0.
        -13    1    5    5    0    0 -0.10861213255E+01 -0.46495499235E+02  0.38346014514E+03  0.38627023445E+03  0.00000000000E+00 0.  1.
         14    1    5    5    0    0  0.20126532653E+02 -0.13098557879E+03  0.29193974286E+04  0.29224037444E+04  0.00000000000E+00 0. -1.
         13    1    3    3    0    0 -0.22785010515E+02 -0.64492982978E+02  0.43940309532E+02  0.81297308439E+02  0.00000000000E+00 0. -1.
        -14    1    3    3    0    0  0.97782653572E+01  0.24214332490E+02  0.27581577089E+02  0.37982782495E+02  0.00000000000E+00 0.  1.
          5    1    4    4  501    0  0.52175933881E+02  0.16246183410E+03  0.40590131696E+03  0.44032888518E+03  0.41800000000E+01 0. -1.
         -5    1    4    4    0  501 -0.58209600050E+02  0.55297894419E+02  0.17784580482E+03  0.19517381320E+03  0.41800000000E+01 0. -1.
</event>
<event>
11    1  0.8037748E-009  0.1367468E+03  0.7561462E-02  0.1111246E+00
         22   -1    0    0    0    0  0.00000000000E+00  0.00000000000E+00  0.49422855254E+03  0.49422855254E+03  0.00000000000E+00 0.  1.
         22   -1    0    0    0    0 -0.00000000000E+00 -0.00000000000E+00 -0.29818704160E+03  0.29818704160E+03  0.00000000000E+00 0. -1.
        -24    2    1    2    0    0 -0.17189013003E+02  0.55274294964E+02 -0.18733819872E+03  0.21181371689E+03  0.80117040064E+02 0.  0.
         25    2    1    2    0    0  0.26789378631E+02 -0.38470513529E+02 -0.47575468546E+02  0.14180658907E+03  0.12509209518E+03 0.  0.
         24    2    1    2    0    0 -0.96003656278E+01 -0.16803781435E+02  0.43095517820E+03  0.43879528818E+03  0.80277052901E+02 0.  0.
        -11    1    5    5    0    0  0.14127734838E+02 -0.19904933734E+02  0.39408496493E+03  0.39484016875E+03  0.00000000000E+00 0.  1.
         12    1    5    5    0    0 -0.23728100466E+02  0.31011522998E+01  0.36870213275E+02  0.43955119432E+02  0.00000000000E+00 0. -1.
         11    1    3    3    0    0  0.82586425513E+01  0.42966113082E+02 -0.17599983516E+03  0.18135664870E+03  0.00000000000E+00 0. -1.
        -12    1    3    3    0    0 -0.25447655554E+02  0.12308181882E+02 -0.11338363564E+02  0.30457068191E+02  0.00000000000E+00 0.  1.
          5    1    4    4  501    0  0.30235451870E+02 -0.35262814758E+02  0.35425651220E+02  0.58567036964E+02  0.41800000000E+01 0.  1.
         -5    1    4    4    0  501 -0.34460732388E+01 -0.32076987714E+01 -0.83001119765E+02  0.83239552104E+02  0.41800000000E+01 0.  1.
</event>
<event>
11    1  0.8037748E-009  0.1522939E+03  0.7561462E-02  0.1094558E+00
         22   -1    0    0    0    0  0.00000000000E+00  0.00000000000E+00  0.97524888251E+03  0.97524888251E+03  0.00000000000E+00 0.  1.
         22   -1    0    0    0    0 -0.00000000000E+00 -0.00000000000E+00 -0.21210709491E+03  0.21210709491E+03  0.00000000000E+00 0. -1.
         24    2    1    2    0    0  0.85006011045E+00 -0.99357187017E+01 -0.18589767760E+03  0.20037938667E+03  0.74124968517E+02 0.  0.
         25    2    1    2    0    0 -0.84195534640E+01  0.91937007111E+02  0.57195117623E+03  0.59270488737E+03  0.12509050072E+03 0.  0.
        -24    2    1    2    0    0  0.75694933535E+01 -0.82001288409E+02  0.37708828897E+03  0.39427170338E+03  0.80455514880E+02 0.  0.
        -11    1    3    3    0    0 -0.18008673365E+02  0.24010320782E+02 -0.12173669401E+03  0.12538193845E+03  0.00000000000E+00 0.  1.
         12    1    3    3    0    0  0.18858733476E+02 -0.33946039484E+02 -0.64160983591E+02  0.74997448226E+02  0.00000000000E+00 0. -1.
         11    1    5    5    0    0  0.19688930358E+02  0.30650665497E+01  0.25642627029E+02  0.32474496648E+02  0.00000000000E+00 0. -1.
        -12    1    5    5    0    0 -0.12119437004E+02 -0.85066354959E+02  0.35144566194E+03  0.36179720673E+03  0.00000000000E+00 0.  1.
          5    1    4    4  501    0  0.35576839473E+02  0.95727063063E+01  0.48903366915E+02  0.61370676292E+02  0.41800000000E+01 0.  1.
         -5    1    4    4    0  501 -0.43996392937E+02  0.82364300805E+02  0.52304780931E+03  0.53133421108E+03  0.41800000000E+01 0.  1.
</event>
<event>
11    1  0.8037748E-009  0.2232106E+03  0.7561462E-02  0.1039225E+00
         22   -1    0    0    0    0  0.00000000000E+00  0.00000000000E+00  0.43900706257E+03  0.43900706257E+03  0.00000000000E+00 0.  1.
         22   -1    0    0    0    0 -0.00000000000E+00 -0.00000000000E+00 -0.65880711821E+03  0.65880711821E+03  0.00000000000E+00 0. -1.
         24    2    1    2    0    0  0.63747081465E+02  0.16450130528E+03 -0.48658631021E+03  0.52365230322E+03  0.79505519036E+02 0.  0.
         25    2    1    2    0    0 -0.12832271684E+03 -0.21515407242E+03 -0.40885643034E+01  0.28005488983E+03  0.12512406012E+03 0.  0.
        -24    2    1    2    0    0  0.64575635373E+02  0.50652767147E+02  0.27087481887E+03  0.29410698772E+03  0.79937708417E+02 0.  0.
        -11    1    3    3    0    0 -0.16872044955E+02  0.11125050933E+02 -0.53456828652E+02  0.57149498587E+02  0.00000000000E+00 0.  1.
         12    1    3    3    0    0  0.80619126421E+02  0.15337625434E+03 -0.43312948156E+03  0.46650280464E+03  0.00000000000E+00 0. -1.
         11    1    5    5    0    0 -0.10542862913E+02  0.35568849325E+02  0.72271395099E+02  0.81236996191E+02  0.00000000000E+00 0. -1.
        -12    1    5    5    0    0  0.75118498286E+02  0.15083917823E+02  0.19860342377E+03  0.21286999153E+03  0.00000000000E+00 0.  1.
          5    1    4    4  501    0 -0.12078612987E+03 -0.19287522840E+03 -0.45623868646E+02  0.23214037281E+03  0.41800000000E+01 0. -1.
         -5    1    4    4    0  501 -0.75365869705E+01 -0.22278844023E+02  0.41535304343E+02  0.47914517017E+02  0.41800000000E+01 0. -1.
</event>
<event>
11    1  0.8037748E-009  0.1495759E+03  0.7561462E-02  0.1097313E+00
         22   -1    0    0    0    0  0.00000000000E+00  0.00000000000E+00  0.65307649715E+02  0.65307649715E+02  0.00000000000E+00 0.  1.
         22   -1    0    0    0    0 -0.00000000000E+00 -0.00000000000E+00 -0.11705947657E+04  0.11705947657E+04  0.00000000000E+00 0. -1.
         24    2    1    2    0    0 -0.87614641401E+02 -0.33454642668E+01 -0.86759017918E+03  0.87551176825E+03  0.78234390203E+02 0.  0.
         25    2    1    2    0    0  0.34476724668E+02  0.73623410563E+02 -0.16625841624E+03  0.22337857791E+03  0.12508827671E+03 0.  0.
        -24    2    1    2    0    0  0.53137916732E+02 -0.70277946296E+02 -0.71438520530E+02  0.13701206922E+03  0.76851915834E+02 0.  0.
        -13    1    3    3    0    0  0.65863755399E+01 -0.10829805773E+02 -0.29459324579E+02  0.32070497977E+02  0.00000000000E+00 0.  1.
         14    1    3    3    0    0 -0.94201016941E+02  0.74843415067E+01 -0.83813085460E+03  0.84344127027E+03  0.00000000000E+00 0. -1.
         13    1    5    5    0    0  0.55160806120E+02 -0.64772040373E+02 -0.86208514256E+02  0.12111993922E+03  0.00000000000E+00 0. -1.
        -14    1    5    5    0    0 -0.20228893878E+01 -0.55059059234E+01  0.14769993725E+02  0.15892130007E+02  0.00000000000E+00 0.  1.
          5    1    4    4  501    0 -0.17315308145E+02  0.87673405694E+02 -0.13238654608E+03  0.15978146308E+03  0.41800000000E+01 0. -1.
         -5    1    4    4    0  501  0.51792032813E+02 -0.14049995131E+02 -0.33871870163E+02  0.63597114828E+02  0.41800000000E+01 0. -1.
</event>
<event>
11    1  0.8037748E-009  0.1301126E+03  0.7561462E-02  0.1119131E+00
         22   -1    0    0    0    0  0.00000000000E+00  0.00000000000E+00  0.36994469370E+03  0.36994469370E+03  0.00000000000E+00 0.  1.
         22   -1    0    0    0    0 -0.00000000000E+00 -0.00000000000E+00 -0.12792778776E+04  0.12792778776E+04  0.00000000000E+00 0.  1.
         24    2    1    2    0    0 -0.44406625610E+01  0.35415490593E+02 -0.12241004971E+04  0.12272278335E+04  0.79950933167E+02 0.  0.
         25    2    1    2    0    0 -0.19914535343E+02 -0.44496862921E+02  0.48377364537E+02  0.14270665725E+03  0.12509300979E+03 0.  0.
        -24    2    1    2    0    0  0.24355197904E+02  0.90813723278E+01  0.26638994871E+03  0.27928808055E+03  0.79765783244E+02 0.  0.
        -11    1    3    3    0    0 -0.28725010666E+01  0.25760043019E+02 -0.12087348983E+04  0.12090127730E+04  0.00000000000E+00 0.  1.
         12    1    3    3    0    0 -0.15681614944E+01  0.96554475735E+01 -0.15365598886E+02  0.18215060457E+02  0.00000000000E+00 0. -1.
         13    1    5    5    0    0 -0.40483858230E+00  0.17416593852E+02  0.73076344410E+01  0.18891880711E+02  0.00000000000E+00 0. -1.
        -14    1    5    5    0    0  0.24760036486E+02 -0.83352215242E+01  0.25908231427E+03  0.26039619984E+03  0.00000000000E+00 0.  1.
          5    1    4    4  501    0 -0.33398956351E+02 -0.31351884473E+02  0.87630612263E+02  0.98969831519E+02  0.41800000000E+01 0. -1.
         -5    1    4    4    0  501  0.13484421008E+02 -0.13144978447E+02 -0.39253247726E+02  0.43736825735E+02  0.41800000000E+01 0. -1.
</event>
<event>
11    1  0.8037748E-009  0.1420217E+03  0.7561462E-02  0.1105322E+00
         22   -1    0    0    0    0  0.00000000000E+00  0.00000000000E+00  0.86086177409E+03  0.86086177409E+03  0.00000000000E+00 0.  1.
         22   -1    0    0    0    0 -0.00000000000E+00 -0.00000000000E+00 -0.13226458608E+03  0.13226458608E+03  0.00000000000E+00 0.  1.
        -24    2    1    2    0    0  0.38871191483E+02 -0.56795000703E+02 -0.72835167353E+02  0.12994559814E+03  0.82730014152E+02 0.  0.
         25    2    1    2    0    0 -0.42968617566E+02  0.40857480867E+02  0.13997804008E+03  0.19685930224E+03  0.12507636602E+03 0.  0.
         24    2    1    2    0    0  0.40974260829E+01  0.15937519836E+02  0.66145431529E+03  0.66632145979E+03  0.78687248822E+02 0.  0.
        -11    1    5    5    0    0 -0.17416366385E+02  0.36692006652E+02  0.52801584737E+03  0.52957564922E+03  0.00000000000E+00 0.  1.
         12    1    5    5    0    0  0.21513792468E+02 -0.20754486815E+02  0.13343846791E+03  0.13674581057E+03  0.00000000000E+00 0. -1.
         13    1    3    3    0    0  0.21120075772E+02 -0.63960539235E+02 -0.14976217401E+02  0.69002139587E+02  0.00000000000E+00 0. -1.
        -14    1    3    3    0    0  0.17751115711E+02  0.71655385320E+01 -0.57858949952E+02  0.60943458558E+02  0.00000000000E+00 0.  1.
          5    1    4    4  501    0 -0.17726578159E+02 -0.39818805900E+02  0.85915811392E+02  0.96430119381E+02  0.41800000000E+01 0. -1.
         -5    1    4    4    0  501 -0.25242039407E+02  0.80676286767E+02  0.54062228684E+02  0.10042918286E+03  0.41800000000E+01 0. -1.
</event>
<event>
11    1  0.8037748E-009  0.1452534E+03  0.7561462E-02  0.1101830E+00
         22   -1    0    0    0    0  0.00000000000E+00  0.00000000000E+00  0.19974898230E+03  0.19974898230E+03  0.00000000000E+00 0.  1.
         22   -1    0    0    0    0 -0.00000000000E+00 -0.00000000000E+00 -0.27762730753E+04  0.27762730753E+04  0.00000000000E+00 0. -1.
         24    2    1    2    0    0 -0.66175019800E+02 -0.31977344207E+02 -0.25874443465E+04  0.25898901585E+04  0.85212106238E+02 0.  0.
         25    2    1    2    0    0  0.80282858082E+02  0.24117480253E+02 -0.14518245934E+03  0.20916790621E+03  0.12508507638E+03 0.  0.
        -24    2    1    2    0    0 -0.14107838283E+02  0.78598639538E+01  0.15610271280E+03  0.17696399295E+03  0.81776459301E+02 0.  0.
        -11    1    3    3    0    0 -0.12773454666E+02 -0.24650173906E+02 -0.20909787621E+03  0.21093296104E+03  0.00000000000E+00 0.  1.
         12    1    3    3    0    0 -0.53401565134E+02 -0.73271703007E+01 -0.23783464703E+04  0.23789571974E+04  0.00000000000E+00 0. -1.
         11    1    5    5    0    0 -0.20115792953E+02  0.12494559528E+00 -0.43431498523E+00  0.20120868943E+02  0.00000000000E+00 0. -1.
        -12    1    5    5    0    0  0.60079546703E+01  0.77349183585E+01  0.15653702778E+03  0.15684312401E+03  0.00000000000E+00 0.  1.
          5    1    4    4  501    0  0.21841812843E+02  0.27083249510E+01  0.21589004501E+02  0.31112012594E+02  0.41800000000E+01 0. -1.
         -5    1    4    4    0  501  0.58441045239E+02  0.21409155302E+02 -0.16677146384E+03  0.17805589362E+03  0.41800000000E+01 0. -1.
</event>
<event>
11    1  0.8037748E-009  0.1435223E+03  0.7561462E-02  0.1103688E+00
         22   -1    0    0    0    0  0.00000000000E+00  0.00000000000E+00  0.17491064597E+03  0.17491064597E+03  0.00000000000E+00 0. -1.
         22   -1    0    0    0    0 -0.00000000000E+00 -0.00000000000E+00 -0.92617301031E+03  0.92617301031E+03  0.00000000000E+00 0.  1.
        -24    2    1    2    0    0 -0.24860390824E+02  0.92744021253E+01 -0.79721334994E+03  0.80174842239E+03  0.80915721046E+02 0.  0.
         25    2    1    2    0    0 -0.28396753955E+02  0.43231614041E+02 -0.59056842874E+02  0.14768665909E+03  0.12509312729E+03 0.  0.
         24    2    1    2    0    0  0.53257144779E+02 -0.52506016167E+02  0.10500782847E+03  0.15164857479E+03  0.79858881743E+02 0.  0.
        -13    1    5    5    0    0 -0.71497847962E+01 -0.13597889671E+02 -0.83130008602E+01  0.17467913712E+02  0.00000000000E+00 0.  1.
         14    1    5    5    0    0  0.60406929575E+02 -0.38908126495E+02  0.11332082933E+03  0.13418066108E+03  0.00000000000E+00 0. -1.
         13    1    3    3    0    0  0.10239540464E+01 -0.15616214716E+02 -0.31306222054E+02  0.34999916903E+02  0.00000000000E+00 0. -1.
        -14    1    3    3    0    0 -0.25884344871E+02  0.24890616842E+02 -0.76590712789E+03  0.76674850549E+03  0.00000000000E+00 0.  1.
          5    1    4    4  501    0 -0.31830003762E+02  0.17972141445E+02 -0.95885448686E+02  0.10270169754E+03  0.41800000000E+01 0.  1.
         -5    1    4    4    0  501  0.34332498068E+01  0.25259472597E+02  0.36828605811E+02  0.44984961555E+02  0.41800000000E+01 0.  1.
</event>
<event>
11    1  0.8037748E-009  0.2192402E+03  0.7561462E-02  0.1041694E+00
         22   -1    0    0    0    0  0.00000000000E+00  0.00000000000E+00  0.27312141025E+04  0.27312141025E+04  0.00000000000E+00 0. -1.
         22   -1    0    0    0    0 -0.00000000000E+00 -0.00000000000E+00 -0.15933972809E+03  0.15933972809E+03  0.00000000000E+00 0.  1.
         24    2    1    2    0    0  0.16318221150E+03  0.24456871777E+01 -0.21083726128E+02  0.18305401100E+03  0.80186232599E+02 0.  0.
         25    2    1    2    0    0 -0.25670564533E+03 -0.36669137508E+02  0.31810246000E+03  0.42904639281E+03  0.12509683505E+03 0.  0.
        -24    2    1    2    0    0  0.93523433823E+02  0.34223450330E+02  0.22748556406E+04  0.22784534268E+04  0.80398727966E+02 0.  0.
        -11    1    3    3    0    0  0.11443133514E+03  0.20542192457E+02 -0.46449305117E+02  0.12519604658E+03  0.00000000000E+00 0.  1.
         12    1    3    3    0    0  0.48750876366E+02 -0.18096505280E+02  0.25365578989E+02  0.57857964423E+02  0.00000000000E+00 0. -1.
         13    1    5    5    0    0  0.59496317144E+02  0.51375075280E+02  0.10220821936E+04  0.10251005905E+04  0.00000000000E+00 0. -1.
        -14    1    5    5    0    0  0.34027116679E+02 -0.17151624950E+02  0.12527734470E+04  0.12533528363E+04  0.00000000000E+00 0.  1.
          5    1    4    4  501    0 -0.11752688283E+03 -0.32614846147E+02  0.60548437948E+02  0.13623465827E+03  0.41800000000E+01 0. -1.
         -5    1    4    4    0  501 -0.13917876250E+03 -0.40542913611E+01  0.25755402205E+03  0.29281173454E+03  0.41800000000E+01 0. -1.
</event>
<event>
11    1  0.8037748E-009  0.1376087E+03  0.7561462E-02  0.1110258E+00
         22   -1    0    0    0    0  0.00000000000E+00  0.00000000000E+00  0.99946651864E+03  0.99946651864E+03  0.00000000000E+00 0. -1.
         22   -1    0    0    0    0 -0.00000000000E+00 -0.00000000000E+00 -0.29216756311E+03  0.29216756311E+03  0.00000000000E+00 0.  1.
        -24    2    1    2    0    0  0.10677548720E+02 -0.19592912768E+02 -0.26668300392E+03  0.27926758446E+03  0.79828985179E+02 0.  0.
         25    2    1    2    0    0  0.95209557011E+00  0.72371402887E+02  0.32128406472E+03  0.35229128323E+03  0.12508865478E+03 0.  0.
         24    2    1    2    0    0 -0.11629644290E+02 -0.52778490120E+02  0.65269789473E+03  0.66007521405E+03  0.82243107773E+02 0.  0.
        -13    1    5    5    0    0  0.34284645731E+02 -0.31449534020E+02  0.26031566820E+03  0.26444046066E+03  0.00000000000E+00 0.  1.
         14    1    5    5    0    0 -0.45914290021E+02 -0.21328956099E+02  0.39238222653E+03  0.39563475339E+03  0.00000000000E+00 0. -1.
         11    1    3    3    0    0  0.22818382335E+01  0.30294072605E+02 -0.72604147656E+02  0.78703874603E+02  0.00000000000E+00 0. -1.
        -12    1    3    3    0    0  0.83957104865E+01 -0.49886985372E+02 -0.19407885626E+03  0.20056370986E+03  0.00000000000E+00 0.  1.
          5    1    4    4  501    0 -0.44894958475E+02  0.73961852665E+02  0.13503455965E+03  0.16042979040E+03  0.41800000000E+01 0. -1.
         -5    1    4    4    0  501  0.45847054045E+02 -0.15904497774E+01  0.18624950506E+03  0.19186149283E+03  0.41800000000E+01 0. -1.
</event>
<event>
11    1  0.8037748E-009  0.1285186E+03  0.7561462E-02  0.1121103E+00
         22   -1    0    0    0    0  0.00000000000E+00  0.00000000000E+00  0.27764877151E+03  0.27764877151E+03  0.00000000000E+00 0. -1.
         22   -1    0    0    0    0 -0.00000000000E+00 -0.00000000000E+00 -0.98596699440E+03  0.98596699440E+03  0.00000000000E+00 0. -1.
         24    2    1    2    0    0  0.11945011663E+01  0.26928887969E+02 -0.86270115889E+03  0.86681808472E+03  0.79960681685E+02 0.  0.
         25    2    1    2    0    0 -0.30204758844E+02 -0.20413277959E+02 -0.76017672667E+02  0.15085018979E+03  0.12509222129E+03 0.  0.
        -24    2    1    2    0    0  0.29010257678E+02 -0.65156100107E+01  0.23040060867E+03  0.24594749139E+03  0.80756918124E+02 0.  0.
        -13    1    3    3    0    0  0.16826677505E+02  0.28232534124E+02 -0.13483411150E+03  0.13878202579E+03  0.00000000000E+00 0.  1.
         14    1    3    3    0    0 -0.15632176339E+02 -0.13036461542E+01 -0.72786704738E+03  0.72803605893E+03  0.00000000000E+00 0. -1.
         13    1    5    5    0    0  0.45314528315E+02  0.12304234337E+02  0.20526257244E+03  0.21056477460E+03  0.00000000000E+00 0. -1.
        -14    1    5    5    0    0 -0.16304270637E+02 -0.18819844348E+02  0.25138036230E+02  0.35382716795E+02  0.00000000000E+00 0.  1.
          5    1    4    4  501    0  0.13157874723E+02 -0.65863173301E+02 -0.37284144722E+02  0.76932874066E+02  0.41800000000E+01 0.  1.
         -5    1    4    4    0  501 -0.43362633568E+02  0.45449895342E+02 -0.38733527945E+02  0.73917315722E+02  0.41800000000E+01 0.  1.
</event>
<event>
11    1  0.8037748E-009  0.1317296E+03  0.7561462E-02  0.1117162E+00
         22   -1    0    0    0    0  0.00000000000E+00  0.00000000000E+00  0.22252138169E+03  0.22252138169E+03  0.00000000000E+00 0.  1.
         22   -1    0    0    0    0 -0.00000000000E+00 -0.00000000000E+00 -0.21837708644E+03  0.21837708644E+03  0.00000000000E+00 0.  1.
        -24    2    1    2    0    0  0.10681492602E+02  0.29380604764E+02 -0.93968899455E+02  0.12771300076E+03  0.80642062702E+02 0.  0.
         25    2    1    2    0    0  0.18041816522E+02 -0.56585466006E+02 -0.42998415898E+02  0.14499775902E+03  0.12509222296E+03 0.  0.
         24    2    1    2    0    0 -0.28723309124E+02  0.27204861242E+02  0.14111161060E+03  0.16818770835E+03  0.82519607550E+02 0.  0.
        -13    1    5    5    0    0 -0.55803150975E+02  0.19420614754E+02  0.11712251687E+03  0.13118245269E+03  0.00000000000E+00 0.  1.
         14    1    5    5    0    0  0.27079841851E+02  0.77842464884E+01  0.23989093732E+02  0.37005255656E+02  0.00000000000E+00 0. -1.
         11    1    3    3    0    0  0.24442916260E+02 -0.10653934334E+00  0.37404039405E+01  0.24727679381E+02  0.00000000000E+00 0. -1.
        -12    1    3    3    0    0 -0.13761423658E+02  0.29487144108E+02 -0.97709303395E+02  0.10298532137E+03  0.00000000000E+00 0.  1.
          5    1    4    4  501    0 -0.29263499048E+01 -0.73233413276E+01 -0.79542123631E+02  0.80041343590E+02  0.41800000000E+01 0.  1.
         -5    1    4    4    0  501  0.20968166427E+02 -0.49262124679E+02  0.36543707733E+02  0.64956415434E+02  0.41800000000E+01 0.  1.
</event>
<event>
11    1  0.8037748E-009  0.1326966E+03  0.7561462E-02  0.1115999E+00
         22   -1    0    0    0    0  0.00000000000E+00  0.00000000000E+00  0.15501180723E+04  0.15501180723E+04  0.00000000000E+00 0. -1.
         22   -1    0    0    0    0 -0.00000000000E+00 -0.00000000000E+00 -0.16201905791E+04  0.16201905791E+04  0.00000000000E+00 0.  1.
         24    2    1    2    0    0  0.58726844773E+01 -0.43855150211E+02 -0.16029396390E+04  0.16058049247E+04  0.85065900237E+02 0.  0.
         25    2    1    2    0    0 -0.50652959155E+02  0.43677067647E+02  0.34468445119E+03  0.37273225310E+03  0.12509417692E+03 0.  0.
        -24    2    1    2    0    0  0.44780274678E+02  0.17808256325E+00  0.11881826810E+04  0.11917714736E+04  0.80844647714E+02 0.  0.
        -11    1    3    3    0    0  0.26790043001E+01 -0.56955091234E+02 -0.58416459523E+03  0.58694065612E+03  0.00000000000E+00 0.  1.
         12    1    3    3    0    0  0.31936801771E+01  0.13099941023E+02 -0.10187750437E+04  0.10188642686E+04  0.00000000000E+00 0. -1.
         11    1    5    5    0    0  0.22072087059E+02 -0.16334054207E+02  0.10679918906E+04  0.10683448211E+04  0.00000000000E+00 0. -1.
        -12    1    5    5    0    0  0.22708187619E+02  0.16512136771E+02  0.12019079044E+03  0.12342665252E+03  0.00000000000E+00 0.  1.
          5    1    4    4  501    0 -0.85068103608E+02  0.59203387139E+02  0.25946336426E+03  0.27942858317E+03  0.41800000000E+01 0. -1.
         -5    1    4    4    0  501  0.34415144453E+02 -0.15526319492E+02  0.85221086933E+02  0.93303669932E+02  0.41800000000E+01 0. -1.
</event>
<event>
11    1  0.8037748E-009  0.1744503E+03  0.7561462E-02  0.1074222E+00
         22   -1    0    0    0    0  0.00000000000E+00  0.00000000000E+00  0.33433106793E+02  0.33433106793E+02  0.00000000000E+00 0.  1.
         22   -1    0    0    0    0 -0.00000000000E+00 -0.00000000000E+00 -0.25350134161E+04  0.25350134161E+04  0.00000000000E+00 0.  1.
        -24    2    1    2    0    0  0.66598185763E+02  0.26745729141E+02 -0.13455854060E+04  0.13500196551E+04  0.82476251446E+02 0.  0.
         25    2    1    2    0    0 -0.12172024127E+03  0.79051968473E+02 -0.93685707495E+03  0.95625037160E+03  0.12509421827E+03 0.  0.
         24    2    1    2    0    0  0.55122055511E+02 -0.10579769761E+03 -0.21913782835E+03  0.26217649615E+03  0.80520391788E+02 0.  0.
        -11    1    5    5    0    0  0.37899184187E+02 -0.75337531523E+02 -0.71854128219E+02  0.11079308444E+03  0.00000000000E+00 0.  1.
         12    1    5    5    0    0  0.17222871324E+02 -0.30460166090E+02 -0.14728370013E+03  0.15138341171E+03  0.00000000000E+00 0. -1.
         11    1    3    3    0    0  0.85061078475E+01 -0.64373699116E+01 -0.19331331951E+02  0.22079266226E+02  0.00000000000E+00 0. -1.
        -12    1    3    3    0    0  0.58092077915E+02  0.33183099052E+02 -0.13262540740E+04  0.13279403889E+04  0.00000000000E+00 0.  1.
          5    1    4    4  501    0 -0.11946398321E+03  0.26076874151E+02 -0.80208471442E+03  0.81136243946E+03  0.41800000000E+01 0. -1.
         -5    1    4    4    0  501 -0.22562580675E+01  0.52975094322E+02 -0.13477236053E+03  0.14488793215E+03  0.41800000000E+01 0. -1.
</event>
<event>
11    1  0.8037748E-009  0.3224163E+03  0.7561462E-02  0.9911265E-01
         22   -1    0    0    0    0  0.00000000000E+00  0.00000000000E+00  0.57910352506E+03  0.57910352506E+03  0.00000000000E+00 0.  1.
         22   -1    0    0    0    0 -0.00000000000E+00 -0.00000000000E+00 -0.32818092798E+03  0.32818092798E+03  0.00000000000E+00 0.  1.
        -24    2    1    2    0    0 -0.11800319283E+03 -0.26140843580E+03 -0.88953435643E+02  0.31163308664E+03  0.83326725284E+02 0.  0.
         25    2    1    2    0    0  0.21683996377E+03  0.25953732078E+03  0.24977925206E+03  0.43865287192E+03  0.12508987377E+03 0.  0.
         24    2    1    2    0    0 -0.98836770941E+02  0.18711150243E+01  0.90096780661E+02  0.15699849449E+03  0.82212462710E+02 0.  0.
        -13    1    5    5    0    0  0.25623605858E+01  0.22248570222E+02  0.47242588151E+01  0.22888494709E+02  0.00000000000E+00 0.  1.
         14    1    5    5    0    0 -0.10139913153E+03 -0.20377455197E+02  0.85372521846E+02  0.13410999978E+03  0.00000000000E+00 0. -1.
         11    1    3    3    0    0 -0.30819024894E+02 -0.42098191454E+02  0.14198122327E+02  0.54070848863E+02  0.00000000000E+00 0. -1.
        -12    1    3    3    0    0 -0.87184167937E+02 -0.21931024435E+03 -0.10315155797E+03  0.25756223777E+03  0.00000000000E+00 0.  1.
          5    1    4    4  501    0  0.18891895065E+03  0.25743054417E+03  0.25645018525E+03  0.40956687476E+03  0.41800000000E+01 0. -1.
         -5    1    4    4    0  501  0.27921013118E+02  0.21067766056E+01 -0.66709331849E+01  0.29085997159E+02  0.41800000000E+01 0. -1.
</event>
<event>
11    1  0.8037748E-009  0.1403371E+03  0.7561462E-02  0.1107183E+00
         22   -1    0    0    0    0  0.00000000000E+00  0.00000000000E+00  0.13795749256E+03  0.13795749256E+03  0.00000000000E+00 0. -1.
         22   -1    0    0    0    0 -0.00000000000E+00 -0.00000000000E+00 -0.99311656330E+03  0.99311656330E+03  0.00000000000E+00 0.  1.
        -24    2    1    2    0    0 -0.11168880980E+02  0.16284493564E+02 -0.56283817820E+03  0.56909552574E+03  0.81810597975E+02 0.  0.
         25    2    1    2    0    0 -0.35883804366E+02  0.27957218483E+02 -0.39490270679E+03  0.41673024794E+03  0.12508676283E+03 0.  0.
         24    2    1    2    0    0  0.47052685347E+02 -0.44241712046E+02  0.10258181425E+03  0.14524828218E+03  0.80017189256E+02 0.  0.
        -13    1    5    5    0    0  0.76788178071E+01 -0.46499437278E+02  0.15434203140E+02  0.49592101555E+02  0.00000000000E+00 0.  1.
         14    1    5    5    0    0  0.39373867540E+02  0.22577252317E+01  0.87147611112E+02  0.95656180620E+02  0.00000000000E+00 0. -1.
         13    1    3    3    0    0 -0.32322117018E+01 -0.50097208549E+01 -0.16559718489E+00  0.59642198113E+01  0.00000000000E+00 0. -1.
        -14    1    3    3    0    0 -0.79366692787E+01  0.21294214419E+02 -0.56267258102E+03  0.56313130593E+03  0.00000000000E+00 0.  1.
          5    1    4    4  501    0 -0.25663902323E+02 -0.33040868418E+02 -0.45824725157E+02  0.62190937475E+02  0.41800000000E+01 0.  1.
         -5    1    4    4    0  501 -0.10219902043E+02  0.60998086901E+02 -0.34907798163E+03  0.35453931046E+03  0.41800000000E+01 0.  1.
</event>
<event>
11    1  0.8037748E-009  0.3132373E+04  0.7561462E-02  0.7715470E-01
         22   -1    0    0    0    0  0.00000000000E+00  0.00000000000E+00  0.34322457773E+04  0.34322457773E+04  0.00000000000E+00 0.  1.
         22   -1    0    0    0    0 -0.00000000000E+00 -0.00000000000E+00 -0.71467515894E+03  0.71467515894E+03  0.00000000000E+00 0.  1.
        -24    2    1    2    0    0  0.85669892946E+02 -0.87927828141E+03  0.11939888981E+03  0.89509794229E+03  0.80464928303E+02 0.  0.
         25    2    1    2    0    0 -0.38581613160E+03  0.12914433513E+04  0.22589370737E+04  0.26334621918E+04  0.12508555316E+03 0.  0.
         24    2    1    2    0    0  0.30014623865E+03 -0.41216506992E+03  0.33923465487E+03  0.61836080216E+03  0.85569393769E+02 0.  0.
        -11    1    5    5    0    0  0.52828562047E+02 -0.48299245140E+02  0.81485023576E+02  0.10845959209E+03  0.00000000000E+00 0.  1.
         12    1    5    5    0    0  0.24731767661E+03 -0.36386582477E+03  0.25774963129E+03  0.50990121007E+03  0.00000000000E+00 0. -1.
         13    1    3    3    0    0  0.52666859920E+01 -0.46151021967E+03  0.69594407207E+02  0.46675775554E+03  0.00000000000E+00 0. -1.
        -14    1    3    3    0    0  0.80403206954E+02 -0.41776806174E+03  0.49804482603E+02  0.42834018675E+03  0.00000000000E+00 0.  1.
          5    1    4    4  501    0 -0.32353781264E+03  0.91384977957E+03  0.16738890460E+04  0.19343526427E+04  0.41800000000E+01 0. -1.
         -5    1    4    4    0  501 -0.62278318962E+02  0.37759357176E+03  0.58504802773E+03  0.69910954907E+03  0.41800000000E+01 0. -1.
</event>
<event>
11    1  0.8037748E-009  0.1495282E+03  0.7561462E-02  0.1097362E+00
         22   -1    0    0    0    0  0.00000000000E+00  0.00000000000E+00  0.10318779778E+04  0.10318779778E+04  0.00000000000E+00 0.  1.
         22   -1    0    0    0    0 -0.00000000000E+00 -0.00000000000E+00 -0.29697081007E+03  0.29697081007E+03  0.00000000000E+00 0.  1.
        -24    2    1    2    0    0  0.71362906245E+02  0.96429977621E+01 -0.26002205890E+03  0.28303907794E+03  0.85521907904E+02 0.  0.
         25    2    1    2    0    0 -0.32651931405E+01  0.52945472461E+02  0.20185182229E+03  0.24332193762E+03  0.12509005805E+03 0.  0.
         24    2    1    2    0    0 -0.68097713105E+02 -0.62588470223E+02  0.79307740436E+03  0.80248777234E+03  0.80375620116E+02 0.  0.
        -11    1    5    5    0    0 -0.51634304757E+02 -0.66735114623E+02  0.76526689794E+03  0.76990460580E+03  0.00000000000E+00 0.  1.
         12    1    5    5    0    0 -0.16463408348E+02  0.41466444007E+01  0.27810506428E+02  0.32583166543E+02  0.00000000000E+00 0. -1.
         11    1    3    3    0    0 -0.10791765639E+02  0.87204147580E+01 -0.11917840576E+03  0.11998333317E+03  0.00000000000E+00 0. -1.
        -12    1    3    3    0    0  0.82154671884E+02  0.92258300417E+00 -0.14084365314E+03  0.16305574477E+03  0.00000000000E+00 0.  1.
          5    1    4    4  501    0 -0.57981504245E+02  0.66759128291E+01  0.57135655378E+02  0.81782505233E+02  0.41800000000E+01 0. -1.
         -5    1    4    4    0  501  0.54716311105E+02  0.46269559631E+02  0.14471616691E+03  0.16153943239E+03  0.41800000000E+01 0. -1.
</event>
<event>
11    1  0.8037748E-009  0.2182572E+03  0.7561462E-02  0.1042315E+00
         22   -1    0    0    0    0  0.00000000000E+00  0.00000000000E+00  0.11337211014E+04  0.11337211014E+04  0.00000000000E+00 0. -1.
         22   -1    0    0    0    0 -0.00000000000E+00 -0.00000000000E+00 -0.26802367512E+03  0.26802367512E+03  0.00000000000E+00 0. -1.
        -24    2    1    2    0    0  0.29540870686E+02  0.60325409475E+02 -0.18449790780E+03  0.21411757950E+03  0.85411016836E+02 0.  0.
         25    2    1    2    0    0 -0.20363599714E+03 -0.59506622427E+02  0.20281369962E+03  0.31904486979E+03  0.12509026636E+03 0.  0.
         24    2    1    2    0    0  0.17409512645E+03 -0.81878704790E+00  0.84738163448E+03  0.86858232726E+03  0.77909186243E+02 0.  0.
        -11    1    5    5    0    0  0.34999022209E+02 -0.25715587175E+02  0.12037255059E+03  0.12796786282E+03  0.00000000000E+00 0.  1.
         12    1    5    5    0    0  0.13909610424E+03  0.24896800127E+02  0.72700908389E+03  0.74061446444E+03  0.00000000000E+00 0. -1.
         13    1    3    3    0    0  0.62123454261E+01 -0.13110659105E+02 -0.94647647072E+02  0.95753118560E+02  0.00000000000E+00 0. -1.
        -14    1    3    3    0    0  0.23328525260E+02  0.73436068581E+02 -0.89850260729E+02  0.11836446094E+03  0.00000000000E+00 0.  1.
          5    1    4    4  501    0 -0.93139099412E+02  0.34032678714E+02  0.61891607310E+02  0.11696648458E+03  0.41800000000E+01 0.  1.
         -5    1    4    4    0  501 -0.11049689773E+03 -0.93539301141E+02  0.14092209231E+03  0.20207838521E+03  0.41800000000E+01 0.  1.
</event>
<event>
11    1  0.8037748E-009  0.1399088E+03  0.7561462E-02  0.1107660E+00
         22   -1    0    0    0    0  0.00000000000E+00  0.00000000000E+00  0.47144659815E+03  0.47144659815E+03  0.00000000000E+00 0. -1.
         22   -1    0    0    0    0 -0.00000000000E+00 -0.00000000000E+00 -0.79182494340E+02  0.79182494340E+02  0.00000000000E+00 0. -1.
        -24    2    1    2    0    0  0.56787229067E+02 -0.54434562707E+02  0.32627825030E+02  0.11731610277E+03  0.80688177578E+02 0.  0.
         25    2    1    2    0    0 -0.19029725665E+02 -0.90290550550E+01  0.23964414674E+03  0.27114536965E+03  0.12508732998E+03 0.  0.
         24    2    1    2    0    0 -0.37757503402E+02  0.63463617762E+02  0.11999213205E+03  0.16216762008E+03  0.80292997236E+02 0.  0.
        -13    1    5    5    0    0  0.14972241065E+01 -0.10414436464E+02  0.55626295523E+02  0.56612603901E+02  0.00000000000E+00 0.  1.
         14    1    5    5    0    0 -0.39254727509E+02  0.73878054227E+02  0.64365836524E+02  0.10555501617E+03  0.00000000000E+00 0. -1.
         11    1    3    3    0    0  0.73945149874E+02 -0.57028916145E+02  0.35155111928E+02  0.99780079982E+02  0.00000000000E+00 0. -1.
        -12    1    3    3    0    0 -0.17157920807E+02  0.25943534383E+01 -0.25272868979E+01  0.17536022789E+02  0.00000000000E+00 0.  1.
          5    1    4    4  501    0  0.18263006871E+02 -0.16967798290E+02 -0.30307765600E+01  0.25457839762E+02  0.41800000000E+01 0. -1.
         -5    1    4    4    0  501 -0.37292732536E+02  0.79387432353E+01  0.24267492330E+03  0.24568752988E+03  0.41800000000E+01 0. -1.
</event>
<event>
11    1  0.8037748E-009  0.2069273E+03  0.7561462E-02  0.1049730E+00
         22   -1    0    0    0    0  0.00000000000E+00  0.00000000000E+00  0.93862151268E+03  0.93862151268E+03  0.00000000000E+00 0.  1.
         22   -1    0    0    0    0 -0.00000000000E+00 -0.00000000000E+00 -0.41722651020E+03  0.41722651020E+03  0.00000000000E+00 0. -1.
        -24    2    1    2    0    0  0.12744957857E+03  0.97660195895E+02 -0.33315757565E+03  0.37826026921E+03  0.79410025283E+02 0.  0.
         25    2    1    2    0    0 -0.20672403409E+03 -0.92859346997E+02  0.24093438280E+03  0.35363120020E+03  0.12509182365E+03 0.  0.
         24    2    1    2    0    0  0.79274455520E+02 -0.48008488982E+01  0.61361819533E+03  0.62395655347E+03  0.80541936533E+02 0.  0.
        -11    1    5    5    0    0 -0.23180422979E+01 -0.23930836121E+02  0.23212412511E+03  0.23336595230E+03  0.00000000000E+00 0.  1.
         12    1    5    5    0    0  0.81592497818E+02  0.19129987223E+02  0.38149407022E+03  0.39059060117E+03  0.00000000000E+00 0. -1.
         13    1    3    3    0    0  0.79614808038E+02  0.53210967243E+02 -0.27362396845E+03  0.28989653465E+03  0.00000000000E+00 0. -1.
        -14    1    3    3    0    0  0.47834770533E+02  0.44449228652E+02 -0.59533607196E+02  0.88363734561E+02  0.00000000000E+00 0.  1.
          5    1    4    4  501    0 -0.27191611366E+02 -0.69530898114E+02  0.47133478004E+02  0.88390987493E+02  0.41800000000E+01 0.  1.
         -5    1    4    4    0  501 -0.17953242272E+03 -0.23328448883E+02  0.19380090479E+03  0.26524021270E+03  0.41800000000E+01 0.  1.
</event>
<event>
11    1  0.8037748E-009  0.1296108E+03  0.7561462E-02  0.1119748E+00
         22   -1    0    0    0    0  0.00000000000E+00  0.00000000000E+00  0.24023658856E+03  0.24023658856E+03  0.00000000000E+00 0.  1.
         22   -1    0    0    0    0 -0.00000000000E+00 -0.00000000000E+00 -0.38982152960E+04  0.38982152960E+04  0.00000000000E+00 0.  1.
         24    2    1    2    0    0 -0.24630345476E+02 -0.10699256606E+02 -0.34053055507E+04  0.34062303902E+04  0.74689021238E+02 0.  0.
         25    2    1    2    0    0 -0.69315852198E+01 -0.29459635616E+01 -0.47611014835E+03  0.49232597451E+03  0.12508903327E+03 0.  0.
        -24    2    1    2    0    0  0.31561930695E+02  0.13645220167E+02  0.22343699161E+03  0.23989551979E+03  0.80270939281E+02 0.  0.
        -11    1    3    3    0    0  0.44164365816E+01 -0.11067257541E+02 -0.29372983442E+04  0.29373225142E+04  0.00000000000E+00 0.  1.
         12    1    3    3    0    0 -0.29046782057E+02  0.36800093516E+00 -0.46800720644E+03  0.46890787608E+03  0.00000000000E+00 0. -1.
         11    1    5    5    0    0  0.25478023703E+01  0.13365147480E+02 -0.95128076302E+00  0.13639039525E+02  0.00000000000E+00 0. -1.
        -12    1    5    5    0    0  0.29014128325E+02  0.28007268690E+00  0.22438827238E+03  0.22625648027E+03  0.00000000000E+00 0.  1.
          5    1    4    4  501    0  0.21123481840E+02 -0.11937481875E+02 -0.45541733182E+03  0.45608236480E+03  0.41800000000E+01 0. -1.
         -5    1    4    4    0  501 -0.28055067060E+02  0.89915183130E+01 -0.20692816530E+02  0.36243609717E+02  0.41800000000E+01 0. -1.
</event>
<event>
11    1  0.8037748E-009  0.1644256E+03  0.7561462E-02  0.1082987E+00
         22   -1    0    0    0    0  0.00000000000E+00  0.00000000000E+00  0.38519365457E+03  0.38519365457E+03  0.00000000000E+00 0. -1.
         22   -1    0    0    0    0 -0.00000000000E+00 -0.00000000000E+00 -0.81060824974E+03  0.81060824974E+03  0.00000000000E+00 0. -1.
         24    2    1    2    0    0  0.44477330827E+02  0.43034426909E+02 -0.66118754424E+03  0.66910743258E+03  0.81887684142E+02 0.  0.
         25    2    1    2    0    0 -0.14564530021E+03 -0.21588257570E+02 -0.61341294113E+02  0.20270338962E+03  0.12508918204E+03 0.  0.
        -24    2    1    2    0    0  0.10116796938E+03 -0.21446169339E+02  0.29711424319E+03  0.32399108211E+03  0.77449671204E+02 0.  0.
        -11    1    3    3    0    0 -0.20761186610E+02  0.26290186307E+02 -0.28221461561E+03  0.28419586561E+03  0.00000000000E+00 0.  1.
         12    1    3    3    0    0  0.65238517437E+02  0.16744240602E+02 -0.37897292863E+03  0.38491156697E+03  0.00000000000E+00 0. -1.
         13    1    5    5    0    0  0.10509046256E+03 -0.76479706814E+01  0.28877589252E+03  0.30739878477E+03  0.00000000000E+00 0. -1.
        -14    1    5    5    0    0 -0.39224931807E+01 -0.13798198658E+02  0.83383506671E+01  0.16592297333E+02  0.00000000000E+00 0.  1.
          5    1    4    4  501    0 -0.13199493577E+03 -0.61434314348E+02 -0.66405974635E+02  0.16007518207E+03  0.41800000000E+01 0.  1.
         -5    1    4    4    0  501 -0.13650364438E+02  0.39846056779E+02  0.50646805223E+01  0.42628207549E+02  0.41800000000E+01 0.  1.
</event>
<event>
11    1  0.8037748E-009  0.1529245E+03  0.7561462E-02  0.1093927E+00
         22   -1    0    0    0    0  0.00000000000E+00  0.00000000000E+00  0.48160763346E+03  0.48160763346E+03  0.00000000000E+00 0.  1.
         22   -1    0    0    0    0 -0.00000000000E+00 -0.00000000000E+00 -0.68529703181E+03  0.68529703181E+03  0.00000000000E+00 0. -1.
        -24    2    1    2    0    0 -0.89288078041E+02 -0.11243994709E+02 -0.64827478253E+03  0.65936067023E+03  0.79984445279E+02 0.  0.
         25    2    1    2    0    0  0.17957042062E+02  0.52790395560E+01  0.16947013404E+03  0.21146505649E+03  0.12508804965E+03 0.  0.
         24    2    1    2    0    0  0.71331035980E+02  0.59649551533E+01  0.27511525014E+03  0.29607893855E+03  0.82768590738E+02 0.  0.
        -11    1    5    5    0    0  0.89888011881E+02  0.38495304468E+01  0.21315610341E+03  0.23136593955E+03  0.00000000000E+00 0.  1.
         12    1    5    5    0    0 -0.18556975902E+02  0.21154247066E+01  0.61959146732E+02  0.64712999004E+02  0.00000000000E+00 0. -1.
         11    1    3    3    0    0 -0.10104367935E+03 -0.13651183980E+02 -0.62407288183E+03  0.63234732686E+03  0.00000000000E+00 0. -1.
        -12    1    3    3    0    0  0.11755601307E+02  0.24071892704E+01 -0.24201900705E+02  0.27013343370E+02  0.00000000000E+00 0.  1.
          5    1    4    4  501    0  0.58838063209E+02 -0.18343837792E+02  0.40004597444E+02  0.73595205576E+02  0.41800000000E+01 0.  1.
         -5    1    4    4    0  501 -0.40881021147E+02  0.23622877348E+02  0.12946553660E+03  0.13786985091E+03  0.41800000000E+01 0.  1.
</event>
<event>
11    1  0.8037748E-009  0.1321139E+03  0.7561462E-02  0.1116699E+00
         22   -1    0    0    0    0  0.00000000000E+00  0.00000000000E+00  0.76223051680E+03  0.76223051680E+03  0.00000000000E+00 0. -1.
         22   -1    0    0    0    0 -0.00000000000E+00 -0.00000000000E+00 -0.80143200283E+03  0.80143200283E+03  0.00000000000E+00 0.  1.
        -24    2    1    2    0    0  0.24944615444E+00 -0.12663674197E+02 -0.69381331429E+03  0.69857873051E+03  0.80466743250E+02 0.  0.
         25    2    1    2    0    0 -0.21543648201E+02  0.49157621355E+02 -0.57140400791E+02  0.14761068860E+03  0.12507313648E+03 0.  0.
         24    2    1    2    0    0  0.21294202047E+02 -0.36493947158E+02  0.71175222904E+03  0.71747310053E+03  0.79944751025E+02 0.  0.
        -11    1    5    5    0    0  0.23430397537E+02  0.78087062301E+01  0.70724268679E+02  0.74912492963E+02  0.00000000000E+00 0.  1.
         12    1    5    5    0    0 -0.21361954909E+01 -0.44302653388E+02  0.64102796036E+03  0.64256060757E+03  0.00000000000E+00 0. -1.
         11    1    3    3    0    0  0.24648165388E-01 -0.34996952056E+02 -0.13974962696E+03  0.14406507382E+03  0.00000000000E+00 0. -1.
        -12    1    3    3    0    0  0.22479798906E+00  0.22333277859E+02 -0.55406368733E+03  0.55451365669E+03  0.00000000000E+00 0.  1.
          5    1    4    4  501    0 -0.42346154006E+02  0.16360847639E+02 -0.87148781528E+02  0.98352715349E+02  0.41800000000E+01 0.  1.
         -5    1    4    4    0  501  0.20802505805E+02  0.32796773715E+02  0.30008380737E+02  0.49257973247E+02  0.41800000000E+01 0.  1.
</event>
<event>
11    1  0.8037748E-009  0.1617319E+03  0.7561462E-02  0.1085460E+00
         22   -1    0    0    0    0  0.00000000000E+00  0.00000000000E+00  0.31509416615E+03  0.31509416615E+03  0.00000000000E+00 0.  1.
         22   -1    0    0    0    0 -0.00000000000E+00 -0.00000000000E+00 -0.73230482323E+03  0.73230482323E+03  0.00000000000E+00 0. -1.
        -24    2    1    2    0    0  0.64424547873E+02 -0.72552105728E+02 -0.36645450821E+03  0.38913336105E+03  0.87872269096E+02 0.  0.
         25    2    1    2    0    0 -0.52744085905E+02  0.10178810994E+03 -0.32734579428E+03  0.36871032276E+03  0.12509706292E+03 0.  0.
         24    2    1    2    0    0 -0.11680461968E+02 -0.29236004208E+02  0.27658964542E+03  0.28955530557E+03  0.79682280943E+02 0.  0.
        -11    1    5    5    0    0 -0.30318720802E+01 -0.31181151350E+02  0.27868994641E+03  0.28044525790E+03  0.00000000000E+00 0.  1.
         12    1    5    5    0    0 -0.86485898881E+01  0.19451471424E+01 -0.21003009838E+01  0.91100476772E+01  0.00000000000E+00 0. -1.
         11    1    3    3    0    0  0.60643329368E+02 -0.89969628063E+02 -0.34250512419E+03  0.35927970645E+03  0.00000000000E+00 0. -1.
        -12    1    3    3    0    0  0.37812185052E+01  0.17417522335E+02 -0.23949384018E+02  0.29853654592E+02  0.00000000000E+00 0.  1.
          5    1    4    4  501    0  0.32481166542E+02  0.67338744925E+02 -0.18049244482E+03  0.19540861748E+03  0.41800000000E+01 0.  1.
         -5    1    4    4    0  501 -0.85225252447E+02  0.34449365011E+02 -0.14685334946E+03  0.17330170528E+03  0.41800000000E+01 0.  1.
</event>
<event>
11    1  0.8037748E-009  0.1494435E+03  0.7561462E-02  0.1097449E+00
         22   -1    0    0    0    0  0.00000000000E+00  0.00000000000E+00  0.39109233411E+03  0.39109233411E+03  0.00000000000E+00 0.  1.
         22   -1    0    0    0    0 -0.00000000000E+00 -0.00000000000E+00 -0.22191945846E+03  0.22191945846E+03  0.00000000000E+00 0.  1.
        -24    2    1    2    0    0  0.30733967911E+02  0.14480940852E+02 -0.14454759141E+03  0.16859943516E+03  0.79859181838E+02 0.  0.
         25    2    1    2    0    0 -0.96253752675E+02  0.28284672534E+02  0.67992146581E+02  0.17417145023E+03  0.12509178420E+03 0.  0.
         24    2    1    2    0    0  0.65519784764E+02 -0.42765613386E+02  0.24572832048E+03  0.27024090718E+03  0.80783665104E+02 0.  0.
        -13    1    5    5    0    0 -0.12381558055E+02 -0.29905057778E+02  0.55019322790E+02  0.63833700667E+02  0.00000000000E+00 0.  1.
         14    1    5    5    0    0  0.77901342819E+02 -0.12860555608E+02  0.19070899769E+03  0.20640720652E+03  0.00000000000E+00 0. -1.
         13    1    3    3    0    0  0.10108373282E+02 -0.22487926841E+02 -0.11338092265E+03  0.11603068424E+03  0.00000000000E+00 0. -1.
        -14    1    3    3    0    0  0.20625594628E+02  0.36968867693E+02 -0.31166668760E+02  0.52568750925E+02  0.00000000000E+00 0.  1.
          5    1    4    4  501    0 -0.60236173153E+02 -0.35810511290E+02 -0.51366046507E+01  0.70389249054E+02  0.41800000000E+01 0. -1.
         -5    1    4    4    0  501 -0.36017579522E+02  0.64095183825E+02  0.73128751232E+02  0.10378220118E+03  0.41800000000E+01 0. -1.
</event>
<event>
11    1  0.8037748E-009  0.6853884E+03  0.7561462E-02  0.9054118E-01
         22   -1    0    0    0    0  0.00000000000E+00  0.00000000000E+00  0.20534276801E+04  0.20534276801E+04  0.00000000000E+00 0. -1.
         22   -1    0    0    0    0 -0.00000000000E+00 -0.00000000000E+00 -0.35300159305E+04  0.35300159305E+04  0.00000000000E+00 0.  1.
         24    2    1    2    0    0 -0.68737019964E+03 -0.19231975539E+03 -0.31670940022E+04  0.32475179833E+04  0.80149568381E+02 0.  0.
         25    2    1    2    0    0  0.39910176522E+03  0.28995832360E+03 -0.99440471115E+02  0.51855013191E+03  0.12509110114E+03 0.  0.
        -24    2    1    2    0    0  0.28826843442E+03 -0.97638568210E+02  0.17899462229E+04  0.18173754954E+04  0.79462129025E+02 0.  0.
        -13    1    3    3    0    0 -0.41801043567E+03 -0.93639992635E+02 -0.20399713967E+04  0.20844626339E+04  0.00000000000E+00 0.  1.
         14    1    3    3    0    0 -0.26935976398E+03 -0.98679762753E+02 -0.11271226055E+04  0.11630553494E+04  0.00000000000E+00 0. -1.
         13    1    5    5    0    0  0.17992674555E+03 -0.90176090824E+02  0.10051316877E+04  0.10250829579E+04  0.00000000000E+00 0. -1.
        -14    1    5    5    0    0  0.10834168888E+03 -0.74624773868E+01  0.78481453528E+03  0.79229253746E+03  0.00000000000E+00 0.  1.
          5    1    4    4  501    0  0.31555448729E+02  0.72915912167E+02 -0.34712383084E+02  0.86803793299E+02  0.41800000000E+01 0. -1.
         -5    1    4    4    0  501  0.36754631649E+03  0.21704241143E+03 -0.64728088032E+02  0.43174633861E+03  0.41800000000E+01 0. -1.
</event>
<event>
11    1  0.8037748E-009  0.1814458E+04  0.7561462E-02  0.8147603E-01
         22   -1    0    0    0    0  0.00000000000E+00  0.00000000000E+00  0.97426359342E+03  0.97426359342E+03  0.00000000000E+00 0. -1.
         22   -1    0    0    0    0 -0.00000000000E+00 -0.00000000000E+00 -0.47690427554E+04  0.47690427554E+04  0.00000000000E+00 0. -1.
        -24    2    1    2    0    0  0.17633184867E+04 -0.53789886491E+03 -0.31095683868E+04  0.36158575342E+04  0.79892933857E+02 0.  0.
         25    2    1    2    0    0 -0.15811965199E+04  0.71644288568E+03 -0.53549045082E+03  0.18209531109E+04  0.12508943226E+03 0.  0.
         24    2    1    2    0    0 -0.18212196675E+03 -0.17854402078E+03 -0.14972032435E+03  0.30649570377E+03  0.80480201157E+02 0.  0.
        -11    1    5    5    0    0 -0.36323085942E+02 -0.10825578429E+02  0.11014456672E+01  0.37917975990E+02  0.00000000000E+00 0.  1.
         12    1    5    5    0    0 -0.14579888081E+03 -0.16771844235E+03 -0.15082177001E+03  0.26857772778E+03  0.00000000000E+00 0. -1.
         13    1    3    3    0    0  0.12801669813E+04 -0.42748184114E+03 -0.22710066440E+04  0.26417871606E+04  0.00000000000E+00 0. -1.
        -14    1    3    3    0    0  0.48315150533E+03 -0.11041702376E+03 -0.83856174282E+03  0.97407037362E+03  0.00000000000E+00 0.  1.
          5    1    4    4  501    0 -0.15811599134E+04  0.71175356190E+03 -0.53507368907E+03  0.18146573037E+04  0.41800000000E+01 0. -1.
         -5    1    4    4    0  501 -0.36606472409E-01  0.46893237868E+01 -0.41676174108E+00  0.62958071730E+01  0.41800000000E+01 0. -1.
</event>
<event>
11    1  0.8037748E-009  0.1374074E+03  0.7561462E-02  0.1110489E+00
         22   -1    0    0    0    0  0.00000000000E+00  0.00000000000E+00  0.75556655971E+02  0.75556655971E+02  0.00000000000E+00 0. -1.
         22   -1    0    0    0    0 -0.00000000000E+00 -0.00000000000E+00 -0.16888912632E+04  0.16888912632E+04  0.00000000000E+00 0. -1.
         24    2    1    2    0    0  0.64001997452E+02  0.13495774341E+02 -0.12846822740E+04  0.12888848065E+04  0.80852381355E+02 0.  0.
         25    2    1    2    0    0 -0.59542863110E+01 -0.23210811250E+02 -0.35050170391E+03  0.37292509228E+03  0.12508990654E+03 0.  0.
        -24    2    1    2    0    0 -0.58047711141E+02  0.97150369094E+01  0.21849370744E+02  0.10263802038E+03  0.81198827058E+02 0.  0.
        -11    1    3    3    0    0 -0.89683096721E+01  0.21343374001E+02 -0.56407187211E+03  0.56454676255E+03  0.00000000000E+00 0.  1.
         12    1    3    3    0    0  0.72970307124E+02 -0.78475996607E+01 -0.72061040192E+03  0.72433804393E+03  0.00000000000E+00 0. -1.
         13    1    5    5    0    0  0.81885264103E+00 -0.11344539045E+02  0.36663003827E+02  0.38386780738E+02  0.00000000000E+00 0. -1.
        -14    1    5    5    0    0 -0.58866563782E+02  0.21059575954E+02 -0.14813633084E+02  0.64251239646E+02  0.00000000000E+00 0.  1.
          5    1    4    4  501    0 -0.50826723475E+02 -0.42357819029E+02 -0.11823052364E+03  0.13554877267E+03  0.41800000000E+01 0. -1.
         -5    1    4    4    0  501  0.44872437164E+02  0.19147007779E+02 -0.23227118028E+03  0.23737631961E+03  0.41800000000E+01 0. -1.
</event>
<event>
11    1  0.8037748E-009  0.1756445E+03  0.7561462E-02  0.1073221E+00
         22   -1    0    0    0    0  0.00000000000E+00  0.00000000000E+00  0.60592193728E+03  0.60592193728E+03  0.00000000000E+00 0. -1.
         22   -1    0    0    0    0 -0.00000000000E+00 -0.00000000000E+00 -0.72280311827E+03  0.72280311827E+03  0.00000000000E+00 0. -1.
         24    2    1    2    0    0  0.40212513775E+02 -0.11486495705E+03 -0.66100680666E+03  0.67695434735E+03  0.80784808759E+02 0.  0.
         25    2    1    2    0    0 -0.89078722580E+02  0.15361274833E+03  0.20843212398E+03  0.30103617863E+03  0.12508771031E+03 0.  0.
        -24    2    1    2    0    0  0.48866208805E+02 -0.38747791271E+02  0.33569350169E+03  0.35073452957E+03  0.80220231042E+02 0.  0.
        -13    1    3    3    0    0  0.58248752139E+02 -0.57704571447E+02 -0.29987436155E+03  0.31088159708E+03  0.00000000000E+00 0.  1.
         14    1    3    3    0    0 -0.18036238364E+02 -0.57160385608E+02 -0.36113244511E+03  0.36607275027E+03  0.00000000000E+00 0. -1.
         11    1    5    5    0    0  0.64264719490E+02 -0.39770741117E+02  0.31969234426E+03  0.32850397410E+03  0.00000000000E+00 0. -1.
        -12    1    5    5    0    0 -0.15398510685E+02  0.10229498452E+01  0.16001157429E+02  0.22230555476E+02  0.00000000000E+00 0.  1.
          5    1    4    4  501    0 -0.59464924307E+02  0.29684923843E+02  0.13235922183E+02  0.67896494478E+02  0.41800000000E+01 0.  1.
         -5    1    4    4    0  501 -0.29613798273E+02  0.12392782448E+03  0.19519620180E+03  0.23313968415E+03  0.41800000000E+01 0.  1.
</event>
<event>
11    1  0.8037748E-009  0.1691280E+03  0.7561462E-02  0.1078793E+00
         22   -1    0    0    0    0  0.00000000000E+00  0.00000000000E+00  0.11893606120E+04  0.11893606120E+04  0.00000000000E+00 0.  1.
         22   -1    0    0    0    0 -0.00000000000E+00 -0.00000000000E+00 -0.23050370559E+03  0.23050370559E+03  0.00000000000E+00 0. -1.
        -24    2    1    2    0    0  0.99503092264E+02  0.60324526766E+02 -0.12745066387E+03  0.19051446645E+03  0.80698056403E+02 0.  0.
         25    2    1    2    0    0 -0.99214537832E+02 -0.40256005773E+02  0.27515941880E+02  0.16693831025E+03  0.12508877588E+03 0.  0.
         24    2    1    2    0    0 -0.28855443169E+00 -0.20068520993E+02  0.10587916284E+04  0.10624115409E+04  0.85297954495E+02 0.  0.
        -13    1    5    5    0    0 -0.16321062307E+02  0.29857169980E+02  0.33528845603E+03  0.33701064734E+03  0.00000000000E+00 0.  1.
         14    1    5    5    0    0  0.16032507875E+02 -0.49925690973E+02  0.72350317240E+03  0.72540089358E+03  0.00000000000E+00 0. -1.
         11    1    3    3    0    0  0.84365873288E+02  0.10285362319E+02 -0.10075555417E+03  0.13181453239E+03  0.00000000000E+00 0. -1.
        -12    1    3    3    0    0  0.15137218976E+02  0.50039164447E+02 -0.26695109703E+02  0.58699934063E+02  0.00000000000E+00 0.  1.
          5    1    4    4  501    0 -0.15953972882E+02 -0.73041098875E+02  0.16572179951E+02  0.76691856960E+02  0.41800000000E+01 0. -1.
         -5    1    4    4    0  501 -0.83260564950E+02  0.32785093102E+02  0.10943761929E+02  0.90246453286E+02  0.41800000000E+01 0. -1.
</event>
<event>
11    1  0.8037748E-009  0.2317271E+03  0.7561462E-02  0.1034110E+00
         22   -1    0    0    0    0  0.00000000000E+00  0.00000000000E+00  0.38159348780E+03  0.38159348780E+03  0.00000000000E+00 0. -1.
         22   -1    0    0    0    0 -0.00000000000E+00 -0.00000000000E+00 -0.26328537226E+04  0.26328537226E+04  0.00000000000E+00 0. -1.
        -24    2    1    2    0    0  0.38601422936E+02 -0.10332663515E+03 -0.23766848057E+04  0.23805908561E+04  0.80098035556E+02 0.  0.
         25    2    1    2    0    0 -0.14525955610E+03 -0.71657633691E+02 -0.16724073709E+03  0.26429529301E+03  0.12508949860E+03 0.  0.
         24    2    1    2    0    0  0.10665813316E+03  0.17498426884E+03  0.29266530800E+03  0.36956106125E+03  0.94482505141E+02 0.  0.
        -13    1    5    5    0    0  0.32810528007E+02  0.10729715845E+03  0.91300027540E+02  0.14465443646E+03  0.00000000000E+00 0.  1.
         14    1    5    5    0    0  0.73847605157E+02  0.67687110385E+02  0.20136528046E+03  0.22490662479E+03  0.00000000000E+00 0. -1.
         13    1    3    3    0    0 -0.12054550146E+02 -0.67510444631E+02 -0.15831520546E+04  0.15846366777E+04  0.00000000000E+00 0. -1.
        -14    1    3    3    0    0  0.50655973082E+02 -0.35816190515E+02 -0.79353275105E+03  0.79595417840E+03  0.00000000000E+00 0.  1.
          5    1    4    4  501    0 -0.60045918232E+01  0.47376995880E+01  0.18148927889E+02  0.20133477192E+02  0.41800000000E+01 0.  1.
         -5    1    4    4    0  501 -0.13925496428E+03 -0.76395333279E+02 -0.18538966497E+03  0.24416181581E+03  0.41800000000E+01 0.  1.
</event>
<event>
11    1  0.8037748E-009  0.5693627E+03  0.7561462E-02  0.9250626E-01
         22   -1    0    0    0    0  0.00000000000E+00  0.00000000000E+00  0.11292833225E+04  0.11292833225E+04  0.00000000000E+00 0. -1.
         22   -1    0    0    0    0 -0.00000000000E+00 -0.00000000000E+00 -0.71765408019E+02  0.71765408019E+02  0.00000000000E+00 0. -1.
        -24    2    1    2    0    0 -0.71028520332E+02  0.17916821346E+02  0.14906551561E+03  0.18146784503E+03  0.73102583049E+02 0.  0.
         25    2    1    2    0    0  0.20099555959E+03 -0.13053774293E+03  0.57730198355E+03  0.63746793379E+03  0.12509384115E+03 0.  0.
         24    2    1    2    0    0 -0.12996703926E+03  0.11262092159E+03  0.33115041531E+03  0.38211295169E+03  0.82309215856E+02 0.  0.
        -11    1    5    5    0    0 -0.46101051868E+02  0.85704631302E+02  0.21789063778E+03  0.23863553978E+03  0.00000000000E+00 0.  1.
         12    1    5    5    0    0 -0.83865987392E+02  0.26916290287E+02  0.11325977752E+03  0.14347741191E+03  0.00000000000E+00 0. -1.
         13    1    3    3    0    0 -0.96124032518E+01  0.24663751313E+02  0.97382427328E+02  0.10091598524E+03  0.00000000000E+00 0. -1.
        -14    1    3    3    0    0 -0.61416117081E+02 -0.67469299670E+01  0.51683088286E+02  0.80551859792E+02  0.00000000000E+00 0.  1.
          5    1    4    4  501    0  0.20971579016E+03 -0.14337544919E+03  0.54838036250E+03  0.60438044844E+03  0.41800000000E+01 0.  1.
         -5    1    4    4    0  501 -0.87202305675E+01  0.12837706255E+02  0.28921621045E+02  0.33087485352E+02  0.41800000000E+01 0.  1.
</event>
<event>
11    1  0.8037748E-009  0.1399692E+03  0.7561462E-02  0.1107593E+00
         22   -1    0    0    0    0  0.00000000000E+00  0.00000000000E+00  0.70429883873E+02  0.70429883873E+02  0.00000000000E+00 0.  1.
         22   -1    0    0    0    0 -0.00000000000E+00 -0.00000000000E+00 -0.75801424290E+03  0.75801424290E+03  0.00000000000E+00 0. -1.
         24    2    1    2    0    0 -0.16004051620E+01  0.24532483374E+02 -0.47547070220E+03  0.48279276860E+03  0.80075369043E+02 0.  0.
         25    2    1    2    0    0  0.58978206957E+01 -0.82168261021E+02 -0.19721274917E+03  0.24764963573E+03  0.12510422149E+03 0.  0.
        -24    2    1    2    0    0 -0.42974155336E+01  0.57635777648E+02 -0.14900907653E+02  0.98001722433E+02  0.77729980739E+02 0.  0.
        -13    1    3    3    0    0  0.16668492610E+02  0.36964751727E+02 -0.12059363844E+03  0.12722836613E+03  0.00000000000E+00 0.  1.
         14    1    3    3    0    0 -0.18268897772E+02 -0.12432268354E+02 -0.35487706376E+03  0.35556440247E+03  0.00000000000E+00 0. -1.
         13    1    5    5    0    0  0.91270817923E+00  0.11239458834E+02 -0.42361519489E+02  0.43836706132E+02  0.00000000000E+00 0. -1.
        -14    1    5    5    0    0 -0.52101237129E+01  0.46396318814E+02  0.27460611836E+02  0.54165016302E+02  0.00000000000E+00 0.  1.
          5    1    4    4  501    0  0.18366192150E+02 -0.10645742630E+03 -0.10244715803E+03  0.14894090512E+03  0.41800000000E+01 0.  1.
         -5    1    4    4    0  501 -0.12468371454E+02  0.24289165275E+02 -0.94765591136E+02  0.98708730616E+02  0.41800000000E+01 0.  1.
</event>
<event>
11    1  0.8037748E-009  0.2229108E+03  0.7561462E-02  0.1039409E+00
         22   -1    0    0    0    0  0.00000000000E+00  0.00000000000E+00  0.65796828080E+03  0.65796828080E+03  0.00000000000E+00 0.  1.
         22   -1    0    0    0    0 -0.00000000000E+00 -0.00000000000E+00 -0.46419069346E+04  0.46419069346E+04  0.00000000000E+00 0.  1.
        -24    2    1    2    0    0 -0.32363383505E+02 -0.54529657775E+01 -0.43616415811E+04  0.43624962591E+04  0.79869926808E+02 0.  0.
         25    2    1    2    0    0 -0.10001163567E+03 -0.12564732709E+03 -0.22130108505E+03  0.30068417152E+03  0.12508885914E+03 0.  0.
         24    2    1    2    0    0  0.13237501917E+03  0.13110029287E+03  0.59900401242E+03  0.63669478473E+03  0.10892203415E+03 0.  0.
        -13    1    5    5    0    0  0.14031437234E+03  0.79025850349E+02  0.48671082215E+03  0.51266034809E+03  0.00000000000E+00 0.  1.
         14    1    5    5    0    0 -0.79393531653E+01  0.52074442520E+02  0.11229319027E+03  0.12403443664E+03  0.00000000000E+00 0. -1.
         11    1    3    3    0    0 -0.45083152571E+02 -0.20030755502E+02 -0.15433099001E+04  0.15440981735E+04  0.00000000000E+00 0. -1.
        -12    1    3    3    0    0  0.12719769066E+02  0.14577789724E+02 -0.28183316810E+04  0.28183980856E+04  0.00000000000E+00 0.  1.
          5    1    4    4  501    0 -0.50478972342E+02  0.15802627109E+02 -0.48248406401E+02  0.71716321660E+02  0.41800000000E+01 0.  1.
         -5    1    4    4    0  501 -0.49532663324E+02 -0.14144995420E+03 -0.17305267865E+03  0.22896784986E+03  0.41800000000E+01 0.  1.
</event>
<event>
11    1  0.8037748E-009  0.1403233E+03  0.7561462E-02  0.1107198E+00
         22   -1    0    0    0    0  0.00000000000E+00  0.00000000000E+00  0.81167962121E+03  0.81167962121E+03  0.00000000000E+00 0. -1.
         22   -1    0    0    0    0 -0.00000000000E+00 -0.00000000000E+00 -0.15875153138E+03  0.15875153138E+03  0.00000000000E+00 0. -1.
         24    2    1    2    0    0 -0.18516308734E+00  0.17926963056E+02 -0.11366640228E+03  0.14053681475E+03  0.80679210470E+02 0.  0.
         25    2    1    2    0    0  0.62089779309E+02 -0.12226984002E+01  0.14949910766E+03  0.20458583283E+03  0.12509494042E+03 0.  0.
        -24    2    1    2    0    0 -0.61904616222E+02 -0.16704264656E+02  0.61709538445E+03  0.62530850501E+03  0.78056383209E+02 0.  0.
        -11    1    3    3    0    0  0.30020378178E+02  0.12501088254E+02 -0.12534905391E+02  0.34851458601E+02  0.00000000000E+00 0.  1.
         12    1    3    3    0    0 -0.30205541265E+02  0.54258748020E+01 -0.10113149689E+03  0.10568535615E+03  0.00000000000E+00 0. -1.
         11    1    5    5    0    0  0.55054344470E+01  0.39975548708E+01  0.31571127380E+03  0.31578457634E+03  0.00000000000E+00 0. -1.
        -12    1    5    5    0    0 -0.67410050669E+02 -0.20701819527E+02  0.30138411066E+03  0.30952392867E+03  0.00000000000E+00 0.  1.
          5    1    4    4  501    0  0.49494642219E+02 -0.46940834105E+02  0.14035626760E+03  0.15611058827E+03  0.41800000000E+01 0.  1.
         -5    1    4    4    0  501  0.12595137090E+02  0.45718135705E+02  0.91428400552E+01  0.48475244557E+02  0.41800000000E+01 0.  1.
</event>
<event>
11    1  0.8037748E-009  0.1715315E+03  0.7561462E-02  0.1076707E+00
         22   -1    0    0    0    0  0.00000000000E+00  0.00000000000E+00  0.50588512909E+03  0.50588512909E+03  0.00000000000E+00 0. -1.
         22   -1    0    0    0    0 -0.00000000000E+00 -0.00000000000E+00 -0.22496448913E+04  0.22496448913E+04  0.00000000000E+00 0.  1.
        -24    2    1    2    0    0 -0.31453825582E+02  0.20541810760E+02 -0.21965619136E+04  0.21983740710E+04  0.80950643507E+02 0.  0.
         25    2    1    2    0    0  0.62585199134E+02  0.96186136362E+02  0.17835778933E+03  0.24622772727E+03  0.12509161716E+03 0.  0.
         24    2    1    2    0    0 -0.31131373553E+02 -0.11672794712E+03  0.27444436213E+03  0.31092822204E+03  0.82231838731E+02 0.  0.
        -11    1    5    5    0    0  0.28450769389E+00 -0.28707884832E+01 -0.59830676043E+01  0.66422487984E+01  0.00000000000E+00 0.  1.
         12    1    5    5    0    0 -0.31415881247E+02 -0.11385715864E+03  0.28042742973E+03  0.30428597324E+03  0.00000000000E+00 0. -1.
         11    1    3    3    0    0  0.13075540151E+02 -0.96800339204E+01 -0.11806986117E+03  0.11918542244E+03  0.00000000000E+00 0. -1.
        -12    1    3    3    0    0 -0.44529365732E+02  0.30221844681E+02 -0.20784920525E+04  0.20791886486E+04  0.00000000000E+00 0.  1.
          5    1    4    4  501    0  0.11880118577E+02  0.52533220392E+01 -0.18799209154E+02  0.23229663679E+02  0.41800000000E+01 0.  1.
         -5    1    4    4    0  501  0.50705080558E+02  0.90932814323E+02  0.19715699848E+03  0.22299806359E+03  0.41800000000E+01 0.  1.
</event>
<event>
11    1  0.8037748E-009  0.2368258E+03  0.7561462E-02  0.1031161E+00
         22   -1    0    0    0    0  0.00000000000E+00  0.00000000000E+00  0.37643650889E+03  0.37643650889E+03  0.00000000000E+00 0. -1.
         22   -1    0    0    0    0 -0.00000000000E+00 -0.00000000000E+00 -0.26502538632E+04  0.26502538632E+04  0.00000000000E+00 0. -1.
         24    2    1    2    0    0 -0.88853988958E+02  0.17834830056E+03 -0.18896160099E+04  0.19022803056E+04  0.91206076219E+02 0.  0.
         25    2    1    2    0    0 -0.89621959972E+02 -0.26175805657E+03 -0.68880661236E+03  0.75276267777E+03  0.12509086267E+03 0.  0.
        -24    2    1    2    0    0  0.17847594893E+03  0.83409756006E+02  0.30460526795E+03  0.37164738878E+03  0.80787131243E+02 0.  0.
        -13    1    3    3    0    0 -0.77240564652E+02  0.79337141304E+02 -0.72517427117E+03  0.73357904167E+03  0.00000000000E+00 0.  1.
         14    1    3    3    0    0 -0.11613424306E+02  0.99011159259E+02 -0.11644417388E+04  0.11687012639E+04  0.00000000000E+00 0. -1.
         13    1    5    5    0    0  0.16712144687E+03  0.65265818948E+02  0.30030235600E+03  0.34981525145E+03  0.00000000000E+00 0. -1.
        -14    1    5    5    0    0  0.11354502064E+02  0.18143937058E+02  0.43029119560E+01  0.21832137330E+02  0.00000000000E+00 0.  1.
          5    1    4    4  501    0 -0.83153078877E+02 -0.26289832618E+03 -0.69155150472E+03  0.74450716619E+03  0.41800000000E+01 0.  1.
         -5    1    4    4    0  501 -0.64688810956E+01  0.11402696106E+01  0.27448923545E+01  0.82555115803E+01  0.41800000000E+01 0.  1.
</event>
<event>
11    1  0.8037748E-009  0.1393361E+03  0.7561462E-02  0.1108302E+00
         22   -1    0    0    0    0  0.00000000000E+00  0.00000000000E+00  0.17598326154E+03  0.17598326154E+03  0.00000000000E+00 0. -1.
         22   -1    0    0    0    0 -0.00000000000E+00 -0.00000000000E+00 -0.23575293176E+03  0.23575293176E+03  0.00000000000E+00 0. -1.
         24    2    1    2    0    0  0.14235956944E+02  0.44163590930E+02 -0.12284845931E+03  0.15467413614E+03  0.81726734921E+02 0.  0.
         25    2    1    2    0    0  0.13083400983E+02 -0.87149035251E+02  0.22309187777E+02  0.15461828284E+03  0.12507191453E+03 0.  0.
        -24    2    1    2    0    0 -0.27319357927E+02  0.42985444321E+02  0.40769601314E+02  0.10244377432E+03  0.78983990560E+02 0.  0.
        -13    1    3    3    0    0 -0.34236646702E+02  0.20793851889E+02 -0.56176443748E+02  0.68995109145E+02  0.00000000000E+00 0.  1.
         14    1    3    3    0    0  0.48472603646E+02  0.23369739041E+02 -0.66672015564E+02  0.85679026993E+02  0.00000000000E+00 0. -1.
         11    1    5    5    0    0  0.14879646699E+02  0.19944850056E+02  0.47765060610E+02  0.53858165070E+02  0.00000000000E+00 0. -1.
        -12    1    5    5    0    0 -0.42199004626E+02  0.23040594264E+02 -0.69954592958E+01  0.48585609251E+02  0.00000000000E+00 0.  1.
          5    1    4    4  501    0  0.58896080013E+02 -0.72309484044E+02 -0.13685509160E+02  0.94351339602E+02  0.41800000000E+01 0.  1.
         -5    1    4    4    0  501 -0.45812679030E+02 -0.14839551207E+02  0.35994696937E+02  0.60266943240E+02  0.41800000000E+01 0.  1.
</event>
<event>
11    1  0.8037748E-009  0.3586413E+03  0.7561462E-02  0.9780345E-01
         22   -1    0    0    0    0  0.00000000000E+00  0.00000000000E+00  0.40031280036E+03  0.40031280036E+03  0.00000000000E+00 0. -1.
         22   -1    0    0    0    0 -0.00000000000E+00 -0.00000000000E+00 -0.41639332299E+04  0.41639332299E+04  0.00000000000E+00 0. -1.
        -24    2    1    2    0    0  0.16625179187E+03  0.29036493828E+03 -0.35090508246E+04  0.35257841835E+04  0.75927355266E+02 0.  0.
         25    2    1    2    0    0 -0.17774737288E+03 -0.29662208654E+03 -0.58892136889E+03  0.69430133696E+03  0.12508867649E+03 0.  0.
         24    2    1    2    0    0  0.11495581011E+02  0.62571482602E+01  0.33435176396E+03  0.34416050979E+03  0.80523624799E+02 0.  0.
        -13    1    5    5    0    0 -0.15725279810E+02  0.20097992595E+02  0.35324031297E+02  0.43577527678E+02  0.00000000000E+00 0.  1.
         14    1    5    5    0    0  0.27220860821E+02 -0.13840844335E+02  0.29902773266E+03  0.30058298211E+03  0.00000000000E+00 0. -1.
         13    1    3    3    0    0  0.14359509394E+03  0.25444848874E+03 -0.32668197128E+04  0.32798589330E+04  0.00000000000E+00 0. -1.
        -14    1    3    3    0    0  0.22656697930E+02  0.35916449541E+02 -0.24223111183E+03  0.24592525053E+03  0.00000000000E+00 0.  1.
          5    1    4    4  501    0 -0.20254744856E+02 -0.35275303857E+02 -0.13662726659E+02  0.43113156358E+02  0.41800000000E+01 0. -1.
         -5    1    4    4    0  501 -0.15749262803E+03 -0.26134678268E+03 -0.57525864223E+03  0.65118818060E+03  0.41800000000E+01 0. -1.
</event>
<event>
11    1  0.8037748E-009  0.2406426E+03  0.7561462E-02  0.1029006E+00
         22   -1    0    0    0    0  0.00000000000E+00  0.00000000000E+00  0.31207744117E+03  0.31207744117E+03  0.00000000000E+00 0. -1.
         22   -1    0    0    0    0 -0.00000000000E+00 -0.00000000000E+00 -0.15521068255E+04  0.15521068255E+04  0.00000000000E+00 0.  1.
         24    2    1    2    0    0  0.79627034596E+02 -0.10445539446E+03 -0.13152171268E+04  0.13239134899E+04  0.75494662687E+02 0.  0.
         25    2    1    2    0    0 -0.24311098508E+03  0.16977368740E+03 -0.23536304485E+02  0.32268802719E+03  0.12509016455E+03 0.  0.
        -24    2    1    2    0    0  0.16348395048E+03 -0.65318292936E+02  0.98724046888E+02  0.21758274962E+03  0.81254747810E+02 0.  0.
        -13    1    3    3    0    0  0.90426084216E+02 -0.10274500392E+03 -0.11102189460E+04  0.11186239406E+04  0.00000000000E+00 0.  1.
         14    1    3    3    0    0 -0.10799049620E+02 -0.17103905448E+01 -0.20499818082E+03  0.20528954929E+03  0.00000000000E+00 0. -1.
         13    1    5    5    0    0  0.17118676876E+03 -0.67655175839E+02  0.99923914117E+02  0.20944431534E+03  0.00000000000E+00 0. -1.
        -14    1    5    5    0    0 -0.77028182794E+01  0.23368829034E+01 -0.11998672289E+01  0.81384342792E+01  0.00000000000E+00 0.  1.
          5    1    4    4  501    0 -0.68731140406E+02  0.27602688203E+02 -0.59122145994E+02  0.94861892267E+02  0.41800000000E+01 0. -1.
         -5    1    4    4    0  501 -0.17437984467E+03  0.14217099920E+03  0.35585841509E+02  0.22782613493E+03  0.41800000000E+01 0. -1.
</event>
<event>
11    1  0.8037748E-009  0.2846175E+03  0.7561462E-02  0.1006920E+00
         22   -1    0    0    0    0  0.00000000000E+00  0.00000000000E+00  0.13797455663E+03  0.13797455663E+03  0.00000000000E+00 0. -1.
         22   -1    0    0    0    0 -0.00000000000E+00 -0.00000000000E+00 -0.22579371559E+04  0.22579371559E+04  0.00000000000E+00 0. -1.
        -24    2    1    2    0    0  0.10286479746E+02  0.93592055026E+01 -0.15499601727E+04  0.15518830333E+04  0.75967134573E+02 0.  0.
         25    2    1    2    0    0  0.22163133032E+03  0.10618359474E+03 -0.48843279881E+03  0.56089983469E+03  0.12508646305E+03 0.  0.
         24    2    1    2    0    0 -0.23191781006E+03 -0.11554280024E+03 -0.81569627753E+02  0.28312884458E+03  0.79826869857E+02 0.  0.
        -11    1    5    5    0    0  0.58668102942E+01 -0.81211777827E+01 -0.50341229917E+01  0.11212287273E+02  0.00000000000E+00 0.  1.
         12    1    5    5    0    0 -0.23778462036E+03 -0.10742162246E+03 -0.76535504761E+02  0.27191655731E+03  0.00000000000E+00 0. -1.
         11    1    3    3    0    0 -0.32019688944E+02  0.86714015328E+01 -0.84819871459E+03  0.84884716711E+03  0.00000000000E+00 0. -1.
        -12    1    3    3    0    0  0.42306168690E+02  0.68780396978E+00 -0.70176145815E+03  0.70303586618E+03  0.00000000000E+00 0.  1.
          5    1    4    4  501    0 -0.42003435544E+00 -0.18920713070E+02 -0.51805155593E+02  0.55311991087E+02  0.41800000000E+01 0.  1.
         -5    1    4    4    0  501  0.22205136467E+03  0.12510430781E+03 -0.43662764321E+03  0.50558784361E+03  0.41800000000E+01 0.  1.
</event>
<event>
11    1  0.8037748E-009  0.1470554E+03  0.7561462E-02  0.1099926E+00
         22   -1    0    0    0    0  0.00000000000E+00  0.00000000000E+00  0.47927841857E+03  0.47927841857E+03  0.00000000000E+00 0.  1.
         22   -1    0    0    0    0 -0.00000000000E+00 -0.00000000000E+00 -0.85086895688E+03  0.85086895688E+03  0.00000000000E+00 0.  1.
         24    2    1    2    0    0  0.24465412232E+02 -0.73348956200E+02 -0.81613464841E+03  0.82466953111E+03  0.89584850419E+02 0.  0.
         25    2    1    2    0    0 -0.56056871135E+02  0.62406394397E+02  0.24389656940E+03  0.28665274554E+03  0.12508928452E+03 0.  0.
        -24    2    1    2    0    0  0.31591458903E+02  0.10942561804E+02  0.20064754071E+03  0.21882509880E+03  0.80667393277E+02 0.  0.
        -13    1    3    3    0    0 -0.17887450956E+02 -0.73761629585E+02 -0.53858776055E+03  0.54390947291E+03  0.00000000000E+00 0.  1.
         14    1    3    3    0    0  0.42352863188E+02  0.41267338440E+00 -0.27754688786E+03  0.28076005820E+03  0.00000000000E+00 0. -1.
         11    1    5    5    0    0  0.55693739785E+00  0.18594010858E+02  0.17958443405E+03  0.18054533052E+03  0.00000000000E+00 0. -1.
        -12    1    5    5    0    0  0.31034521505E+02 -0.76514490549E+01  0.21063106662E+02  0.38279768285E+02  0.00000000000E+00 0.  1.
          5    1    4    4  501    0  0.98726513164E+01  0.71132376124E+01 -0.11414130998E+02  0.17199481963E+02  0.41800000000E+01 0.  1.
         -5    1    4    4    0  501 -0.65929522451E+02  0.55293156784E+02  0.25531070040E+03  0.26945326358E+03  0.41800000000E+01 0.  1.
</event>
<event>
11    1  0.8037748E-009  0.1607912E+03  0.7561462E-02  0.1086335E+00
         22   -1    0    0    0    0  0.00000000000E+00  0.00000000000E+00  0.27974843624E+03  0.27974843624E+03  0.00000000000E+00 0.  1.
         22   -1    0    0    0    0 -0.00000000000E+00 -0.00000000000E+00 -0.42205635411E+03  0.42205635411E+03  0.00000000000E+00 0.  1.
        -24    2    1    2    0    0  0.98211255514E+02  0.55471578783E+02 -0.28605540989E+03  0.31727440682E+03  0.78184428971E+02 0.  0.
         25    2    1    2    0    0 -0.20865410120E+02 -0.79113156319E+02 -0.51739001674E+02  0.15816699775E+03  0.12508244498E+03 0.  0.
         24    2    1    2    0    0 -0.77345845394E+02  0.23641577536E+02  0.19548649368E+03  0.22636338578E+03  0.80523966762E+02 0.  0.
        -13    1    5    5    0    0 -0.94066344812E+02  0.14844791894E+02  0.16232204924E+03  0.18819482656E+03  0.00000000000E+00 0.  1.
         14    1    5    5    0    0  0.16720499418E+02  0.87967856418E+01  0.33164444440E+02  0.38168559227E+02  0.00000000000E+00 0. -1.
         13    1    3    3    0    0  0.26113792965E+02 -0.19980349888E+02 -0.68006135528E+02  0.75537931095E+02  0.00000000000E+00 0. -1.
        -14    1    3    3    0    0  0.72097462549E+02  0.75451928671E+02 -0.21804927436E+03  0.24173647572E+03  0.00000000000E+00 0.  1.
          5    1    4    4  501    0  0.11005769872E+02 -0.64810243273E+02  0.27567452384E+02  0.71406802439E+02  0.41800000000E+01 0. -1.
         -5    1    4    4    0  501 -0.31871179992E+02 -0.14302913046E+02 -0.79306454057E+02  0.86760195313E+02  0.41800000000E+01 0. -1.
</event>
<event>
11    1  0.8037748E-009  0.3415064E+03  0.7561462E-02  0.9840098E-01
         22   -1    0    0    0    0  0.00000000000E+00  0.00000000000E+00  0.67640680752E+03  0.67640680752E+03  0.00000000000E+00 0.  1.
         22   -1    0    0    0    0 -0.00000000000E+00 -0.00000000000E+00 -0.10588720164E+04  0.10588720164E+04  0.00000000000E+00 0. -1.
        -24    2    1    2    0    0 -0.28301100925E+03  0.10261645621E+03 -0.68695898805E+03  0.75449925095E+03  0.82043281171E+02 0.  0.
         25    2    1    2    0    0  0.37315626082E+03 -0.76494119882E+02 -0.20924044172E+03  0.45225226710E+03  0.12511436879E+03 0.  0.
         24    2    1    2    0    0 -0.90145251573E+02 -0.26122336326E+02  0.51373422088E+03  0.52852730587E+03  0.81300187609E+02 0.  0.
        -13    1    5    5    0    0 -0.87185558930E+02 -0.49623462250E+02  0.42589799270E+03  0.43755332233E+03  0.00000000000E+00 0.  1.
         14    1    5    5    0    0 -0.29596926428E+01  0.23501125924E+02  0.87836228181E+02  0.90973983541E+02  0.00000000000E+00 0. -1.
         13    1    3    3    0    0 -0.21008710427E+03  0.91557224727E+02 -0.58796767544E+03  0.63105095210E+03  0.00000000000E+00 0. -1.
        -14    1    3    3    0    0 -0.72923904976E+02  0.11059231480E+02 -0.98991312610E+02  0.12344829885E+03  0.00000000000E+00 0.  1.
          5    1    4    4  501    0  0.29490839556E+03 -0.64432285873E+02 -0.10153074680E+03  0.31850972698E+03  0.41800000000E+01 0. -1.
         -5    1    4    4    0  501  0.78247865255E+02 -0.12061834008E+02 -0.10770969492E+03  0.13374254011E+03  0.41800000000E+01 0. -1.
</event>
<event>
11    1  0.8037748E-009  0.2040471E+03  0.7561462E-02  0.1051698E+00
         22   -1    0    0    0    0  0.00000000000E+00  0.00000000000E+00  0.16297362780E+03  0.16297362780E+03  0.00000000000E+00 0. -1.
         22   -1    0    0    0    0 -0.00000000000E+00 -0.00000000000E+00 -0.19034842231E+04  0.19034842231E+04  0.00000000000E+00 0.  1.
         24    2    1    2    0    0  0.22727929988E+02 -0.15914246733E+03 -0.12025945871E+04  0.12157581568E+04  0.77403302309E+02 0.  0.
         25    2    1    2    0    0  0.28144560975E+01  0.16368138714E+03 -0.66676795183E+03  0.69787355595E+03  0.12509388814E+03 0.  0.
        -24    2    1    2    0    0 -0.25542386086E+02 -0.45389198147E+01  0.12885194367E+03  0.15282613810E+03  0.77974289463E+02 0.  0.
        -11    1    3    3    0    0 -0.11666382851E+02 -0.13498483789E+03 -0.96668921759E+03  0.97613782550E+03  0.00000000000E+00 0.  1.
         12    1    3    3    0    0  0.34394312840E+02 -0.24157629437E+02 -0.23590536951E+03  0.23962033131E+03  0.00000000000E+00 0. -1.
         11    1    5    5    0    0  0.16639835817E+02  0.69042643004E+01  0.97216510205E+02  0.98871648403E+02  0.00000000000E+00 0. -1.
        -12    1    5    5    0    0 -0.42182221903E+02 -0.11443184115E+02  0.31635433467E+02  0.53954489693E+02  0.00000000000E+00 0.  1.
          5    1    4    4  501    0 -0.51579899571E+02  0.13396473594E+03 -0.48215780713E+03  0.50309110497E+03  0.41800000000E+01 0. -1.
         -5    1    4    4    0  501  0.54394355669E+02  0.29716651198E+02 -0.18461014470E+03  0.19478245098E+03  0.41800000000E+01 0. -1.
</event>
<event>
11    1  0.8037748E-009  0.1548281E+03  0.7561462E-02  0.1092045E+00
         22   -1    0    0    0    0  0.00000000000E+00  0.00000000000E+00  0.51680039141E+03  0.51680039141E+03  0.00000000000E+00 0.  1.
         22   -1    0    0    0    0 -0.00000000000E+00 -0.00000000000E+00 -0.40459702556E+03  0.40459702556E+03  0.00000000000E+00 0. -1.
         24    2    1    2    0    0  0.47789949761E+01 -0.28266903529E+02 -0.28326038068E+03  0.29599076531E+03  0.80945866205E+02 0.  0.
         25    2    1    2    0    0 -0.81952845897E+02  0.74338273006E+02 -0.41254429702E+02  0.17202081064E+03  0.12508710380E+03 0.  0.
        -24    2    1    2    0    0  0.77173850921E+02 -0.46071369477E+02  0.43671817623E+03  0.45338584103E+03  0.82204507427E+02 0.  0.
        -11    1    3    3    0    0 -0.30483241172E+02 -0.85681643012E+01 -0.49464153264E+02  0.58731115177E+02  0.00000000000E+00 0.  1.
         12    1    3    3    0    0  0.35262236148E+02 -0.19698739228E+02 -0.23379622742E+03  0.23725965013E+03  0.00000000000E+00 0. -1.
         11    1    5    5    0    0  0.57136863468E+02 -0.47924733715E+02  0.16672028171E+03  0.18263913491E+03  0.00000000000E+00 0. -1.
        -12    1    5    5    0    0  0.20036987453E+02  0.18533642375E+01  0.26999789452E+03  0.27074670611E+03  0.00000000000E+00 0.  1.
          5    1    4    4  501    0  0.30420432993E+02  0.29058756566E+02 -0.26514935353E+02  0.49903189011E+02  0.41800000000E+01 0. -1.
         -5    1    4    4    0  501 -0.11237327889E+03  0.45279516440E+02 -0.14739494349E+02  0.12211762162E+03  0.41800000000E+01 0. -1.
</event>
<event>
11    1  0.8037748E-009  0.1445904E+03  0.7561462E-02  0.1102538E+00
         22   -1    0    0    0    0  0.00000000000E+00  0.00000000000E+00  0.37911853655E+03  0.37911853655E+03  0.00000000000E+00 0.  1.
         22   -1    0    0    0    0 -0.00000000000E+00 -0.00000000000E+00 -0.82677029308E+03  0.82677029308E+03  0.00000000000E+00 0. -1.
        -24    2    1    2    0    0 -0.71709806596E+02 -0.68108103385E+01 -0.67371222079E+03  0.68226735749E+03  0.80074385183E+02 0.  0.
         25    2    1    2    0    0  0.33799184198E+02 -0.57881239752E+02 -0.10377251501E+03  0.17580758506E+03  0.12508776649E+03 0.  0.
         24    2    1    2    0    0  0.37910622399E+02  0.64692050090E+02  0.32983297926E+03  0.34781388708E+03  0.81008821744E+02 0.  0.
        -13    1    5    5    0    0  0.38137064888E+02  0.73199216588E+02  0.32907705471E+03  0.33927020052E+03  0.00000000000E+00 0.  1.
         14    1    5    5    0    0 -0.22644248907E+00 -0.85071664979E+01  0.75592455325E+00  0.85436865553E+01  0.00000000000E+00 0. -1.
         11    1    3    3    0    0 -0.66296093648E+02 -0.37639400756E+02 -0.49458013945E+03  0.50042123342E+03  0.00000000000E+00 0. -1.
        -12    1    3    3    0    0 -0.54137129488E+01  0.30828590417E+02 -0.17913208134E+03  0.18184612407E+03  0.00000000000E+00 0.  1.
          5    1    4    4  501    0  0.33458496196E+02  0.28531232685E+02 -0.49192386322E+01  0.44442924239E+02  0.41800000000E+01 0. -1.
         -5    1    4    4    0  501  0.34068800187E+00 -0.86412472437E+02 -0.98853276381E+02  0.13136466082E+03  0.41800000000E+01 0. -1.
</event>
<event>
11    1  0.8037748E-009  0.1374872E+03  0.7561462E-02  0.1110397E+00
         22   -1    0    0    0    0  0.00000000000E+00  0.00000000000E+00  0.16882906436E+04  0.16882906436E+04  0.00000000000E+00 0.  1.
         22   -1    0    0    0    0 -0.00000000000E+00 -0.00000000000E+00 -0.24202615130E+03  0.24202615130E+03  0.00000000000E+00 0. -1.
        -24    2    1    2    0    0  0.28248959861E+01 -0.28616864541E+02 -0.18166201824E+03  0.20015668551E+03  0.78960147622E+02 0.  0.
         25    2    1    2    0    0  0.50325176982E+02  0.68208546091E+01  0.42271990030E+02  0.14147087141E+03  0.12509172163E+03 0.  0.
         24    2    1    2    0    0 -0.53150072968E+02  0.21796009932E+02  0.15856545205E+04  0.15886892380E+04  0.79581657221E+02 0.  0.
        -13    1    5    5    0    0 -0.18398796174E+02  0.47788669141E+02  0.10645147320E+04  0.10657456954E+04  0.00000000000E+00 0.  1.
         14    1    5    5    0    0 -0.34751276794E+02 -0.25992659209E+02  0.52113978856E+03  0.52294354264E+03  0.00000000000E+00 0. -1.
         13    1    3    3    0    0  0.20207595807E+02 -0.54187238800E+01 -0.16579562507E+03  0.16711043890E+03  0.00000000000E+00 0. -1.
        -14    1    3    3    0    0 -0.17382699821E+02 -0.23198140661E+02 -0.15866393167E+02  0.33046246615E+02  0.00000000000E+00 0.  1.
          5    1    4    4  501    0  0.88466238756E+02  0.94821198481E+01  0.71025093578E+01  0.89353813772E+02  0.41800000000E+01 0. -1.
         -5    1    4    4    0  501 -0.38141061774E+02 -0.26612652389E+01  0.35169480673E+02  0.52117057637E+02  0.41800000000E+01 0. -1.
</event>
<event>
11    1  0.8037748E-009  0.6028030E+03  0.7561462E-02  0.9189237E-01
         22   -1    0    0    0    0  0.00000000000E+00  0.00000000000E+00  0.77028994841E+03  0.77028994841E+03  0.00000000000E+00 0. -1.
         22   -1    0    0    0    0 -0.00000000000E+00 -0.00000000000E+00 -0.95665547580E+03  0.95665547580E+03  0.00000000000E+00 0. -1.
        -24    2    1    2    0    0 -0.29777101860E+03  0.51524750016E+03 -0.58913033789E+03  0.84128131402E+03  0.80821583487E+02 0.  0.
         25    2    1    2    0    0  0.17196136836E+03 -0.55730543173E+03  0.19765599540E+03  0.62839145301E+03  0.12509144358E+03 0.  0.
         24    2    1    2    0    0  0.12580965025E+03  0.42057931573E+02  0.20510881510E+03  0.25727265718E+03  0.80762964278E+02 0.  0.
        -13    1    5    5    0    0  0.74944044134E+02  0.65271037514E+02  0.13266643732E+03  0.16576278738E+03  0.00000000000E+00 0.  1.
         14    1    5    5    0    0  0.50865606114E+02 -0.23213105941E+02  0.72442377779E+02  0.91509869802E+02  0.00000000000E+00 0. -1.
         11    1    3    3    0    0 -0.28726425142E+03  0.49724752278E+03 -0.54155106738E+03  0.78933732183E+03  0.00000000000E+00 0. -1.
        -12    1    3    3    0    0 -0.10506767183E+02  0.17999977376E+02 -0.47579270507E+02  0.51943992185E+02  0.00000000000E+00 0.  1.
          5    1    4    4  501    0  0.23707095942E+02 -0.18179231250E+03  0.11445583601E+03  0.21616679227E+03  0.41800000000E+01 0.  1.
         -5    1    4    4    0  501  0.14825427241E+03 -0.37551311923E+03  0.83200159392E+02  0.41222466074E+03  0.41800000000E+01 0.  1.
</event>
<event>
11    1  0.8037748E-009  0.1425180E+03  0.7561462E-02  0.1104779E+00
         22   -1    0    0    0    0  0.00000000000E+00  0.00000000000E+00  0.12315836866E+04  0.12315836866E+04  0.00000000000E+00 0.  1.
         22   -1    0    0    0    0 -0.00000000000E+00 -0.00000000000E+00 -0.58123738866E+03  0.58123738866E+03  0.00000000000E+00 0.  1.
         24    2    1    2    0    0  0.58194826240E+01  0.28909777327E+02 -0.54202135770E+03  0.54883309143E+03  0.80999805205E+02 0.  0.
         25    2    1    2    0    0 -0.45765661301E+02 -0.81223687809E+02  0.15473885476E+03  0.21973800706E+03  0.12509554491E+03 0.  0.
        -24    2    1    2    0    0  0.39946178677E+02  0.52313910481E+02  0.10376288009E+04  0.10442499768E+04  0.97221618698E+02 0.  0.
        -11    1    3    3    0    0  0.17561958259E+02  0.51621868555E+02 -0.26006608568E+03  0.26572092242E+03  0.00000000000E+00 0.  1.
         12    1    3    3    0    0 -0.11742475635E+02 -0.22712091227E+02 -0.28195527202E+03  0.28311216901E+03  0.00000000000E+00 0. -1.
         11    1    5    5    0    0 -0.30721931668E+02  0.25046820210E+02  0.45383761417E+03  0.45556531949E+03  0.00000000000E+00 0. -1.
        -12    1    5    5    0    0  0.70668110345E+02  0.27267090272E+02  0.58379118673E+03  0.58868465729E+03  0.00000000000E+00 0.  1.
          5    1    4    4  501    0 -0.10126795265E+02  0.32536101820E+02  0.19789563396E+02  0.39626369041E+02  0.41800000000E+01 0.  1.
         -5    1    4    4    0  501 -0.35638866036E+02 -0.11375978963E+03  0.13494929137E+03  0.18011163802E+03  0.41800000000E+01 0.  1.
</event>
<event>
11    1  0.8037748E-009  0.5106279E+03  0.7561462E-02  0.9370082E-01
         22   -1    0    0    0    0  0.00000000000E+00  0.00000000000E+00  0.17007015512E+04  0.17007015512E+04  0.00000000000E+00 0. -1.
         22   -1    0    0    0    0 -0.00000000000E+00 -0.00000000000E+00 -0.38328426658E+02  0.38328426658E+02  0.00000000000E+00 0.  1.
         24    2    1    2    0    0  0.31037472046E+02  0.19925128959E+02  0.27027350083E+03  0.28472355254E+03  0.81605151106E+02 0.  0.
         25    2    1    2    0    0 -0.15785218078E+03 -0.12154742919E+03  0.69254264013E+03  0.73140423372E+03  0.12508299722E+03 0.  0.
        -24    2    1    2    0    0  0.12681470873E+03  0.10162230023E+03  0.69955698363E+03  0.72290219164E+03  0.82453278131E+02 0.  0.
        -11    1    3    3    0    0  0.82620196614E+01 -0.98262815804E+01  0.10232554643E+01  0.12878813235E+02  0.00000000000E+00 0.  1.
         12    1    3    3    0    0  0.22775452385E+02  0.29751410539E+02  0.26925024537E+03  0.27184473931E+03  0.00000000000E+00 0. -1.
         11    1    5    5    0    0  0.64040703162E+02  0.41303278139E+02  0.49139751202E+03  0.49727124114E+03  0.00000000000E+00 0. -1.
        -12    1    5    5    0    0  0.62774005568E+02  0.60319022092E+02  0.20815947162E+03  0.22563095050E+03  0.00000000000E+00 0.  1.
          5    1    4    4  501    0 -0.29795130636E+01 -0.12333718637E+02 -0.30710902826E-01  0.13359320966E+02  0.41800000000E+01 0.  1.
         -5    1    4    4    0  501 -0.15487266771E+03 -0.10921371055E+03  0.69257335103E+03  0.71804491276E+03  0.41800000000E+01 0.  1.
</event>
<event>
11    1  0.8037748E-009  0.5806955E+03  0.7561462E-02  0.9229332E-01
         22   -1    0    0    0    0  0.00000000000E+00  0.00000000000E+00  0.11105803774E+04  0.11105803774E+04  0.00000000000E+00 0. -1.
         22   -1    0    0    0    0 -0.00000000000E+00 -0.00000000000E+00 -0.39037080712E+03  0.39037080712E+03  0.00000000000E+00 0. -1.
        -24    2    1    2    0    0  0.15824694120E+02  0.49221921787E+00 -0.50696775248E+02  0.11098258231E+03  0.97448998623E+02 0.  0.
         25    2    1    2    0    0 -0.24542415230E+03 -0.51491006962E+03  0.44601043408E+03  0.73480477732E+03  0.12508940461E+03 0.  0.
         24    2    1    2    0    0  0.22959945818E+03  0.51441785040E+03  0.32489591141E+03  0.65516382484E+03  0.79628186800E+02 0.  0.
        -13    1    5    5    0    0  0.43387365481E+02  0.18828926953E+03  0.10301404171E+03  0.21896850297E+03  0.00000000000E+00 0.  1.
         14    1    5    5    0    0  0.18621209270E+03  0.32612858087E+03  0.22188186970E+03  0.43619532187E+03  0.00000000000E+00 0. -1.
         11    1    3    3    0    0 -0.22056545830E+02  0.37971280013E+02 -0.13304320810E+02  0.45883703774E+02  0.00000000000E+00 0. -1.
        -12    1    3    3    0    0  0.37881239950E+02 -0.37479060795E+02 -0.37392454437E+02  0.65098878540E+02  0.00000000000E+00 0.  1.
          5    1    4    4  501    0 -0.15733198496E+03 -0.27049838770E+03  0.31413083698E+03  0.44341671866E+03  0.41800000000E+01 0. -1.
         -5    1    4    4    0  501 -0.88092167332E+02 -0.24441168191E+03  0.13187959709E+03  0.29138805866E+03  0.41800000000E+01 0. -1.
</event>
<event>
11    1  0.8037748E-009  0.1500717E+03  0.7561462E-02  0.1096806E+00
         22   -1    0    0    0    0  0.00000000000E+00  0.00000000000E+00  0.65575244013E+03  0.65575244013E+03  0.00000000000E+00 0.  1.
         22   -1    0    0    0    0 -0.00000000000E+00 -0.00000000000E+00 -0.62085750535E+03  0.62085750535E+03  0.00000000000E+00 0. -1.
         24    2    1    2    0    0 -0.24660406563E+02  0.63011888849E+02 -0.53577909809E+03  0.54580858556E+03  0.79177877831E+02 0.  0.
         25    2    1    2    0    0  0.24798158597E+02  0.24572967137E+02 -0.17186755690E+02  0.13100203037E+03  0.12508944003E+03 0.  0.
        -24    2    1    2    0    0 -0.13775203353E+00 -0.87584855986E+02  0.58786078856E+03  0.59979932955E+03  0.80670955256E+02 0.  0.
        -13    1    3    3    0    0  0.14366456375E+02  0.22623923339E+02 -0.49433144706E+02  0.56230532378E+02  0.00000000000E+00 0.  1.
         14    1    3    3    0    0 -0.39026862938E+02  0.40387965510E+02 -0.48634595338E+03  0.48957805318E+03  0.00000000000E+00 0. -1.
         11    1    5    5    0    0  0.31475300711E+02 -0.11526448794E+02  0.23945885630E+03  0.24179350164E+03  0.00000000000E+00 0. -1.
        -12    1    5    5    0    0 -0.31613052745E+02 -0.76058407191E+02  0.34840193226E+03  0.35800582790E+03  0.00000000000E+00 0.  1.
          5    1    4    4  501    0  0.47568037427E+02  0.28189166854E+02 -0.60307970401E+02  0.81926009340E+02  0.41800000000E+01 0. -1.
         -5    1    4    4    0  501 -0.22769878830E+02 -0.36161997170E+01  0.43121214710E+02  0.49076021033E+02  0.41800000000E+01 0. -1.
</event>
<event>
11    1  0.8037748E-009  0.2874375E+03  0.7561462E-02  0.1005653E+00
         22   -1    0    0    0    0  0.00000000000E+00  0.00000000000E+00  0.10667148752E+03  0.10667148752E+03  0.00000000000E+00 0. -1.
         22   -1    0    0    0    0 -0.00000000000E+00 -0.00000000000E+00 -0.23383819034E+04  0.23383819034E+04  0.00000000000E+00 0. -1.
         24    2    1    2    0    0  0.25426126806E+03  0.19071510762E+02 -0.15622745065E+04  0.15850379315E+04  0.81431539752E+02 0.  0.
         25    2    1    2    0    0 -0.27020507794E+03  0.16001914983E+02 -0.70358579987E+03  0.76416475817E+03  0.12509178399E+03 0.  0.
        -24    2    1    2    0    0  0.15943809883E+02 -0.35073425745E+02  0.34149890470E+02  0.95850701281E+02  0.80850427642E+02 0.  0.
        -11    1    3    3    0    0  0.44076770777E+02 -0.10706754074E+02 -0.48016185073E+03  0.48229949119E+03  0.00000000000E+00 0.  1.
         12    1    3    3    0    0  0.21018449728E+03  0.29778264836E+02 -0.10821126557E+04  0.11027384403E+04  0.00000000000E+00 0. -1.
         11    1    5    5    0    0  0.38795079919E+02 -0.10930191228E+02  0.45443113670E+02  0.60742109662E+02  0.00000000000E+00 0. -1.
        -12    1    5    5    0    0 -0.22851270037E+02 -0.24143234517E+02 -0.11293223199E+02  0.35108591619E+02  0.00000000000E+00 0.  1.
          5    1    4    4  501    0 -0.18527489071E+03 -0.76680583548E+01 -0.60029832855E+03  0.62830019888E+03  0.41800000000E+01 0. -1.
         -5    1    4    4    0  501 -0.84930187228E+02  0.23669973337E+02 -0.10328747131E+03  0.13586455929E+03  0.41800000000E+01 0. -1.
</event>
<event>
11    1  0.8037748E-009  0.1730226E+03  0.7561462E-02  0.1075431E+00
         22   -1    0    0    0    0  0.00000000000E+00  0.00000000000E+00  0.43700444891E+03  0.43700444891E+03  0.00000000000E+00 0.  1.
         22   -1    0    0    0    0 -0.00000000000E+00 -0.00000000000E+00 -0.12053076002E+04  0.12053076002E+04  0.00000000000E+00 0.  1.
         24    2    1    2    0    0 -0.11552097100E+03 -0.26178063295E+02 -0.98287717940E+03  0.99313601327E+03  0.79001299458E+02 0.  0.
         25    2    1    2    0    0  0.12955940852E+03  0.44648208684E+01 -0.17379878632E+03  0.25031908901E+03  0.12509217896E+03 0.  0.
        -24    2    1    2    0    0 -0.14038437526E+02  0.21713242427E+02  0.38837281441E+03  0.39885694684E+03  0.87091207622E+02 0.  0.
        -11    1    3    3    0    0 -0.11844932548E+03 -0.10000346778E+02 -0.93475414476E+03  0.94228210255E+03  0.00000000000E+00 0.  1.
         12    1    3    3    0    0  0.29283544841E+01 -0.16177716517E+02 -0.48123034646E+02  0.50853910718E+02  0.00000000000E+00 0. -1.
         11    1    5    5    0    0  0.36120322956E+02  0.48103138908E+01  0.12426906449E+03  0.12950141790E+03  0.00000000000E+00 0. -1.
        -12    1    5    5    0    0 -0.50158760482E+02  0.16902928536E+02  0.26410374993E+03  0.26935552894E+03  0.00000000000E+00 0.  1.
          5    1    4    4  501    0 -0.17120058885E+01  0.20556621672E+02 -0.92842144347E+02  0.95197908725E+02  0.41800000000E+01 0.  1.
         -5    1    4    4    0  501  0.13127141441E+03 -0.16091800803E+02 -0.80956641968E+02  0.15512118029E+03  0.41800000000E+01 0.  1.
</event>
<event>
11    1  0.8037748E-009  0.1429346E+03  0.7561462E-02  0.1104325E+00
         22   -1    0    0    0    0  0.00000000000E+00  0.00000000000E+00  0.45739472152E+03  0.45739472152E+03  0.00000000000E+00 0.  1.
         22   -1    0    0    0    0 -0.00000000000E+00 -0.00000000000E+00 -0.79762891780E+03  0.79762891780E+03  0.00000000000E+00 0.  1.
        -24    2    1    2    0    0 -0.49228413559E+02  0.48906892842E+02 -0.72902727702E+03  0.73675478652E+03  0.80694014363E+02 0.  0.
         25    2    1    2    0    0  0.39292329977E+02 -0.51405726745E+02  0.21916520589E+02  0.14252888781E+03  0.12509082319E+03 0.  0.
         24    2    1    2    0    0  0.99360835819E+01  0.24988339024E+01  0.36687656014E+03  0.37573996499E+03  0.80480686990E+02 0.  0.
        -13    1    5    5    0    0  0.42500241032E+02  0.15144250717E+02  0.17586114544E+03  0.18155649615E+03  0.00000000000E+00 0.  1.
         14    1    5    5    0    0 -0.32564157450E+02 -0.12645416815E+02  0.19101541470E+03  0.19418346884E+03  0.00000000000E+00 0. -1.
         13    1    3    3    0    0  0.22392829222E+02  0.83178604673E+01 -0.14513489591E+03  0.14708760524E+03  0.00000000000E+00 0. -1.
        -14    1    3    3    0    0 -0.71621242780E+02  0.40589032375E+02 -0.58389238111E+03  0.58966718128E+03  0.00000000000E+00 0.  1.
          5    1    4    4  501    0  0.66140536592E+02 -0.69090746014E+02  0.41835474420E+02  0.10447861545E+03  0.41800000000E+01 0.  1.
         -5    1    4    4    0  501 -0.26848206615E+02  0.17685019269E+02 -0.19918953830E+02  0.38050272360E+02  0.41800000000E+01 0.  1.
</event>
<event>
11    1  0.8037748E-009  0.2691155E+03  0.7561462E-02  0.1014182E+00
         22   -1    0    0    0    0  0.00000000000E+00  0.00000000000E+00  0.22415840647E+04  0.22415840647E+04  0.00000000000E+00 0. -1.
         22   -1    0    0    0    0 -0.00000000000E+00 -0.00000000000E+00 -0.30478295396E+03  0.30478295396E+03  0.00000000000E+00 0.  1.
         24    2    1    2    0    0 -0.24473252247E+03 -0.10216459048E+03 -0.16567208017E+03  0.32272646625E+03  0.79834345776E+02 0.  0.
         25    2    1    2    0    0  0.18144692471E+03 -0.15436044650E+02  0.15469767848E+03  0.26970395703E+03  0.12509034635E+03 0.  0.
        -24    2    1    2    0    0  0.63285597768E+02  0.11760063513E+03  0.19477755124E+04  0.19539365954E+04  0.78764177499E+02 0.  0.
        -11    1    3    3    0    0 -0.92579365769E+02 -0.10081609615E+02 -0.26285414178E+02  0.96765183910E+02  0.00000000000E+00 0.  1.
         12    1    3    3    0    0 -0.15215315671E+03 -0.92082980864E+02 -0.13938666599E+03  0.22596128234E+03  0.00000000000E+00 0. -1.
         11    1    5    5    0    0  0.46249864557E+02  0.96245689336E+02  0.18266665604E+04  0.18297849616E+04  0.00000000000E+00 0. -1.
        -12    1    5    5    0    0  0.17035733211E+02  0.21354945793E+02  0.12110895203E+03  0.12415163381E+03  0.00000000000E+00 0.  1.
          5    1    4    4  501    0  0.11581198424E+02 -0.43701966857E+02  0.52526543494E+02  0.69429793572E+02  0.41800000000E+01 0. -1.
         -5    1    4    4    0  501  0.16986572628E+03  0.28265922206E+02  0.10217113499E+03  0.20027416346E+03  0.41800000000E+01 0. -1.
</event>
<event>
11    1  0.8037748E-009  0.1287613E+03  0.7561462E-02  0.1120800E+00
         22   -1    0    0    0    0  0.00000000000E+00  0.00000000000E+00  0.13724056858E+03  0.13724056858E+03  0.00000000000E+00 0. -1.
         22   -1    0    0    0    0 -0.00000000000E+00 -0.00000000000E+00 -0.49336239882E+03  0.49336239882E+03  0.00000000000E+00 0.  1.
        -24    2    1    2    0    0 -0.34528844632E+01  0.27523967133E+02 -0.28256947987E+03  0.29517159098E+03  0.80692415953E+02 0.  0.
         25    2    1    2    0    0 -0.10284543006E+02 -0.41593290524E+02 -0.16519700615E+03  0.21159631228E+03  0.12508866811E+03 0.  0.
         24    2    1    2    0    0  0.13737427469E+02  0.14069323391E+02  0.91644655789E+02  0.12383506413E+03  0.80930324354E+02 0.  0.
        -11    1    5    5    0    0  0.82649619342E+01  0.32437177839E+02  0.35289197679E+01  0.33659075696E+02  0.00000000000E+00 0.  1.
         12    1    5    5    0    0  0.54724655349E+01 -0.18367854449E+02  0.88115736021E+02  0.90175988437E+02  0.00000000000E+00 0. -1.
         11    1    3    3    0    0  0.62209327906E+01 -0.64242397305E+01  0.13693950029E+01  0.90468836388E+01  0.00000000000E+00 0. -1.
        -12    1    3    3    0    0 -0.96738172538E+01  0.33948206864E+02 -0.28393887487E+03  0.28612470734E+03  0.00000000000E+00 0.  1.
          5    1    4    4  501    0  0.13250765910E+02 -0.80232227258E+02 -0.13286613892E+03  0.15583220578E+03  0.41800000000E+01 0. -1.
         -5    1    4    4    0  501 -0.23535308916E+02  0.38638936734E+02 -0.32330867233E+02  0.55764106500E+02  0.41800000000E+01 0. -1.
</event>
<event>
11    1  0.8037748E-009  0.1415808E+03  0.7561462E-02  0.1105806E+00
         22   -1    0    0    0    0  0.00000000000E+00  0.00000000000E+00  0.31507591256E+02  0.31507591256E+02  0.00000000000E+00 0.  1.
         22   -1    0    0    0    0 -0.00000000000E+00 -0.00000000000E+00 -0.23637187017E+04  0.23637187017E+04  0.00000000000E+00 0.  1.
         24    2    1    2    0    0  0.50561055385E+02  0.47629025422E+02 -0.17763428553E+04  0.17793854707E+04  0.77419438072E+02 0.  0.
         25    2    1    2    0    0 -0.41772281889E+02 -0.25491118845E+02 -0.49965628762E+03  0.51739541670E+03  0.12508753251E+03 0.  0.
        -24    2    1    2    0    0 -0.87887734959E+01 -0.22137906576E+02 -0.56211967504E+02  0.98445405534E+02  0.77229418830E+02 0.  0.
        -11    1    3    3    0    0  0.63242095508E+02  0.58607295125E+02 -0.13830032376E+04  0.13856883968E+04  0.00000000000E+00 0.  1.
         12    1    3    3    0    0 -0.12681040123E+02 -0.10978269703E+02 -0.39333961766E+03  0.39369707391E+03  0.00000000000E+00 0. -1.
         11    1    5    5    0    0  0.27720994883E+02  0.10514334286E+02 -0.32615680331E+02  0.44077061906E+02  0.00000000000E+00 0. -1.
        -12    1    5    5    0    0 -0.36509768379E+02 -0.32652240863E+02 -0.23596287173E+02  0.54368343627E+02  0.00000000000E+00 0.  1.
          5    1    4    4  501    0 -0.79983127760E+02 -0.43047997425E+02 -0.30834334038E+03  0.32147086768E+03  0.41800000000E+01 0.  1.
         -5    1    4    4    0  501  0.38210845871E+02  0.17556878580E+02 -0.19131294724E+03  0.19592454902E+03  0.41800000000E+01 0.  1.
</event>
<event>
11    1  0.8037748E-009  0.1928847E+03  0.7561462E-02  0.1059672E+00
         22   -1    0    0    0    0  0.00000000000E+00  0.00000000000E+00  0.15914006365E+04  0.15914006365E+04  0.00000000000E+00 0.  1.
         22   -1    0    0    0    0 -0.00000000000E+00 -0.00000000000E+00 -0.14229794665E+04  0.14229794665E+04  0.00000000000E+00 0.  1.
         24    2    1    2    0    0 -0.13789587041E+03  0.49642026773E+02 -0.12739055584E+04  0.12847854880E+04  0.79741938175E+02 0.  0.
         25    2    1    2    0    0  0.15916129990E+03  0.53045134623E+00 -0.69938906826E+02  0.21417836261E+03  0.12509324347E+03 0.  0.
        -24    2    1    2    0    0 -0.21265429487E+02 -0.50172478119E+02  0.15122656352E+04  0.15154162523E+04  0.81052887015E+02 0.  0.
        -11    1    3    3    0    0 -0.11688090139E+03  0.55587481312E+02 -0.12165038928E+04  0.12233694595E+04  0.00000000000E+00 0.  1.
         12    1    3    3    0    0 -0.21014969021E+02 -0.59454545392E+01 -0.57401665581E+02  0.61416028560E+02  0.00000000000E+00 0. -1.
         11    1    5    5    0    0  0.13480495712E+02  0.29914318934E+01  0.53002773862E+02  0.54771949632E+02  0.00000000000E+00 0. -1.
        -12    1    5    5    0    0 -0.34745925200E+02 -0.53163910012E+02  0.14592628613E+04  0.14606443027E+04  0.00000000000E+00 0.  1.
          5    1    4    4  501    0  0.82888508906E+02 -0.41019899277E+02 -0.85290331480E+02  0.12587712298E+03  0.41800000000E+01 0. -1.
         -5    1    4    4    0  501  0.76272790989E+02  0.41550350624E+02  0.15351424655E+02  0.88301239636E+02  0.41800000000E+01 0. -1.
</event>
<event>
11    1  0.8037748E-009  0.1881976E+03  0.7561462E-02  0.1063198E+00
         22   -1    0    0    0    0  0.00000000000E+00  0.00000000000E+00  0.91795205020E+03  0.91795205020E+03  0.00000000000E+00 0. -1.
         22   -1    0    0    0    0 -0.00000000000E+00 -0.00000000000E+00 -0.31077100579E+04  0.31077100579E+04  0.00000000000E+00 0. -1.
        -24    2    1    2    0    0 -0.52148301177E+01 -0.14225379150E+03 -0.26784518224E+04  0.26834181598E+04  0.79784209693E+02 0.  0.
         25    2    1    2    0    0  0.90628222522E+02  0.11909896993E+03 -0.40027175604E+03  0.44526337280E+03  0.12507578949E+03 0.  0.
         24    2    1    2    0    0 -0.85413392404E+02  0.23154821565E+02  0.88896557075E+03  0.89698057543E+03  0.80515671492E+02 0.  0.
        -13    1    5    5    0    0 -0.36930531477E+02  0.32429130476E+02  0.18930587007E+03  0.19558176065E+03  0.00000000000E+00 0.  1.
         14    1    5    5    0    0 -0.48482860927E+02 -0.92743089106E+01  0.69965970068E+03  0.70139881477E+03  0.00000000000E+00 0. -1.
         13    1    3    3    0    0  0.17474431760E+02 -0.44210188408E+02 -0.14750586222E+04  0.14758244595E+04  0.00000000000E+00 0. -1.
        -14    1    3    3    0    0 -0.22689261878E+02 -0.98043603091E+02 -0.12033932002E+04  0.12075937003E+04  0.00000000000E+00 0.  1.
          5    1    4    4  501    0 -0.24419599839E+02 -0.47232579243E+01 -0.39921691266E+02  0.47221180155E+02  0.41800000000E+01 0. -1.
         -5    1    4    4    0  501  0.11504782236E+03  0.12382222786E+03 -0.36035006477E+03  0.39804219264E+03  0.41800000000E+01 0. -1.
</event>
<event>
11    1  0.8037748E-009  0.1326252E+03  0.7561462E-02  0.1116085E+00
         22   -1    0    0    0    0  0.00000000000E+00  0.00000000000E+00  0.32322397648E+04  0.32322397648E+04  0.00000000000E+00 0.  1.
         22   -1    0    0    0    0 -0.00000000000E+00 -0.00000000000E+00 -0.34053877011E+02  0.34053877011E+02  0.00000000000E+00 0. -1.
         24    2    1    2    0    0 -0.16663527974E+02  0.10451184123E+02  0.39694353754E+02  0.92575052502E+02  0.81287134355E+02 0.  0.
         25    2    1    2    0    0  0.22167404158E+02  0.34163329665E+02  0.63278522362E+03  0.64631499033E+03  0.12508957028E+03 0.  0.
        -24    2    1    2    0    0 -0.55038761833E+01 -0.44614513788E+02  0.25257063104E+04  0.25274035990E+04  0.80968130581E+02 0.  0.
        -13    1    3    3    0    0  0.78981862419E+01  0.14977481172E+02  0.58762106200E+02  0.61153016387E+02  0.00000000000E+00 0.  1.
         14    1    3    3    0    0 -0.24561714216E+02 -0.45262970497E+01 -0.19067752446E+02  0.31422036114E+02  0.00000000000E+00 0. -1.
         11    1    5    5    0    0 -0.44827091760E+01  0.98360063907E+01  0.16340190236E+04  0.16340547761E+04  0.00000000000E+00 0. -1.
        -12    1    5    5    0    0 -0.10211670074E+01 -0.54450520179E+02  0.89168728680E+03  0.89334882290E+03  0.00000000000E+00 0.  1.
          5    1    4    4  501    0  0.31005274629E+02  0.46340729061E+02  0.62726448785E+03  0.62975153858E+03  0.41800000000E+01 0. -1.
         -5    1    4    4    0  501 -0.88378704715E+01 -0.12177399395E+02  0.55207357709E+01  0.16563451752E+02  0.41800000000E+01 0. -1.
</event>
<event>
11    1  0.8037748E-009  0.1290430E+03  0.7561462E-02  0.1120450E+00
         22   -1    0    0    0    0  0.00000000000E+00  0.00000000000E+00  0.97561351233E+03  0.97561351233E+03  0.00000000000E+00 0. -1.
         22   -1    0    0    0    0 -0.00000000000E+00 -0.00000000000E+00 -0.10775706146E+03  0.10775706146E+03  0.00000000000E+00 0.  1.
        -24    2    1    2    0    0  0.12986731748E+02  0.27796504988E+02 -0.62546630610E+02  0.10813656680E+03  0.82705109800E+02 0.  0.
         25    2    1    2    0    0 -0.11780163033E+02 -0.40131114527E+02  0.19722289139E+03  0.23726231923E+03  0.12508901088E+03 0.  0.
         24    2    1    2    0    0 -0.12065687146E+01  0.12334609538E+02  0.73318019009E+03  0.73797168776E+03  0.83038680051E+02 0.  0.
        -11    1    5    5    0    0  0.22088860209E+02  0.17697760768E+02  0.89964122034E+02  0.94311567344E+02  0.00000000000E+00 0.  1.
         12    1    5    5    0    0 -0.23295428924E+02 -0.53631512297E+01  0.64321606806E+03  0.64366012041E+03  0.00000000000E+00 0. -1.
         13    1    3    3    0    0 -0.21218652796E+01 -0.28503331123E+02 -0.12065797358E+02  0.31024597713E+02  0.00000000000E+00 0. -1.
        -14    1    3    3    0    0  0.15108597028E+02  0.56299836111E+02 -0.50480833253E+02  0.77111969085E+02  0.00000000000E+00 0.  1.
          5    1    4    4  501    0 -0.30905427824E+02 -0.64118787620E+02  0.19332672535E+03  0.20605596213E+03  0.41800000000E+01 0. -1.
         -5    1    4    4    0  501  0.19125264791E+02  0.23987673093E+02  0.38961660431E+01  0.31206357102E+02  0.41800000000E+01 0. -1.
</event>
<event>
11    1  0.8037748E-009  0.1434223E+03  0.7561462E-02  0.1103796E+00
         22   -1    0    0    0    0  0.00000000000E+00  0.00000000000E+00  0.10905830159E+03  0.10905830159E+03  0.00000000000E+00 0.  1.
         22   -1    0    0    0    0 -0.00000000000E+00 -0.00000000000E+00 -0.16820966247E+04  0.16820966247E+04  0.00000000000E+00 0. -1.
        -24    2    1    2    0    0 -0.62348313116E+02 -0.23749943638E+02 -0.13607124730E+04  0.13648160661E+04  0.82055395807E+02 0.  0.
         25    2    1    2    0    0  0.90295784945E+02  0.85429536816E+02 -0.25817697682E+03  0.31265578860E+03  0.12508699471E+03 0.  0.
         24    2    1    2    0    0 -0.27947471829E+02 -0.61679593178E+02  0.45851126768E+02  0.11368307159E+03  0.78968864403E+02 0.  0.
        -11    1    5    5    0    0 -0.24500445900E+02 -0.34799018162E+01  0.49422885920E+02  0.55272083537E+02  0.00000000000E+00 0.  1.
         12    1    5    5    0    0 -0.34470259295E+01 -0.58199691362E+02 -0.35717591518E+01  0.58410988057E+02  0.00000000000E+00 0. -1.
         13    1    3    3    0    0 -0.78186482738E+02 -0.29204061803E+02 -0.12562105411E+04  0.12589801138E+04  0.00000000000E+00 0. -1.
        -14    1    3    3    0    0  0.15838169622E+02  0.54541181651E+01 -0.10450193194E+03  0.10583595230E+03  0.00000000000E+00 0.  1.
          5    1    4    4  501    0  0.69168048830E+02  0.23470131998E+01 -0.19242799681E+03  0.20453785421E+03  0.41800000000E+01 0. -1.
         -5    1    4    4    0  501  0.21127736115E+02  0.83082523616E+02 -0.65748980013E+02  0.10811793439E+03  0.41800000000E+01 0. -1.
</event>
<event>
11    1  0.8037748E-009  0.2045480E+03  0.7561462E-02  0.1051353E+00
         22   -1    0    0    0    0  0.00000000000E+00  0.00000000000E+00  0.45509118112E+03  0.45509118112E+03  0.00000000000E+00 0. -1.
         22   -1    0    0    0    0 -0.00000000000E+00 -0.00000000000E+00 -0.10147855952E+04  0.10147855952E+04  0.00000000000E+00 0. -1.
        -24    2    1    2    0    0  0.93017714449E+02 -0.80109332888E+02 -0.40466093232E+03  0.43039809094E+03  0.80138917676E+02 0.  0.
         25    2    1    2    0    0 -0.37947651458E+02  0.23074362174E+03 -0.54734629870E+03  0.60820890952E+03  0.12508982254E+03 0.  0.
         24    2    1    2    0    0 -0.55070062991E+02 -0.15063428885E+03  0.39231281697E+03  0.43126977582E+03  0.79755077352E+02 0.  0.
        -11    1    5    5    0    0  0.24645511614E+01 -0.55251709477E+02  0.21393456018E+03  0.22096791951E+03  0.00000000000E+00 0.  1.
         12    1    5    5    0    0 -0.57534614152E+02 -0.95382579374E+02  0.17837825679E+03  0.21030185632E+03  0.00000000000E+00 0. -1.
         13    1    3    3    0    0  0.10495736203E+02 -0.35435079299E+02 -0.22187570598E+03  0.22493251038E+03  0.00000000000E+00 0. -1.
        -14    1    3    3    0    0  0.82521978246E+02 -0.44674253589E+02 -0.18278522634E+03  0.20546558056E+03  0.00000000000E+00 0.  1.
          5    1    4    4  501    0  0.15999550993E+02  0.13028983724E+03 -0.17518109081E+03  0.21894591638E+03  0.41800000000E+01 0.  1.
         -5    1    4    4    0  501 -0.53947202451E+02  0.10045378449E+03 -0.37216520789E+03  0.38926299315E+03  0.41800000000E+01 0.  1.
</event>
<event>
11    1  0.8037748E-009  0.1621706E+03  0.7561462E-02  0.1085053E+00
         22   -1    0    0    0    0  0.00000000000E+00  0.00000000000E+00  0.11539604408E+04  0.11539604408E+04  0.00000000000E+00 0.  1.
         22   -1    0    0    0    0 -0.00000000000E+00 -0.00000000000E+00 -0.18532400905E+04  0.18532400905E+04  0.00000000000E+00 0.  1.
        -24    2    1    2    0    0  0.21995868985E+02 -0.33622703922E+02 -0.17887132981E+04  0.17909586141E+04  0.80144806439E+02 0.  0.
         25    2    1    2    0    0 -0.10248489219E+03  0.94288035355E+02  0.88220289827E+02  0.20693988371E+03  0.12509160321E+03 0.  0.
         24    2    1    2    0    0  0.80489023205E+02 -0.60665331433E+02  0.10012133586E+04  0.10093020335E+04  0.78125796393E+02 0.  0.
        -13    1    5    5    0    0  0.91762957055E+01 -0.33828210670E+02  0.59322485659E+03  0.59425944057E+03  0.00000000000E+00 0.  1.
         14    1    5    5    0    0  0.71312727499E+02 -0.26837120763E+02  0.40798850206E+03  0.41504259295E+03  0.00000000000E+00 0. -1.
         13    1    3    3    0    0  0.49403990595E+02 -0.70470982969E+01 -0.84381481474E+03  0.84528921528E+03  0.00000000000E+00 0. -1.
        -14    1    3    3    0    0 -0.27408121610E+02 -0.26575605625E+02 -0.94489848339E+03  0.94566939881E+03  0.00000000000E+00 0.  1.
          5    1    4    4  501    0 -0.61385836369E+02  0.12088752390E+03  0.78922888621E+02  0.15693409155E+03  0.41800000000E+01 0. -1.
         -5    1    4    4    0  501 -0.41099055820E+02 -0.26599488545E+02  0.92974012060E+01  0.50005792158E+02  0.41800000000E+01 0. -1.
</event>
<event>
11    1  0.8037748E-009  0.1273472E+03  0.7561462E-02  0.1122572E+00
         22   -1    0    0    0    0  0.00000000000E+00  0.00000000000E+00  0.44763201238E+03  0.44763201238E+03  0.00000000000E+00 0. -1.
         22   -1    0    0    0    0 -0.00000000000E+00 -0.00000000000E+00 -0.70005838501E+02  0.70005838501E+02  0.00000000000E+00 0. -1.
        -24    2    1    2    0    0  0.12157246694E+02 -0.24708999406E+02  0.37149143238E+01  0.86538979875E+02  0.81956458870E+02 0.  0.
         25    2    1    2    0    0  0.15281899211E+02  0.13352910616E+02  0.19396209248E+03  0.23168944860E+03  0.12508745184E+03 0.  0.
         24    2    1    2    0    0 -0.27439145905E+02  0.11356088790E+02  0.17994916708E+03  0.19940942241E+03  0.80625973058E+02 0.  0.
        -13    1    5    5    0    0 -0.16436798779E+02  0.20917823177E+02  0.93645815656E+01  0.28203174794E+02  0.00000000000E+00 0.  1.
         14    1    5    5    0    0 -0.11002347125E+02 -0.95617343864E+01  0.17058458552E+03  0.17120624761E+03  0.00000000000E+00 0. -1.
         13    1    3    3    0    0 -0.58616263282E+01 -0.26665218765E+02 -0.34646753146E+02  0.44111110376E+02  0.00000000000E+00 0. -1.
        -14    1    3    3    0    0  0.18018873022E+02  0.19562193591E+01  0.38361667470E+02  0.42427869499E+02  0.00000000000E+00 0.  1.
          5    1    4    4  501    0 -0.32650360294E+02  0.48425475783E+02  0.13829230743E+03  0.15017758630E+03  0.41800000000E+01 0.  1.
         -5    1    4    4    0  501  0.47932259505E+02 -0.35072565167E+02  0.55669785050E+02  0.81511862304E+02  0.41800000000E+01 0.  1.
</event>
<event>
11    1  0.8037748E-009  0.2140710E+03  0.7561462E-02  0.1044996E+00
         22   -1    0    0    0    0  0.00000000000E+00  0.00000000000E+00  0.23159178943E+03  0.23159178943E+03  0.00000000000E+00 0. -1.
         22   -1    0    0    0    0 -0.00000000000E+00 -0.00000000000E+00 -0.79362640830E+03  0.79362640830E+03  0.00000000000E+00 0.  1.
        -24    2    1    2    0    0  0.16715064756E+02  0.12514775373E+02 -0.57699941950E+03  0.58333757317E+03  0.83176806734E+02 0.  0.
         25    2    1    2    0    0 -0.50510338346E+02 -0.17844672264E+03 -0.72871657861E+02  0.23527034401E+03  0.12508928473E+03 0.  0.
         24    2    1    2    0    0  0.33795273590E+02  0.16593194727E+03  0.87836458483E+02  0.20661028055E+03  0.79353846466E+02 0.  0.
        -11    1    5    5    0    0  0.23172247393E+02  0.64742819678E+02 -0.49059616435E+01  0.68939496725E+02  0.00000000000E+00 0.  1.
         12    1    5    5    0    0  0.10623026198E+02  0.10118912759E+03  0.92742420126E+02  0.13767078382E+03  0.00000000000E+00 0. -1.
         13    1    3    3    0    0 -0.16796569901E+02 -0.18868881216E+02 -0.72924438953E+02  0.77175988723E+02  0.00000000000E+00 0. -1.
        -14    1    3    3    0    0  0.33511634657E+02  0.31383656589E+02 -0.50407498054E+03  0.50616158445E+03  0.00000000000E+00 0.  1.
          5    1    4    4  501    0 -0.67320146482E+02 -0.99292811079E+02 -0.92922078033E+02  0.15179937233E+03  0.41800000000E+01 0.  1.
         -5    1    4    4    0  501  0.16809808136E+02 -0.79153911559E+02  0.20050420172E+02  0.83470971683E+02  0.41800000000E+01 0.  1.
</event>
<event>
11    1  0.8037748E-009  0.1434042E+03  0.7561462E-02  0.1103815E+00
         22   -1    0    0    0    0  0.00000000000E+00  0.00000000000E+00  0.44692082817E+03  0.44692082817E+03  0.00000000000E+00 0. -1.
         22   -1    0    0    0    0 -0.00000000000E+00 -0.00000000000E+00 -0.36431624239E+03  0.36431624239E+03  0.00000000000E+00 0.  1.
         24    2    1    2    0    0  0.14751710924E+02 -0.49069477101E+02 -0.30884355843E+03  0.32308262780E+03  0.79828655525E+02 0.  0.
         25    2    1    2    0    0  0.58173272270E+02  0.43260123304E+02  0.95775858683E+02  0.17342417883E+03  0.12508941930E+03 0.  0.
        -24    2    1    2    0    0 -0.72924983194E+02  0.58093537978E+01  0.29567228553E+03  0.31473026392E+03  0.79254254356E+02 0.  0.
        -11    1    3    3    0    0  0.30608686155E+02 -0.24630220867E+02 -0.27759086652E+03  0.28035732311E+03  0.00000000000E+00 0.  1.
         12    1    3    3    0    0 -0.15856975231E+02 -0.24439256235E+02 -0.31252691912E+02  0.42725304686E+02  0.00000000000E+00 0. -1.
         11    1    5    5    0    0 -0.75788819073E+02  0.26328882159E+02  0.17797854196E+03  0.19522683353E+03  0.00000000000E+00 0. -1.
        -12    1    5    5    0    0  0.28638358796E+01 -0.20519528361E+02  0.11769374357E+03  0.11950343039E+03  0.00000000000E+00 0.  1.
          5    1    4    4  501    0  0.45248161948E+02  0.71935627265E+02  0.14681611917E+02  0.86343226476E+02  0.41800000000E+01 0. -1.
         -5    1    4    4    0  501  0.12925110321E+02 -0.28675503962E+02  0.81094246766E+02  0.87080952353E+02  0.41800000000E+01 0. -1.
</event>
<event>
11    1  0.8037748E-009  0.2078675E+03  0.7561462E-02  0.1049095E+00
         22   -1    0    0    0    0  0.00000000000E+00  0.00000000000E+00  0.83279807241E+03  0.83279807241E+03  0.00000000000E+00 0. -1.
         22   -1    0    0    0    0 -0.00000000000E+00 -0.00000000000E+00 -0.75387973341E+03  0.75387973341E+03  0.00000000000E+00 0. -1.
        -24    2    1    2    0    0  0.76918752294E+01 -0.49659906149E+01 -0.65577000625E+03  0.66029129977E+03  0.76592907325E+02 0.  0.
         25    2    1    2    0    0 -0.69344724736E+02 -0.14941422421E+03  0.44044551630E+02  0.21147219338E+03  0.12508902749E+03 0.  0.
         24    2    1    2    0    0  0.61652849506E+02  0.15438021483E+03  0.69064379361E+03  0.71491431268E+03  0.80494100603E+02 0.  0.
        -11    1    5    5    0    0 -0.18826727551E+02  0.38345124610E+02  0.13438609950E+03  0.14101212001E+03  0.00000000000E+00 0.  1.
         12    1    5    5    0    0  0.80479577057E+02  0.11603509022E+03  0.55625769412E+03  0.57390219267E+03  0.00000000000E+00 0. -1.
         13    1    3    3    0    0 -0.37309367287E+01  0.34303504640E+01 -0.63569493841E+03  0.63571514211E+03  0.00000000000E+00 0. -1.
        -14    1    3    3    0    0  0.11422811958E+02 -0.83963410789E+01 -0.20075067842E+02  0.24576157661E+02  0.00000000000E+00 0.  1.
          5    1    4    4  501    0 -0.49233556103E+02 -0.35335170337E+02  0.70006119695E+02  0.92686819474E+02  0.41800000000E+01 0. -1.
         -5    1    4    4    0  501 -0.20111168632E+02 -0.11407905387E+03 -0.25961568066E+02  0.11878537390E+03  0.41800000000E+01 0. -1.
</event>
<event>
11    1  0.8037748E-009  0.1440407E+03  0.7561462E-02  0.1103128E+00
         22   -1    0    0    0    0  0.00000000000E+00  0.00000000000E+00  0.11114523974E+03  0.11114523974E+03  0.00000000000E+00 0. -1.
         22   -1    0    0    0    0 -0.00000000000E+00 -0.00000000000E+00 -0.43292165725E+03  0.43292165725E+03  0.00000000000E+00 0. -1.
         24    2    1    2    0    0  0.66253629961E+02  0.28905663344E+02 -0.28832695390E+03  0.30843603532E+03  0.82312056727E+02 0.  0.
         25    2    1    2    0    0 -0.57240187490E+02 -0.36421782899E+02 -0.54609968853E+02  0.15242521709E+03  0.12509281663E+03 0.  0.
        -24    2    1    2    0    0 -0.90134424705E+01  0.75161195551E+01  0.21160505242E+02  0.83205644582E+02  0.79609535295E+02 0.  0.
        -11    1    3    3    0    0 -0.30185208058E+01  0.55546423855E+01  0.37496931680E+01  0.73502189586E+01  0.00000000000E+00 0.  1.
         12    1    3    3    0    0  0.69272150767E+02  0.23351020958E+02 -0.29207664707E+03  0.30108581637E+03  0.00000000000E+00 0. -1.
         11    1    5    5    0    0 -0.94006919830E+01 -0.74941520621E+01  0.49605100748E+02  0.51041173038E+02  0.00000000000E+00 0. -1.
        -12    1    5    5    0    0  0.38724951250E+00  0.15010271617E+02 -0.28444595506E+02  0.32164471544E+02  0.00000000000E+00 0.  1.
          5    1    4    4  501    0 -0.63440116071E+02 -0.73866773506E+02 -0.17193818060E+02  0.98964884352E+02  0.41800000000E+01 0. -1.
         -5    1    4    4    0  501  0.61999285803E+01  0.37444990607E+02 -0.37416150792E+02  0.53460332735E+02  0.41800000000E+01 0. -1.
</event>
<event>
11    1  0.8037748E-009  0.1542944E+03  0.7561462E-02  0.1092570E+00
         22   -1    0    0    0    0  0.00000000000E+00  0.00000000000E+00  0.47088209120E+03  0.47088209120E+03  0.00000000000E+00 0.  1.
         22   -1    0    0    0    0 -0.00000000000E+00 -0.00000000000E+00 -0.12761742425E+04  0.12761742425E+04  0.00000000000E+00 0. -1.
         24    2    1    2    0    0  0.29635687517E+02  0.87694370320E+02 -0.11451450672E+04  0.11516364368E+04  0.79628392855E+02 0.  0.
         25    2    1    2    0    0 -0.15976246544E+02 -0.60899431765E+02 -0.83097057949E+02  0.16283999514E+03  0.12509101381E+03 0.  0.
        -24    2    1    2    0    0 -0.13659440972E+02 -0.26794938555E+02  0.42294997388E+03  0.43257990179E+03  0.85639605161E+02 0.  0.
        -13    1    3    3    0    0 -0.16840902348E+02  0.12437149421E+02 -0.50213073323E+03  0.50256698254E+03  0.00000000000E+00 0.  1.
         14    1    3    3    0    0  0.46476589864E+02  0.75257220898E+02 -0.64301433401E+03  0.64906945426E+03  0.00000000000E+00 0. -1.
         11    1    5    5    0    0  0.29664968711E+02 -0.35566639572E+02  0.20035231363E+03  0.20563571139E+03  0.00000000000E+00 0. -1.
        -12    1    5    5    0    0 -0.43324409683E+02  0.87717010171E+01  0.22259766024E+03  0.22694419041E+03  0.00000000000E+00 0.  1.
          5    1    4    4  501    0  0.18948274891E+01  0.11555044914E+02  0.27025350731E+02  0.29748132989E+02  0.41800000000E+01 0. -1.
         -5    1    4    4    0  501 -0.17871074033E+02 -0.72454476678E+02 -0.11012240868E+03  0.13309186215E+03  0.41800000000E+01 0. -1.
</event>
<event>
11    1  0.8037748E-009  0.1418579E+03  0.7561462E-02  0.1105501E+00
         22   -1    0    0    0    0  0.00000000000E+00  0.00000000000E+00  0.16456837867E+04  0.16456837867E+04  0.00000000000E+00 0. -1.
         22   -1    0    0    0    0 -0.00000000000E+00 -0.00000000000E+00 -0.26556569176E+02  0.26556569176E+02  0.00000000000E+00 0. -1.
         24    2    1    2    0    0 -0.50221726211E+02 -0.43804838740E+01  0.14856361448E+03  0.17601689579E+03  0.79808455904E+02 0.  0.
         25    2    1    2    0    0  0.10517436780E+03  0.84438514825E+01  0.67145275677E+03  0.69110774642E+03  0.12509263096E+03 0.  0.
        -24    2    1    2    0    0 -0.54952641591E+02 -0.40633676084E+01  0.79911084627E+03  0.80511571366E+03  0.81221080883E+02 0.  0.
        -11    1    3    3    0    0 -0.88047154506E+01  0.35621193616E+02  0.53479763408E+02  0.64857363059E+02  0.00000000000E+00 0.  1.
         12    1    3    3    0    0 -0.41417010761E+02 -0.40001677490E+02  0.95083851074E+02  0.11115953273E+03  0.00000000000E+00 0. -1.
         13    1    5    5    0    0 -0.32338582878E+02 -0.29745032367E+02  0.67336604972E+03  0.67479803483E+03  0.00000000000E+00 0. -1.
        -14    1    5    5    0    0 -0.22614058714E+02  0.25681664759E+02  0.12574479655E+03  0.13031767883E+03  0.00000000000E+00 0.  1.
          5    1    4    4  501    0  0.43726184690E+02  0.65959368247E+02  0.31152854538E+03  0.32145003418E+03  0.41800000000E+01 0. -1.
         -5    1    4    4    0  501  0.61448183113E+02 -0.57515516764E+02  0.35992421138E+03  0.36965771224E+03  0.41800000000E+01 0. -1.
</event>
<event>
11    1  0.8037748E-009  0.1632157E+03  0.7561462E-02  0.1084091E+00
         22   -1    0    0    0    0  0.00000000000E+00  0.00000000000E+00  0.39164761905E+03  0.39164761905E+03  0.00000000000E+00 0. -1.
         22   -1    0    0    0    0 -0.00000000000E+00 -0.00000000000E+00 -0.10077973041E+04  0.10077973041E+04  0.00000000000E+00 0.  1.
         24    2    1    2    0    0 -0.50850805732E+02 -0.82576758688E+02 -0.51857310217E+03  0.53369538846E+03  0.80672051279E+02 0.  0.
         25    2    1    2    0    0  0.14273213688E+02  0.13004751055E+03 -0.45703035212E+03  0.49156878459E+03  0.12508815930E+03 0.  0.
        -24    2    1    2    0    0  0.36577592044E+02 -0.47470751859E+02  0.35945376924E+03  0.37418075008E+03  0.84928375626E+02 0.  0.
        -11    1    3    3    0    0 -0.88948208446E+01 -0.64705739795E+02 -0.42044836849E+03  0.42549122337E+03  0.00000000000E+00 0.  1.
         12    1    3    3    0    0 -0.41955984887E+02 -0.17871018893E+02 -0.98124733676E+02  0.10820416509E+03  0.00000000000E+00 0. -1.
         13    1    5    5    0    0 -0.20363308418E+02 -0.15744265805E+02  0.20395192577E+03  0.20556977954E+03  0.00000000000E+00 0. -1.
        -14    1    5    5    0    0  0.56940900463E+02 -0.31726486055E+02  0.15550184348E+03  0.16861097054E+03  0.00000000000E+00 0.  1.
          5    1    4    4  501    0  0.69875066678E+02  0.68199099635E+02 -0.24836335845E+03  0.26689974214E+03  0.41800000000E+01 0.  1.
         -5    1    4    4    0  501 -0.55601852991E+02  0.61848410912E+02 -0.20866699367E+03  0.22466904245E+03  0.41800000000E+01 0.  1.
</event>
<event>
11    1  0.8037748E-009  0.1530846E+03  0.7561462E-02  0.1093768E+00
         22   -1    0    0    0    0  0.00000000000E+00  0.00000000000E+00  0.22842606319E+03  0.22842606319E+03  0.00000000000E+00 0. -1.
         22   -1    0    0    0    0 -0.00000000000E+00 -0.00000000000E+00 -0.15825399112E+03  0.15825399112E+03  0.00000000000E+00 0. -1.
         24    2    1    2    0    0  0.32030646775E+01 -0.93511114580E+02  0.76782557571E+01  0.12395415082E+03  0.80938789964E+02 0.  0.
         25    2    1    2    0    0  0.50080763166E+02  0.76062507592E+02  0.19799793601E+02  0.15599044848E+03  0.12508956907E+03 0.  0.
        -24    2    1    2    0    0 -0.53283827844E+02  0.17448606988E+02  0.42694022710E+02  0.10673545501E+03  0.80162694471E+02 0.  0.
        -13    1    3    3    0    0  0.80812326493E+01  0.13090698321E+02 -0.56984776514E+01  0.16405649979E+02  0.00000000000E+00 0.  1.
         14    1    3    3    0    0 -0.48781679718E+01 -0.10660181290E+03  0.13376733409E+02  0.10754850084E+03  0.00000000000E+00 0. -1.
         13    1    5    5    0    0  0.11047202669E+02  0.30057335041E+02  0.17605228096E+02  0.36543510133E+02  0.00000000000E+00 0. -1.
        -14    1    5    5    0    0 -0.64331030512E+02 -0.12608728053E+02  0.25088794614E+02  0.70191944873E+02  0.00000000000E+00 0.  1.
          5    1    4    4  501    0  0.26051467420E+02 -0.18742230104E+02 -0.31765053695E+02  0.45348000841E+02  0.41800000000E+01 0. -1.
         -5    1    4    4    0  501  0.24029295746E+02  0.94804737697E+02  0.51564847297E+02  0.11064244764E+03  0.41800000000E+01 0. -1.
</event>
<event>
11    1  0.8037748E-009  0.1667381E+03  0.7561462E-02  0.1080906E+00
         22   -1    0    0    0    0  0.00000000000E+00  0.00000000000E+00  0.30513065408E+03  0.30513065408E+03  0.00000000000E+00 0. -1.
         22   -1    0    0    0    0 -0.00000000000E+00 -0.00000000000E+00 -0.81631888622E+03  0.81631888622E+03  0.00000000000E+00 0. -1.
         24    2    1    2    0    0  0.33764162290E+02  0.23381905663E+02 -0.68283859763E+03  0.68882225701E+03  0.80751589223E+02 0.  0.
         25    2    1    2    0    0 -0.98997866843E+02 -0.10469636865E+03 -0.28385976088E+02  0.19291158202E+03  0.12508879883E+03 0.  0.
        -24    2    1    2    0    0  0.65233704553E+02  0.81314462986E+02  0.20003634158E+03  0.23971570126E+03  0.81127069330E+02 0.  0.
        -11    1    3    3    0    0 -0.24878732815E+02  0.14512613018E+02 -0.30501169444E+03  0.30636857057E+03  0.00000000000E+00 0.  1.
         12    1    3    3    0    0  0.58642895104E+02  0.88692926445E+01 -0.37782690319E+03  0.38245368644E+03  0.00000000000E+00 0. -1.
         13    1    5    5    0    0  0.46879863080E+02  0.94683536539E+02  0.13902335825E+03  0.17461439744E+03  0.00000000000E+00 0. -1.
        -14    1    5    5    0    0  0.18353841473E+02 -0.13369073553E+02  0.61012983333E+02  0.65101303825E+02  0.00000000000E+00 0.  1.
          5    1    4    4  501    0 -0.86928351833E+02 -0.26102633403E+01 -0.22147168948E+02  0.89840532720E+02  0.41800000000E+01 0.  1.
         -5    1    4    4    0  501 -0.12069515010E+02 -0.10208610531E+03 -0.62388071391E+01  0.10307104930E+03  0.41800000000E+01 0.  1.
</event>
<event>
11    1  0.8037748E-009  0.1306990E+03  0.7561462E-02  0.1118413E+00
         22   -1    0    0    0    0  0.00000000000E+00  0.00000000000E+00  0.45133757614E+03  0.45133757614E+03  0.00000000000E+00 0.  1.
         22   -1    0    0    0    0 -0.00000000000E+00 -0.00000000000E+00 -0.18308254191E+03  0.18308254191E+03  0.00000000000E+00 0.  1.
         24    2    1    2    0    0 -0.34731387000E+02 -0.17533877272E+02 -0.12402572359E+03  0.15437364489E+03  0.83277464121E+02 0.  0.
         25    2    1    2    0    0  0.32213719994E+02  0.34717924205E+01  0.68913466114E+02  0.14644715642E+03  0.12509167324E+03 0.  0.
        -24    2    1    2    0    0  0.25176670058E+01  0.14062084851E+02  0.32336729171E+03  0.33359931673E+03  0.80734242438E+02 0.  0.
        -11    1    3    3    0    0  0.14662322777E+02  0.63288965323E+01 -0.86377151492E+02  0.87841054983E+02  0.00000000000E+00 0.  1.
         12    1    3    3    0    0 -0.49393709777E+02 -0.23862773804E+02 -0.37648572096E+02  0.66532589909E+02  0.00000000000E+00 0. -1.
         13    1    5    5    0    0  0.32958277604E+02  0.29057176651E+02  0.12862283051E+03  0.13592056543E+03  0.00000000000E+00 0. -1.
        -14    1    5    5    0    0 -0.30440610598E+02 -0.14995091799E+02  0.19474446119E+03  0.19767875130E+03  0.00000000000E+00 0.  1.
          5    1    4    4  501    0  0.55363125424E+02  0.48093724521E+02  0.60806138636E+02  0.95356913178E+02  0.41800000000E+01 0. -1.
         -5    1    4    4    0  501 -0.23149405429E+02 -0.44621932100E+02  0.81073274780E+01  0.51090243246E+02  0.41800000000E+01 0. -1.
</event>
<event>
11    1  0.1170439E-008  0.1579548E+03  0.7561462E-02  0.1089017E+00
         22   -1    0    0    0    0  0.00000000000E+00  0.00000000000E+00  0.12622864830E+04  0.12622864830E+04  0.00000000000E+00 0.  1.
         22   -1    0    0    0    0 -0.00000000000E+00 -0.00000000000E+00 -0.14989327455E+04  0.14989327455E+04  0.00000000000E+00 0. -1.
         24    2    1    2    0    0  0.45794536700E+02  0.13988796521E+02 -0.13164661492E+04  0.13208245502E+04  0.95924681371E+02 0.  0.
         25    2    1    2    0    0 -0.39227374785E+02  0.82541597960E+02 -0.14313779052E+03  0.21092111872E+03  0.12508952363E+03 0.  0.
        -24    2    1    2    0    0 -0.65671619150E+01 -0.96530394481E+02  0.12229576771E+04  0.12294735596E+04  0.81354218772E+02 0.  0.
        -13    1    3    3    0    0  0.37379023856E+02  0.37084677399E+02 -0.34034480983E+03  0.34439374893E+03  0.00000000000E+00 0.  1.
         14    1    3    3    0    0  0.84155128437E+01 -0.23095880878E+02 -0.97612133932E+03  0.97643080126E+03  0.00000000000E+00 0. -1.
         13    1    5    5    0    0  0.71644840238E+01  0.91934923408E+01  0.38450470538E+02  0.40178213217E+02  0.00000000000E+00 0. -1.
        -14    1    5    5    0    0 -0.13731645939E+02 -0.10572388682E+03  0.11845072066E+04  0.11892953463E+04  0.00000000000E+00 0.  1.
          5    1    4    4  501    0 -0.17263349929E+02 -0.27625492583E+02 -0.56469810740E+01  0.33324943908E+02  0.41800000000E+01 0. -1.
         -5    1    4    4    0  501 -0.21964024856E+02  0.11016709054E+03 -0.13749080944E+03  0.17759617481E+03  0.41800000000E+01 0. -1.
</event>
<event>
11    1  0.8037748E-009  0.3175051E+03  0.7561462E-02  0.9930433E-01
         22   -1    0    0    0    0  0.00000000000E+00  0.00000000000E+00  0.24126724744E+04  0.24126724744E+04  0.00000000000E+00 0.  1.
         22   -1    0    0    0    0 -0.00000000000E+00 -0.00000000000E+00 -0.16209862879E+03  0.16209862879E+03  0.00000000000E+00 0. -1.
        -24    2    1    2    0    0 -0.56784983077E+02 -0.39480797017E+01 -0.10195481255E+03  0.13942562524E+03  0.76187922492E+02 0.  0.
         25    2    1    2    0    0  0.10834956653E+03  0.28147383446E+03  0.14338279204E+04  0.14705355333E+04  0.12508037970E+03 0.  0.
         24    2    1    2    0    0 -0.51564583450E+02 -0.27752575476E+03  0.91870073775E+03  0.96480994462E+03  0.84662464395E+02 0.  0.
        -11    1    5    5    0    0 -0.35176459495E+02 -0.27500432853E+03  0.84714239580E+03  0.89135571058E+03  0.00000000000E+00 0.  1.
         12    1    5    5    0    0 -0.16388123955E+02 -0.25214262354E+01  0.71558341947E+02  0.73454234045E+02  0.00000000000E+00 0. -1.
         13    1    3    3    0    0  0.88483372856E+01 -0.41312551099E+01 -0.61619740076E+02  0.62388722607E+02  0.00000000000E+00 0. -1.
        -14    1    3    3    0    0 -0.65633320363E+02  0.18317540820E+00 -0.40335072475E+02  0.77036902629E+02  0.00000000000E+00 0.  1.
          5    1    4    4  501    0  0.70510797140E+02  0.39595810698E+02  0.31670154058E+03  0.32688979633E+03  0.41800000000E+01 0.  1.
         -5    1    4    4    0  501  0.37838769387E+02  0.24187802377E+03  0.11171263798E+04  0.11436457370E+04  0.41800000000E+01 0.  1.
</event>
<event>
11    1  0.8037748E-009  0.1466362E+03  0.7561462E-02  0.1100366E+00
         22   -1    0    0    0    0  0.00000000000E+00  0.00000000000E+00  0.93545437122E+03  0.93545437122E+03  0.00000000000E+00 0. -1.
         22   -1    0    0    0    0 -0.00000000000E+00 -0.00000000000E+00 -0.13931538278E+03  0.13931538278E+03  0.00000000000E+00 0.  1.
        -24    2    1    2    0    0 -0.20953760893E+02 -0.45474956533E+02 -0.10044215660E+03  0.13829819954E+03  0.80812953204E+02 0.  0.
         25    2    1    2    0    0  0.63972643068E+02 -0.27514946377E+02  0.37035376694E+03  0.39706367659E+03  0.12509228293E+03 0.  0.
         24    2    1    2    0    0 -0.43018882175E+02  0.72989902909E+02  0.52622737810E+03  0.53940787787E+03  0.82870109825E+02 0.  0.
        -11    1    5    5    0    0 -0.23481288579E+02  0.60113038364E+02  0.16130625590E+03  0.17373732037E+03  0.00000000000E+00 0.  1.
         12    1    5    5    0    0 -0.19537593597E+02  0.12876864546E+02  0.36492112219E+03  0.36567055751E+03  0.00000000000E+00 0. -1.
         11    1    3    3    0    0 -0.12251485379E+02 -0.64829319407E+02 -0.47603353967E+02  0.81357352818E+02  0.00000000000E+00 0. -1.
        -12    1    3    3    0    0 -0.87022755142E+01  0.19354362874E+02 -0.52838802633E+02  0.56940846719E+02  0.00000000000E+00 0.  1.
          5    1    4    4  501    0 -0.31685263260E+02 -0.21093163819E+02  0.17834018074E+03  0.18240496138E+03  0.41800000000E+01 0.  1.
         -5    1    4    4    0  501  0.95657906328E+02 -0.64217825576E+01  0.19201358620E+03  0.21465871522E+03  0.41800000000E+01 0.  1.
</event>
<event>
11    1  0.8037748E-009  0.1303472E+03  0.7561462E-02  0.1118843E+00
         22   -1    0    0    0    0  0.00000000000E+00  0.00000000000E+00  0.15943138374E+03  0.15943138374E+03  0.00000000000E+00 0. -1.
         22   -1    0    0    0    0 -0.00000000000E+00 -0.00000000000E+00 -0.38676370235E+03  0.38676370235E+03  0.00000000000E+00 0.  1.
         24    2    1    2    0    0 -0.99586707814E+01  0.37114461885E+02 -0.24461569901E+03  0.25892508314E+03  0.75688176549E+02 0.  0.
         25    2    1    2    0    0 -0.26852669935E+02 -0.41312055492E+02 -0.77957112030E+02  0.15541165939E+03  0.12509084997E+03 0.  0.
        -24    2    1    2    0    0  0.36811340716E+02  0.41975936070E+01  0.95240492432E+02  0.13185834356E+03  0.83325726936E+02 0.  0.
        -11    1    3    3    0    0  0.18672547179E+02  0.21790675845E+02 -0.20805484447E+03  0.21002456018E+03  0.00000000000E+00 0.  1.
         12    1    3    3    0    0 -0.28631217960E+02  0.15323786040E+02 -0.36560854545E+02  0.48900522958E+02  0.00000000000E+00 0. -1.
         13    1    5    5    0    0  0.17488002659E+02  0.12163557851E+02  0.10616052150E+03  0.10827667663E+03  0.00000000000E+00 0. -1.
        -14    1    5    5    0    0  0.19323338057E+02 -0.79659642436E+01 -0.10920029072E+02  0.23581666924E+02  0.00000000000E+00 0.  1.
          5    1    4    4  501    0  0.19333399291E+02  0.17613819875E+02 -0.75909886906E+02  0.80397825274E+02  0.41800000000E+01 0. -1.
         -5    1    4    4    0  501 -0.46186069226E+02 -0.58925875367E+02 -0.20472251236E+01  0.75013834118E+02  0.41800000000E+01 0. -1.
</event>
<event>
11    1  0.9126463E-009  0.1639362E+03  0.7561462E-02  0.1083432E+00
         22   -1    0    0    0    0  0.00000000000E+00  0.00000000000E+00  0.38131362630E+03  0.38131362630E+03  0.00000000000E+00 0. -1.
         22   -1    0    0    0    0 -0.00000000000E+00 -0.00000000000E+00 -0.16871498179E+04  0.16871498179E+04  0.00000000000E+00 0.  1.
        -24    2    1    2    0    0  0.48733185140E+02  0.87179525175E+02 -0.12161893269E+04  0.12229168434E+04  0.80211807723E+02 0.  0.
         25    2    1    2    0    0 -0.14043669763E+03 -0.87219702378E+02 -0.43358081732E+03  0.48059379477E+03  0.12509327677E+03 0.  0.
         24    2    1    2    0    0  0.91703512491E+02  0.40177202959E-01  0.34393395267E+03  0.36495280598E+03  0.80563335183E+02 0.  0.
        -11    1    5    5    0    0 -0.98455328846E+01 -0.15365881614E+02  0.36368125004E+02  0.40690113687E+02  0.00000000000E+00 0.  1.
         12    1    5    5    0    0  0.10154904538E+03  0.15406058817E+02  0.30756582767E+03  0.32426269229E+03  0.00000000000E+00 0. -1.
         11    1    3    3    0    0  0.44251498166E+02  0.36978237477E+02 -0.30942969328E+03  0.31475755784E+03  0.00000000000E+00 0. -1.
        -12    1    3    3    0    0  0.44816869738E+01  0.50201287698E+02 -0.90675963362E+03  0.90815928557E+03  0.00000000000E+00 0.  1.
          5    1    4    4  501    0 -0.16165625608E+01  0.20044439956E+02 -0.11620860910E+02  0.23598933364E+02  0.41800000000E+01 0.  1.
         -5    1    4    4    0  501 -0.13882013507E+03 -0.10726414233E+03 -0.42195995641E+03  0.45699486140E+03  0.41800000000E+01 0.  1.
</event>
<event>
11    1  0.8037748E-009  0.1412360E+03  0.7561462E-02  0.1106186E+00
         22   -1    0    0    0    0  0.00000000000E+00  0.00000000000E+00  0.28786718444E+04  0.28786718444E+04  0.00000000000E+00 0.  1.
         22   -1    0    0    0    0 -0.00000000000E+00 -0.00000000000E+00 -0.54207390473E+03  0.54207390473E+03  0.00000000000E+00 0.  1.
        -24    2    1    2    0    0 -0.54744831220E+02 -0.37156964823E+02 -0.50830875041E+03  0.52366163499E+03  0.10707980968E+03 0.  0.
         25    2    1    2    0    0  0.30407807073E+02  0.46564094299E+02  0.15894155072E+03  0.20976823482E+03  0.12508975251E+03 0.  0.
         24    2    1    2    0    0  0.24337024147E+02 -0.94071294754E+01  0.26859651394E+04  0.26873158793E+04  0.81099449034E+02 0.  0.
        -13    1    5    5    0    0 -0.13851073339E+02 -0.30135895469E+02  0.17803897680E+04  0.17806986692E+04  0.00000000000E+00 0.  1.
         14    1    5    5    0    0  0.38188097486E+02  0.20728765994E+02  0.90557537132E+03  0.90661721011E+03  0.00000000000E+00 0. -1.
         13    1    3    3    0    0  0.28557393409E+01 -0.58740986286E+02 -0.17206858066E+03  0.18184129115E+03  0.00000000000E+00 0. -1.
        -14    1    3    3    0    0 -0.57600570560E+02  0.21584021462E+02 -0.33624016975E+03  0.34182034384E+03  0.00000000000E+00 0.  1.
          5    1    4    4  501    0 -0.13338659305E+02 -0.31007547973E+02  0.92569746650E+02  0.98620577256E+02  0.41800000000E+01 0. -1.
         -5    1    4    4    0  501  0.43746466377E+02  0.77571642272E+02  0.66371804071E+02  0.11114765756E+03  0.41800000000E+01 0. -1.
</event>
<event>
11    1  0.8037748E-009  0.1351894E+03  0.7561462E-02  0.1113052E+00
         22   -1    0    0    0    0  0.00000000000E+00  0.00000000000E+00  0.24350378136E+03  0.24350378136E+03  0.00000000000E+00 0.  1.
         22   -1    0    0    0    0 -0.00000000000E+00 -0.00000000000E+00 -0.33118067194E+03  0.33118067194E+03  0.00000000000E+00 0. -1.
        -24    2    1    2    0    0  0.18566370896E+02 -0.45224467605E+02 -0.24470412617E+03  0.26238304337E+03  0.81085075594E+02 0.  0.
         25    2    1    2    0    0 -0.53078750215E+01  0.77209573931E+02  0.18036811637E+02  0.14818625720E+03  0.12507736968E+03 0.  0.
         24    2    1    2    0    0 -0.13258495875E+02 -0.31985106326E+02  0.13899042395E+03  0.16411515272E+03  0.80103749368E+02 0.  0.
        -11    1    5    5    0    0  0.15443073642E+02 -0.40001289433E+02  0.33262174733E+02  0.54267522035E+02  0.00000000000E+00 0.  1.
         12    1    5    5    0    0 -0.28701569517E+02  0.80161831076E+01  0.10572824922E+03  0.10984763069E+03  0.00000000000E+00 0. -1.
         13    1    3    3    0    0  0.27553706295E+02 -0.10508227465E+02 -0.21138645952E+03  0.21343351387E+03  0.00000000000E+00 0. -1.
        -14    1    3    3    0    0 -0.89873353983E+01 -0.34716240140E+02 -0.33317666652E+02  0.48949529498E+02  0.00000000000E+00 0.  1.
          5    1    4    4  501    0  0.24432641328E+02  0.15846731340E+02  0.60830869321E+02  0.67571739054E+02  0.41800000000E+01 0. -1.
         -5    1    4    4    0  501 -0.29740516350E+02  0.61362842591E+02 -0.42794057684E+02  0.80614518151E+02  0.41800000000E+01 0. -1.
</event>
<event>
11    1  0.8037748E-009  0.2527648E+03  0.7561462E-02  0.1022437E+00
         22   -1    0    0    0    0  0.00000000000E+00  0.00000000000E+00  0.49118411722E+03  0.49118411722E+03  0.00000000000E+00 0.  1.
         22   -1    0    0    0    0 -0.00000000000E+00 -0.00000000000E+00 -0.34170419998E+03  0.34170419998E+03  0.00000000000E+00 0. -1.
        -24    2    1    2    0    0 -0.73569746748E+02 -0.18142422261E+03 -0.12457132318E+03  0.24561043095E+03  0.80493559033E+02 0.  0.
         25    2    1    2    0    0  0.57387221940E+02  0.29680786744E+03  0.65724022086E+02  0.33369679852E+03  0.12508278397E+03 0.  0.
         24    2    1    2    0    0  0.16182524808E+02 -0.11538364483E+03  0.20832721834E+03  0.25358108772E+03  0.85603028827E+02 0.  0.
        -11    1    5    5    0    0  0.11100712935E+02 -0.12223296816E+03  0.14627864775E+03  0.19094912181E+03  0.00000000000E+00 0.  1.
         12    1    5    5    0    0  0.50818118732E+01  0.68493233219E+01  0.62048570591E+02  0.62631965914E+02  0.00000000000E+00 0. -1.
         11    1    3    3    0    0  0.96279582611E+01 -0.74658474355E+02 -0.56377930861E+02  0.94048160330E+02  0.00000000000E+00 0. -1.
        -12    1    3    3    0    0 -0.83197705009E+02 -0.10676574826E+03 -0.68193392324E+02  0.15156227062E+03  0.00000000000E+00 0.  1.
          5    1    4    4  501    0  0.57461862866E+02  0.22385997533E+03  0.10136104636E+03  0.25240183906E+03  0.41800000000E+01 0. -1.
         -5    1    4    4    0  501 -0.74640925555E-01  0.72947892110E+02 -0.35637024277E+02  0.81294959462E+02  0.41800000000E+01 0. -1.
</event>
<event>
11    1  0.8037748E-009  0.1501048E+03  0.7561462E-02  0.1096772E+00
         22   -1    0    0    0    0  0.00000000000E+00  0.00000000000E+00  0.52978439656E+03  0.52978439656E+03  0.00000000000E+00 0.  1.
         22   -1    0    0    0    0 -0.00000000000E+00 -0.00000000000E+00 -0.10760447106E+04  0.10760447106E+04  0.00000000000E+00 0.  1.
         24    2    1    2    0    0  0.51121448155E+02 -0.41931326648E+02 -0.79284295469E+03  0.79989046479E+03  0.82783852589E+02 0.  0.
         25    2    1    2    0    0  0.28668521458E+01 -0.23105634502E+02 -0.25816293245E+03  0.28781429828E+03  0.12508749505E+03 0.  0.
        -24    2    1    2    0    0 -0.53988300300E+02  0.65036961150E+02  0.50474557314E+03  0.51812434405E+03  0.80871499340E+02 0.  0.
        -13    1    3    3    0    0  0.60333325602E+02  0.26723789480E+01 -0.45732227426E+03  0.46129265583E+03  0.00000000000E+00 0.  1.
         14    1    3    3    0    0 -0.92118774478E+01 -0.44603705596E+02 -0.33552068043E+03  0.33859780896E+03  0.00000000000E+00 0. -1.
         13    1    5    5    0    0 -0.40744831017E+02  0.54639503947E+01  0.90396712649E+02  0.99305395957E+02  0.00000000000E+00 0. -1.
        -14    1    5    5    0    0 -0.13243469283E+02  0.59573010755E+02  0.41434886049E+03  0.41881894809E+03  0.00000000000E+00 0.  1.
          5    1    4    4  501    0 -0.21478201782E+02  0.34280576780E+01 -0.24957939836E+03  0.25056019879E+03  0.41800000000E+01 0.  1.
         -5    1    4    4    0  501  0.24345053928E+02 -0.26533692180E+02 -0.85835340854E+01  0.37254099490E+02  0.41800000000E+01 0.  1.
</event>
<event>
11    1  0.8037748E-009  0.1388832E+03  0.7561462E-02  0.1108812E+00
         22   -1    0    0    0    0  0.00000000000E+00  0.00000000000E+00  0.27114046002E+04  0.27114046002E+04  0.00000000000E+00 0.  1.
         22   -1    0    0    0    0 -0.00000000000E+00 -0.00000000000E+00 -0.51927096286E+03  0.51927096286E+03  0.00000000000E+00 0. -1.
         24    2    1    2    0    0  0.13977119334E+02  0.24494224523E-01 -0.44669261028E+03  0.45417972832E+03  0.80929457431E+02 0.  0.
         25    2    1    2    0    0  0.25942148796E+02 -0.45480919010E+02  0.16867371215E+00  0.13560339785E+03  0.12508694568E+03 0.  0.
        -24    2    1    2    0    0 -0.39919268130E+02  0.45456424786E+02  0.26386575739E+04  0.26408924369E+04  0.90217716158E+02 0.  0.
        -13    1    3    3    0    0 -0.22366397114E+02  0.17232328558E+02 -0.72042615761E+02  0.77377951337E+02  0.00000000000E+00 0.  1.
         14    1    3    3    0    0  0.36343516448E+02 -0.17207834333E+02 -0.37464999452E+03  0.37680177699E+03  0.00000000000E+00 0. -1.
         13    1    5    5    0    0 -0.51915540754E+02  0.34870551194E+02  0.90382810656E+03  0.90598919691E+03  0.00000000000E+00 0. -1.
        -14    1    5    5    0    0  0.11996272624E+02  0.10585873592E+02  0.17348294674E+04  0.17349032400E+04  0.00000000000E+00 0.  1.
          5    1    4    4  501    0 -0.49580855399E+02 -0.65450199358E+01  0.47414394943E+01  0.50408849982E+02  0.41800000000E+01 0.  1.
         -5    1    4    4    0  501  0.75523004195E+02 -0.38935899074E+02 -0.45727657822E+01  0.85194547867E+02  0.41800000000E+01 0.  1.
</event>
<event>
11    1  0.8037748E-009  0.1981643E+03  0.7561462E-02  0.1055829E+00
         22   -1    0    0    0    0  0.00000000000E+00  0.00000000000E+00  0.22890907906E+03  0.22890907906E+03  0.00000000000E+00 0. -1.
         22   -1    0    0    0    0 -0.00000000000E+00 -0.00000000000E+00 -0.83695796618E+03  0.83695796618E+03  0.00000000000E+00 0.  1.
         24    2    1    2    0    0 -0.38405449557E+02  0.87485443630E+02 -0.60362248053E+03  0.61635286361E+03  0.80012949475E+02 0.  0.
         25    2    1    2    0    0  0.14034046970E+03 -0.17646814325E+03 -0.86659623502E+02  0.27201898042E+03  0.12509189560E+03 0.  0.
        -24    2    1    2    0    0 -0.10193502014E+03  0.88982699623E+02  0.82233216911E+02  0.17749520121E+03  0.80209571277E+02 0.  0.
        -11    1    3    3    0    0 -0.30634198947E+02  0.24541505595E+02 -0.42493255576E+03  0.42674162744E+03  0.00000000000E+00 0.  1.
         12    1    3    3    0    0 -0.77712506109E+01  0.62943938035E+02 -0.17868992477E+03  0.18961123618E+03  0.00000000000E+00 0. -1.
         11    1    5    5    0    0 -0.11623607846E+02  0.54617826782E+02  0.97113272087E+01  0.56679142001E+02  0.00000000000E+00 0. -1.
        -12    1    5    5    0    0 -0.90311412293E+02  0.34364872840E+02  0.72521889702E+02  0.12081605920E+03  0.00000000000E+00 0.  1.
          5    1    4    4  501    0  0.79151286886E+02 -0.17179704366E+03 -0.36586624629E+02  0.19270496602E+03  0.41800000000E+01 0.  1.
         -5    1    4    4    0  501  0.61189182810E+02 -0.46710995945E+01 -0.50072998873E+02  0.79314014402E+02  0.41800000000E+01 0.  1.
</event>
<event>
11    1  0.8037748E-009  0.1778565E+03  0.7561462E-02  0.1071390E+00
         22   -1    0    0    0    0  0.00000000000E+00  0.00000000000E+00  0.25562849459E+03  0.25562849459E+03  0.00000000000E+00 0. -1.
         22   -1    0    0    0    0 -0.00000000000E+00 -0.00000000000E+00 -0.68746368292E+03  0.68746368292E+03  0.00000000000E+00 0. -1.
        -24    2    1    2    0    0  0.51229683311E+02  0.63000387382E+01 -0.52856662194E+03  0.53723667090E+03  0.81094980032E+02 0.  0.
         25    2    1    2    0    0 -0.15815959457E+03  0.42716808373E+02 -0.38340872333E+02  0.20965946984E+03  0.12509151743E+03 0.  0.
         24    2    1    2    0    0  0.10692991126E+03 -0.49016847111E+02  0.13507230594E+03  0.19619603677E+03  0.80073090296E+02 0.  0.
        -13    1    5    5    0    0 -0.66095193985E+01  0.85283887839E+01  0.27033544197E+00  0.10793157239E+02  0.00000000000E+00 0.  1.
         14    1    5    5    0    0  0.11353943065E+03 -0.57545235895E+02  0.13480197050E+03  0.18540287953E+03  0.00000000000E+00 0. -1.
         13    1    3    3    0    0  0.13744962427E+02 -0.31987104126E+02 -0.32034964178E+03  0.32223592570E+03  0.00000000000E+00 0. -1.
        -14    1    3    3    0    0  0.37484720883E+02  0.38287142864E+02 -0.20821698016E+03  0.21500074519E+03  0.00000000000E+00 0.  1.
          5    1    4    4  501    0  0.15766715447E+02  0.11285448764E+02  0.15141760212E+02  0.24953876896E+02  0.41800000000E+01 0. -1.
         -5    1    4    4    0  501 -0.17392631001E+03  0.31431359608E+02 -0.53482632545E+02  0.18470559295E+03  0.41800000000E+01 0. -1.
</event>
<event>
11    1  0.8037748E-009  0.2495781E+03  0.7561462E-02  0.1024124E+00
         22   -1    0    0    0    0  0.00000000000E+00  0.00000000000E+00  0.72263828308E+02  0.72263828308E+02  0.00000000000E+00 0.  1.
         22   -1    0    0    0    0 -0.00000000000E+00 -0.00000000000E+00 -0.18574760224E+04  0.18574760224E+04  0.00000000000E+00 0.  1.
         24    2    1    2    0    0  0.17280594726E+03  0.13100639442E+03 -0.13585008843E+04  0.13782229860E+04  0.83362916137E+02 0.  0.
         25    2    1    2    0    0 -0.19933212297E+03 -0.85883629800E+02 -0.29462669091E+03  0.38673228123E+03  0.12509067605E+03 0.  0.
        -24    2    1    2    0    0  0.26526175707E+02 -0.45122764617E+02 -0.13208461895E+03  0.16478458351E+03  0.83474011028E+02 0.  0.
        -11    1    3    3    0    0  0.14276167773E+03  0.13685983127E+03 -0.12475171281E+04  0.12630956001E+04  0.00000000000E+00 0.  1.
         12    1    3    3    0    0  0.30044269538E+02 -0.58534368478E+01 -0.11098375620E+03  0.11512738595E+03  0.00000000000E+00 0. -1.
         11    1    5    5    0    0 -0.65633148885E+01 -0.59229975736E+02 -0.10087001153E+03  0.11715812543E+03  0.00000000000E+00 0. -1.
        -12    1    5    5    0    0  0.33089490596E+02  0.14107211119E+02 -0.31214607414E+02  0.47626458082E+02  0.00000000000E+00 0.  1.
          5    1    4    4  501    0 -0.20550258171E+03 -0.61181456395E+02 -0.21768403368E+03  0.30557861937E+03  0.41800000000E+01 0.  1.
         -5    1    4    4    0  501  0.61704587394E+01 -0.24702173406E+02 -0.76942657228E+02  0.81153661860E+02  0.41800000000E+01 0.  1.
</event>
<event>
11    1  0.8037748E-009  0.1272019E+03  0.7561462E-02  0.1122756E+00
         22   -1    0    0    0    0  0.00000000000E+00  0.00000000000E+00  0.80728347863E+03  0.80728347863E+03  0.00000000000E+00 0. -1.
         22   -1    0    0    0    0 -0.00000000000E+00 -0.00000000000E+00 -0.44161587595E+03  0.44161587595E+03  0.00000000000E+00 0. -1.
         24    2    1    2    0    0 -0.40757013142E+02  0.83656606935E+01 -0.41873164534E+03  0.42844801017E+03  0.80624985054E+02 0.  0.
         25    2    1    2    0    0  0.36363559840E+02 -0.28803558916E+02  0.31080422931E+03  0.33822962298E+03  0.12509218765E+03 0.  0.
        -24    2    1    2    0    0  0.43934533020E+01  0.20437898223E+02  0.47359501870E+03  0.48222172142E+03  0.88365925330E+02 0.  0.
        -11    1    3    3    0    0  0.24739766939E+02  0.36918972600E+01 -0.12200974769E+03  0.12454743958E+03  0.00000000000E+00 0.  1.
         12    1    3    3    0    0 -0.65496780081E+02  0.46737634335E+01 -0.29672189765E+03  0.30390057060E+03  0.00000000000E+00 0. -1.
         11    1    5    5    0    0 -0.86783817267E+01 -0.30827963047E+02  0.26888463333E+03  0.27078519837E+03  0.00000000000E+00 0. -1.
        -12    1    5    5    0    0  0.13071835029E+02  0.51265861270E+02  0.20471038537E+03  0.21143652306E+03  0.00000000000E+00 0.  1.
          5    1    4    4  501    0  0.48777309485E+02 -0.71878686567E+02  0.18031736964E+03  0.20019390025E+03  0.41800000000E+01 0. -1.
         -5    1    4    4    0  501 -0.12413749645E+02  0.43075127651E+02  0.13048685967E+03  0.13803572273E+03  0.41800000000E+01 0. -1.
</event>
<event>
11    1  0.8037748E-009  0.3939347E+03  0.7561462E-02  0.9667825E-01
         22   -1    0    0    0    0  0.00000000000E+00  0.00000000000E+00  0.57266407702E+03  0.57266407702E+03  0.00000000000E+00 0.  1.
         22   -1    0    0    0    0 -0.00000000000E+00 -0.00000000000E+00 -0.70698766818E+03  0.70698766818E+03  0.00000000000E+00 0.  1.
        -24    2    1    2    0    0  0.10673666061E+03 -0.31468967300E+02 -0.37975815045E+03  0.40391480705E+03  0.80919144186E+02 0.  0.
         25    2    1    2    0    0  0.29889551482E+03 -0.75752318675E+01 -0.96024397755E+02  0.33803051320E+03  0.12509208598E+03 0.  0.
         24    2    1    2    0    0 -0.40563217543E+03  0.39044199167E+02  0.34145895705E+03  0.53770642495E+03  0.80449169368E+02 0.  0.
        -13    1    5    5    0    0 -0.34072929656E+03  0.50858046065E+02  0.31440607438E+03  0.46640558958E+03  0.00000000000E+00 0.  1.
         14    1    5    5    0    0 -0.64902878866E+02 -0.11813846898E+02  0.27052882670E+02  0.71300835369E+02  0.00000000000E+00 0. -1.
         11    1    3    3    0    0  0.98749896662E+02 -0.11181612957E+02 -0.20518747253E+03  0.22798787126E+03  0.00000000000E+00 0. -1.
        -12    1    3    3    0    0  0.79867639481E+01 -0.20287354343E+02 -0.17457067793E+03  0.17592693579E+03  0.00000000000E+00 0.  1.
          5    1    4    4  501    0  0.12597414435E+03 -0.14977697195E+01  0.22788178160E+02  0.12809567449E+03  0.41800000000E+01 0.  1.
         -5    1    4    4    0  501  0.17292137047E+03 -0.60774621479E+01 -0.11881257591E+03  0.20993483872E+03  0.41800000000E+01 0.  1.
</event>
<event>
11    1  0.8037748E-009  0.1388256E+03  0.7561462E-02  0.1108877E+00
         22   -1    0    0    0    0  0.00000000000E+00  0.00000000000E+00  0.21091943577E+04  0.21091943577E+04  0.00000000000E+00 0.  1.
         22   -1    0    0    0    0 -0.00000000000E+00 -0.00000000000E+00 -0.58165676326E+03  0.58165676326E+03  0.00000000000E+00 0. -1.
         24    2    1    2    0    0 -0.35500571093E+02  0.11248307532E+02 -0.56249729501E+03  0.56931358307E+03  0.79548312380E+02 0.  0.
         25    2    1    2    0    0  0.88178068403E+02 -0.32418998908E+02  0.41381765940E+03  0.44240043078E+03  0.12508686058E+03 0.  0.
        -24    2    1    2    0    0 -0.52677497310E+02  0.21170691375E+02  0.16762172301E+04  0.16791371071E+04  0.81080855949E+02 0.  0.
        -13    1    3    3    0    0 -0.25146655704E+02 -0.33499070516E+02 -0.26275332495E+03  0.26607114047E+03  0.00000000000E+00 0.  1.
         14    1    3    3    0    0 -0.10353915389E+02  0.44747378048E+02 -0.29974397007E+03  0.30324244260E+03  0.00000000000E+00 0. -1.
         13    1    5    5    0    0 -0.48481381705E+01  0.13598792049E+02  0.46255410067E+02  0.48456109516E+02  0.00000000000E+00 0. -1.
        -14    1    5    5    0    0 -0.47829359139E+02  0.75718993260E+01  0.16299618200E+04  0.16306809976E+04  0.00000000000E+00 0.  1.
          5    1    4    4  501    0  0.10274214943E+03 -0.13443676675E+02  0.40243623176E+03  0.41558281335E+03  0.41800000000E+01 0. -1.
         -5    1    4    4    0  501 -0.14564081026E+02 -0.18975322233E+02  0.11381427632E+02  0.26817617435E+02  0.41800000000E+01 0. -1.
</event>
<event>
11    1  0.8536464E-009  0.1727140E+03  0.7561462E-02  0.1075694E+00
         22   -1    0    0    0    0  0.00000000000E+00  0.00000000000E+00  0.27020447221E+03  0.27020447221E+03  0.00000000000E+00 0. -1.
         22   -1    0    0    0    0 -0.00000000000E+00 -0.00000000000E+00 -0.22728673123E+04  0.22728673123E+04  0.00000000000E+00 0. -1.
         24    2    1    2    0    0 -0.56140189277E+02  0.94156072382E+02 -0.17049016361E+04  0.17105820654E+04  0.85932105403E+02 0.  0.
         25    2    1    2    0    0  0.14429917405E+03 -0.16577564582E+03 -0.51588393402E+03  0.57453240746E+03  0.12508971765E+03 0.  0.
        -24    2    1    2    0    0 -0.88158984773E+02  0.71619573436E+02  0.21812273009E+03  0.25795731163E+03  0.77865777743E+02 0.  0.
        -13    1    3    3    0    0  0.14429717917E+02  0.32167951857E+02 -0.80947354859E+03  0.81024096400E+03  0.00000000000E+00 0.  1.
         14    1    3    3    0    0 -0.70569907195E+02  0.61988120525E+02 -0.89542808752E+03  0.90034110137E+03  0.00000000000E+00 0. -1.
         11    1    5    5    0    0 -0.10085097067E+03  0.55603205904E+02  0.19926534820E+03  0.23015063282E+03  0.00000000000E+00 0. -1.
        -12    1    5    5    0    0  0.12691985892E+02  0.16016367532E+02  0.18857381892E+02  0.27806678814E+02  0.00000000000E+00 0.  1.
          5    1    4    4  501    0  0.12492961150E+03 -0.18013675307E+03 -0.40058063511E+03  0.45666067847E+03  0.41800000000E+01 0.  1.
         -5    1    4    4    0  501  0.19369562546E+02  0.14361107250E+02 -0.11530329892E+03  0.11787172900E+03  0.41800000000E+01 0.  1.
</event>
<event>
11    1  0.8037748E-009  0.1599761E+03  0.7561462E-02  0.1087100E+00
         22   -1    0    0    0    0  0.00000000000E+00  0.00000000000E+00  0.13872909588E+04  0.13872909588E+04  0.00000000000E+00 0. -1.
         22   -1    0    0    0    0 -0.00000000000E+00 -0.00000000000E+00 -0.79397387652E+03  0.79397387652E+03  0.00000000000E+00 0.  1.
         24    2    1    2    0    0 -0.98628286365E+02  0.42994358010E+01 -0.71855420014E+03  0.72979589485E+03  0.80844824089E+02 0.  0.
         25    2    1    2    0    0  0.11869264558E+03 -0.62140585981E+02  0.56129447495E+02  0.19169205541E+03  0.12508370275E+03 0.  0.
        -24    2    1    2    0    0 -0.20064359212E+02  0.57841150180E+02  0.12557418350E+04  0.12597768851E+04  0.80012917388E+02 0.  0.
        -11    1    3    3    0    0 -0.90492432359E+02 -0.15094605766E+02 -0.67734857179E+03  0.68353333141E+03  0.00000000000E+00 0.  1.
         12    1    3    3    0    0 -0.81358540064E+01  0.19394041568E+02 -0.41205628355E+02  0.46262563449E+02  0.00000000000E+00 0. -1.
         13    1    5    5    0    0 -0.24179879083E+02  0.31664992691E+02  0.11525137793E+04  0.11532022155E+04  0.00000000000E+00 0. -1.
        -14    1    5    5    0    0  0.41155198711E+01  0.26176157489E+02  0.10322805565E+03  0.10657466959E+03  0.00000000000E+00 0.  1.
          5    1    4    4  501    0  0.52942074177E+02  0.36003557374E+02  0.29008898691E+02  0.70413833620E+02  0.41800000000E+01 0.  1.
         -5    1    4    4    0  501  0.65750571400E+02 -0.98144143355E+02  0.27120548804E+02  0.12127822179E+03  0.41800000000E+01 0.  1.
</event>
<event>
11    1  0.8037748E-009  0.1704357E+03  0.7561462E-02  0.1077653E+00
         22   -1    0    0    0    0  0.00000000000E+00  0.00000000000E+00  0.22628951360E+03  0.22628951360E+03  0.00000000000E+00 0. -1.
         22   -1    0    0    0    0 -0.00000000000E+00 -0.00000000000E+00 -0.21822963917E+04  0.21822963917E+04  0.00000000000E+00 0.  1.
         24    2    1    2    0    0 -0.15996682525E+02 -0.11477352767E+03 -0.20593874597E+04  0.20642050449E+04  0.80230305485E+02 0.  0.
         25    2    1    2    0    0  0.82262435885E+02  0.10080232929E+03 -0.19779412454E+02  0.18156686351E+03  0.12508830009E+03 0.  0.
        -24    2    1    2    0    0 -0.66265753360E+02  0.13971198372E+02  0.12315999397E+03  0.16281399691E+03  0.82180709542E+02 0.  0.
        -11    1    3    3    0    0 -0.95209012252E+01 -0.11372563884E+03 -0.20470779733E+04  0.20502566662E+04  0.00000000000E+00 0.  1.
         12    1    3    3    0    0 -0.64757813000E+01 -0.10478888219E+01 -0.12309486365E+02  0.13948378723E+02  0.00000000000E+00 0. -1.
         11    1    5    5    0    0 -0.26720175708E+01 -0.25223734667E+02  0.59445347515E+02  0.64630687832E+02  0.00000000000E+00 0. -1.
        -12    1    5    5    0    0 -0.63593735789E+02  0.39194933039E+02  0.63714646460E+02  0.98183309076E+02  0.00000000000E+00 0.  1.
          5    1    4    4  501    0  0.52859482703E+02  0.12801664806E+03 -0.49818792448E+01  0.13865308728E+03  0.41800000000E+01 0. -1.
         -5    1    4    4    0  501  0.29402953182E+02 -0.27214318763E+02 -0.14797533209E+02  0.42913776234E+02  0.41800000000E+01 0. -1.
</event>
<event>
11    1  0.8037748E-009  0.1587715E+03  0.7561462E-02  0.1088238E+00
         22   -1    0    0    0    0  0.00000000000E+00  0.00000000000E+00  0.56358893696E+03  0.56358893696E+03  0.00000000000E+00 0. -1.
         22   -1    0    0    0    0 -0.00000000000E+00 -0.00000000000E+00 -0.96101885823E+03  0.96101885823E+03  0.00000000000E+00 0. -1.
        -24    2    1    2    0    0 -0.25931986336E+02  0.35138981283E+02 -0.71043466111E+03  0.71401046864E+03  0.56447548218E+02 0.  0.
         25    2    1    2    0    0  0.88092900085E+02  0.40731676488E+02 -0.21559075052E+03  0.26748225999E+03  0.12509180302E+03 0.  0.
         24    2    1    2    0    0 -0.62160913749E+02 -0.75870657771E+02  0.52859549036E+03  0.54311506655E+03  0.77074296491E+02 0.  0.
        -11    1    5    5    0    0 -0.12714561681E+02 -0.66425940839E+02  0.21154792242E+03  0.22209590085E+03  0.00000000000E+00 0.  1.
         12    1    5    5    0    0 -0.49446352068E+02 -0.94447169323E+01  0.31704756794E+03  0.32101916571E+03  0.00000000000E+00 0. -1.
         13    1    3    3    0    0 -0.28560498271E+02  0.43843726731E+02 -0.68506614422E+03  0.68706156667E+03  0.00000000000E+00 0. -1.
        -14    1    3    3    0    0  0.26285119349E+01 -0.87047454482E+01 -0.25368516888E+02  0.26948901971E+02  0.00000000000E+00 0.  1.
          5    1    4    4  501    0  0.26823153596E-01 -0.11039904188E+02  0.12701891295E+02  0.17340433859E+02  0.41800000000E+01 0.  1.
         -5    1    4    4    0  501  0.88066076932E+02  0.51771580676E+02 -0.22829264182E+03  0.25014182613E+03  0.41800000000E+01 0.  1.
</event>
<event>
11    1  0.8037748E-009  0.1278664E+03  0.7561462E-02  0.1121919E+00
         22   -1    0    0    0    0  0.00000000000E+00  0.00000000000E+00  0.44332455778E+03  0.44332455778E+03  0.00000000000E+00 0. -1.
         22   -1    0    0    0    0 -0.00000000000E+00 -0.00000000000E+00 -0.16850328369E+03  0.16850328369E+03  0.00000000000E+00 0. -1.
         24    2    1    2    0    0 -0.47715975112E+02 -0.16795147911E+02 -0.12395281497E+03  0.14904190219E+03  0.65500358741E+02 0.  0.
         25    2    1    2    0    0  0.48676017159E+02  0.36523490203E+02  0.17225654390E+03  0.22140995094E+03  0.12508688770E+03 0.  0.
        -24    2    1    2    0    0 -0.96004204709E+00 -0.19728342292E+02  0.22651754516E+03  0.24137598834E+03  0.81006421415E+02 0.  0.
        -11    1    3    3    0    0 -0.98961709625E+01  0.10178139094E+02  0.24207477802E+01  0.14400997707E+02  0.00000000000E+00 0.  1.
         12    1    3    3    0    0 -0.37819804149E+02 -0.26973287005E+02 -0.12637356275E+03  0.13464090448E+03  0.00000000000E+00 0. -1.
         11    1    5    5    0    0 -0.68860517886E+01 -0.33770616181E+02  0.22311239709E+03  0.22575875168E+03  0.00000000000E+00 0. -1.
        -12    1    5    5    0    0  0.59260097415E+01  0.14042273889E+02  0.34051480733E+01  0.15617236658E+02  0.00000000000E+00 0.  1.
          5    1    4    4  501    0  0.71627640596E+02 -0.17223920155E+02  0.12888240264E+03  0.14851036474E+03  0.41800000000E+01 0.  1.
         -5    1    4    4    0  501 -0.22951623437E+02  0.53747410359E+02  0.43374141262E+02  0.72899586205E+02  0.41800000000E+01 0.  1.
</event>
<event>
11    1  0.8037748E-009  0.1258955E+03  0.7561462E-02  0.1124417E+00
         22   -1    0    0    0    0  0.00000000000E+00  0.00000000000E+00  0.23030852258E+04  0.23030852258E+04  0.00000000000E+00 0. -1.
         22   -1    0    0    0    0 -0.00000000000E+00 -0.00000000000E+00 -0.51758145074E+02  0.51758145074E+02  0.00000000000E+00 0. -1.
        -24    2    1    2    0    0  0.10815365429E+02 -0.42499782617E+02  0.13049341290E+02  0.92327298557E+02  0.80192525206E+02 0.  0.
         25    2    1    2    0    0  0.39978725286E+01  0.41999733848E+02  0.38556747448E+03  0.40754061853E+03  0.12508843969E+03 0.  0.
         24    2    1    2    0    0 -0.14813237957E+02  0.50004876872E+00  0.18527102650E+04  0.18549754538E+04  0.90437416102E+02 0.  0.
        -13    1    5    5    0    0 -0.24868176904E+02  0.35763502002E+02  0.54032190435E+03  0.54207491606E+03  0.00000000000E+00 0.  1.
         14    1    5    5    0    0  0.10054938946E+02 -0.35263453233E+02  0.13123883606E+04  0.13129005378E+04  0.00000000000E+00 0. -1.
         13    1    3    3    0    0  0.45847801644E+02 -0.23958350484E+02  0.61467729151E+01  0.52094205923E+02  0.00000000000E+00 0. -1.
        -14    1    3    3    0    0 -0.35032436215E+02 -0.18541432133E+02  0.69025683751E+01  0.40233092634E+02  0.00000000000E+00 0.  1.
          5    1    4    4  501    0 -0.35130751240E+02  0.63690086017E+02  0.31909056653E+03  0.32730239655E+03  0.41800000000E+01 0. -1.
         -5    1    4    4    0  501  0.39128623769E+02 -0.21690352169E+02  0.66476907957E+02  0.80238221982E+02  0.41800000000E+01 0. -1.
</event>
<event>
11    1  0.8037748E-009  0.1308997E+03  0.7561462E-02  0.1118168E+00
         22   -1    0    0    0    0  0.00000000000E+00  0.00000000000E+00  0.46753272828E+02  0.46753272828E+02  0.00000000000E+00 0.  1.
         22   -1    0    0    0    0 -0.00000000000E+00 -0.00000000000E+00 -0.14760734076E+04  0.14760734076E+04  0.00000000000E+00 0. -1.
        -24    2    1    2    0    0  0.39417251581E+01 -0.27323761305E+02 -0.11304741553E+04  0.11335620921E+04  0.78924493845E+02 0.  0.
         25    2    1    2    0    0  0.33409715965E+01 -0.16084788315E+02 -0.26173518147E+03  0.29055540772E+03  0.12508899725E+03 0.  0.
         24    2    1    2    0    0 -0.72826967547E+01  0.43408549619E+02 -0.37110798038E+02  0.98709180634E+02  0.80180740570E+02 0.  0.
        -11    1    5    5    0    0 -0.41842047814E+02  0.16288033833E+02 -0.30510556267E+02  0.54285827388E+02  0.00000000000E+00 0.  1.
         12    1    5    5    0    0  0.34559351060E+02  0.27120515786E+02 -0.66002417703E+01  0.44423353246E+02  0.00000000000E+00 0. -1.
         11    1    3    3    0    0  0.10588358394E+02  0.24016309607E+02 -0.59842738250E+03  0.59900269497E+03  0.00000000000E+00 0. -1.
        -12    1    3    3    0    0 -0.66466332361E+01 -0.51340070911E+02 -0.53204677276E+03  0.53455939709E+03  0.00000000000E+00 0.  1.
          5    1    4    4  501    0 -0.18181759878E+02  0.38402518264E+01  0.69247421346E+01  0.20266928232E+02  0.41800000000E+01 0. -1.
         -5    1    4    4    0  501  0.21522731474E+02 -0.19925040141E+02 -0.26865992360E+03  0.27028847949E+03  0.41800000000E+01 0. -1.
</event>
<event>
11    1  0.8037748E-009  0.1862265E+03  0.7561462E-02  0.1064715E+00
         22   -1    0    0    0    0  0.00000000000E+00  0.00000000000E+00  0.59466311732E+03  0.59466311732E+03  0.00000000000E+00 0.  1.
         22   -1    0    0    0    0 -0.00000000000E+00 -0.00000000000E+00 -0.29187039903E+03  0.29187039903E+03  0.00000000000E+00 0. -1.
        -24    2    1    2    0    0  0.13599697599E+02 -0.15175373066E+02 -0.20939079393E+03  0.22569752501E+03  0.81728969703E+02 0.  0.
         25    2    1    2    0    0  0.12457757340E+03  0.38136409033E+02  0.77190622610E+02  0.19642327837E+03  0.12509897913E+03 0.  0.
         24    2    1    2    0    0 -0.13817727100E+03 -0.22961035967E+02  0.43499288961E+03  0.46441271296E+03  0.82705420365E+02 0.  0.
        -13    1    5    5    0    0 -0.46331545228E+02 -0.80841945001E+01  0.27775576776E+03  0.28170948299E+03  0.00000000000E+00 0.  1.
         14    1    5    5    0    0 -0.91845725769E+02 -0.14876841467E+02  0.15723712185E+03  0.18270322997E+03  0.00000000000E+00 0. -1.
         11    1    3    3    0    0 -0.52721846030E+01  0.11413294583E+01 -0.19833765440E+03  0.19841099697E+03  0.00000000000E+00 0. -1.
        -12    1    3    3    0    0  0.18871882202E+02 -0.16316702524E+02 -0.11053139531E+02  0.27286528042E+02  0.00000000000E+00 0.  1.
          5    1    4    4  501    0 -0.20436210412E+02  0.28361007049E+02  0.15925201818E+02  0.38640262289E+02  0.41800000000E+01 0. -1.
         -5    1    4    4    0  501  0.14501378381E+03  0.97754019839E+01  0.61265420792E+02  0.15778301608E+03  0.41800000000E+01 0. -1.
</event>
<event>
11    1  0.8037748E-009  0.1852446E+03  0.7561462E-02  0.1065478E+00
         22   -1    0    0    0    0  0.00000000000E+00  0.00000000000E+00  0.90400370763E+03  0.90400370763E+03  0.00000000000E+00 0. -1.
         22   -1    0    0    0    0 -0.00000000000E+00 -0.00000000000E+00 -0.74195845424E+03  0.74195845424E+03  0.00000000000E+00 0.  1.
        -24    2    1    2    0    0 -0.10810578742E+03 -0.85092508742E+02 -0.66643455544E+03  0.68440451070E+03  0.73122645364E+02 0.  0.
         25    2    1    2    0    0  0.82970465822E+02  0.94560322122E+02  0.56918919173E+02  0.18631447264E+03  0.12509023398E+03 0.  0.
         24    2    1    2    0    0  0.25135321600E+02 -0.94678133800E+01  0.77156088966E+03  0.77524317852E+03  0.70529111132E+02 0.  0.
        -13    1    5    5    0    0 -0.12519896820E+02  0.20649005510E+02  0.16351698959E+03  0.16529045686E+03  0.00000000000E+00 0.  1.
         14    1    5    5    0    0  0.37655218420E+02 -0.30116818890E+02  0.60804390007E+03  0.60995272166E+03  0.00000000000E+00 0. -1.
         13    1    3    3    0    0 -0.41278930646E+02 -0.71262601867E+02 -0.27503685973E+03  0.28710204240E+03  0.00000000000E+00 0. -1.
        -14    1    3    3    0    0 -0.66826856776E+02 -0.13829906875E+02 -0.39139769571E+03  0.39730246830E+03  0.00000000000E+00 0.  1.
          5    1    4    4  501    0  0.54058497786E+02  0.26262800330E+02 -0.33787188665E+02  0.69073166874E+02  0.41800000000E+01 0.  1.
         -5    1    4    4    0  501  0.28911968036E+02  0.68297521792E+02  0.90706107839E+02  0.11724130577E+03  0.41800000000E+01 0.  1.
</event>
<event>
11    1  0.8037748E-009  0.1339591E+03  0.7561462E-02  0.1114498E+00
         22   -1    0    0    0    0  0.00000000000E+00  0.00000000000E+00  0.32618663970E+03  0.32618663970E+03  0.00000000000E+00 0.  1.
         22   -1    0    0    0    0 -0.00000000000E+00 -0.00000000000E+00 -0.81719027797E+02  0.81719027797E+02  0.00000000000E+00 0.  1.
        -24    2    1    2    0    0 -0.15166157531E+02  0.22164229903E+01  0.13943308694E+02  0.82201062623E+02  0.79546677956E+02 0.  0.
         25    2    1    2    0    0  0.35014831304E+02 -0.42695421217E+02  0.10964258780E+03  0.17526441426E+03  0.12508869031E+03 0.  0.
         24    2    1    2    0    0 -0.19848673773E+02  0.40478998226E+02  0.12088171541E+03  0.15044019061E+03  0.77377921162E+02 0.  0.
        -13    1    5    5    0    0  0.80324261042E+01  0.39753927919E+02  0.11499191930E+03  0.12193455686E+03  0.00000000000E+00 0.  1.
         14    1    5    5    0    0 -0.27881099877E+02  0.72507030742E+00  0.58897961168E+01  0.28505633752E+02  0.00000000000E+00 0. -1.
         13    1    3    3    0    0 -0.60916406911E+01 -0.18320712052E+02 -0.28360271949E+02  0.34308331370E+02  0.00000000000E+00 0. -1.
        -14    1    3    3    0    0 -0.90745168401E+01  0.20537135042E+02  0.42303580643E+02  0.47892731253E+02  0.00000000000E+00 0.  1.
          5    1    4    4  501    0  0.76837671442E+02 -0.11944851119E+01  0.53141943240E+02  0.93525360618E+02  0.41800000000E+01 0.  1.
         -5    1    4    4    0  501 -0.41822840138E+02 -0.41500936105E+02  0.56500644557E+02  0.81739053641E+02  0.41800000000E+01 0.  1.
</event>
<event>
11    1  0.8037748E-009  0.2124821E+03  0.7561462E-02  0.1046032E+00
         22   -1    0    0    0    0  0.00000000000E+00  0.00000000000E+00  0.71216678671E+03  0.71216678671E+03  0.00000000000E+00 0. -1.
         22   -1    0    0    0    0 -0.00000000000E+00 -0.00000000000E+00 -0.19874979119E+04  0.19874979119E+04  0.00000000000E+00 0.  1.
         24    2    1    2    0    0  0.19947872670E+02 -0.15568499337E+02 -0.15930678715E+04  0.15950996142E+04  0.76401833938E+02 0.  0.
         25    2    1    2    0    0 -0.47266615482E+02  0.18450611317E+03 -0.34602032241E+03  0.41431213382E+03  0.12509133453E+03 0.  0.
        -24    2    1    2    0    0  0.27318742812E+02 -0.16893761384E+03  0.66375706870E+03  0.69025295061E+03  0.81175479594E+02 0.  0.
        -13    1    3    3    0    0  0.16225748003E+02 -0.45770954047E+02 -0.11214953022E+04  0.11225461986E+04  0.00000000000E+00 0.  1.
         14    1    3    3    0    0  0.37221246668E+01  0.30202454710E+02 -0.47157256924E+03  0.47255341554E+03  0.00000000000E+00 0. -1.
         13    1    5    5    0    0  0.20938729375E+02 -0.25795650501E+02  0.25405534969E+03  0.25621859159E+03  0.00000000000E+00 0. -1.
        -14    1    5    5    0    0  0.63800134378E+01 -0.14314196334E+03  0.40970171902E+03  0.43403435902E+03  0.00000000000E+00 0.  1.
          5    1    4    4  501    0 -0.52193288028E+00  0.10398082738E+03 -0.76577903408E+02  0.12920500210E+03  0.41800000000E+01 0. -1.
         -5    1    4    4    0  501 -0.46744682602E+02  0.80525285796E+02 -0.26944241900E+03  0.28510713172E+03  0.41800000000E+01 0. -1.
</event>
<event>
11    1  0.8037748E-009  0.1212753E+04  0.7561462E-02  0.8499409E-01
         22   -1    0    0    0    0  0.00000000000E+00  0.00000000000E+00  0.26833415522E+04  0.26833415522E+04  0.00000000000E+00 0.  1.
         22   -1    0    0    0    0 -0.00000000000E+00 -0.00000000000E+00 -0.13702780973E+03  0.13702780973E+03  0.00000000000E+00 0.  1.
         24    2    1    2    0    0 -0.23330884376E+03  0.25602233674E+03  0.10510581442E+04  0.11096295709E+04  0.81080876895E+02 0.  0.
         25    2    1    2    0    0  0.30181469239E+03 -0.42407408987E+03  0.64664329628E+03  0.83948009453E+03  0.12509330221E+03 0.  0.
        -24    2    1    2    0    0 -0.68505848634E+02  0.16805175312E+03  0.84861230197E+03  0.87125969648E+03  0.77564016434E+02 0.  0.
        -13    1    3    3    0    0 -0.10415850063E+03  0.69519493325E+02  0.30084490866E+03  0.32586747654E+03  0.00000000000E+00 0.  1.
         14    1    3    3    0    0 -0.12915034313E+03  0.18650284342E+03  0.75021323555E+03  0.78376209434E+03  0.00000000000E+00 0. -1.
         13    1    5    5    0    0 -0.23557209589E+02  0.10307627071E+02  0.52905609219E+02  0.58823403390E+02  0.00000000000E+00 0. -1.
        -14    1    5    5    0    0 -0.44948639045E+02  0.15774412605E+03  0.79570669275E+03  0.81243629309E+03  0.00000000000E+00 0.  1.
          5    1    4    4  501    0  0.30277705004E+03 -0.42303131710E+03  0.60633129032E+03  0.79892712015E+03  0.41800000000E+01 0.  1.
         -5    1    4    4    0  501 -0.96235765271E+00 -0.10427727625E+01  0.40312005957E+02  0.40552974387E+02  0.41800000000E+01 0.  1.
</event>
<event>
11    1  0.8037748E-009  0.1582943E+03  0.7561462E-02  0.1088693E+00
         22   -1    0    0    0    0  0.00000000000E+00  0.00000000000E+00  0.10480702209E+03  0.10480702209E+03  0.00000000000E+00 0.  1.
         22   -1    0    0    0    0 -0.00000000000E+00 -0.00000000000E+00 -0.17116257055E+04  0.17116257055E+04  0.00000000000E+00 0. -1.
         24    2    1    2    0    0  0.28029400017E+02 -0.11843290212E+03 -0.12245244007E+04  0.12332922147E+04  0.82083367690E+02 0.  0.
         25    2    1    2    0    0  0.14524934482E+01  0.43112600209E+02 -0.43727584763E+03  0.45685785252E+03  0.12509246364E+03 0.  0.
        -24    2    1    2    0    0 -0.29481893465E+02  0.75320301911E+02  0.54981564936E+02  0.12628266039E+03  0.79887470289E+02 0.  0.
        -11    1    3    3    0    0 -0.14858905625E+02  0.53074663612E+01 -0.14275161306E+03  0.14362095706E+03  0.00000000000E+00 0.  1.
         12    1    3    3    0    0  0.42888305641E+02 -0.12374036848E+03 -0.10817727876E+04  0.10896712576E+04  0.00000000000E+00 0. -1.
         13    1    5    5    0    0 -0.15126675883E+01 -0.99478639663E+01 -0.10992617501E+02  0.14902543415E+02  0.00000000000E+00 0. -1.
        -14    1    5    5    0    0 -0.27969225876E+02  0.85268165877E+02  0.65974182437E+02  0.11138011697E+03  0.00000000000E+00 0.  1.
          5    1    4    4  501    0  0.26842045981E+02  0.45918336961E+02 -0.66855748354E+02  0.85534511103E+02  0.41800000000E+01 0. -1.
         -5    1    4    4    0  501 -0.25389552533E+02 -0.28057367514E+01 -0.37042009927E+03  0.37132334142E+03  0.41800000000E+01 0. -1.
</event>
<event>
11    1  0.8037748E-009  0.2008783E+03  0.7561462E-02  0.1053904E+00
         22   -1    0    0    0    0  0.00000000000E+00  0.00000000000E+00  0.59244512661E+03  0.59244512661E+03  0.00000000000E+00 0. -1.
         22   -1    0    0    0    0 -0.00000000000E+00 -0.00000000000E+00 -0.61641217940E+03  0.61641217940E+03  0.00000000000E+00 0.  1.
         24    2    1    2    0    0 -0.19451613212E+03 -0.49383003296E+02 -0.37422051844E+03  0.43249544715E+03  0.82073800438E+02 0.  0.
         25    2    1    2    0    0  0.82727130830E+02  0.79354388257E+02 -0.16827197580E+03  0.23897797446E+03  0.12511641509E+03 0.  0.
        -24    2    1    2    0    0  0.11178900129E+03 -0.29971384961E+02  0.51852544146E+03  0.53738388440E+03  0.80732527802E+02 0.  0.
        -11    1    3    3    0    0 -0.18823768579E+03 -0.58772801261E+02 -0.31083592144E+03  0.36811226355E+03  0.00000000000E+00 0.  1.
         12    1    3    3    0    0 -0.62784463308E+01  0.93897979644E+01 -0.63384596995E+02  0.64383183599E+02  0.00000000000E+00 0. -1.
         13    1    5    5    0    0  0.87398330192E+02  0.49260116351E+01  0.43401065975E+03  0.44275047881E+03  0.00000000000E+00 0. -1.
        -14    1    5    5    0    0  0.24390671095E+02 -0.34897396596E+02  0.84514781708E+02  0.94633405586E+02  0.00000000000E+00 0.  1.
          5    1    4    4  501    0  0.22095046286E+02  0.14425651780E+01 -0.13170101001E+03  0.13361474657E+03  0.41800000000E+01 0. -1.
         -5    1    4    4    0  501  0.60632084544E+02  0.77911823079E+02 -0.36570965793E+02  0.10536322789E+03  0.41800000000E+01 0. -1.
</event>
<event>
11    1  0.8037748E-009  0.1337353E+03  0.7561462E-02  0.1114763E+00
         22   -1    0    0    0    0  0.00000000000E+00  0.00000000000E+00  0.24883739058E+03  0.24883739058E+03  0.00000000000E+00 0.  1.
         22   -1    0    0    0    0 -0.00000000000E+00 -0.00000000000E+00 -0.81271003825E+03  0.81271003825E+03  0.00000000000E+00 0.  1.
         24    2    1    2    0    0 -0.44307025189E+02 -0.89700045521E+01 -0.67137630688E+03  0.67771003633E+03  0.80629860745E+02 0.  0.
         25    2    1    2    0    0  0.71231492338E+02  0.23929890356E+02 -0.87968610978E+02  0.17038881513E+03  0.12508919478E+03 0.  0.
        -24    2    1    2    0    0 -0.26924467149E+02 -0.14959885804E+02  0.19547227019E+03  0.21344857737E+03  0.80013509211E+02 0.  0.
        -13    1    3    3    0    0 -0.22075010585E+02  0.33250106734E+02 -0.41632940524E+03  0.41823802955E+03  0.00000000000E+00 0.  1.
         14    1    3    3    0    0 -0.22232014604E+02 -0.42220111286E+02 -0.25504690164E+03  0.25947200678E+03  0.00000000000E+00 0. -1.
         13    1    5    5    0    0  0.14289725582E+02 -0.35353605844E+02  0.68385996094E+02  0.78298902707E+02  0.00000000000E+00 0. -1.
        -14    1    5    5    0    0 -0.41214192731E+02  0.20393720040E+02  0.12708627409E+03  0.13514967467E+03  0.00000000000E+00 0.  1.
          5    1    4    4  501    0  0.13195170427E+02  0.32752134059E+02 -0.10357061856E+03  0.10950415626E+03  0.41800000000E+01 0.  1.
         -5    1    4    4    0  501  0.58036321912E+02 -0.88222437023E+01  0.15602007587E+02  0.60884658870E+02  0.41800000000E+01 0.  1.
</event>
<event>
11    1  0.8037748E-009  0.1501618E+03  0.7561462E-02  0.1096714E+00
         22   -1    0    0    0    0  0.00000000000E+00  0.00000000000E+00  0.15603047310E+04  0.15603047310E+04  0.00000000000E+00 0.  1.
         22   -1    0    0    0    0 -0.00000000000E+00 -0.00000000000E+00 -0.30579216520E+03  0.30579216520E+03  0.00000000000E+00 0.  1.
         24    2    1    2    0    0 -0.72464535708E+02  0.35059031235E+02 -0.21211262649E+03  0.24116894719E+03  0.81795172016E+02 0.  0.
         25    2    1    2    0    0  0.10502996252E+03 -0.54269452260E+01  0.87609463832E+01  0.16365968131E+03  0.12508793844E+03 0.  0.
        -24    2    1    2    0    0 -0.32565426813E+02 -0.29632086009E+02  0.14578642459E+04  0.14612682677E+04  0.89432785682E+02 0.  0.
        -11    1    3    3    0    0 -0.50349183270E+02  0.29301289560E+02 -0.21032848592E+03  0.21824682774E+03  0.00000000000E+00 0.  1.
         12    1    3    3    0    0 -0.22115352438E+02  0.57577416745E+01 -0.17841405667E+01  0.22922119453E+02  0.00000000000E+00 0. -1.
         11    1    5    5    0    0 -0.37313057994E+01 -0.48596876142E+02  0.41808629539E+03  0.42091772285E+03  0.00000000000E+00 0. -1.
        -12    1    5    5    0    0 -0.28834121014E+02  0.18964790133E+02  0.10397779505E+04  0.10403505449E+04  0.00000000000E+00 0.  1.
          5    1    4    4  501    0 -0.11898239569E+02  0.36857813402E+02  0.19924679358E+00  0.38956111368E+02  0.41800000000E+01 0.  1.
         -5    1    4    4    0  501  0.11692820209E+03 -0.42284758628E+02  0.85616995896E+01  0.12470356994E+03  0.41800000000E+01 0.  1.
</event>
<event>
11    1  0.8037748E-009  0.1970905E+03  0.7561462E-02  0.1056600E+00
         22   -1    0    0    0    0  0.00000000000E+00  0.00000000000E+00  0.15595310150E+04  0.15595310150E+04  0.00000000000E+00 0. -1.
         22   -1    0    0    0    0 -0.00000000000E+00 -0.00000000000E+00 -0.11524285163E+04  0.11524285163E+04  0.00000000000E+00 0. -1.
        -24    2    1    2    0    0  0.10039139312E+02  0.10076189995E+03 -0.89875462015E+03  0.90788541230E+03  0.79008289545E+02 0.  0.
         25    2    1    2    0    0  0.14141178681E+03 -0.11668808888E+03 -0.19374332356E+03  0.29461186527E+03  0.12508505985E+03 0.  0.
         24    2    1    2    0    0 -0.15145092612E+03  0.15926188932E+02  0.14996004424E+04  0.15094622538E+04  0.80521936110E+02 0.  0.
        -11    1    5    5    0    0  0.26593249131E+00 -0.12171189800E+02  0.26166874334E+03  0.26195178912E+03  0.00000000000E+00 0.  1.
         12    1    5    5    0    0 -0.15171685861E+03  0.28097378731E+02  0.12379316991E+04  0.12475104647E+04  0.00000000000E+00 0. -1.
         11    1    3    3    0    0 -0.11952604568E+02  0.58497584116E+01 -0.36941602726E+03  0.36965563113E+03  0.00000000000E+00 0. -1.
        -12    1    3    3    0    0  0.21991743879E+02  0.94912141534E+02 -0.52933859289E+03  0.53822978116E+03  0.00000000000E+00 0.  1.
          5    1    4    4  501    0  0.64924030713E+02 -0.69096209835E+02 -0.17986578683E+03  0.20336811365E+03  0.41800000000E+01 0. -1.
         -5    1    4    4    0  501  0.76487756099E+02 -0.47591879042E+02 -0.13877536730E+02  0.91243751619E+02  0.41800000000E+01 0. -1.
</event>
<event>
11    1  0.8037748E-009  0.1797805E+03  0.7561462E-02  0.1069821E+00
         22   -1    0    0    0    0  0.00000000000E+00  0.00000000000E+00  0.40873973779E+03  0.40873973779E+03  0.00000000000E+00 0.  1.
         22   -1    0    0    0    0 -0.00000000000E+00 -0.00000000000E+00 -0.29792589723E+03  0.29792589723E+03  0.00000000000E+00 0. -1.
        -24    2    1    2    0    0  0.39849902278E+02  0.15811950311E+02 -0.17066111732E+03  0.19444010852E+03  0.82726696738E+02 0.  0.
         25    2    1    2    0    0  0.38152877191E+02 -0.12075452552E+03 -0.14556438627E+02  0.17859524040E+03  0.12508825891E+03 0.  0.
         24    2    1    2    0    0 -0.78002779469E+02  0.10494257521E+03  0.29603139651E+03  0.33363028610E+03  0.81099953053E+02 0.  0.
        -13    1    5    5    0    0 -0.24640871746E+02  0.95371100155E+02  0.17081560265E+03  0.19718212245E+03  0.00000000000E+00 0.  1.
         14    1    5    5    0    0 -0.53361907723E+02  0.95714750529E+01  0.12521579387E+03  0.13644816365E+03  0.00000000000E+00 0. -1.
         11    1    3    3    0    0  0.22467723109E+01  0.46734235527E+01 -0.15004275516E+03  0.15013233246E+03  0.00000000000E+00 0. -1.
        -12    1    3    3    0    0  0.37603129967E+02  0.11138526758E+02 -0.20618362163E+02  0.44307776066E+02  0.00000000000E+00 0.  1.
          5    1    4    4  501    0  0.65749012848E+02 -0.12305038968E+03  0.11881720840E+02  0.14008204304E+03  0.41800000000E+01 0. -1.
         -5    1    4    4    0  501 -0.27596135656E+02  0.22958641608E+01 -0.26438159467E+02  0.38513197367E+02  0.41800000000E+01 0. -1.
</event>
<event>
11    1  0.8037748E-009  0.5091505E+03  0.7561462E-02  0.9373304E-01
         22   -1    0    0    0    0  0.00000000000E+00  0.00000000000E+00  0.26178440820E+04  0.26178440820E+04  0.00000000000E+00 0. -1.
         22   -1    0    0    0    0 -0.00000000000E+00 -0.00000000000E+00 -0.60088198961E+03  0.60088198961E+03  0.00000000000E+00 0. -1.
         24    2    1    2    0    0  0.91948838631E+02  0.10903865797E+03 -0.33937099676E+03  0.37687153100E+03  0.80718396763E+02 0.  0.
         25    2    1    2    0    0 -0.54562351471E+03 -0.26439417759E+03  0.23034468956E+03  0.66054115432E+03  0.12508652846E+03 0.  0.
        -24    2    1    2    0    0  0.45367467607E+03  0.15535551962E+03  0.21259883996E+04  0.21813133863E+04  0.91352968439E+02 0.  0.
        -13    1    3    3    0    0  0.13411423410E+02 -0.35611895653E+00 -0.11057007138E+03  0.11138102973E+03  0.00000000000E+00 0.  1.
         14    1    3    3    0    0  0.78537415221E+02  0.10939477693E+03 -0.22880092538E+03  0.26549050127E+03  0.00000000000E+00 0. -1.
         11    1    5    5    0    0  0.27226857295E+03  0.13564046241E+03  0.14100010436E+04  0.14424394108E+04  0.00000000000E+00 0. -1.
        -12    1    5    5    0    0  0.18140610312E+03  0.19715057209E+02  0.71598735595E+03  0.73887397546E+03  0.00000000000E+00 0.  1.
          5    1    4    4  501    0 -0.25727205923E+01  0.90203578197E+01  0.84714619462E+01  0.13312543482E+02  0.41800000000E+01 0.  1.
         -5    1    4    4    0  501 -0.54305079411E+03 -0.27341453541E+03  0.22187322762E+03  0.64722861084E+03  0.41800000000E+01 0.  1.
</event>
<event>
11    1  0.8037748E-009  0.1322261E+03  0.7561462E-02  0.1116564E+00
         22   -1    0    0    0    0  0.00000000000E+00  0.00000000000E+00  0.23779662803E+03  0.23779662803E+03  0.00000000000E+00 0. -1.
         22   -1    0    0    0    0 -0.00000000000E+00 -0.00000000000E+00 -0.16948024565E+04  0.16948024565E+04  0.00000000000E+00 0. -1.
        -24    2    1    2    0    0  0.31651431233E+02  0.24632067263E+02 -0.10128577668E+04  0.10167488902E+04  0.79302573620E+02 0.  0.
         25    2    1    2    0    0 -0.23138441827E+02 -0.66383457245E+02 -0.66327913099E+03  0.67862284580E+03  0.12509040871E+03 0.  0.
         24    2    1    2    0    0 -0.85129894055E+01  0.41751389982E+02  0.21913106929E+03  0.23722734853E+03  0.80266679307E+02 0.  0.
        -11    1    5    5    0    0 -0.16220193815E+02 -0.21623255273E+02  0.64249582118E+02  0.69704150940E+02  0.00000000000E+00 0.  1.
         12    1    5    5    0    0  0.77072044099E+01  0.63374645255E+02  0.15488148718E+03  0.16752319759E+03  0.00000000000E+00 0. -1.
         13    1    3    3    0    0 -0.82320144552E+01  0.36477452918E+02 -0.71766086376E+03  0.71863445924E+03  0.00000000000E+00 0. -1.
        -14    1    3    3    0    0  0.39883445688E+02 -0.11845385655E+02 -0.29519690303E+03  0.29811443098E+03  0.00000000000E+00 0.  1.
          5    1    4    4  501    0 -0.88809495747E+01 -0.42717304741E+02 -0.64201333789E+03  0.64350776050E+03  0.41800000000E+01 0. -1.
         -5    1    4    4    0  501 -0.14257492252E+02 -0.23666152505E+02 -0.21265793095E+02  0.35115085300E+02  0.41800000000E+01 0. -1.
</event>
<event>
11    1  0.8037748E-009  0.1506860E+03  0.7561462E-02  0.1096180E+00
         22   -1    0    0    0    0  0.00000000000E+00  0.00000000000E+00  0.12649544505E+03  0.12649544505E+03  0.00000000000E+00 0. -1.
         22   -1    0    0    0    0 -0.00000000000E+00 -0.00000000000E+00 -0.13326750928E+04  0.13326750928E+04  0.00000000000E+00 0. -1.
        -24    2    1    2    0    0 -0.81918898720E+02  0.61137165344E+01 -0.10951332218E+04  0.11011422407E+04  0.80308015424E+02 0.  0.
         25    2    1    2    0    0  0.10153222298E+03 -0.77711676209E+02 -0.15794729406E+03  0.23862844164E+03  0.12509311946E+03 0.  0.
         24    2    1    2    0    0 -0.19613324264E+02  0.71597959675E+02  0.46900868081E+02  0.11939985550E+03  0.80905399988E+02 0.  0.
        -13    1    5    5    0    0  0.29371031502E+02  0.39256118196E+02  0.99120263106E+01  0.50019481933E+02  0.00000000000E+00 0.  1.
         14    1    5    5    0    0 -0.48984355766E+02  0.32341841479E+02  0.36988841771E+02  0.69380373562E+02  0.00000000000E+00 0. -1.
         13    1    3    3    0    0 -0.77582121611E+02 -0.22544702732E+02 -0.92837700495E+03  0.93188578299E+03  0.00000000000E+00 0. -1.
        -14    1    3    3    0    0 -0.43367771086E+01  0.28658419266E+02 -0.16675621682E+03  0.16925645771E+03  0.00000000000E+00 0.  1.
          5    1    4    4  501    0  0.41683985042E+02 -0.98952961196E+02 -0.63739630767E+02  0.12493780880E+03  0.41800000000E+01 0.  1.
         -5    1    4    4    0  501  0.59848237942E+02  0.21241284986E+02 -0.94207663291E+02  0.11369063284E+03  0.41800000000E+01 0.  1.
</event>
<event>
11    1  0.8447687E-009  0.1998712E+03  0.7561462E-02  0.1054615E+00
         22   -1    0    0    0    0  0.00000000000E+00  0.00000000000E+00  0.33568756060E+04  0.33568756060E+04  0.00000000000E+00 0.  1.
         22   -1    0    0    0    0 -0.00000000000E+00 -0.00000000000E+00 -0.40296012038E+03  0.40296012038E+03  0.00000000000E+00 0. -1.
         24    2    1    2    0    0  0.65663230535E+02 -0.46419245265E+02 -0.29343027106E+03  0.31415354526E+03  0.78260589368E+02 0.  0.
         25    2    1    2    0    0 -0.17701599083E+03  0.15282000695E+03  0.84756632804E+02  0.27842383014E+03  0.12509007495E+03 0.  0.
        -24    2    1    2    0    0  0.11135276029E+03 -0.10640076169E+03  0.31625891238E+04  0.31672583509E+04  0.76386753479E+02 0.  0.
        -11    1    3    3    0    0  0.41155802083E+02  0.10344887942E+02 -0.65972612003E+02  0.78442350080E+02  0.00000000000E+00 0.  1.
         12    1    3    3    0    0  0.24507428452E+02 -0.56764133207E+02 -0.22745765905E+03  0.23571119517E+03  0.00000000000E+00 0. -1.
         11    1    5    5    0    0  0.44019533757E+02 -0.82024201410E+02  0.13200867464E+04  0.13233649183E+04  0.00000000000E+00 0. -1.
        -12    1    5    5    0    0  0.67333226537E+02 -0.24376560277E+02  0.18425023774E+04  0.18438934326E+04  0.00000000000E+00 0.  1.
          5    1    4    4  501    0 -0.18496553707E+03  0.15108830650E+03  0.10134812010E+03  0.25947801470E+03  0.41800000000E+01 0.  1.
         -5    1    4    4    0  501  0.79495462376E+01  0.17317004547E+01 -0.16591487300E+02  0.18945815440E+02  0.41800000000E+01 0.  1.
</event>
<event>
11    1  0.8037748E-009  0.1541469E+03  0.7561462E-02  0.1092715E+00
         22   -1    0    0    0    0  0.00000000000E+00  0.00000000000E+00  0.31970184266E+03  0.31970184266E+03  0.00000000000E+00 0.  1.
         22   -1    0    0    0    0 -0.00000000000E+00 -0.00000000000E+00 -0.15862054136E+04  0.15862054136E+04  0.00000000000E+00 0. -1.
         24    2    1    2    0    0 -0.84259049624E+02  0.30765010993E+02 -0.11960941715E+04  0.12022078735E+04  0.81341444691E+02 0.  0.
         25    2    1    2    0    0  0.77527045675E+02 -0.54514396683E+02 -0.36513697925E+03  0.39743554624E+03  0.12509091712E+03 0.  0.
        -24    2    1    2    0    0  0.67320039489E+01  0.23749385690E+02  0.29472757981E+03  0.30626383652E+03  0.79522563234E+02 0.  0.
        -11    1    3    3    0    0 -0.37537776869E+02 -0.24358832946E+02 -0.31606973890E+03  0.31922173686E+03  0.00000000000E+00 0.  1.
         12    1    3    3    0    0 -0.46721272755E+02  0.55123843939E+02 -0.88002443263E+03  0.88298613665E+03  0.00000000000E+00 0. -1.
         13    1    5    5    0    0 -0.31088384218E+01  0.49082713585E+02  0.12418013570E+03  0.13356453029E+03  0.00000000000E+00 0. -1.
        -14    1    5    5    0    0  0.98408423707E+01 -0.25333327895E+02  0.17054744411E+03  0.17269930623E+03  0.00000000000E+00 0.  1.
          5    1    4    4  501    0  0.38977037218E+02 -0.42526773693E+02 -0.34899747415E+03  0.35375760808E+03  0.41800000000E+01 0.  1.
         -5    1    4    4    0  501  0.38550008457E+02 -0.11987622990E+02 -0.16139505091E+02  0.43677938156E+02  0.41800000000E+01 0.  1.
</event>
<event>
11    1  0.8037748E-009  0.3879980E+03  0.7561462E-02  0.9685850E-01
         22   -1    0    0    0    0  0.00000000000E+00  0.00000000000E+00  0.55622879701E+03  0.55622879701E+03  0.00000000000E+00 0. -1.
         22   -1    0    0    0    0 -0.00000000000E+00 -0.00000000000E+00 -0.77451290906E+03  0.77451290906E+03  0.00000000000E+00 0. -1.
        -24    2    1    2    0    0  0.34483157488E+02  0.34980740280E+03 -0.35392530505E+03  0.50536554100E+03  0.81098096574E+02 0.  0.
         25    2    1    2    0    0 -0.59395929570E+02 -0.38936069447E+03 -0.21282189610E+03  0.46483449871E+03  0.12509326476E+03 0.  0.
         24    2    1    2    0    0  0.24912772081E+02  0.39553291671E+02  0.34846308911E+03  0.36054166636E+03  0.79866511249E+02 0.  0.
        -11    1    5    5    0    0 -0.15945400318E+02 -0.13251916362E+02  0.14319185779E+03  0.14468509673E+03  0.00000000000E+00 0.  1.
         12    1    5    5    0    0  0.40858172399E+02  0.52805208033E+02  0.20527123132E+03  0.21585656964E+03  0.00000000000E+00 0. -1.
         13    1    3    3    0    0  0.23552350391E+02  0.27536816527E+03 -0.22625236518E+03  0.35717288867E+03  0.00000000000E+00 0. -1.
        -14    1    3    3    0    0  0.10930807098E+02  0.74439237531E+02 -0.12767293987E+03  0.14819265233E+03  0.00000000000E+00 0.  1.
          5    1    4    4  501    0 -0.45282303601E+02 -0.37017526883E+03 -0.22718944109E+03  0.43670668785E+03  0.41800000000E+01 0. -1.
         -5    1    4    4    0  501 -0.14113625969E+02 -0.19185425637E+02  0.14367544986E+02  0.28127810860E+02  0.41800000000E+01 0. -1.
</event>
<event>
11    1  0.8037748E-009  0.2482322E+03  0.7561462E-02  0.1024845E+00
         22   -1    0    0    0    0  0.00000000000E+00  0.00000000000E+00  0.84258270056E+03  0.84258270056E+03  0.00000000000E+00 0. -1.
         22   -1    0    0    0    0 -0.00000000000E+00 -0.00000000000E+00 -0.47683789085E+03  0.47683789085E+03  0.00000000000E+00 0. -1.
        -24    2    1    2    0    0  0.38044820488E+02  0.30374856607E+02 -0.26428355663E+03  0.28061731323E+03  0.80809887366E+02 0.  0.
         25    2    1    2    0    0 -0.53252019743E+02  0.18583888967E+03 -0.11597574313E+03  0.25781679118E+03  0.12508898553E+03 0.  0.
         24    2    1    2    0    0  0.15207199255E+02 -0.21621374628E+03  0.74600410947E+03  0.78098648700E+03  0.80237887184E+02 0.  0.
        -11    1    5    5    0    0  0.27248881081E+02 -0.18396752010E+02  0.11261231731E+03  0.11731357984E+03  0.00000000000E+00 0.  1.
         12    1    5    5    0    0 -0.12041681826E+02 -0.19781699427E+03  0.63339179216E+03  0.66367290716E+03  0.00000000000E+00 0. -1.
         13    1    3    3    0    0  0.36336488794E+02 -0.21326483960E+02 -0.13281686876E+03  0.13933944152E+03  0.00000000000E+00 0. -1.
        -14    1    3    3    0    0  0.17083316947E+01  0.51701340567E+02 -0.13146668787E+03  0.14127787170E+03  0.00000000000E+00 0.  1.
          5    1    4    4  501    0 -0.61701817300E+02  0.86668203377E+02 -0.11700128941E+03  0.15819376049E+03  0.41800000000E+01 0.  1.
         -5    1    4    4    0  501  0.84497975569E+01  0.99170686295E+02  0.10255462812E+01  0.99623030691E+02  0.41800000000E+01 0.  1.
</event>
<event>
11    1  0.8037748E-009  0.1697416E+03  0.7561462E-02  0.1078257E+00
         22   -1    0    0    0    0  0.00000000000E+00  0.00000000000E+00  0.68981246222E+03  0.68981246222E+03  0.00000000000E+00 0.  1.
         22   -1    0    0    0    0 -0.00000000000E+00 -0.00000000000E+00 -0.19710737690E+03  0.19710737690E+03  0.00000000000E+00 0. -1.
         24    2    1    2    0    0  0.84084927123E+02  0.60434018355E+02 -0.12159477044E+03  0.17845334611E+03  0.79610068428E+02 0.  0.
         25    2    1    2    0    0 -0.16794247194E+03 -0.57466094143E+00  0.28128979675E+03  0.35068055959E+03  0.12509157048E+03 0.  0.
        -24    2    1    2    0    0  0.83857544815E+02 -0.59859357414E+02  0.33301005902E+03  0.35778593343E+03  0.80621611594E+02 0.  0.
        -13    1    3    3    0    0  0.13302033278E+02  0.38197245308E+02 -0.57038117511E+01  0.40847363525E+02  0.00000000000E+00 0.  1.
         14    1    3    3    0    0  0.70782893845E+02  0.22236773047E+02 -0.11589095869E+03  0.13760598259E+03  0.00000000000E+00 0. -1.
         11    1    5    5    0    0 -0.23097189889E+01 -0.82352884756E+01 -0.13540696579E+01  0.86595775141E+01  0.00000000000E+00 0. -1.
        -12    1    5    5    0    0  0.86167263804E+02 -0.51624068938E+02  0.33436412868E+03  0.34912635591E+03  0.00000000000E+00 0.  1.
          5    1    4    4  501    0 -0.25515116896E+02  0.49371679155E+01 -0.85388441969E+01  0.27672749727E+02  0.41800000000E+01 0. -1.
         -5    1    4    4    0  501 -0.14242735504E+03 -0.55118288569E+01  0.28982864094E+03  0.32300780986E+03  0.41800000000E+01 0. -1.
</event>
<event>
11    1  0.8037748E-009  0.1360855E+03  0.7561462E-02  0.1112010E+00
         22   -1    0    0    0    0  0.00000000000E+00  0.00000000000E+00  0.10811322726E+03  0.10811322726E+03  0.00000000000E+00 0.  1.
         22   -1    0    0    0    0 -0.00000000000E+00 -0.00000000000E+00 -0.45471057776E+03  0.45471057776E+03  0.00000000000E+00 0. -1.
        -24    2    1    2    0    0  0.26512539283E+02 -0.16874965846E+02 -0.27791963286E+03  0.29087097129E+03  0.79868143824E+02 0.  0.
         25    2    1    2    0    0 -0.32919498281E+02  0.65652102228E+02 -0.96306289359E+02  0.17411636913E+03  0.12509083394E+03 0.  0.
         24    2    1    2    0    0  0.64069589972E+01 -0.48777136382E+02  0.27628571724E+02  0.97836464599E+02  0.79927327444E+02 0.  0.
        -13    1    5    5    0    0  0.14608413862E+02 -0.44971211866E+02  0.52926095920E+02  0.70971735794E+02  0.00000000000E+00 0.  1.
         14    1    5    5    0    0 -0.82014548649E+01 -0.38059245163E+01 -0.25297524196E+02  0.26864728805E+02  0.00000000000E+00 0. -1.
         11    1    3    3    0    0  0.21903838971E+02  0.10510195792E+02 -0.25107225026E+03  0.25224495481E+03  0.00000000000E+00 0. -1.
        -12    1    3    3    0    0  0.46087003123E+01 -0.27385161638E+02 -0.26847382603E+02  0.38626016480E+02  0.00000000000E+00 0.  1.
          5    1    4    4  501    0  0.40588342814E+02  0.26405011950E+02 -0.26319071634E+01  0.48672759977E+02  0.41800000000E+01 0. -1.
         -5    1    4    4    0  501 -0.73507841094E+02  0.39247090278E+02 -0.93674382196E+02  0.12544360915E+03  0.41800000000E+01 0. -1.
</event>
<event>
11    1  0.8037748E-009  0.1256257E+03  0.7561462E-02  0.1124763E+00
         22   -1    0    0    0    0  0.00000000000E+00  0.00000000000E+00  0.42676107022E+03  0.42676107022E+03  0.00000000000E+00 0.  1.
         22   -1    0    0    0    0 -0.00000000000E+00 -0.00000000000E+00 -0.11865078777E+03  0.11865078777E+03  0.00000000000E+00 0.  1.
        -24    2    1    2    0    0 -0.13584786150E+02 -0.17354120628E+02 -0.40123872596E+02  0.11091684383E+03  0.10102924911E+03 0.  0.
         25    2    1    2    0    0 -0.32181900684E+02 -0.10264973922E+02  0.86993899790E+02  0.15606539678E+03  0.12508966804E+03 0.  0.
         24    2    1    2    0    0  0.45766686834E+02  0.27619094550E+02  0.26124025526E+03  0.27842961738E+03  0.80119765692E+02 0.  0.
        -11    1    5    5    0    0 -0.63536576739E+01  0.41667575965E+02  0.10603880615E+03  0.11410865113E+03  0.00000000000E+00 0.  1.
         12    1    5    5    0    0  0.52120344508E+02 -0.14048481415E+02  0.15520144911E+03  0.16432096624E+03  0.00000000000E+00 0. -1.
         13    1    3    3    0    0  0.72053879281E+01  0.36203738587E+02 -0.38650946646E+02  0.53446458999E+02  0.00000000000E+00 0. -1.
        -14    1    3    3    0    0 -0.20790174078E+02 -0.53557859215E+02 -0.14729259500E+01  0.57470384832E+02  0.00000000000E+00 0.  1.
          5    1    4    4  501    0 -0.73931187856E+02  0.18402889332E+02  0.66704323918E+02  0.10134804440E+03  0.41800000000E+01 0.  1.
         -5    1    4    4    0  501  0.41749287172E+02 -0.28667863254E+02  0.20289575872E+02  0.54717352385E+02  0.41800000000E+01 0.  1.
</event>
<event>
11    1  0.8037748E-009  0.1903212E+03  0.7561462E-02  0.1061587E+00
         22   -1    0    0    0    0  0.00000000000E+00  0.00000000000E+00  0.11989187025E+04  0.11989187025E+04  0.00000000000E+00 0. -1.
         22   -1    0    0    0    0 -0.00000000000E+00 -0.00000000000E+00 -0.78209634371E+03  0.78209634371E+03  0.00000000000E+00 0.  1.
         24    2    1    2    0    0 -0.12854863642E+03  0.47433846521E+02 -0.62326106218E+03  0.64321792571E+03  0.80623982810E+02 0.  0.
         25    2    1    2    0    0  0.20879710176E+03 -0.41592502923E+02 -0.41509436928E+02  0.25039260271E+03  0.12508899288E+03 0.  0.
        -24    2    1    2    0    0 -0.80248465336E+02 -0.58413435979E+01  0.10815928579E+04  0.10874045178E+04  0.78304134935E+02 0.  0.
        -13    1    3    3    0    0 -0.12501226398E+03  0.32139618914E+02 -0.60716811148E+03  0.62073676937E+03  0.00000000000E+00 0.  1.
         14    1    3    3    0    0 -0.35363724394E+01  0.15294227608E+02 -0.16092950697E+02  0.22481156338E+02  0.00000000000E+00 0. -1.
         13    1    5    5    0    0 -0.78566307645E+02 -0.25497750231E+02  0.63145204524E+03  0.63683159894E+03  0.00000000000E+00 0. -1.
        -14    1    5    5    0    0 -0.16821576912E+01  0.19656406633E+02  0.45014081266E+03  0.45057291885E+03  0.00000000000E+00 0.  1.
          5    1    4    4  501    0  0.21660331398E+03 -0.41230921705E+02 -0.13422092191E+02  0.22094028490E+03  0.41800000000E+01 0.  1.
         -5    1    4    4    0  501 -0.78062122258E+01 -0.36158121838E+00 -0.28087344738E+02  0.29452317815E+02  0.41800000000E+01 0.  1.
</event>
<event>
11    1  0.8037748E-009  0.1494640E+03  0.7561462E-02  0.1097428E+00
         22   -1    0    0    0    0  0.00000000000E+00  0.00000000000E+00  0.12961846567E+03  0.12961846567E+03  0.00000000000E+00 0. -1.
         22   -1    0    0    0    0 -0.00000000000E+00 -0.00000000000E+00 -0.56926231553E+03  0.56926231553E+03  0.00000000000E+00 0.  1.
         24    2    1    2    0    0  0.49831509372E+02  0.25462022439E+02 -0.39262040538E+03  0.40464237479E+03  0.80331655261E+02 0.  0.
         25    2    1    2    0    0 -0.11868510203E+03 -0.19599011996E+02 -0.66689195374E+02  0.18591819695E+03  0.12509137646E+03 0.  0.
        -24    2    1    2    0    0  0.68853592656E+02 -0.58630104426E+01  0.19665750905E+02  0.10832020946E+03  0.81063764439E+02 0.  0.
        -13    1    3    3    0    0  0.10720784003E+02 -0.13176688098E+02 -0.26673327726E+03  0.26727364538E+03  0.00000000000E+00 0.  1.
         14    1    3    3    0    0  0.39110725369E+02  0.38638710537E+02 -0.12588712813E+03  0.13736872941E+03  0.00000000000E+00 0. -1.
         13    1    5    5    0    0  0.42513627459E+02 -0.41016204933E+02  0.24851770885E+02  0.64088595732E+02  0.00000000000E+00 0. -1.
        -14    1    5    5    0    0  0.26339965197E+02  0.35153194490E+02 -0.51860199801E+01  0.44231613724E+02  0.00000000000E+00 0.  1.
          5    1    4    4  501    0 -0.57383958993E+02 -0.70581814573E+01 -0.99491688785E+02  0.11514688538E+03  0.41800000000E+01 0.  1.
         -5    1    4    4    0  501 -0.61301143034E+02 -0.12540830539E+02  0.32802493411E+02  0.70771311574E+02  0.41800000000E+01 0.  1.
</event>
<event>
11    1  0.8037748E-009  0.1517330E+03  0.7561462E-02  0.1095121E+00
         22   -1    0    0    0    0  0.00000000000E+00  0.00000000000E+00  0.52283345923E+03  0.52283345923E+03  0.00000000000E+00 0. -1.
         22   -1    0    0    0    0 -0.00000000000E+00 -0.00000000000E+00 -0.17681721452E+04  0.17681721452E+04  0.00000000000E+00 0.  1.
         24    2    1    2    0    0 -0.66886215411E+02  0.24024098105E+02 -0.15826123803E+04  0.15862653287E+04  0.80776381083E+02 0.  0.
         25    2    1    2    0    0  0.14844903533E+03 -0.51386479348E+01 -0.12390115286E+03  0.23035314964E+03  0.12509019177E+03 0.  0.
        -24    2    1    2    0    0 -0.81562819916E+02 -0.18885450171E+02  0.46117484714E+03  0.47438712611E+03  0.73155669376E+02 0.  0.
        -13    1    3    3    0    0 -0.79481914150E+02  0.41455528385E+01 -0.99341818817E+03  0.99660135303E+03  0.00000000000E+00 0.  1.
         14    1    3    3    0    0  0.12595698739E+02  0.19878545267E+02 -0.58919419211E+03  0.58966397567E+03  0.00000000000E+00 0. -1.
         13    1    5    5    0    0 -0.61213250444E+02 -0.42785480819E+02  0.25080743825E+03  0.26169071531E+03  0.00000000000E+00 0. -1.
        -14    1    5    5    0    0 -0.20349569473E+02  0.23900030648E+02  0.21036740889E+03  0.21269641080E+03  0.00000000000E+00 0.  1.
          5    1    4    4  501    0  0.16195718733E+03  0.35529531199E+01 -0.13455469221E+03  0.21063046219E+03  0.41800000000E+01 0. -1.
         -5    1    4    4    0  501 -0.13508152007E+02 -0.86916010547E+01  0.10653539352E+02  0.19722687450E+02  0.41800000000E+01 0. -1.
</event>
<event>
11    1  0.8037748E-009  0.1654296E+03  0.7561462E-02  0.1082079E+00
         22   -1    0    0    0    0  0.00000000000E+00  0.00000000000E+00  0.22506204912E+03  0.22506204912E+03  0.00000000000E+00 0.  1.
         22   -1    0    0    0    0 -0.00000000000E+00 -0.00000000000E+00 -0.17623442164E+04  0.17623442164E+04  0.00000000000E+00 0.  1.
        -24    2    1    2    0    0  0.85907995579E+02  0.72226049264E+02 -0.15364115297E+04  0.15424988499E+04  0.78393414935E+02 0.  0.
         25    2    1    2    0    0 -0.48411290715E+01 -0.97010293907E+02 -0.17415829787E+03  0.23539884960E+03  0.12508825692E+03 0.  0.
         24    2    1    2    0    0 -0.81066866507E+02  0.24784244643E+02  0.17328766031E+03  0.20950856599E+03  0.81725946805E+02 0.  0.
        -13    1    5    5    0    0  0.29047217254E+01  0.28363741941E+02  0.74704255689E+02  0.79960396968E+02  0.00000000000E+00 0.  1.
         14    1    5    5    0    0 -0.83971588233E+02 -0.35794972980E+01  0.98583404619E+02  0.12954816902E+03  0.00000000000E+00 0. -1.
         13    1    3    3    0    0  0.52443178340E+02  0.15807897076E+02 -0.34855438023E+03  0.35283187575E+03  0.00000000000E+00 0. -1.
        -14    1    3    3    0    0  0.33464817239E+02  0.56418152188E+02 -0.11878571495E+04  0.11896669742E+04  0.00000000000E+00 0.  1.
          5    1    4    4  501    0 -0.29513093211E+02  0.20813722353E+02 -0.27313367609E+02  0.45472257028E+02  0.41800000000E+01 0. -1.
         -5    1    4    4    0  501  0.24671964140E+02 -0.11782401626E+03 -0.14684493026E+03  0.18992659257E+03  0.41800000000E+01 0. -1.
</event>
<event>
11    1  0.8037748E-009  0.1944281E+03  0.7561462E-02  0.1058535E+00
         22   -1    0    0    0    0  0.00000000000E+00  0.00000000000E+00  0.15678501339E+03  0.15678501339E+03  0.00000000000E+00 0.  1.
         22   -1    0    0    0    0 -0.00000000000E+00 -0.00000000000E+00 -0.44834023154E+03  0.44834023154E+03  0.00000000000E+00 0. -1.
        -24    2    1    2    0    0  0.11286817713E+03  0.58332230796E+02 -0.39308653429E+02  0.15511720944E+03  0.79839237668E+02 0.  0.
         25    2    1    2    0    0 -0.95538815305E+02 -0.14033330472E+03 -0.25837691521E+03  0.33350603855E+03  0.12508615346E+03 0.  0.
         24    2    1    2    0    0 -0.17329361828E+02  0.82001073927E+02  0.61303504884E+01  0.11650199694E+03  0.80688606305E+02 0.  0.
        -13    1    5    5    0    0  0.31313415579E+02  0.43292367426E+02  0.94025552164E+01  0.54250964205E+02  0.00000000000E+00 0.  1.
         14    1    5    5    0    0 -0.48642777407E+02  0.38708706501E+02 -0.32722047280E+01  0.62251032736E+02  0.00000000000E+00 0. -1.
         11    1    3    3    0    0  0.26502542448E+02 -0.19299063608E+02 -0.88079484633E+00  0.32796560977E+02  0.00000000000E+00 0. -1.
        -12    1    3    3    0    0  0.86365634686E+02  0.77631294404E+02 -0.38427858583E+02  0.12232064846E+03  0.00000000000E+00 0.  1.
          5    1    4    4  501    0 -0.32348162560E+02 -0.51873288150E+02 -0.20176777598E+03  0.21086713701E+03  0.41800000000E+01 0.  1.
         -5    1    4    4    0  501 -0.63190652745E+02 -0.88460016574E+02 -0.56609139229E+02  0.12263890154E+03  0.41800000000E+01 0.  1.
</event>
<event>
11    1  0.8037748E-009  0.2720742E+03  0.7561462E-02  0.1012756E+00
         22   -1    0    0    0    0  0.00000000000E+00  0.00000000000E+00  0.16501007728E+03  0.16501007728E+03  0.00000000000E+00 0.  1.
         22   -1    0    0    0    0 -0.00000000000E+00 -0.00000000000E+00 -0.13169553684E+04  0.13169553684E+04  0.00000000000E+00 0.  1.
         24    2    1    2    0    0 -0.14173124932E+02 -0.64593229287E+02 -0.87445500692E+03  0.88067918727E+03  0.80938921548E+02 0.  0.
         25    2    1    2    0    0  0.21612485373E+03 -0.85216479057E+02 -0.19263708036E+03  0.32668153718E+03  0.12505991084E+03 0.  0.
        -24    2    1    2    0    0 -0.20195172880E+03  0.14980970834E+03 -0.84853203854E+02  0.27460472124E+03  0.70570795998E+02 0.  0.
        -13    1    3    3    0    0 -0.81893414996E+01 -0.82547701797E+02 -0.77604643071E+03  0.78046732859E+03  0.00000000000E+00 0.  1.
         14    1    3    3    0    0 -0.59837834322E+01  0.17954472510E+02 -0.98408576210E+02  0.10021185867E+03  0.00000000000E+00 0. -1.
         13    1    5    5    0    0 -0.42450132296E+02  0.71218525120E+02 -0.19586492696E+02  0.85192269299E+02  0.00000000000E+00 0. -1.
        -14    1    5    5    0    0 -0.15950159650E+03  0.78591183224E+02 -0.65266711158E+02  0.18941245195E+03  0.00000000000E+00 0.  1.
          5    1    4    4  501    0  0.44118413450E+02  0.16226685299E+02 -0.91146645524E+02  0.10263977354E+03  0.41800000000E+01 0. -1.
         -5    1    4    4    0  501  0.17200644028E+03 -0.10144316436E+03 -0.10149043484E+03  0.22404176364E+03  0.41800000000E+01 0. -1.
</event>
<event>
11    1  0.8037748E-009  0.1925391E+03  0.7561462E-02  0.1059929E+00
         22   -1    0    0    0    0  0.00000000000E+00  0.00000000000E+00  0.39228568980E+03  0.39228568980E+03  0.00000000000E+00 0.  1.
         22   -1    0    0    0    0 -0.00000000000E+00 -0.00000000000E+00 -0.79836236835E+03  0.79836236835E+03  0.00000000000E+00 0. -1.
        -24    2    1    2    0    0 -0.11421225953E+03  0.79138985281E+02 -0.38736282907E+03  0.41920085596E+03  0.79824664573E+02 0.  0.
         25    2    1    2    0    0  0.15301806106E+03 -0.54206405629E+02 -0.36187250941E+03  0.41587466890E+03  0.12508863157E+03 0.  0.
         24    2    1    2    0    0 -0.38805801524E+02 -0.24932579652E+02  0.34315865993E+03  0.35557253329E+03  0.80910053700E+02 0.  0.
        -11    1    5    5    0    0 -0.41111144517E+02 -0.51735378120E+02  0.23444438840E+03  0.24357924132E+03  0.00000000000E+00 0.  1.
         12    1    5    5    0    0  0.23053429923E+01  0.26802798468E+02  0.10871427153E+03  0.11199329197E+03  0.00000000000E+00 0. -1.
         13    1    3    3    0    0 -0.98409759748E+02  0.70406271859E+02 -0.22182499035E+03  0.25268132158E+03  0.00000000000E+00 0. -1.
        -14    1    3    3    0    0 -0.15802499785E+02  0.87327134222E+01 -0.16553783871E+03  0.16651953438E+03  0.00000000000E+00 0.  1.
          5    1    4    4  501    0  0.24808309558E+02 -0.62186453607E+02 -0.69984323010E+02  0.96942689784E+02  0.41800000000E+01 0. -1.
         -5    1    4    4    0  501  0.12820975150E+03  0.79800479780E+01 -0.29188818640E+03  0.31893197912E+03  0.41800000000E+01 0. -1.
</event>
<event>
11    1  0.8037748E-009  0.2034129E+03  0.7561462E-02  0.1052136E+00
         22   -1    0    0    0    0  0.00000000000E+00  0.00000000000E+00  0.14986895612E+04  0.14986895612E+04  0.00000000000E+00 0.  1.
         22   -1    0    0    0    0 -0.00000000000E+00 -0.00000000000E+00 -0.11316171402E+04  0.11316171402E+04  0.00000000000E+00 0. -1.
         24    2    1    2    0    0 -0.70900230931E+02  0.58291058322E+02 -0.96971948747E+03  0.97747485299E+03  0.81709935823E+02 0.  0.
         25    2    1    2    0    0 -0.31966771492E+02 -0.18135312035E+03 -0.71114563435E+02  0.23370260503E+03  0.12509515468E+03 0.  0.
        -24    2    1    2    0    0  0.10286700242E+03  0.12306206203E+03  0.14079064719E+04  0.14191292433E+04  0.77467957388E+02 0.  0.
        -11    1    3    3    0    0  0.12812045955E+02  0.23283273820E+02 -0.36730062477E+03  0.36826078846E+03  0.00000000000E+00 0.  1.
         12    1    3    3    0    0 -0.83712276886E+02  0.35007784502E+02 -0.60241886270E+03  0.60921406453E+03  0.00000000000E+00 0. -1.
         11    1    5    5    0    0  0.31597646378E+02  0.96990202047E+02  0.84234236023E+03  0.84849641271E+03  0.00000000000E+00 0. -1.
        -12    1    5    5    0    0  0.71269356045E+02  0.26071859982E+02  0.56556411167E+03  0.57063283064E+03  0.00000000000E+00 0.  1.
          5    1    4    4  501    0  0.24187680279E+02 -0.13504957194E+03 -0.82153130236E+02  0.15996887187E+03  0.41800000000E+01 0.  1.
         -5    1    4    4    0  501 -0.56154451772E+02 -0.46303548407E+02  0.11038566801E+02  0.73733733161E+02  0.41800000000E+01 0.  1.
</event>
<event>
11    1  0.8037748E-009  0.1492315E+03  0.7561462E-02  0.1097667E+00
         22   -1    0    0    0    0  0.00000000000E+00  0.00000000000E+00  0.14938079778E+04  0.14938079778E+04  0.00000000000E+00 0.  1.
         22   -1    0    0    0    0 -0.00000000000E+00 -0.00000000000E+00 -0.19929697259E+03  0.19929697259E+03  0.00000000000E+00 0.  1.
        -24    2    1    2    0    0 -0.37597365680E+01 -0.23220795941E+02 -0.16835654483E+03  0.18885314460E+03  0.82269332421E+02 0.  0.
         25    2    1    2    0    0  0.52548094369E+02 -0.44698209207E+02  0.26791347351E+03  0.30362075109E+03  0.12509476039E+03 0.  0.
         24    2    1    2    0    0 -0.48788357801E+02  0.67919005148E+02  0.11949540765E+04  0.12006310546E+04  0.81279698405E+02 0.  0.
        -11    1    5    5    0    0 -0.15168744679E+02  0.74295283637E+02  0.98423126896E+03  0.98714794777E+03  0.00000000000E+00 0.  1.
         12    1    5    5    0    0 -0.33619613122E+02 -0.63762784884E+01  0.21072280752E+03  0.21348310688E+03  0.00000000000E+00 0. -1.
         11    1    3    3    0    0  0.14676490637E+02 -0.48600852305E+02 -0.12826984031E+03  0.13795141955E+03  0.00000000000E+00 0. -1.
        -12    1    3    3    0    0 -0.18436227205E+02  0.25380056363E+02 -0.40086704519E+02  0.50901725057E+02  0.00000000000E+00 0.  1.
          5    1    4    4  501    0  0.31123427049E+02  0.37818778854E+02  0.15145077090E+03  0.15922856575E+03  0.41800000000E+01 0. -1.
         -5    1    4    4    0  501  0.21424667320E+02 -0.82516988061E+02  0.11646270261E+03  0.14439218534E+03  0.41800000000E+01 0. -1.
</event>
<event>
11    1  0.8037748E-009  0.1295420E+03  0.7561462E-02  0.1119833E+00
         22   -1    0    0    0    0  0.00000000000E+00  0.00000000000E+00  0.64627699405E+02  0.64627699405E+02  0.00000000000E+00 0. -1.
         22   -1    0    0    0    0 -0.00000000000E+00 -0.00000000000E+00 -0.87231585874E+03  0.87231585874E+03  0.00000000000E+00 0.  1.
         24    2    1    2    0    0  0.10643324139E+02 -0.27539550507E+02 -0.54120032428E+03  0.54790642714E+03  0.80199468264E+02 0.  0.
         25    2    1    2    0    0 -0.10447460808E+01 -0.85201687068E+01 -0.27355312113E+03  0.30091726988E+03  0.12508480509E+03 0.  0.
        -24    2    1    2    0    0 -0.95985780579E+01  0.36059719214E+02  0.70652860716E+01  0.88119861126E+02  0.79515756974E+02 0.  0.
        -13    1    3    3    0    0  0.16421522992E+02 -0.32405018571E+02 -0.53873790961E+03  0.53996137538E+03  0.00000000000E+00 0.  1.
         14    1    3    3    0    0 -0.57781988537E+01  0.48654680642E+01 -0.24624146639E+01  0.79450517590E+01  0.00000000000E+00 0. -1.
         11    1    5    5    0    0 -0.17387402683E+02  0.55375441431E+02  0.22445007469E+02  0.62229732813E+02  0.00000000000E+00 0. -1.
        -12    1    5    5    0    0  0.77888246254E+01 -0.19315722217E+02 -0.15379721397E+02  0.25890128313E+02  0.00000000000E+00 0.  1.
          5    1    4    4  501    0  0.24086629865E+02 -0.46267714492E+02 -0.48652278247E+02  0.71451967931E+02  0.41800000000E+01 0.  1.
         -5    1    4    4    0  501 -0.25131375946E+02  0.37747545786E+02 -0.22490084288E+03  0.22946530195E+03  0.41800000000E+01 0.  1.
</event>
<event>
11    1  0.8037748E-009  0.1270174E+03  0.7561462E-02  0.1122989E+00
         22   -1    0    0    0    0  0.00000000000E+00  0.00000000000E+00  0.32409703926E+03  0.32409703926E+03  0.00000000000E+00 0. -1.
         22   -1    0    0    0    0 -0.00000000000E+00 -0.00000000000E+00 -0.11547304106E+04  0.11547304106E+04  0.00000000000E+00 0.  1.
         24    2    1    2    0    0 -0.19345879425E+02  0.84186846651E+01 -0.10903650199E+04  0.10935949678E+04  0.81295385216E+02 0.  0.
         25    2    1    2    0    0  0.40128672513E+01  0.10271999058E+02  0.15234654001E+02  0.12649109403E+03  0.12508511150E+03 0.  0.
        -24    2    1    2    0    0  0.15333012174E+02 -0.18690683723E+02  0.24449699457E+03  0.25874138803E+03  0.81141127694E+02 0.  0.
        -13    1    3    3    0    0 -0.36515051075E+02  0.35947522866E+02 -0.71206250681E+03  0.71390376589E+03  0.00000000000E+00 0.  1.
         14    1    3    3    0    0  0.17169171650E+02 -0.27528838201E+02 -0.37830251309E+03  0.37969120190E+03  0.00000000000E+00 0. -1.
         11    1    5    5    0    0  0.18640002384E+02  0.96117093459E+01  0.22047965465E+03  0.22147485808E+03  0.00000000000E+00 0. -1.
        -12    1    5    5    0    0 -0.33069902105E+01 -0.28302393069E+02  0.24017339922E+02  0.37266529951E+02  0.00000000000E+00 0.  1.
          5    1    4    4  501    0  0.48463704287E+02  0.44857489384E+02  0.21722762955E+02  0.69643921612E+02  0.41800000000E+01 0.  1.
         -5    1    4    4    0  501 -0.44450837036E+02 -0.34585490326E+02 -0.64881089539E+01  0.56847172419E+02  0.41800000000E+01 0.  1.
</event>
<event>
11    1  0.8037748E-009  0.1485682E+03  0.7561462E-02  0.1098351E+00
         22   -1    0    0    0    0  0.00000000000E+00  0.00000000000E+00  0.99769239510E+03  0.99769239510E+03  0.00000000000E+00 0. -1.
         22   -1    0    0    0    0 -0.00000000000E+00 -0.00000000000E+00 -0.91554619311E+03  0.91554619311E+03  0.00000000000E+00 0.  1.
         24    2    1    2    0    0  0.63031640752E+02 -0.51876595909E+02 -0.87327290461E+03  0.88086364374E+03  0.81553810498E+02 0.  0.
         25    2    1    2    0    0 -0.24171392713E+02  0.25908411895E+02  0.78637581889E+02  0.15194565925E+03  0.12509241402E+03 0.  0.
        -24    2    1    2    0    0 -0.38860248040E+02  0.25968184015E+02  0.87678152471E+03  0.88042928523E+03  0.65003221083E+02 0.  0.
        -13    1    3    3    0    0  0.54479607547E+02 -0.48504932235E+02 -0.35049345463E+03  0.35800337684E+03  0.00000000000E+00 0.  1.
         14    1    3    3    0    0  0.85520332050E+01 -0.33716636747E+01 -0.52277944997E+03  0.52286026690E+03  0.00000000000E+00 0. -1.
         11    1    5    5    0    0 -0.45846665416E+02  0.41406473307E+02  0.74619555570E+03  0.74874843579E+03  0.00000000000E+00 0. -1.
        -12    1    5    5    0    0  0.69864173765E+01 -0.15438289292E+02  0.13058596902E+03  0.13168084943E+03  0.00000000000E+00 0.  1.
          5    1    4    4  501    0 -0.48181513028E+02  0.26907366867E+02 -0.13223275587E+02  0.56901599333E+02  0.41800000000E+01 0.  1.
         -5    1    4    4    0  501  0.24010120316E+02 -0.99895497208E+00  0.91860857477E+02  0.95044059914E+02  0.41800000000E+01 0.  1.
</event>
<event>
11    1  0.8037748E-009  0.2169648E+03  0.7561462E-02  0.1043136E+00
         22   -1    0    0    0    0  0.00000000000E+00  0.00000000000E+00  0.17702564693E+04  0.17702564693E+04  0.00000000000E+00 0. -1.
         22   -1    0    0    0    0 -0.00000000000E+00 -0.00000000000E+00 -0.90214044434E+03  0.90214044434E+03  0.00000000000E+00 0. -1.
         24    2    1    2    0    0  0.16577676091E+03 -0.62572684510E+02 -0.80743974160E+03  0.83050086796E+03  0.79846603321E+02 0.  0.
         25    2    1    2    0    0 -0.17414928077E+03  0.43850278425E+02  0.63819861165E+02  0.22796110643E+03  0.12506987029E+03 0.  0.
        -24    2    1    2    0    0  0.83725198586E+01  0.18722406085E+02  0.16117359054E+04  0.16139349393E+04  0.81686791076E+02 0.  0.
        -11    1    3    3    0    0  0.19855331739E+02  0.69034485395E+01 -0.22729824055E+03  0.22826822372E+03  0.00000000000E+00 0.  1.
         12    1    3    3    0    0  0.14592142917E+03 -0.69476133049E+02 -0.58014150105E+03  0.60223264424E+03  0.00000000000E+00 0. -1.
         11    1    5    5    0    0 -0.15315497076E+02  0.34913029809E+02  0.13656374326E+04  0.13661694922E+04  0.00000000000E+00 0. -1.
        -12    1    5    5    0    0  0.23688016935E+02 -0.16190623725E+02  0.24609847276E+03  0.24776544703E+03  0.00000000000E+00 0.  1.
          5    1    4    4  501    0 -0.16105094540E+03  0.68985213564E+02  0.21093529928E+02  0.17651848660E+03  0.41800000000E+01 0.  1.
         -5    1    4    4    0  501 -0.13098335365E+02 -0.25134935139E+02  0.42726331237E+02  0.51442619828E+02  0.41800000000E+01 0.  1.
</event>
<event>
11    1  0.8037748E-009  0.1711938E+03  0.7561462E-02  0.1076997E+00
         22   -1    0    0    0    0  0.00000000000E+00  0.00000000000E+00  0.15542735901E+04  0.15542735901E+04  0.00000000000E+00 0.  1.
         22   -1    0    0    0    0 -0.00000000000E+00 -0.00000000000E+00 -0.25021568825E+03  0.25021568825E+03  0.00000000000E+00 0.  1.
        -24    2    1    2    0    0 -0.74797418274E+02  0.89216597561E+02 -0.21796797508E+03  0.25950638215E+03  0.79241839674E+02 0.  0.
         25    2    1    2    0    0  0.81873354004E+02 -0.11112130433E+03  0.94624831001E+03  0.96440873123E+03  0.12508855382E+03 0.  0.
         24    2    1    2    0    0 -0.70759357302E+01  0.21904706769E+02  0.57577756695E+03  0.58057416501E+03  0.70828450637E+02 0.  0.
        -11    1    5    5    0    0 -0.35977903336E+02 -0.11645103133E+01  0.34209966247E+03  0.34398829148E+03  0.00000000000E+00 0.  1.
         12    1    5    5    0    0  0.28901967606E+02  0.23069217083E+02  0.23367790448E+03  0.23658587353E+03  0.00000000000E+00 0. -1.
         11    1    3    3    0    0 -0.39500230409E+02  0.21058370789E+02 -0.23754207722E+02  0.50675295433E+02  0.00000000000E+00 0. -1.
        -12    1    3    3    0    0 -0.35297187865E+02  0.68158226772E+02 -0.19421376736E+03  0.20883108672E+03  0.00000000000E+00 0.  1.
          5    1    4    4  501    0  0.99815740397E+01  0.26052518018E+02  0.92104280358E+02  0.96327754960E+02  0.41800000000E+01 0.  1.
         -5    1    4    4    0  501  0.71891779964E+02 -0.13717382235E+03  0.85414402965E+03  0.86808097627E+03  0.41800000000E+01 0.  1.
</event>
<event>
11    1  0.8037748E-009  0.1357954E+03  0.7561462E-02  0.1112346E+00
         22   -1    0    0    0    0  0.00000000000E+00  0.00000000000E+00  0.22856570462E+03  0.22856570462E+03  0.00000000000E+00 0. -1.
         22   -1    0    0    0    0 -0.00000000000E+00 -0.00000000000E+00 -0.21969892198E+04  0.21969892198E+04  0.00000000000E+00 0. -1.
         24    2    1    2    0    0  0.33364521442E+02  0.42686709933E+02 -0.19683268845E+04  0.19706134176E+04  0.77917719626E+02 0.  0.
         25    2    1    2    0    0 -0.29544425630E+02 -0.15367475819E+02 -0.19946551405E+03  0.23778948777E+03  0.12509323244E+03 0.  0.
        -24    2    1    2    0    0 -0.38200958125E+01 -0.27319234114E+02  0.19936888334E+03  0.21715201903E+03  0.81523702312E+02 0.  0.
        -11    1    3    3    0    0  0.26638016665E+02  0.12445883347E+02 -0.21371230402E+03  0.21572536437E+03  0.00000000000E+00 0.  1.
         12    1    3    3    0    0  0.67265047770E+01  0.30240826586E+02 -0.17546145805E+04  0.17548880533E+04  0.00000000000E+00 0. -1.
         13    1    5    5    0    0  0.32431920827E+02 -0.32172927230E+02  0.78015405980E+02  0.90406472696E+02  0.00000000000E+00 0. -1.
        -14    1    5    5    0    0 -0.36252016640E+02  0.48536931160E+01  0.12135347736E+03  0.12674554633E+03  0.00000000000E+00 0.  1.
          5    1    4    4  501    0  0.20748207339E+01  0.43826492111E+02 -0.24673738863E+02  0.50510712540E+02  0.41800000000E+01 0.  1.
         -5    1    4    4    0  501 -0.31619246364E+02 -0.59193967930E+02 -0.17479177519E+03  0.18727877523E+03  0.41800000000E+01 0.  1.
</event>
<event>
11    1  0.8037748E-009  0.2080501E+03  0.7561462E-02  0.1048973E+00
         22   -1    0    0    0    0  0.00000000000E+00  0.00000000000E+00  0.61299820803E+03  0.61299820803E+03  0.00000000000E+00 0.  1.
         22   -1    0    0    0    0 -0.00000000000E+00 -0.00000000000E+00 -0.51543640643E+03  0.51543640643E+03  0.00000000000E+00 0.  1.
        -24    2    1    2    0    0  0.13137532913E+03 -0.87736344212E+02 -0.27532827876E+03  0.32699454067E+03  0.78502390706E+02 0.  0.
         25    2    1    2    0    0 -0.19549917497E+03  0.35123190399E+02 -0.14196886800E+03  0.27432782209E+03  0.12508808326E+03 0.  0.
         24    2    1    2    0    0  0.64123845831E+02  0.52613153813E+02  0.51485894835E+03  0.52711225170E+03  0.76730552177E+02 0.  0.
        -11    1    5    5    0    0  0.63756191430E+02  0.34297104068E+02  0.49430764806E+03  0.49958101868E+03  0.00000000000E+00 0.  1.
         12    1    5    5    0    0  0.36765440097E+00  0.18316049745E+02  0.20551300288E+02  0.27531233019E+02  0.00000000000E+00 0. -1.
         13    1    3    3    0    0  0.30079035349E+02  0.49457858950E+01 -0.98575463440E+02  0.10318106007E+03  0.00000000000E+00 0. -1.
        -14    1    3    3    0    0  0.10129629379E+03 -0.92682130107E+02 -0.17675281532E+03  0.22381348060E+03  0.00000000000E+00 0.  1.
          5    1    4    4  501    0 -0.51940549210E+02 -0.39437096296E+02 -0.74242008400E+02  0.98906286088E+02  0.41800000000E+01 0.  1.
         -5    1    4    4    0  501 -0.14355862576E+03  0.74560286695E+02 -0.67726859596E+02  0.17542153600E+03  0.41800000000E+01 0.  1.
</event>
<event>
11    1  0.8037748E-009  0.1550149E+03  0.7561462E-02  0.1091862E+00
         22   -1    0    0    0    0  0.00000000000E+00  0.00000000000E+00  0.83244509812E+03  0.83244509812E+03  0.00000000000E+00 0. -1.
         22   -1    0    0    0    0 -0.00000000000E+00 -0.00000000000E+00 -0.68078550046E+03  0.68078550046E+03  0.00000000000E+00 0. -1.
         24    2    1    2    0    0 -0.32953128686E+02  0.57406558738E+02 -0.61013616068E+03  0.61880515732E+03  0.79197641844E+02 0.  0.
         25    2    1    2    0    0 -0.12454204928E+02  0.27993397350E+02  0.67012881542E+01  0.12896434821E+03  0.12509259902E+03 0.  0.
        -24    2    1    2    0    0  0.45407333614E+02 -0.85399956088E+02  0.75509447019E+03  0.76546109306E+03  0.80050281868E+02 0.  0.
        -11    1    3    3    0    0 -0.14770512307E+02 -0.19270720907E+02 -0.13080046165E+03  0.13303491830E+03  0.00000000000E+00 0.  1.
         12    1    3    3    0    0 -0.18182616379E+02  0.76677279645E+02 -0.47933569903E+03  0.48577023902E+03  0.00000000000E+00 0. -1.
         11    1    5    5    0    0 -0.70313690414E+01 -0.38469798731E+02  0.47701614369E+03  0.47861651341E+03  0.00000000000E+00 0. -1.
        -12    1    5    5    0    0  0.52438702655E+02 -0.46930157357E+02  0.27807832650E+03  0.28684457965E+03  0.00000000000E+00 0.  1.
          5    1    4    4  501    0 -0.54061897544E+02 -0.26172619249E+02  0.21626600301E-01  0.60209364987E+02  0.41800000000E+01 0.  1.
         -5    1    4    4    0  501  0.41607692616E+02  0.54166016599E+02  0.66796615538E+01  0.68754983220E+02  0.41800000000E+01 0.  1.
</event>
<event>
11    1  0.8037748E-009  0.1482366E+03  0.7561462E-02  0.1098694E+00
         22   -1    0    0    0    0  0.00000000000E+00  0.00000000000E+00  0.11422644563E+04  0.11422644563E+04  0.00000000000E+00 0. -1.
         22   -1    0    0    0    0 -0.00000000000E+00 -0.00000000000E+00 -0.40627163038E+03  0.40627163038E+03  0.00000000000E+00 0.  1.
        -24    2    1    2    0    0 -0.71104946459E+02  0.37258443269E+02 -0.37101553605E+03  0.38794618896E+03  0.80035070635E+02 0.  0.
         25    2    1    2    0    0  0.29087679526E+02 -0.71971660369E+02  0.20045970183E+03  0.24871522075E+03  0.12509658660E+03 0.  0.
         24    2    1    2    0    0  0.42017266933E+02  0.34713217101E+02  0.90654866015E+03  0.91187467698E+03  0.81942022959E+02 0.  0.
        -13    1    5    5    0    0  0.51799227812E+02  0.40953658477E+01  0.29937414710E+03  0.30384998268E+03  0.00000000000E+00 0.  1.
         14    1    5    5    0    0 -0.97819608789E+01  0.30617851253E+02  0.60717451305E+03  0.60802469430E+03  0.00000000000E+00 0. -1.
         11    1    3    3    0    0 -0.46512014939E+02  0.17712420534E+02 -0.73433591660E+02  0.88710708254E+02  0.00000000000E+00 0. -1.
        -12    1    3    3    0    0 -0.24592931520E+02  0.19546022735E+02 -0.29758194439E+03  0.29923548071E+03  0.00000000000E+00 0.  1.
          5    1    4    4  501    0 -0.41837104024E+02 -0.29547793624E+02  0.13085371427E+03  0.14058300864E+03  0.41800000000E+01 0. -1.
         -5    1    4    4    0  501  0.70924783550E+02 -0.42423866745E+02  0.69605987565E+02  0.10813221211E+03  0.41800000000E+01 0. -1.
</event>
<event>
11    1  0.8037748E-009  0.2898980E+03  0.7561462E-02  0.1004560E+00
         22   -1    0    0    0    0  0.00000000000E+00  0.00000000000E+00  0.23277133930E+03  0.23277133930E+03  0.00000000000E+00 0.  1.
         22   -1    0    0    0    0 -0.00000000000E+00 -0.00000000000E+00 -0.10674746228E+04  0.10674746228E+04  0.00000000000E+00 0.  1.
         24    2    1    2    0    0  0.25190978284E+03 -0.78637953864E+02 -0.76030886486E+03  0.80878631993E+03  0.80145335764E+02 0.  0.
         25    2    1    2    0    0 -0.25004548251E+03  0.50858649906E+02 -0.19417106416E+03  0.34418071342E+03  0.12509442729E+03 0.  0.
        -24    2    1    2    0    0 -0.18643003386E+01  0.27779303958E+02  0.11977664551E+03  0.14727892876E+03  0.81052283770E+02 0.  0.
        -13    1    3    3    0    0  0.23414568639E+03 -0.46407334827E+02 -0.67094797707E+03  0.71214396797E+03  0.00000000000E+00 0.  1.
         14    1    3    3    0    0  0.17764096453E+02 -0.32230619037E+02 -0.89360887787E+02  0.96642351960E+02  0.00000000000E+00 0. -1.
         11    1    5    5    0    0 -0.23172577831E+02  0.34124336366E+02  0.21493483040E+02  0.46512455417E+02  0.00000000000E+00 0. -1.
        -12    1    5    5    0    0  0.21308277492E+02 -0.63450324073E+01  0.98283162468E+02  0.10076647335E+03  0.00000000000E+00 0.  1.
          5    1    4    4  501    0 -0.23916934109E+03  0.73440660831E+02 -0.14596518120E+03  0.28968743657E+03  0.41800000000E+01 0. -1.
         -5    1    4    4    0  501 -0.10876141411E+02 -0.22582010926E+02 -0.48205882961E+02  0.54493276847E+02  0.41800000000E+01 0. -1.
</event>
<event>
11    1  0.8037748E-009  0.1358953E+03  0.7561462E-02  0.1112231E+00
         22   -1    0    0    0    0  0.00000000000E+00  0.00000000000E+00  0.29318475869E+03  0.29318475869E+03  0.00000000000E+00 0.  1.
         22   -1    0    0    0    0 -0.00000000000E+00 -0.00000000000E+00 -0.36608809788E+03  0.36608809788E+03  0.00000000000E+00 0.  1.
         24    2    1    2    0    0 -0.31939222733E+02  0.37847815154E+02 -0.26870352931E+03  0.28490135757E+03  0.80713231993E+02 0.  0.
         25    2    1    2    0    0  0.74305481801E+02 -0.48958481321E+02 -0.50546098484E+01  0.15359497452E+03  0.12509048564E+03 0.  0.
        -24    2    1    2    0    0 -0.42366259068E+02  0.11110666167E+02  0.20085479997E+03  0.22077652448E+03  0.80506374166E+02 0.  0.
        -13    1    3    3    0    0 -0.16960870851E+02  0.26143310270E+02 -0.26330193518E+03  0.26513968560E+03  0.00000000000E+00 0.  1.
         14    1    3    3    0    0 -0.14978351882E+02  0.11704504884E+02 -0.54015941311E+01  0.19761671965E+02  0.00000000000E+00 0. -1.
         11    1    5    5    0    0 -0.42944209756E+01  0.23987140346E+02  0.11038539143E+02  0.26752089636E+02  0.00000000000E+00 0. -1.
        -12    1    5    5    0    0 -0.38071838092E+02 -0.12876474179E+02  0.18981626083E+03  0.19402443485E+03  0.00000000000E+00 0.  1.
          5    1    4    4  501    0  0.89397947425E+02 -0.39448649393E+01 -0.36243853151E+02  0.96636661027E+02  0.41800000000E+01 0.  1.
         -5    1    4    4    0  501 -0.15092465624E+02 -0.45013616382E+02  0.31189243302E+02  0.56958313495E+02  0.41800000000E+01 0.  1.
</event>
<event>
11    1  0.8037748E-009  0.2051866E+03  0.7561462E-02  0.1050915E+00
         22   -1    0    0    0    0  0.00000000000E+00  0.00000000000E+00  0.48418969663E+03  0.48418969663E+03  0.00000000000E+00 0.  1.
         22   -1    0    0    0    0 -0.00000000000E+00 -0.00000000000E+00 -0.15119491624E+03  0.15119491624E+03  0.00000000000E+00 0.  1.
         24    2    1    2    0    0 -0.10028475897E+03  0.29118040963E+02  0.38231414015E+02  0.13627605206E+03  0.78769462078E+02 0.  0.
         25    2    1    2    0    0  0.64282866072E+02 -0.17936695210E+03  0.16063765708E+03  0.27885132446E+03  0.12509521935E+03 0.  0.
        -24    2    1    2    0    0  0.36001892901E+02  0.15024891114E+03  0.13412570929E+03  0.22025723635E+03  0.81563917759E+02 0.  0.
        -13    1    3    3    0    0 -0.90790593576E+02  0.36008933572E+02  0.57776954064E+02  0.11348018153E+03  0.00000000000E+00 0.  1.
         14    1    3    3    0    0 -0.94941653960E+01 -0.68908926088E+01 -0.19545540049E+02  0.22795870532E+02  0.00000000000E+00 0. -1.
         13    1    5    5    0    0 -0.23766332112E+02  0.26293950083E+02  0.15950109802E+02  0.38866648373E+02  0.00000000000E+00 0. -1.
        -14    1    5    5    0    0  0.59768225013E+02  0.12395496106E+03  0.11817559949E+03  0.18139058798E+03  0.00000000000E+00 0.  1.
          5    1    4    4  501    0  0.46048988442E+02 -0.17795549856E+03  0.88015491494E+02  0.20384520585E+03  0.41800000000E+01 0. -1.
         -5    1    4    4    0  501  0.18233877630E+02 -0.14114535402E+01  0.72622165588E+02  0.75006118611E+02  0.41800000000E+01 0. -1.
</event>
<event>
11    1  0.8037748E-009  0.1634875E+03  0.7561462E-02  0.1083842E+00
         22   -1    0    0    0    0  0.00000000000E+00  0.00000000000E+00  0.17694045861E+04  0.17694045861E+04  0.00000000000E+00 0. -1.
         22   -1    0    0    0    0 -0.00000000000E+00 -0.00000000000E+00 -0.20130363497E+03  0.20130363497E+03  0.00000000000E+00 0.  1.
         24    2    1    2    0    0  0.10106643113E+03  0.14542566600E+02 -0.60196976186E+02  0.14437584583E+03  0.82430571840E+02 0.  0.
         25    2    1    2    0    0 -0.98659545612E+02 -0.64022742287E+02 -0.22208302494E+02  0.17312522873E+03  0.12508604500E+03 0.  0.
        -24    2    1    2    0    0 -0.24068855128E+01  0.49480175687E+02  0.16505062298E+04  0.16532071465E+04  0.80429930482E+02 0.  0.
        -11    1    3    3    0    0  0.26058647205E+02 -0.76697192589E+01 -0.60313387861E+02  0.66148185485E+02  0.00000000000E+00 0.  1.
         12    1    3    3    0    0  0.75007783920E+02  0.22212285859E+02  0.11641167450E+00  0.78227660347E+02  0.00000000000E+00 0. -1.
         11    1    5    5    0    0 -0.38497739344E+02  0.37976323616E+02  0.77668612219E+03  0.77856638092E+03  0.00000000000E+00 0. -1.
        -12    1    5    5    0    0  0.36090853831E+02  0.11503852071E+02  0.87382010764E+03  0.87464076560E+03  0.00000000000E+00 0.  1.
          5    1    4    4  501    0  0.33577670003E+01  0.31253673856E+02 -0.83269044151E+01  0.32785308689E+02  0.41800000000E+01 0.  1.
         -5    1    4    4    0  501 -0.10201731261E+03 -0.95276416143E+02 -0.13881398079E+02  0.14033992005E+03  0.41800000000E+01 0.  1.
</event>
<event>
11    1  0.8037748E-009  0.1469569E+03  0.7561462E-02  0.1100029E+00
         22   -1    0    0    0    0  0.00000000000E+00  0.00000000000E+00  0.52422943472E+03  0.52422943472E+03  0.00000000000E+00 0. -1.
         22   -1    0    0    0    0 -0.00000000000E+00 -0.00000000000E+00 -0.11399674301E+04  0.11399674301E+04  0.00000000000E+00 0. -1.
        -24    2    1    2    0    0  0.27724764756E+02 -0.11077675503E+02 -0.80544366650E+03  0.81001104729E+03  0.80542034652E+02 0.  0.
         25    2    1    2    0    0 -0.40189984942E+02 -0.65160320836E+02 -0.30961505814E+03  0.34259222197E+03  0.12508734560E+03 0.  0.
         24    2    1    2    0    0  0.12465220186E+02  0.76237996339E+02  0.49932072930E+03  0.51159359552E+03  0.80244641412E+02 0.  0.
        -11    1    5    5    0    0  0.31078689479E+02  0.14885604584E+02  0.76027569044E+02  0.83472494981E+02  0.00000000000E+00 0.  1.
         12    1    5    5    0    0 -0.18613469293E+02  0.61352391756E+02  0.42329316025E+03  0.42812110054E+03  0.00000000000E+00 0. -1.
         13    1    3    3    0    0  0.41634581521E+02  0.34586879646E+01 -0.74763403326E+03  0.74880040638E+03  0.00000000000E+00 0. -1.
        -14    1    3    3    0    0 -0.13909816765E+02 -0.14536363468E+02 -0.57809633244E+02  0.61210640914E+02  0.00000000000E+00 0.  1.
          5    1    4    4  501    0 -0.70567520336E+02 -0.57007686350E+02 -0.12079197799E+03  0.15112188980E+03  0.41800000000E+01 0.  1.
         -5    1    4    4    0  501  0.30377535394E+02 -0.81526344859E+01 -0.18882308015E+03  0.19147033217E+03  0.41800000000E+01 0.  1.
</event>
<event>
11    1  0.8037748E-009  0.1497071E+03  0.7561462E-02  0.1097178E+00
         22   -1    0    0    0    0  0.00000000000E+00  0.00000000000E+00  0.33030269466E+02  0.33030269466E+02  0.00000000000E+00 0.  1.
         22   -1    0    0    0    0 -0.00000000000E+00 -0.00000000000E+00 -0.32393968767E+04  0.32393968767E+04  0.00000000000E+00 0. -1.
        -24    2    1    2    0    0 -0.26135370068E+01  0.74390826673E+01 -0.20925094709E+04  0.20947731914E+04  0.97039512890E+02 0.  0.
         25    2    1    2    0    0 -0.69062075653E+02 -0.47360931220E+02 -0.97119569858E+03  0.98279251999E+03  0.12508966507E+03 0.  0.
         24    2    1    2    0    0  0.71675612660E+02  0.39921848553E+02 -0.14266143771E+03  0.19486143474E+03  0.10434340178E+03 0.  0.
        -11    1    5    5    0    0  0.36089261781E+02  0.52220717023E+02 -0.20004085500E+02  0.66555251776E+02  0.00000000000E+00 0.  1.
         12    1    5    5    0    0  0.35586350879E+02 -0.12298868470E+02 -0.12265735221E+03  0.12830618296E+03  0.00000000000E+00 0. -1.
         11    1    3    3    0    0 -0.45098546136E+02 -0.62151300348E+01 -0.14507253761E+04  0.14514395005E+04  0.00000000000E+00 0. -1.
        -12    1    3    3    0    0  0.42485009130E+02  0.13654212702E+02 -0.64178409487E+03  0.64333369099E+03  0.00000000000E+00 0.  1.
          5    1    4    4  501    0 -0.27484978229E+02 -0.34244168932E+02 -0.88508947816E+03  0.88618787166E+03  0.41800000000E+01 0.  1.
         -5    1    4    4    0  501 -0.41577097424E+02 -0.13116762289E+02 -0.86106220414E+02  0.96604648320E+02  0.41800000000E+01 0.  1.
</event>
<event>
11    1  0.8037748E-009  0.2427271E+03  0.7561462E-02  0.1027846E+00
         22   -1    0    0    0    0  0.00000000000E+00  0.00000000000E+00  0.34928739663E+03  0.34928739663E+03  0.00000000000E+00 0. -1.
         22   -1    0    0    0    0 -0.00000000000E+00 -0.00000000000E+00 -0.10562326630E+04  0.10562326630E+04  0.00000000000E+00 0. -1.
         24    2    1    2    0    0  0.81189717559E+02  0.19213238406E+03 -0.57225939275E+03  0.61427453336E+03  0.79660319516E+02 0.  0.
         25    2    1    2    0    0 -0.10076236497E+03 -0.18177540800E+03 -0.42482175257E+03  0.48920221241E+03  0.12509968036E+03 0.  0.
        -24    2    1    2    0    0  0.19572647412E+02 -0.10356976064E+02  0.29013587894E+03  0.30204331386E+03  0.80999874824E+02 0.  0.
        -11    1    3    3    0    0  0.21314914032E+01  0.93971025891E+02 -0.29727274368E+03  0.31177905815E+03  0.00000000000E+00 0.  1.
         12    1    3    3    0    0  0.79058226156E+02  0.98161358168E+02 -0.27498664907E+03  0.30249547522E+03  0.00000000000E+00 0. -1.
         13    1    5    5    0    0  0.32683098330E+02 -0.37280817742E+02  0.22434024899E+03  0.22975332774E+03  0.00000000000E+00 0. -1.
        -14    1    5    5    0    0 -0.13110450918E+02  0.26923841679E+02  0.65795629941E+02  0.72289986121E+02  0.00000000000E+00 0.  1.
          5    1    4    4  501    0 -0.37995677187E+02 -0.10071917048E+03 -0.94467859160E+02  0.14328179089E+03  0.41800000000E+01 0. -1.
         -5    1    4    4    0  501 -0.62766687784E+02 -0.81056237520E+02 -0.33035389341E+03  0.34592042153E+03  0.41800000000E+01 0. -1.
</event>
<event>
11    1  0.8037748E-009  0.1490296E+03  0.7561462E-02  0.1097874E+00
         22   -1    0    0    0    0  0.00000000000E+00  0.00000000000E+00  0.87633231079E+03  0.87633231079E+03  0.00000000000E+00 0.  1.
         22   -1    0    0    0    0 -0.00000000000E+00 -0.00000000000E+00 -0.61114445215E+03  0.61114445215E+03  0.00000000000E+00 0. -1.
        -24    2    1    2    0    0 -0.14723154979E+02 -0.16303310223E+02 -0.42318216836E+03  0.43132831504E+03  0.80488499313E+02 0.  0.
         25    2    1    2    0    0 -0.65196122273E+02  0.30930957186E+02 -0.15107992649E+03  0.20899817947E+03  0.12509131210E+03 0.  0.
         24    2    1    2    0    0  0.79919277252E+02 -0.14627646963E+02  0.83944995348E+03  0.84715026842E+03  0.79914291306E+02 0.  0.
        -11    1    5    5    0    0  0.85649964172E+02 -0.29483668401E+02  0.79056237533E+03  0.79573492593E+03  0.00000000000E+00 0.  1.
         12    1    5    5    0    0 -0.57306869207E+01  0.14856021438E+02  0.48887578155E+02  0.51415342490E+02  0.00000000000E+00 0. -1.
         13    1    3    3    0    0  0.29948549661E+02 -0.16250765399E+02 -0.25691379538E+03  0.25916346436E+03  0.00000000000E+00 0. -1.
        -14    1    3    3    0    0 -0.44671704640E+02 -0.52544824565E-01 -0.16626837297E+03  0.17216485068E+03  0.00000000000E+00 0.  1.
          5    1    4    4  501    0 -0.40011636724E+02  0.48960999444E+02 -0.16351242433E+03  0.17536218478E+03  0.41800000000E+01 0. -1.
         -5    1    4    4    0  501 -0.25184485548E+02 -0.18030042258E+02  0.12432497844E+02  0.33635994690E+02  0.41800000000E+01 0. -1.
</event>
<event>
11    1  0.8037748E-009  0.1472877E+03  0.7561462E-02  0.1099683E+00
         22   -1    0    0    0    0  0.00000000000E+00  0.00000000000E+00  0.68341145030E+03  0.68341145030E+03  0.00000000000E+00 0. -1.
         22   -1    0    0    0    0 -0.00000000000E+00 -0.00000000000E+00 -0.21020520434E+03  0.21020520434E+03  0.00000000000E+00 0. -1.
        -24    2    1    2    0    0 -0.76501302332E+02  0.17330321092E+02 -0.17234404492E+03  0.20559196595E+03  0.80079943541E+02 0.  0.
         25    2    1    2    0    0  0.68017322896E+02  0.90526840933E+01  0.30050501507E+03  0.33265738178E+03  0.12509741112E+03 0.  0.
         24    2    1    2    0    0  0.84839794355E+01 -0.26383005185E+02  0.34504527581E+03  0.35536730691E+03  0.80384324291E+02 0.  0.
        -13    1    5    5    0    0  0.79754130268E+01 -0.18112659472E+02  0.14056175429E+02  0.24274507488E+02  0.00000000000E+00 0.  1.
         14    1    5    5    0    0  0.50856640868E+00 -0.82703457132E+01  0.33098910038E+03  0.33109279942E+03  0.00000000000E+00 0. -1.
         13    1    3    3    0    0 -0.63014038304E+02  0.40998430264E+02 -0.15761047455E+03  0.17462159659E+03  0.00000000000E+00 0. -1.
        -14    1    3    3    0    0 -0.13487264027E+02 -0.23668109172E+02 -0.14733570372E+02  0.30970369366E+02  0.00000000000E+00 0.  1.
          5    1    4    4  501    0  0.40332748053E+02 -0.53608834660E+02  0.97986233542E+02  0.11882513237E+03  0.41800000000E+01 0. -1.
         -5    1    4    4    0  501  0.27684574844E+02  0.62661518753E+02  0.20251878153E+03  0.21383224941E+03  0.41800000000E+01 0. -1.
</event>
<event>
11    1  0.8037748E-009  0.1366402E+03  0.7561462E-02  0.1111369E+00
         22   -1    0    0    0    0  0.00000000000E+00  0.00000000000E+00  0.33210768020E+04  0.33210768020E+04  0.00000000000E+00 0.  1.
         22   -1    0    0    0    0 -0.00000000000E+00 -0.00000000000E+00 -0.48400793443E+03  0.48400793443E+03  0.00000000000E+00 0. -1.
        -24    2    1    2    0    0 -0.34463567564E+02 -0.21762058928E+02 -0.45096333122E+03  0.45965521148E+03  0.79080102667E+02 0.  0.
         25    2    1    2    0    0  0.59133016282E+02  0.69891157870E+02  0.18694559671E+03  0.24284938923E+03  0.12508270128E+03 0.  0.
         24    2    1    2    0    0 -0.24669448719E+02 -0.48129098942E+02  0.31010866020E+04  0.31025801357E+04  0.79626585748E+02 0.  0.
        -11    1    5    5    0    0 -0.49479381655E+02 -0.23764912303E+02  0.24042126501E+04  0.24048391728E+04  0.00000000000E+00 0.  1.
         12    1    5    5    0    0  0.24809932936E+02 -0.24364186639E+02  0.69687395197E+03  0.69774096289E+03  0.00000000000E+00 0. -1.
         13    1    3    3    0    0 -0.32111395940E+02  0.56643638722E+01 -0.40328464677E+03  0.40460070821E+03  0.00000000000E+00 0. -1.
        -14    1    3    3    0    0 -0.23521716237E+01 -0.27426422800E+02 -0.47678684452E+02  0.55054503268E+02  0.00000000000E+00 0.  1.
          5    1    4    4  501    0  0.86812075394E+02  0.76367930653E+02  0.17882961341E+03  0.21299272358E+03  0.41800000000E+01 0.  1.
         -5    1    4    4    0  501 -0.27679059112E+02 -0.64767727831E+01  0.81159833037E+01  0.29856665654E+02  0.41800000000E+01 0.  1.
</event>
<event>
11    1  0.8037748E-009  0.1436942E+03  0.7561462E-02  0.1103502E+00
         22   -1    0    0    0    0  0.00000000000E+00  0.00000000000E+00  0.80553171519E+02  0.80553171519E+02  0.00000000000E+00 0. -1.
         22   -1    0    0    0    0 -0.00000000000E+00 -0.00000000000E+00 -0.16137620444E+04  0.16137620444E+04  0.00000000000E+00 0. -1.
        -24    2    1    2    0    0  0.18957410014E+02 -0.18001529412E+01 -0.14110636073E+04  0.14135075955E+04  0.80873943152E+02 0.  0.
         25    2    1    2    0    0 -0.80303920648E+02  0.18448079345E+02 -0.79069192263E+02  0.16935215066E+03  0.12505663702E+03 0.  0.
         24    2    1    2    0    0  0.61346510634E+02 -0.16647926404E+02 -0.43076073267E+02  0.11145546973E+03  0.80785059418E+02 0.  0.
        -13    1    5    5    0    0  0.68043995818E+02 -0.39658009220E+02 -0.34778941085E+02  0.86094818690E+02  0.00000000000E+00 0.  1.
         14    1    5    5    0    0 -0.66974851839E+01  0.23010082816E+02 -0.82971321810E+01  0.25360651045E+02  0.00000000000E+00 0. -1.
         11    1    3    3    0    0  0.27865308529E+02 -0.13214461869E+02 -0.13620758901E+04  0.13624249807E+04  0.00000000000E+00 0. -1.
        -12    1    3    3    0    0 -0.89078985150E+01  0.11414308927E+02 -0.48987717174E+02  0.51082614833E+02  0.00000000000E+00 0.  1.
          5    1    4    4  501    0  0.64695499554E+01  0.44506939655E+02  0.53018870489E+01  0.45478623114E+02  0.41800000000E+01 0.  1.
         -5    1    4    4    0  501 -0.86773470604E+02 -0.26058860309E+02 -0.84371079312E+02  0.12387352754E+03  0.41800000000E+01 0.  1.
</event>
<event>
11    1  0.8037748E-009  0.1272807E+03  0.7561462E-02  0.1122656E+00
         22   -1    0    0    0    0  0.00000000000E+00  0.00000000000E+00  0.11715702664E+04  0.11715702664E+04  0.00000000000E+00 0.  1.
         22   -1    0    0    0    0 -0.00000000000E+00 -0.00000000000E+00 -0.31127317171E+03  0.31127317171E+03  0.00000000000E+00 0. -1.
         24    2    1    2    0    0 -0.22885442997E+02  0.41871188431E+01 -0.27731439859E+03  0.28987718435E+03  0.81143273733E+02 0.  0.
         25    2    1    2    0    0  0.29597027373E+02 -0.35610027497E+01  0.13237988502E+03  0.18455521818E+03  0.12509008685E+03 0.  0.
        -24    2    1    2    0    0 -0.67115843761E+01 -0.62611609333E+00  0.10052316082E+04  0.10084110356E+04  0.79729499328E+02 0.  0.
        -13    1    3    3    0    0 -0.42209863812E+02  0.28829113203E+02 -0.14006671857E+03  0.14910223345E+03  0.00000000000E+00 0.  1.
         14    1    3    3    0    0  0.19324420815E+02 -0.24641994360E+02 -0.13724768003E+03  0.14077495089E+03  0.00000000000E+00 0. -1.
         13    1    5    5    0    0  0.27128075425E+02  0.64045055945E+01  0.15561190791E+03  0.15808863354E+03  0.00000000000E+00 0. -1.
        -14    1    5    5    0    0 -0.33839659801E+02 -0.70306216878E+01  0.84961970032E+03  0.85032240203E+03  0.00000000000E+00 0.  1.
          5    1    4    4  501    0  0.77064588199E+02 -0.43191056974E+01  0.10222055647E+03  0.12815662290E+03  0.41800000000E+01 0. -1.
         -5    1    4    4    0  501 -0.47467560826E+02  0.75810294766E+00  0.30159328551E+02  0.56398595279E+02  0.41800000000E+01 0. -1.
</event>
<event>
11    1  0.8037748E-009  0.1644659E+03  0.7561462E-02  0.1082951E+00
         22   -1    0    0    0    0  0.00000000000E+00  0.00000000000E+00  0.77139787228E+03  0.77139787228E+03  0.00000000000E+00 0.  1.
         22   -1    0    0    0    0 -0.00000000000E+00 -0.00000000000E+00 -0.16128499100E+03  0.16128499100E+03  0.00000000000E+00 0.  1.
         24    2    1    2    0    0  0.19348482878E+02 -0.58911305369E+02 -0.28387236114E+02  0.10412826354E+03  0.78688972573E+02 0.  0.
         25    2    1    2    0    0 -0.11318544700E+03  0.59816590927E+01 -0.41493841137E+01  0.16884577484E+03  0.12507978508E+03 0.  0.
        -24    2    1    2    0    0  0.93836964118E+02  0.52929646277E+02  0.64264950151E+03  0.65970882489E+03  0.10300693450E+03 0.  0.
        -11    1    3    3    0    0  0.19252562019E+02 -0.57008386383E+02  0.13934249597E+02  0.61763909964E+02  0.00000000000E+00 0.  1.
         12    1    3    3    0    0  0.95920859101E-01 -0.19029189868E+01 -0.42321485711E+02  0.42364353580E+02  0.00000000000E+00 0. -1.
         13    1    5    5    0    0 -0.59209993443E+01 -0.22859296011E+02  0.91246963126E+02  0.94252925298E+02  0.00000000000E+00 0. -1.
        -14    1    5    5    0    0  0.99757963462E+02  0.75788942287E+02  0.55140253838E+03  0.56545589959E+03  0.00000000000E+00 0.  1.
          5    1    4    4  501    0  0.20976928755E+02  0.25356060960E+02 -0.38498814797E+00  0.33175020471E+02  0.41800000000E+01 0.  1.
         -5    1    4    4    0  501 -0.13416237575E+03 -0.19374401867E+02 -0.37643959658E+01  0.13567075437E+03  0.41800000000E+01 0.  1.
</event>
<event>
11    1  0.8037748E-009  0.1548003E+03  0.7561462E-02  0.1092072E+00
         22   -1    0    0    0    0  0.00000000000E+00  0.00000000000E+00  0.79358330447E+03  0.79358330447E+03  0.00000000000E+00 0. -1.
         22   -1    0    0    0    0 -0.00000000000E+00 -0.00000000000E+00 -0.20221213132E+03  0.20221213132E+03  0.00000000000E+00 0. -1.
        -24    2    1    2    0    0  0.59744088167E+02  0.62187468340E+02 -0.13938790893E+03  0.18155431354E+03  0.78079077345E+02 0.  0.
         25    2    1    2    0    0 -0.94516125710E+02 -0.13677852312E+03  0.27680076526E+03  0.34627766735E+03  0.12509155387E+03 0.  0.
         24    2    1    2    0    0  0.34772037543E+02  0.74591054779E+02  0.45395831682E+03  0.46796345490E+03  0.78349994614E+02 0.  0.
        -13    1    5    5    0    0  0.29684140266E+02 -0.79312019606E+01  0.11031606240E+03  0.11451500238E+03  0.00000000000E+00 0.  1.
         14    1    5    5    0    0  0.50878972768E+01  0.82522256740E+02  0.34364225443E+03  0.35344845251E+03  0.00000000000E+00 0. -1.
         11    1    3    3    0    0  0.25459769371E+02  0.74909509183E+02 -0.86160319764E+02  0.11697536118E+03  0.00000000000E+00 0. -1.
        -12    1    3    3    0    0  0.34284318796E+02 -0.12722040844E+02 -0.53227589170E+02  0.64578952356E+02  0.00000000000E+00 0.  1.
          5    1    4    4  501    0 -0.44903957538E+02 -0.58715455990E+02  0.25242110033E+02  0.78220883999E+02  0.41800000000E+01 0.  1.
         -5    1    4    4    0  501 -0.49612168172E+02 -0.78063067129E+02  0.25155865523E+03  0.26805678335E+03  0.41800000000E+01 0.  1.
</event>
<event>
11    1  0.8037748E-009  0.1760725E+03  0.7561462E-02  0.1072865E+00
         22   -1    0    0    0    0  0.00000000000E+00  0.00000000000E+00  0.15334829364E+04  0.15334829364E+04  0.00000000000E+00 0.  1.
         22   -1    0    0    0    0 -0.00000000000E+00 -0.00000000000E+00 -0.46596558921E+03  0.46596558921E+03  0.00000000000E+00 0. -1.
         24    2    1    2    0    0  0.12206150897E+03 -0.17508652943E+02 -0.43592867123E+03  0.46031755634E+03  0.81565197055E+02 0.  0.
         25    2    1    2    0    0 -0.17375428795E+03 -0.30331060014E+02  0.85673714590E+03  0.88360218913E+03  0.12507504022E+03 0.  0.
        -24    2    1    2    0    0  0.51692778971E+02  0.47839712957E+02  0.64670887249E+03  0.65552878012E+03  0.80776446300E+02 0.  0.
        -13    1    3    3    0    0  0.55406607089E+01 -0.86797780395E+01 -0.14501327682E+01  0.10399055387E+02  0.00000000000E+00 0.  1.
         14    1    3    3    0    0  0.11652084827E+03 -0.88288749030E+01 -0.43447853846E+03  0.44991850095E+03  0.00000000000E+00 0. -1.
         13    1    5    5    0    0 -0.15075600038E+02  0.36363611151E+02  0.22730336360E+03  0.23068681158E+03  0.00000000000E+00 0. -1.
        -14    1    5    5    0    0  0.66768379009E+02  0.11476101805E+02  0.41940550888E+03  0.42484196854E+03  0.00000000000E+00 0.  1.
          5    1    4    4  501    0 -0.32904650854E+02 -0.15381087968E+02  0.47513750711E+03  0.47654214607E+03  0.41800000000E+01 0. -1.
         -5    1    4    4    0  501 -0.14084963709E+03 -0.14949972046E+02  0.38159963879E+03  0.40706004307E+03  0.41800000000E+01 0. -1.
</event>
<event>
11    1  0.8037748E-009  0.1333143E+03  0.7561462E-02  0.1115263E+00
         22   -1    0    0    0    0  0.00000000000E+00  0.00000000000E+00  0.80838023251E+03  0.80838023251E+03  0.00000000000E+00 0. -1.
         22   -1    0    0    0    0 -0.00000000000E+00 -0.00000000000E+00 -0.10111976347E+03  0.10111976347E+03  0.00000000000E+00 0. -1.
         24    2    1    2    0    0  0.22391815397E+02  0.42438611204E+02 -0.41362089479E+02  0.10019102546E+03  0.77620809193E+02 0.  0.
         25    2    1    2    0    0  0.12079382352E+02 -0.44750292692E+02  0.13574256266E+03  0.19032313972E+03  0.12509338121E+03 0.  0.
        -24    2    1    2    0    0 -0.34471197749E+02  0.23116814879E+01  0.61287999587E+03  0.61898583079E+03  0.79548488613E+02 0.  0.
        -11    1    3    3    0    0  0.16326111831E+01  0.17889116282E+02  0.22441229181E+02  0.28745341671E+02  0.00000000000E+00 0.  1.
         12    1    3    3    0    0  0.20759204214E+02  0.24549494923E+02 -0.63803318661E+02  0.71445683793E+02  0.00000000000E+00 0. -1.
         13    1    5    5    0    0 -0.57441082255E+02 -0.85485841295E+01  0.33984611556E+03  0.34477229947E+03  0.00000000000E+00 0. -1.
        -14    1    5    5    0    0  0.22969884506E+02  0.10860265617E+02  0.27303388031E+03  0.27421353132E+03  0.00000000000E+00 0.  1.
          5    1    4    4  501    0  0.22580799615E+02 -0.14101730464E+02  0.15162447912E+03  0.15400067007E+03  0.41800000000E+01 0.  1.
         -5    1    4    4    0  501 -0.10501417264E+02 -0.30648562228E+02 -0.15881916461E+02  0.36322469653E+02  0.41800000000E+01 0.  1.
</event>
<event>
11    1  0.8037748E-009  0.1548005E+03  0.7561462E-02  0.1092072E+00
         22   -1    0    0    0    0  0.00000000000E+00  0.00000000000E+00  0.62946622495E+03  0.62946622495E+03  0.00000000000E+00 0.  1.
         22   -1    0    0    0    0 -0.00000000000E+00 -0.00000000000E+00 -0.10365557410E+03  0.10365557410E+03  0.00000000000E+00 0. -1.
        -24    2    1    2    0    0 -0.16768284997E+02  0.34079005191E+02  0.30435802144E+01  0.88425116193E+02  0.79794635263E+02 0.  0.
         25    2    1    2    0    0 -0.11687287767E+02 -0.11683589529E+03  0.86632645021E+02  0.19220440294E+03  0.12510035252E+03 0.  0.
         24    2    1    2    0    0  0.28455572763E+02  0.82756890104E+02  0.43613442562E+03  0.45249227993E+03  0.82931319212E+02 0.  0.
        -13    1    5    5    0    0  0.93685431408E+01  0.89796506820E+02  0.40740748091E+03  0.41729131040E+03  0.00000000000E+00 0.  1.
         14    1    5    5    0    0  0.19087029622E+02 -0.70396167162E+01  0.28726944710E+02  0.35200969528E+02  0.00000000000E+00 0. -1.
         11    1    3    3    0    0 -0.74425173460E+01  0.60093923605E+02 -0.55696181270E+00  0.60555601930E+02  0.00000000000E+00 0. -1.
        -12    1    3    3    0    0 -0.93257676506E+01 -0.26014918414E+02  0.36005420271E+01  0.27869514263E+02  0.00000000000E+00 0.  1.
          5    1    4    4  501    0  0.29176584514E+02 -0.33677982539E+02 -0.21577342078E+02  0.49684340420E+02  0.41800000000E+01 0.  1.
         -5    1    4    4    0  501 -0.40863872281E+02 -0.83157912755E+02  0.10820998710E+03  0.14252006252E+03  0.41800000000E+01 0.  1.
</event>
<event>
11    1  0.8037748E-009  0.1772697E+03  0.7561462E-02  0.1071873E+00
         22   -1    0    0    0    0  0.00000000000E+00  0.00000000000E+00  0.85717854813E+03  0.85717854813E+03  0.00000000000E+00 0. -1.
         22   -1    0    0    0    0 -0.00000000000E+00 -0.00000000000E+00 -0.10170843118E+04  0.10170843118E+04  0.00000000000E+00 0. -1.
         24    2    1    2    0    0 -0.47314327072E+02 -0.41933342551E+02 -0.82108156589E+03  0.83074797329E+03  0.10940843899E+03 0.  0.
         25    2    1    2    0    0 -0.52376089937E+02  0.11901411334E+03 -0.13990788538E+03  0.22832187214E+03  0.12509615076E+03 0.  0.
        -24    2    1    2    0    0  0.99690417009E+02 -0.77080770788E+02  0.80108368765E+03  0.81519301445E+03  0.83216294878E+02 0.  0.
        -11    1    3    3    0    0  0.76415205377E+01  0.27420233218E+02 -0.36845638139E+03  0.36955428156E+03  0.00000000000E+00 0.  1.
         12    1    3    3    0    0 -0.54955847609E+02 -0.69353575770E+02 -0.45262518449E+03  0.46119369174E+03  0.00000000000E+00 0. -1.
         13    1    5    5    0    0  0.71588604130E+02 -0.59276474730E+01  0.46474679500E+03  0.47026550874E+03  0.00000000000E+00 0. -1.
        -14    1    5    5    0    0  0.28101812879E+02 -0.71153123315E+02  0.33633689264E+03  0.34492750571E+03  0.00000000000E+00 0.  1.
          5    1    4    4  501    0 -0.51454414506E+02  0.14142585056E+03 -0.95197464244E+02  0.17812595987E+03  0.41800000000E+01 0. -1.
         -5    1    4    4    0  501 -0.92167543173E+00 -0.22411737223E+02 -0.44710421139E+02  0.50195912277E+02  0.41800000000E+01 0. -1.
</event>
<event>
11    1  0.8037748E-009  0.1683826E+03  0.7561462E-02  0.1079448E+00
         22   -1    0    0    0    0  0.00000000000E+00  0.00000000000E+00  0.97928429735E+02  0.97928429735E+02  0.00000000000E+00 0.  1.
         22   -1    0    0    0    0 -0.00000000000E+00 -0.00000000000E+00 -0.13054991869E+04  0.13054991869E+04  0.00000000000E+00 0.  1.
         24    2    1    2    0    0  0.40738943466E+02 -0.10340692208E+03 -0.10998238874E+04  0.11079764471E+04  0.75143669013E+02 0.  0.
         25    2    1    2    0    0 -0.59061645455E+02  0.12014419717E+03 -0.10285821891E+03  0.21011833335E+03  0.12508794800E+03 0.  0.
        -24    2    1    2    0    0  0.18322701988E+02 -0.16737275086E+02 -0.48886508221E+01  0.85332836149E+02  0.81498075026E+02 0.  0.
        -13    1    3    3    0    0  0.32518219491E+02 -0.11209642092E+03 -0.86382968316E+03  0.87167927800E+03  0.00000000000E+00 0.  1.
         14    1    3    3    0    0  0.82207239753E+01  0.86894988397E+01 -0.23599420426E+03  0.23629716913E+03  0.00000000000E+00 0. -1.
         11    1    5    5    0    0  0.19862015614E+02 -0.14211246280E+02 -0.41741603476E+02  0.48361354880E+02  0.00000000000E+00 0. -1.
        -12    1    5    5    0    0 -0.15393136253E+01 -0.25260288058E+01  0.36852952654E+02  0.36971481269E+02  0.00000000000E+00 0.  1.
          5    1    4    4  501    0 -0.30155736315E+02  0.78499503455E+02  0.11480927807E+02  0.84975435149E+02  0.41800000000E+01 0.  1.
         -5    1    4    4    0  501 -0.28905909140E+02  0.41644693714E+02 -0.11433914671E+03  0.12514289820E+03  0.41800000000E+01 0.  1.
</event>
<event>
11    1  0.1027901E-008  0.1849729E+03  0.7561462E-02  0.1065690E+00
         22   -1    0    0    0    0  0.00000000000E+00  0.00000000000E+00  0.12828021040E+04  0.12828021040E+04  0.00000000000E+00 0. -1.
         22   -1    0    0    0    0 -0.00000000000E+00 -0.00000000000E+00 -0.56555934045E+03  0.56555934045E+03  0.00000000000E+00 0.  1.
        -24    2    1    2    0    0 -0.14009526498E+00 -0.20067981206E+02 -0.33889744549E+03  0.34893047897E+03  0.80611767774E+02 0.  0.
         25    2    1    2    0    0 -0.12507320180E+03  0.73380757552E+02 -0.17430236302E+03  0.25895142745E+03  0.12508591700E+03 0.  0.
         24    2    1    2    0    0  0.12521329707E+03 -0.53312776346E+02  0.12304425721E+04  0.12404795381E+04  0.79246067771E+02 0.  0.
        -13    1    5    5    0    0 -0.68670743438E+01 -0.17220935648E+02  0.93378319759E+02  0.95200987052E+02  0.00000000000E+00 0.  1.
         14    1    5    5    0    0  0.13208037141E+03 -0.36091840699E+02  0.11370642523E+04  0.11452785510E+04  0.00000000000E+00 0. -1.
         11    1    3    3    0    0 -0.33652673035E+01  0.29072052558E+02 -0.75595617932E+02  0.81062979926E+02  0.00000000000E+00 0. -1.
        -12    1    3    3    0    0  0.32251720385E+01 -0.49140033764E+02 -0.26330182756E+03  0.26786749905E+03  0.00000000000E+00 0.  1.
          5    1    4    4  501    0 -0.57663912103E+02 -0.24545834340E+02 -0.10186789114E+03  0.11967524551E+03  0.41800000000E+01 0.  1.
         -5    1    4    4    0  501 -0.67409289701E+02  0.97926591892E+02 -0.72434471877E+02  0.13927618193E+03  0.41800000000E+01 0.  1.
</event>
<event>
11    1  0.8037748E-009  0.1602546E+03  0.7561462E-02  0.1086838E+00
         22   -1    0    0    0    0  0.00000000000E+00  0.00000000000E+00  0.81318093531E+03  0.81318093531E+03  0.00000000000E+00 0.  1.
         22   -1    0    0    0    0 -0.00000000000E+00 -0.00000000000E+00 -0.20435283189E+04  0.20435283189E+04  0.00000000000E+00 0. -1.
         24    2    1    2    0    0 -0.38601860154E+02  0.44178246891E+02 -0.16012490603E+04  0.16043553933E+04  0.80720838499E+02 0.  0.
         25    2    1    2    0    0  0.12204202455E+03 -0.98408274065E+02 -0.41251813166E+03  0.45869055691E+03  0.12508946352E+03 0.  0.
        -24    2    1    2    0    0 -0.83440164401E+02  0.54230027174E+02  0.78341980838E+03  0.79366330399E+03  0.79067610692E+02 0.  0.
        -13    1    3    3    0    0 -0.15331374985E+02 -0.76954231704E+01 -0.70722660808E+02  0.72773383517E+02  0.00000000000E+00 0.  1.
         14    1    3    3    0    0 -0.23270485168E+02  0.51873670061E+02 -0.15305263995E+04  0.15315820097E+04  0.00000000000E+00 0. -1.
         13    1    5    5    0    0 -0.31481207289E+02  0.58682888927E+02  0.29268579875E+03  0.30016616174E+03  0.00000000000E+00 0. -1.
        -14    1    5    5    0    0 -0.51958957112E+02 -0.44528617531E+01  0.49073400964E+03  0.49349714226E+03  0.00000000000E+00 0.  1.
          5    1    4    4  501    0  0.10214279729E+03 -0.24154884081E+01 -0.20068129258E+03  0.22523196757E+03  0.41800000000E+01 0. -1.
         -5    1    4    4    0  501  0.19899227262E+02 -0.95992785657E+02 -0.21183683909E+03  0.23345858934E+03  0.41800000000E+01 0. -1.
</event>
<event>
11    1  0.8037748E-009  0.2143920E+03  0.7561462E-02  0.1044788E+00
         22   -1    0    0    0    0  0.00000000000E+00  0.00000000000E+00  0.10542555159E+04  0.10542555159E+04  0.00000000000E+00 0. -1.
         22   -1    0    0    0    0 -0.00000000000E+00 -0.00000000000E+00 -0.50009446644E+03  0.50009446644E+03  0.00000000000E+00 0.  1.
         24    2    1    2    0    0  0.74162271960E+02  0.15472407414E+03 -0.43758741469E+03  0.47714106473E+03  0.82105227975E+02 0.  0.
         25    2    1    2    0    0 -0.78343724541E+02 -0.22208706407E+03  0.43076281293E+03  0.50662094240E+03  0.12509106711E+03 0.  0.
        -24    2    1    2    0    0  0.41814525805E+01  0.67362989931E+02  0.56098565124E+03  0.57058797523E+03  0.79438527325E+02 0.  0.
        -11    1    3    3    0    0  0.54839777733E+02  0.16069820346E+03 -0.38408661919E+03  0.41994504981E+03  0.00000000000E+00 0.  1.
         12    1    3    3    0    0  0.19322494227E+02 -0.59741293237E+01 -0.53500795496E+02  0.57196014922E+02  0.00000000000E+00 0. -1.
         13    1    5    5    0    0  0.16327739527E+02  0.56082145141E+02  0.17996241964E+03  0.18920431962E+03  0.00000000000E+00 0. -1.
        -14    1    5    5    0    0 -0.12146286946E+02  0.11280844790E+02  0.38102323160E+03  0.38138365561E+03  0.00000000000E+00 0.  1.
          5    1    4    4  501    0 -0.47078676135E+02 -0.13351619602E+02  0.13166361367E+03  0.14052560997E+03  0.41800000000E+01 0.  1.
         -5    1    4    4    0  501 -0.31265048406E+02 -0.20873544447E+03  0.29909919926E+03  0.36609533243E+03  0.41800000000E+01 0.  1.
</event>
<event>
11    1  0.8037748E-009  0.1883028E+03  0.7561462E-02  0.1063118E+00
         22   -1    0    0    0    0  0.00000000000E+00  0.00000000000E+00  0.18274998923E+03  0.18274998923E+03  0.00000000000E+00 0. -1.
         22   -1    0    0    0    0 -0.00000000000E+00 -0.00000000000E+00 -0.14331562522E+04  0.14331562522E+04  0.00000000000E+00 0.  1.
        -24    2    1    2    0    0 -0.85231683638E+01 -0.34350288197E+02 -0.10815295238E+04  0.10852624657E+04  0.82679633808E+02 0.  0.
         25    2    1    2    0    0 -0.15389621847E+02  0.16893379817E+03 -0.26966666778E+03  0.34226106657E+03  0.12508819828E+03 0.  0.
         24    2    1    2    0    0  0.23912790211E+02 -0.13458350998E+03  0.10078992868E+03  0.18838270913E+03  0.81516211170E+02 0.  0.
        -11    1    5    5    0    0 -0.51240913889E+01 -0.11227045800E+03  0.10195785760E+03  0.15174424793E+03  0.00000000000E+00 0.  1.
         12    1    5    5    0    0  0.29036881600E+02 -0.22313051975E+02 -0.11679289221E+01  0.36638461205E+02  0.00000000000E+00 0. -1.
         11    1    3    3    0    0  0.27558749187E+02 -0.13824052043E+02 -0.16900986566E+03  0.17179907963E+03  0.00000000000E+00 0. -1.
        -12    1    3    3    0    0 -0.36081917551E+02 -0.20526236154E+02 -0.91251965817E+03  0.91346338607E+03  0.00000000000E+00 0.  1.
          5    1    4    4  501    0 -0.38919286880E+02  0.59173423759E+01 -0.23474160113E+02  0.46024280821E+02  0.41800000000E+01 0.  1.
         -5    1    4    4    0  501  0.23529665033E+02  0.16301645580E+03 -0.24619250767E+03  0.29623678575E+03  0.41800000000E+01 0.  1.
</event>
<event>
11    1  0.8037748E-009  0.1410964E+03  0.7561462E-02  0.1106340E+00
         22   -1    0    0    0    0  0.00000000000E+00  0.00000000000E+00  0.42517421838E+03  0.42517421838E+03  0.00000000000E+00 0.  1.
         22   -1    0    0    0    0 -0.00000000000E+00 -0.00000000000E+00 -0.45789530154E+03  0.45789530154E+03  0.00000000000E+00 0. -1.
        -24    2    1    2    0    0 -0.95531640569E+01  0.24806043698E+02 -0.35989471800E+03  0.37331808989E+03  0.95580256599E+02 0.  0.
         25    2    1    2    0    0 -0.38978906203E+02  0.21589687661E+02 -0.31808510076E+02  0.13654587966E+03  0.12509007234E+03 0.  0.
         24    2    1    2    0    0  0.48532070259E+02 -0.46395731359E+02  0.35898214492E+03  0.37320555036E+03  0.76852304602E+02 0.  0.
        -13    1    5    5    0    0  0.65277946289E+02 -0.29394328358E+02  0.31634478563E+03  0.32434435436E+03  0.00000000000E+00 0.  1.
         14    1    5    5    0    0 -0.16745876029E+02 -0.17001403001E+02  0.42637359290E+02  0.48861196007E+02  0.00000000000E+00 0. -1.
         11    1    3    3    0    0 -0.24012859695E+02  0.17950092017E+02 -0.35544654412E+03  0.35670866118E+03  0.00000000000E+00 0. -1.
        -12    1    3    3    0    0  0.14459695638E+02  0.68559516814E+01 -0.44481738810E+01  0.16609428716E+02  0.00000000000E+00 0.  1.
          5    1    4    4  501    0  0.14275366730E+02  0.52161956911E+02  0.18230848412E+02  0.57223177803E+02  0.41800000000E+01 0.  1.
         -5    1    4    4    0  501 -0.53254272933E+02 -0.30572269251E+02 -0.50039358488E+02  0.79322701861E+02  0.41800000000E+01 0.  1.
</event>
<event>
11    1  0.8037748E-009  0.1609753E+03  0.7561462E-02  0.1086164E+00
         22   -1    0    0    0    0  0.00000000000E+00  0.00000000000E+00  0.68632414170E+03  0.68632414170E+03  0.00000000000E+00 0. -1.
         22   -1    0    0    0    0 -0.00000000000E+00 -0.00000000000E+00 -0.62830641848E+03  0.62830641848E+03  0.00000000000E+00 0.  1.
         24    2    1    2    0    0  0.45794958703E+02 -0.26881017646E+02 -0.55876540487E+03  0.56747453455E+03  0.83599057019E+02 0.  0.
         25    2    1    2    0    0 -0.88944826694E+02 -0.65220736555E+02  0.63446301464E+02  0.17843048861E+03  0.12508828652E+03 0.  0.
        -24    2    1    2    0    0  0.43149867991E+02  0.92101754201E+02  0.55333682662E+03  0.56872553701E+03  0.83201253137E+02 0.  0.
        -11    1    3    3    0    0  0.41421723070E+02 -0.72655853949E+01 -0.53366721232E+03  0.53532162424E+03  0.00000000000E+00 0.  1.
         12    1    3    3    0    0  0.43732356332E+01 -0.19615432251E+02 -0.25098192546E+02  0.32152910310E+02  0.00000000000E+00 0. -1.
         13    1    5    5    0    0  0.47059110349E+01  0.68153119972E+02  0.45926072942E+03  0.46431391423E+03  0.00000000000E+00 0. -1.
        -14    1    5    5    0    0  0.38443956956E+02  0.23948634229E+02  0.94076097196E+02  0.10441162278E+03  0.00000000000E+00 0.  1.
          5    1    4    4  501    0  0.29680758519E+02 -0.26394916357E+01  0.20964197164E+00  0.30090375407E+02  0.41800000000E+01 0.  1.
         -5    1    4    4    0  501 -0.11862558521E+03 -0.62581244920E+02  0.63236659492E+02  0.14834011321E+03  0.41800000000E+01 0.  1.
</event>
<event>
11    1  0.8037748E-009  0.1363330E+03  0.7561462E-02  0.1111724E+00
         22   -1    0    0    0    0  0.00000000000E+00  0.00000000000E+00  0.15308904413E+03  0.15308904413E+03  0.00000000000E+00 0.  1.
         22   -1    0    0    0    0 -0.00000000000E+00 -0.00000000000E+00 -0.10027701282E+04  0.10027701282E+04  0.00000000000E+00 0.  1.
         24    2    1    2    0    0  0.18128537362E+02 -0.61624311779E+01 -0.84093592308E+03  0.84492980855E+03  0.79790571080E+02 0.  0.
         25    2    1    2    0    0  0.91257301011E+01  0.53484361581E+02 -0.10703605413E+03  0.17334738933E+03  0.12509494242E+03 0.  0.
        -24    2    1    2    0    0 -0.27254267463E+02 -0.47321930403E+02  0.98290893088E+02  0.13758197449E+03  0.79281396617E+02 0.  0.
        -11    1    3    3    0    0  0.30876652856E+02  0.18072142333E+02 -0.72185498191E+03  0.72274102204E+03  0.00000000000E+00 0.  1.
         12    1    3    3    0    0 -0.12748115494E+02 -0.24234573511E+02 -0.11908094116E+03  0.12218878652E+03  0.00000000000E+00 0. -1.
         11    1    5    5    0    0 -0.26219187948E+02  0.14011212456E+02  0.12814292684E+02  0.32372302794E+02  0.00000000000E+00 0. -1.
        -12    1    5    5    0    0 -0.10350795148E+01 -0.61333142860E+02  0.85476600404E+02  0.10520967170E+03  0.00000000000E+00 0.  1.
          5    1    4    4  501    0  0.65027861061E+02  0.41609119409E+02 -0.74920217403E+02  0.10765896576E+03  0.41800000000E+01 0.  1.
         -5    1    4    4    0  501 -0.55902130960E+02  0.11875242172E+02 -0.32115836729E+02  0.65688423572E+02  0.41800000000E+01 0.  1.
</event>
<event>
11    1  0.8037748E-009  0.1734245E+03  0.7561462E-02  0.1075089E+00
         22   -1    0    0    0    0  0.00000000000E+00  0.00000000000E+00  0.92077781834E+03  0.92077781834E+03  0.00000000000E+00 0.  1.
         22   -1    0    0    0    0 -0.00000000000E+00 -0.00000000000E+00 -0.71551039758E+03  0.71551039758E+03  0.00000000000E+00 0. -1.
        -24    2    1    2    0    0  0.25182237896E+01  0.72185749546E+02 -0.63623534898E+03  0.64546290594E+03  0.81300798107E+02 0.  0.
         25    2    1    2    0    0  0.11777456171E+03 -0.63076675161E+02  0.54363283438E+02  0.19092834748E+03  0.12509497571E+03 0.  0.
         24    2    1    2    0    0 -0.12029278550E+03 -0.91090743852E+01  0.78713948631E+03  0.79989696250E+03  0.75453629644E+02 0.  0.
        -11    1    5    5    0    0 -0.10226892024E+03  0.23293559792E+02  0.60442288118E+03  0.61345622604E+03  0.00000000000E+00 0.  1.
         12    1    5    5    0    0 -0.18023865263E+02 -0.32402634177E+02  0.18271660513E+03  0.18644073646E+03  0.00000000000E+00 0. -1.
         13    1    3    3    0    0 -0.69176279121E+01  0.36321707325E+02 -0.55423155959E+03  0.55546353763E+03  0.00000000000E+00 0. -1.
        -14    1    3    3    0    0  0.94358517016E+01  0.35864042221E+02 -0.82003789390E+02  0.89999368310E+02  0.00000000000E+00 0.  1.
          5    1    4    4  501    0 -0.15191390329E+02  0.14652798621E+02 -0.10274348182E+02  0.23843604554E+02  0.41800000000E+01 0. -1.
         -5    1    4    4    0  501  0.13296595204E+03 -0.77729473782E+02  0.64637631620E+02  0.16708474293E+03  0.41800000000E+01 0. -1.
</event>
<event>
11    1  0.8037748E-009  0.1447953E+03  0.7561462E-02  0.1102319E+00
         22   -1    0    0    0    0  0.00000000000E+00  0.00000000000E+00  0.15022860706E+03  0.15022860706E+03  0.00000000000E+00 0. -1.
         22   -1    0    0    0    0 -0.00000000000E+00 -0.00000000000E+00 -0.68443589362E+03  0.68443589362E+03  0.00000000000E+00 0. -1.
         24    2    1    2    0    0 -0.67208782440E+02  0.23092000274E+02 -0.51553928648E+03  0.52686637522E+03  0.82201949580E+02 0.  0.
         25    2    1    2    0    0  0.66298849302E+02 -0.71254831757E+02 -0.97161006425E+02  0.18590538066E+03  0.12509101056E+03 0.  0.
        -24    2    1    2    0    0  0.90993313800E+00  0.48162831484E+02  0.78493006342E+02  0.12189274479E+03  0.79851129448E+02 0.  0.
        -11    1    3    3    0    0 -0.31072753318E+02  0.50329832786E+01 -0.46869690226E+02  0.56458965465E+02  0.00000000000E+00 0.  1.
         12    1    3    3    0    0 -0.36136029121E+02  0.18059016995E+02 -0.46866959626E+03  0.47040740975E+03  0.00000000000E+00 0. -1.
         13    1    5    5    0    0  0.26427102653E+02  0.17628687250E+02  0.75590371836E+02  0.81994308846E+02  0.00000000000E+00 0. -1.
        -14    1    5    5    0    0 -0.25517169515E+02  0.30534144234E+02  0.29026345059E+01  0.39898435949E+02  0.00000000000E+00 0.  1.
          5    1    4    4  501    0  0.91530366676E+02 -0.57450452318E+02 -0.29244260255E+02  0.11203152080E+03  0.41800000000E+01 0.  1.
         -5    1    4    4    0  501 -0.25231517374E+02 -0.13804379439E+02 -0.67916746170E+02  0.73873859863E+02  0.41800000000E+01 0.  1.
</event>
<event>
11    1  0.8037748E-009  0.5550285E+03  0.7561462E-02  0.9278323E-01
         22   -1    0    0    0    0  0.00000000000E+00  0.00000000000E+00  0.20622411167E+04  0.20622411167E+04  0.00000000000E+00 0. -1.
         22   -1    0    0    0    0 -0.00000000000E+00 -0.00000000000E+00 -0.95022496159E+03  0.95022496159E+03  0.00000000000E+00 0. -1.
         24    2    1    2    0    0 -0.75378893602E+02 -0.27354758653E+03 -0.70719823920E+03  0.76617944574E+03  0.79945818154E+02 0.  0.
         25    2    1    2    0    0  0.53867333615E+03  0.45403550714E+03  0.62693018772E+03  0.95131949783E+03  0.12510044707E+03 0.  0.
        -24    2    1    2    0    0 -0.46329444254E+03 -0.18048792060E+03  0.11922842066E+04  0.12949671347E+04  0.90446783998E+02 0.  0.
        -11    1    3    3    0    0 -0.20858591423E+02 -0.47620692728E+02 -0.65086485317E+02  0.83301031104E+02  0.00000000000E+00 0.  1.
         12    1    3    3    0    0 -0.54520302179E+02 -0.22592689380E+03 -0.64211175388E+03  0.68287841463E+03  0.00000000000E+00 0. -1.
         13    1    5    5    0    0 -0.24419801304E+03 -0.47279111567E+02  0.60632785532E+03  0.65536360297E+03  0.00000000000E+00 0. -1.
        -14    1    5    5    0    0 -0.21909642950E+03 -0.13320880904E+03  0.58595635124E+03  0.63960353172E+03  0.00000000000E+00 0.  1.
          5    1    4    4  501    0  0.45753386832E+03  0.41534133069E+03  0.58891121355E+03  0.85362729073E+03  0.41800000000E+01 0. -1.
         -5    1    4    4    0  501  0.81139467832E+02  0.38694176440E+02  0.38018974176E+02  0.97692207099E+02  0.41800000000E+01 0. -1.
</event>
<event>
11    1  0.8037748E-009  0.5173882E+03  0.7561462E-02  0.9355485E-01
         22   -1    0    0    0    0  0.00000000000E+00  0.00000000000E+00  0.20551840875E+04  0.20551840875E+04  0.00000000000E+00 0.  1.
         22   -1    0    0    0    0 -0.00000000000E+00 -0.00000000000E+00 -0.31420839428E+03  0.31420839428E+03  0.00000000000E+00 0. -1.
         24    2    1    2    0    0  0.13170991929E+02  0.59839242984E+02 -0.16893230539E+03  0.19698841580E+03  0.80697596771E+02 0.  0.
         25    2    1    2    0    0 -0.42242835183E+03 -0.31628651112E+03  0.91896699567E+03  0.10670662065E+04  0.12508829024E+03 0.  0.
        -24    2    1    2    0    0  0.40925735990E+03  0.25644726814E+03  0.99094100291E+03  0.11053378595E+04  0.80937780750E+02 0.  0.
        -11    1    3    3    0    0  0.13404774003E+02 -0.17981669170E+02 -0.50749817676E+02  0.55484884305E+02  0.00000000000E+00 0.  1.
         12    1    3    3    0    0 -0.23378207368E+00  0.77820912154E+02 -0.11818248771E+03  0.14150353149E+03  0.00000000000E+00 0. -1.
         13    1    5    5    0    0  0.17464118205E+03  0.70255938684E+02  0.33548039032E+03  0.38468497719E+03  0.00000000000E+00 0. -1.
        -14    1    5    5    0    0  0.23461617785E+03  0.18619132946E+03  0.65546061259E+03  0.72065288228E+03  0.00000000000E+00 0.  1.
          5    1    4    4  501    0 -0.30046460872E+02 -0.56812292697E+02  0.61622608068E+02  0.89136101763E+02  0.41800000000E+01 0. -1.
         -5    1    4    4    0  501 -0.39238189096E+03 -0.25947421843E+03  0.85734438760E+03  0.97793010473E+03  0.41800000000E+01 0. -1.
</event>
<event>
11    1  0.8037748E-009  0.1292873E+03  0.7561462E-02  0.1120148E+00
         22   -1    0    0    0    0  0.00000000000E+00  0.00000000000E+00  0.25649361179E+03  0.25649361179E+03  0.00000000000E+00 0. -1.
         22   -1    0    0    0    0 -0.00000000000E+00 -0.00000000000E+00 -0.34264548186E+03  0.34264548186E+03  0.00000000000E+00 0.  1.
        -24    2    1    2    0    0  0.26242509020E+02  0.11493202245E+02 -0.27307633446E+03  0.28609093414E+03  0.80352816860E+02 0.  0.
         25    2    1    2    0    0 -0.20760526142E+02 -0.42117312614E+02  0.34266882774E+02  0.13793578015E+03  0.12508873939E+03 0.  0.
         24    2    1    2    0    0 -0.54819828781E+01  0.30624110369E+02  0.15265758162E+03  0.17511237935E+03  0.79950734235E+02 0.  0.
        -13    1    5    5    0    0 -0.26211362573E+02 -0.18756388140E+02  0.56492798814E+02  0.65040556131E+02  0.00000000000E+00 0.  1.
         14    1    5    5    0    0  0.20729379695E+02  0.49380498508E+02  0.96164782807E+02  0.11007182322E+03  0.00000000000E+00 0. -1.
         11    1    3    3    0    0  0.88161089759E+01  0.45074903325E+02 -0.12228685626E+03  0.13062750821E+03  0.00000000000E+00 0. -1.
        -12    1    3    3    0    0  0.17426400044E+02 -0.33581701080E+02 -0.15078947821E+03  0.15546342593E+03  0.00000000000E+00 0.  1.
          5    1    4    4  501    0 -0.67731779024E+02 -0.37062571635E+01  0.36363879858E+02  0.77078754468E+02  0.41800000000E+01 0.  1.
         -5    1    4    4    0  501  0.46971252882E+02 -0.38411055450E+02 -0.20969970841E+01  0.60857025682E+02  0.41800000000E+01 0.  1.
</event>
<event>
11    1  0.8037748E-009  0.1349397E+03  0.7561462E-02  0.1113344E+00
         22   -1    0    0    0    0  0.00000000000E+00  0.00000000000E+00  0.11083551927E+04  0.11083551927E+04  0.00000000000E+00 0.  1.
         22   -1    0    0    0    0 -0.00000000000E+00 -0.00000000000E+00 -0.14228777915E+04  0.14228777915E+04  0.00000000000E+00 0. -1.
        -24    2    1    2    0    0  0.88569254364E+01  0.13727464304E+02 -0.13867194798E+04  0.13890579177E+04  0.78892931526E+02 0.  0.
         25    2    1    2    0    0  0.24090306196E+02  0.26160500372E+02  0.97397449028E+02  0.16247864101E+03  0.12509328948E+03 0.  0.
         24    2    1    2    0    0 -0.32947231633E+02 -0.39887964676E+02  0.97479943194E+03  0.97969642549E+03  0.83033630627E+02 0.  0.
        -11    1    5    5    0    0 -0.35143992039E+02 -0.50543814459E+02  0.95596681847E+03  0.95794693766E+03  0.00000000000E+00 0.  1.
         12    1    5    5    0    0  0.21967604058E+01  0.10655849783E+02  0.18832613469E+02  0.21749487832E+02  0.00000000000E+00 0. -1.
         13    1    3    3    0    0  0.25605768641E+02  0.14010565063E+02 -0.13181089360E+04  0.13184320682E+04  0.00000000000E+00 0. -1.
        -14    1    3    3    0    0 -0.16748843205E+02 -0.28310075953E+00 -0.68610543807E+02  0.70625849490E+02  0.00000000000E+00 0.  1.
          5    1    4    4  501    0  0.59294363386E+02 -0.21853733743E+02  0.76337450488E+02  0.99188134144E+02  0.41800000000E+01 0. -1.
         -5    1    4    4    0  501 -0.35204057190E+02  0.48014234115E+02  0.21059998540E+02  0.63290506861E+02  0.41800000000E+01 0. -1.
</event>
<event>
11    1  0.8037748E-009  0.1649859E+03  0.7561462E-02  0.1082479E+00
         22   -1    0    0    0    0  0.00000000000E+00  0.00000000000E+00  0.54407503382E+03  0.54407503382E+03  0.00000000000E+00 0.  1.
         22   -1    0    0    0    0 -0.00000000000E+00 -0.00000000000E+00 -0.18888038005E+03  0.18888038005E+03  0.00000000000E+00 0.  1.
         24    2    1    2    0    0  0.57118818189E+02  0.10578299462E+03 -0.11754428483E+03  0.18582378116E+03  0.79127854802E+02 0.  0.
         25    2    1    2    0    0 -0.58085426109E+02 -0.44518783523E+01  0.17747157390E+03  0.22480257998E+03  0.12508518887E+03 0.  0.
        -24    2    1    2    0    0  0.96660792080E+00 -0.10133111627E+03  0.29526736470E+03  0.32232905273E+03  0.80276223876E+02 0.  0.
        -13    1    3    3    0    0  0.49862307742E+02  0.95564595507E+02 -0.53077716993E+02  0.12015026296E+03  0.00000000000E+00 0.  1.
         14    1    3    3    0    0  0.72565104465E+01  0.10218399118E+02 -0.64466567837E+02  0.65673518202E+02  0.00000000000E+00 0. -1.
         13    1    5    5    0    0  0.35135721957E+02 -0.61054354074E+02  0.11867386502E+03  0.13800593954E+03  0.00000000000E+00 0. -1.
        -14    1    5    5    0    0 -0.34169114036E+02 -0.40276762198E+02  0.17659349967E+03  0.18432311319E+03  0.00000000000E+00 0.  1.
          5    1    4    4  501    0  0.25868600755E+02 -0.87798859281E+01  0.11936947675E+03  0.12252679413E+03  0.41800000000E+01 0. -1.
         -5    1    4    4    0  501 -0.83954026864E+02  0.43280075758E+01  0.58102097152E+02  0.10227578584E+03  0.41800000000E+01 0. -1.
</event>
<event>
11    1  0.8037748E-009  0.1613316E+03  0.7561462E-02  0.1085832E+00
         22   -1    0    0    0    0  0.00000000000E+00  0.00000000000E+00  0.15423175045E+04  0.15423175045E+04  0.00000000000E+00 0. -1.
         22   -1    0    0    0    0 -0.00000000000E+00 -0.00000000000E+00 -0.31305178965E+03  0.31305178965E+03  0.00000000000E+00 0. -1.
        -24    2    1    2    0    0  0.61393032193E+02 -0.39277218595E+02 -0.27321936080E+03  0.29414448192E+03  0.80996004999E+02 0.  0.
         25    2    1    2    0    0 -0.36839675187E+01  0.12309078930E+03  0.27677281706E+03  0.32774132657E+03  0.12508505446E+03 0.  0.
         24    2    1    2    0    0 -0.57709064674E+02 -0.83813570703E+02  0.12257122586E+04  0.12334834857E+04  0.93573061109E+02 0.  0.
        -13    1    5    5    0    0  0.95090464818E+01  0.15442009531E+02  0.18680230984E+03  0.18768052798E+03  0.00000000000E+00 0.  1.
         14    1    5    5    0    0 -0.67218111156E+02 -0.99255580234E+02  0.10389099488E+04  0.10458029577E+04  0.00000000000E+00 0. -1.
         11    1    3    3    0    0 -0.92803115888E+01 -0.37096420273E+02 -0.98061992380E+02  0.10525408747E+03  0.00000000000E+00 0. -1.
        -12    1    3    3    0    0  0.70673343782E+02 -0.21807983220E+01 -0.17515736842E+03  0.18889039445E+03  0.00000000000E+00 0.  1.
          5    1    4    4  501    0  0.31886498730E+02  0.36668398164E+02  0.20250507963E+03  0.20829570303E+03  0.41800000000E+01 0.  1.
         -5    1    4    4    0  501 -0.35570466249E+02  0.86422391134E+02  0.74267737425E+02  0.11944562353E+03  0.41800000000E+01 0.  1.
</event>
<event>
11    1  0.8037748E-009  0.1508737E+03  0.7561462E-02  0.1095989E+00
         22   -1    0    0    0    0  0.00000000000E+00  0.00000000000E+00  0.34251724413E+04  0.34251724413E+04  0.00000000000E+00 0. -1.
         22   -1    0    0    0    0 -0.00000000000E+00 -0.00000000000E+00 -0.36278284393E+03  0.36278284393E+03  0.00000000000E+00 0. -1.
        -24    2    1    2    0    0 -0.75203943224E+02  0.80056382776E+00 -0.31861074350E+03  0.33790968664E+03  0.83748889377E+02 0.  0.
         25    2    1    2    0    0  0.84537258578E+02 -0.84331350365E+02  0.18969143243E+03  0.25668840565E+03  0.12509106008E+03 0.  0.
         24    2    1    2    0    0 -0.93333153538E+01  0.83530786537E+02  0.31913089084E+04  0.31933571929E+04  0.77544242243E+02 0.  0.
        -11    1    5    5    0    0  0.24040562063E+02  0.49887992991E+02  0.23945559788E+04  0.23951962542E+04  0.00000000000E+00 0.  1.
         12    1    5    5    0    0 -0.33373877417E+02  0.33642793546E+02  0.79675292963E+03  0.79816093873E+03  0.00000000000E+00 0. -1.
         11    1    3    3    0    0 -0.64389092787E+02 -0.22185690285E+02 -0.29653331375E+03  0.30425345731E+03  0.00000000000E+00 0. -1.
        -12    1    3    3    0    0 -0.10814850437E+02  0.22986254113E+02 -0.22077429753E+02  0.33656229329E+02  0.00000000000E+00 0.  1.
          5    1    4    4  501    0  0.78904555638E+02 -0.10592345913E+03  0.19283368744E+03  0.23376914148E+03  0.41800000000E+01 0. -1.
         -5    1    4    4    0  501  0.56327029403E+01  0.21592108767E+02 -0.31422550113E+01  0.22919264168E+02  0.41800000000E+01 0. -1.
</event>
<event>
11    1  0.8037748E-009  0.1465915E+03  0.7561462E-02  0.1100413E+00
         22   -1    0    0    0    0  0.00000000000E+00  0.00000000000E+00  0.62777681550E+03  0.62777681550E+03  0.00000000000E+00 0.  1.
         22   -1    0    0    0    0 -0.00000000000E+00 -0.00000000000E+00 -0.56400663882E+03  0.56400663882E+03  0.00000000000E+00 0. -1.
         24    2    1    2    0    0  0.63048340065E+02 -0.37775396809E+02 -0.45377187127E+03  0.46675548426E+03  0.80930199171E+02 0.  0.
         25    2    1    2    0    0 -0.83079704689E+02  0.70620623975E+02 -0.31104516911E+02  0.16882422522E+03  0.12507844813E+03 0.  0.
        -24    2    1    2    0    0  0.20031364624E+02 -0.32845227166E+02  0.54864656487E+03  0.55620374484E+03  0.82882375198E+02 0.  0.
        -13    1    3    3    0    0  0.28618462199E+02 -0.15639806641E+02 -0.43097868432E+02  0.54046703820E+02  0.00000000000E+00 0.  1.
         14    1    3    3    0    0  0.34429877867E+02 -0.22135590168E+02 -0.41067400284E+03  0.41270878044E+03  0.00000000000E+00 0. -1.
         13    1    5    5    0    0 -0.21574131371E+01 -0.19902289551E+02  0.25463859032E+02  0.32390796187E+02  0.00000000000E+00 0. -1.
        -14    1    5    5    0    0  0.22188777761E+02 -0.12942937614E+02  0.52318270584E+03  0.52381294866E+03  0.00000000000E+00 0.  1.
          5    1    4    4  501    0 -0.59143489445E+02  0.87153269208E+02  0.22415023995E+02  0.10776618383E+03  0.41800000000E+01 0.  1.
         -5    1    4    4    0  501 -0.23936215244E+02 -0.16532645233E+02 -0.53519540906E+02  0.61058041382E+02  0.41800000000E+01 0.  1.
</event>
<event>
11    1  0.8037748E-009  0.1795143E+03  0.7561462E-02  0.1070036E+00
         22   -1    0    0    0    0  0.00000000000E+00  0.00000000000E+00  0.88218712895E+03  0.88218712895E+03  0.00000000000E+00 0. -1.
         22   -1    0    0    0    0 -0.00000000000E+00 -0.00000000000E+00 -0.67442425530E+03  0.67442425530E+03  0.00000000000E+00 0.  1.
        -24    2    1    2    0    0  0.59227419525E+02  0.11237820997E+03 -0.57172025961E+03  0.59121821449E+03  0.80858967331E+02 0.  0.
         25    2    1    2    0    0 -0.79521956409E+02 -0.12411787564E+03  0.12187183286E+02  0.19371587597E+03  0.12509326345E+03 0.  0.
         24    2    1    2    0    0  0.20294536885E+02  0.11739665673E+02  0.76729594997E+03  0.77167729379E+03  0.78696143070E+02 0.  0.
        -11    1    5    5    0    0 -0.22577913139E+02 -0.43635230495E+01  0.49679485255E+03  0.49732678192E+03  0.00000000000E+00 0.  1.
         12    1    5    5    0    0  0.42872450023E+02  0.16103188723E+02  0.27050109742E+03  0.27435051187E+03  0.00000000000E+00 0. -1.
         13    1    3    3    0    0  0.36022908728E+02  0.85329640748E+02 -0.23463984976E+03  0.25225910616E+03  0.00000000000E+00 0. -1.
        -14    1    3    3    0    0  0.23204510796E+02  0.27048569222E+02 -0.33708040985E+03  0.33895910834E+03  0.00000000000E+00 0.  1.
          5    1    4    4  501    0 -0.10214928703E+02 -0.36726402441E+02 -0.52266713585E+02  0.64826346139E+02  0.41800000000E+01 0. -1.
         -5    1    4    4    0  501 -0.69307027706E+02 -0.87391473203E+02  0.64453896871E+02  0.12888952983E+03  0.41800000000E+01 0. -1.
</event>
<event>
11    1  0.8037748E-009  0.1554980E+03  0.7561462E-02  0.1091390E+00
         22   -1    0    0    0    0  0.00000000000E+00  0.00000000000E+00  0.42166569815E+03  0.42166569815E+03  0.00000000000E+00 0.  1.
         22   -1    0    0    0    0 -0.00000000000E+00 -0.00000000000E+00 -0.10759091647E+04  0.10759091647E+04  0.00000000000E+00 0.  1.
         24    2    1    2    0    0  0.41427459375E+02 -0.67038334395E+02 -0.52599308246E+03  0.53801250834E+03  0.81107112275E+02 0.  0.
         25    2    1    2    0    0 -0.65959614324E+02  0.10638466628E+03 -0.52407820401E+03  0.55314909803E+03  0.12509033853E+03 0.  0.
        -24    2    1    2    0    0  0.24532154950E+02 -0.39346331886E+02  0.39582781989E+03  0.40641325650E+03  0.79637375669E+02 0.  0.
        -11    1    3    3    0    0  0.19206399843E+02 -0.40358937675E+02 -0.88523760286E+02  0.99167463315E+02  0.00000000000E+00 0.  1.
         12    1    3    3    0    0  0.22221059532E+02 -0.26679396721E+02 -0.43746932218E+03  0.43884504502E+03  0.00000000000E+00 0. -1.
         11    1    5    5    0    0  0.12847391412E+02  0.22589124032E+02  0.72931793342E+02  0.77423319941E+02  0.00000000000E+00 0. -1.
        -12    1    5    5    0    0  0.11684763537E+02 -0.61935455918E+02  0.32289602655E+03  0.32898993656E+03  0.00000000000E+00 0.  1.
          5    1    4    4  501    0 -0.78843418876E+02  0.11218440049E+02 -0.26846447185E+03  0.28005853521E+03  0.41800000000E+01 0. -1.
         -5    1    4    4    0  501  0.12883804552E+02  0.95166226232E+02 -0.25561373216E+03  0.27309056282E+03  0.41800000000E+01 0. -1.
</event>
<event>
11    1  0.8037748E-009  0.1549184E+03  0.7561462E-02  0.1091956E+00
         22   -1    0    0    0    0  0.00000000000E+00  0.00000000000E+00  0.47282869417E+03  0.47282869417E+03  0.00000000000E+00 0. -1.
         22   -1    0    0    0    0 -0.00000000000E+00 -0.00000000000E+00 -0.41695129923E+04  0.41695129923E+04  0.00000000000E+00 0. -1.
        -24    2    1    2    0    0  0.73129875641E+01  0.70615387241E+02 -0.41155602155E+04  0.41169083754E+04  0.77837469595E+02 0.  0.
         25    2    1    2    0    0 -0.31192300587E+02 -0.14217472278E+03  0.18314755948E+03  0.26528847829E+03  0.12509331220E+03 0.  0.
         24    2    1    2    0    0  0.23879313023E+02  0.71559335540E+02  0.23572835788E+03  0.26014483275E+03  0.80103153511E+02 0.  0.
        -13    1    5    5    0    0 -0.66220541558E+00  0.23370395232E+02  0.60001997696E+01  0.24137445734E+02  0.00000000000E+00 0.  1.
         14    1    5    5    0    0  0.24541518438E+02  0.48188940308E+02  0.22972815811E+03  0.23600738701E+03  0.00000000000E+00 0. -1.
         13    1    3    3    0    0  0.29271642955E+02  0.76420258778E+02 -0.29938499709E+04  0.29949682023E+04  0.00000000000E+00 0. -1.
        -14    1    3    3    0    0 -0.21958655391E+02 -0.58048715375E+01 -0.11217102446E+04  0.11219401731E+04  0.00000000000E+00 0.  1.
          5    1    4    4  501    0 -0.64630847188E+02 -0.39153122310E+02  0.39604507405E+02  0.85417227780E+02  0.41800000000E+01 0.  1.
         -5    1    4    4    0  501  0.33438546601E+02 -0.10302160047E+03  0.14354305207E+03  0.17987125051E+03  0.41800000000E+01 0.  1.
</event>
<event>
11    1  0.8037748E-009  0.1419250E+03  0.7561462E-02  0.1105428E+00
         22   -1    0    0    0    0  0.00000000000E+00  0.00000000000E+00  0.28493241629E+04  0.28493241629E+04  0.00000000000E+00 0.  1.
         22   -1    0    0    0    0 -0.00000000000E+00 -0.00000000000E+00 -0.83349632070E+02  0.83349632070E+02  0.00000000000E+00 0. -1.
        -24    2    1    2    0    0 -0.64100263843E+02 -0.12794022188E+02 -0.20801787423E+02  0.12931414575E+03  0.10962163611E+03 0.  0.
         25    2    1    2    0    0  0.10383494647E+03 -0.33495116749E+02  0.94070578950E+03  0.95523746501E+03  0.12509042014E+03 0.  0.
         24    2    1    2    0    0 -0.39734682631E+02  0.46289138937E+02  0.18460705288E+04  0.18481221842E+04  0.62110234431E+02 0.  0.
        -11    1    5    5    0    0 -0.34836357377E+02  0.51346846572E+02  0.18216619645E+04  0.18227184049E+04  0.00000000000E+00 0.  1.
         12    1    5    5    0    0 -0.48983252536E+01 -0.50577076356E+01  0.24408564260E+02  0.25403779365E+02  0.00000000000E+00 0. -1.
         11    1    3    3    0    0 -0.35809319866E+01  0.37550991214E+02 -0.32420234568E+02  0.49739035219E+02  0.00000000000E+00 0. -1.
        -12    1    3    3    0    0 -0.60519331857E+02 -0.50345013402E+02  0.11618447145E+02  0.79575110536E+02  0.00000000000E+00 0.  1.
          5    1    4    4  501    0  0.63402535463E+02  0.44590855332E+02  0.47087575765E+03  0.47723126199E+03  0.41800000000E+01 0.  1.
         -5    1    4    4    0  501  0.40432411011E+02 -0.78085972081E+02  0.46983003185E+03  0.47800620302E+03  0.41800000000E+01 0.  1.
</event>
<event>
11    1  0.8037748E-009  0.1447766E+03  0.7561462E-02  0.1102339E+00
         22   -1    0    0    0    0  0.00000000000E+00  0.00000000000E+00  0.19009465813E+03  0.19009465813E+03  0.00000000000E+00 0. -1.
         22   -1    0    0    0    0 -0.00000000000E+00 -0.00000000000E+00 -0.58079727867E+03  0.58079727867E+03  0.00000000000E+00 0.  1.
        -24    2    1    2    0    0  0.64376668441E+02 -0.25255326670E+02 -0.43829594437E+03  0.45066669865E+03  0.78834963382E+02 0.  0.
         25    2    1    2    0    0 -0.10859331178E+03  0.17798799336E+02 -0.61501731254E+02  0.17759290478E+03  0.12508985674E+03 0.  0.
         24    2    1    2    0    0  0.44216643338E+02  0.74565273342E+01  0.10909505509E+03  0.14263233337E+03  0.80196883546E+02 0.  0.
        -11    1    5    5    0    0  0.46840962250E+02  0.32290379864E+02  0.41067558045E+02  0.70166150671E+02  0.00000000000E+00 0.  1.
         12    1    5    5    0    0 -0.26243189114E+01 -0.24833852530E+02  0.68027497046E+02  0.72466182703E+02  0.00000000000E+00 0. -1.
         13    1    3    3    0    0 -0.12021391602E+02 -0.22828425378E+02 -0.15990254748E+03  0.16197060089E+03  0.00000000000E+00 0. -1.
        -14    1    3    3    0    0  0.76398060044E+02 -0.24269012925E+01 -0.27839339689E+03  0.28869609776E+03  0.00000000000E+00 0.  1.
          5    1    4    4  501    0  0.16241423921E+02  0.22901077723E+02  0.13898572152E+02  0.31605156537E+02  0.41800000000E+01 0. -1.
         -5    1    4    4    0  501 -0.12483473570E+03 -0.51022783865E+01 -0.75400303406E+02  0.14598774824E+03  0.41800000000E+01 0. -1.
</event>
<event>
11    1  0.8037748E-009  0.2654048E+03  0.7561462E-02  0.1015998E+00
         22   -1    0    0    0    0  0.00000000000E+00  0.00000000000E+00  0.16844430143E+03  0.16844430143E+03  0.00000000000E+00 0.  1.
         22   -1    0    0    0    0 -0.00000000000E+00 -0.00000000000E+00 -0.21413454745E+04  0.21413454745E+04  0.00000000000E+00 0. -1.
         24    2    1    2    0    0  0.10615378325E+03  0.21775006492E+03 -0.12705517295E+04  0.12959384501E+04  0.80442852573E+02 0.  0.
         25    2    1    2    0    0  0.32354823905E+01 -0.23641312568E+03 -0.80123406010E+03  0.84470445914E+03  0.12509184584E+03 0.  0.
        -24    2    1    2    0    0 -0.10938926564E+03  0.18663060765E+02  0.98884616522E+02  0.16914686673E+03  0.80735208341E+02 0.  0.
        -13    1    3    3    0    0  0.19548195301E+02  0.32474349489E+02 -0.39514131045E+03  0.39695512409E+03  0.00000000000E+00 0.  1.
         14    1    3    3    0    0  0.86605587952E+02  0.18527571543E+03 -0.87541041905E+03  0.89898332597E+03  0.00000000000E+00 0. -1.
         11    1    5    5    0    0 -0.25974752251E+02  0.32529124414E+01 -0.12606524066E+02  0.29055010633E+02  0.00000000000E+00 0. -1.
        -12    1    5    5    0    0 -0.83414513393E+02  0.15410148324E+02  0.11149114059E+03  0.14009185610E+03  0.00000000000E+00 0.  1.
          5    1    4    4  501    0 -0.47536765554E+02 -0.19802029723E+03 -0.60746335564E+03  0.64070350634E+03  0.41800000000E+01 0.  1.
         -5    1    4    4    0  501  0.50772247945E+02 -0.38392828453E+02 -0.19377070446E+03  0.20400095280E+03  0.41800000000E+01 0.  1.
</event>
<event>
11    1  0.8037748E-009  0.2324380E+03  0.7561462E-02  0.1033694E+00
         22   -1    0    0    0    0  0.00000000000E+00  0.00000000000E+00  0.16388936110E+04  0.16388936110E+04  0.00000000000E+00 0. -1.
         22   -1    0    0    0    0 -0.00000000000E+00 -0.00000000000E+00 -0.13870555642E+04  0.13870555642E+04  0.00000000000E+00 0.  1.
         24    2    1    2    0    0  0.19369705544E+03 -0.31121349954E+02 -0.13263559453E+04  0.13431303336E+04  0.79321570822E+02 0.  0.
         25    2    1    2    0    0 -0.19616284278E+03 -0.46185473374E+02  0.23148679550E+03  0.33143025907E+03  0.12508765447E+03 0.  0.
        -24    2    1    2    0    0  0.24657873406E+01  0.77306823328E+02  0.13467071966E+04  0.13513885825E+04  0.81537737511E+02 0.  0.
        -11    1    3    3    0    0  0.18005229976E+03 -0.17453552013E+02 -0.10018736226E+04  0.10180737757E+04  0.00000000000E+00 0.  1.
         12    1    3    3    0    0  0.13644755672E+02 -0.13667797941E+02 -0.32448232275E+03  0.32505655790E+03  0.00000000000E+00 0. -1.
         13    1    5    5    0    0 -0.61653231672E+01  0.85263448174E+00  0.71308090727E+03  0.71310806931E+03  0.00000000000E+00 0. -1.
        -14    1    5    5    0    0  0.86311105078E+01  0.76454188846E+02  0.63362628931E+03  0.63828051322E+03  0.00000000000E+00 0.  1.
          5    1    4    4  501    0 -0.10865867811E+03 -0.60357870548E+02  0.20329067551E+03  0.23831565626E+03  0.41800000000E+01 0.  1.
         -5    1    4    4    0  501 -0.87504164666E+02  0.14172397174E+02  0.28196119988E+02  0.93114602818E+02  0.41800000000E+01 0.  1.
</event>
<event>
11    1  0.8037748E-009  0.3418188E+03  0.7561462E-02  0.9838975E-01
         22   -1    0    0    0    0  0.00000000000E+00  0.00000000000E+00  0.51873629754E+03  0.51873629754E+03  0.00000000000E+00 0.  1.
         22   -1    0    0    0    0 -0.00000000000E+00 -0.00000000000E+00 -0.27131936897E+04  0.27131936897E+04  0.00000000000E+00 0. -1.
         24    2    1    2    0    0 -0.25917598286E+03 -0.18409522672E+03 -0.24748830231E+04  0.24964709552E+04  0.79107579826E+02 0.  0.
         25    2    1    2    0    0  0.27606168848E+03  0.16491030453E+03 -0.89058418239E+02  0.35634790671E+03  0.12508782662E+03 0.  0.
        -24    2    1    2    0    0 -0.16885705625E+02  0.19184922196E+02  0.36948404921E+03  0.37911112538E+03  0.80954273991E+02 0.  0.
        -13    1    3    3    0    0 -0.23042099500E+01  0.58328944604E+01 -0.22143978148E+02  0.23014947523E+02  0.00000000000E+00 0.  1.
         14    1    3    3    0    0 -0.25687177291E+03 -0.18992812118E+03 -0.24527390450E+04  0.24734560076E+04  0.00000000000E+00 0. -1.
         13    1    5    5    0    0  0.46711958195E+01  0.43388941925E+02  0.12314249873E+03  0.13064645171E+03  0.00000000000E+00 0. -1.
        -14    1    5    5    0    0 -0.21556901444E+02 -0.24204019729E+02  0.24634155048E+03  0.24846467367E+03  0.00000000000E+00 0.  1.
          5    1    4    4  501    0  0.27357065154E+03  0.16141299284E+03 -0.10874867667E+03  0.33576599398E+03  0.41800000000E+01 0.  1.
         -5    1    4    4    0  501  0.24910369469E+01  0.34973116906E+01  0.19690258435E+02  0.20581912724E+02  0.41800000000E+01 0.  1.
</event>
<event>
11    1  0.8037748E-009  0.2411570E+03  0.7561462E-02  0.1028718E+00
         22   -1    0    0    0    0  0.00000000000E+00  0.00000000000E+00  0.65038022111E+03  0.65038022111E+03  0.00000000000E+00 0. -1.
         22   -1    0    0    0    0 -0.00000000000E+00 -0.00000000000E+00 -0.17952064450E+03  0.17952064450E+03  0.00000000000E+00 0. -1.
        -24    2    1    2    0    0  0.19356245921E+03  0.75128651065E+02 -0.31036606312E+02  0.22521278782E+03  0.81527842119E+02 0.  0.
         25    2    1    2    0    0 -0.17900506424E+03 -0.94485978418E+02  0.27867186997E+03  0.36643404954E+03  0.12508192677E+03 0.  0.
         24    2    1    2    0    0 -0.14557394972E+02  0.19357327352E+02  0.22322431294E+03  0.23825402826E+03  0.79682270432E+02 0.  0.
        -11    1    5    5    0    0 -0.38946052252E+02  0.31708012207E+02  0.98445754418E+02  0.11051587934E+03  0.00000000000E+00 0.  1.
         12    1    5    5    0    0  0.24388657279E+02 -0.12350684854E+02  0.12477855853E+03  0.12773814892E+03  0.00000000000E+00 0. -1.
         11    1    3    3    0    0  0.15501979544E+03  0.82759332498E+02 -0.48377829608E+02  0.18226535187E+03  0.00000000000E+00 0. -1.
        -12    1    3    3    0    0  0.38542663764E+02 -0.76306814328E+01  0.17341223296E+02  0.42947435949E+02  0.00000000000E+00 0.  1.
          5    1    4    4  501    0 -0.65506157005E+02 -0.33152175117E+02  0.20504621413E+03  0.21783375691E+03  0.41800000000E+01 0. -1.
         -5    1    4    4    0  501 -0.11349890723E+03 -0.61333803301E+02  0.73625655841E+02  0.14860029262E+03  0.41800000000E+01 0. -1.
</event>
<event>
11    1  0.8037748E-009  0.1398764E+03  0.7561462E-02  0.1107697E+00
         22   -1    0    0    0    0  0.00000000000E+00  0.00000000000E+00  0.11163944469E+04  0.11163944469E+04  0.00000000000E+00 0.  1.
         22   -1    0    0    0    0 -0.00000000000E+00 -0.00000000000E+00 -0.23946036324E+04  0.23946036324E+04  0.00000000000E+00 0. -1.
         24    2    1    2    0    0  0.42192703547E+01 -0.62214665577E+02 -0.22704655124E+04  0.22727205418E+04  0.79727983039E+02 0.  0.
         25    2    1    2    0    0 -0.26820768399E+02  0.71131229065E+02 -0.77199911265E+02  0.16547812593E+03  0.12507669046E+03 0.  0.
        -24    2    1    2    0    0  0.22601498045E+02 -0.89165634875E+01  0.10694562381E+04  0.10727994115E+04  0.81065401349E+02 0.  0.
        -13    1    3    3    0    0 -0.15468912632E+02  0.13291945289E+02 -0.28876456922E+03  0.28948391925E+03  0.00000000000E+00 0.  1.
         14    1    3    3    0    0  0.19688182987E+02 -0.75506610866E+02 -0.19817009432E+04  0.19832366226E+04  0.00000000000E+00 0. -1.
         13    1    5    5    0    0 -0.23533634326E+02 -0.88856011262E+01  0.14303619618E+03  0.14523133020E+03  0.00000000000E+00 0. -1.
        -14    1    5    5    0    0  0.46135132371E+02 -0.30962361231E-01  0.92642004194E+03  0.92756808133E+03  0.00000000000E+00 0.  1.
          5    1    4    4  501    0 -0.30215399851E+02 -0.27519681158E+02 -0.16696123157E+01  0.41116459532E+02  0.41800000000E+01 0. -1.
         -5    1    4    4    0  501  0.33946314515E+01  0.98650910223E+02 -0.75530298949E+02  0.12436166640E+03  0.41800000000E+01 0. -1.
</event>
<event>
11    1  0.8037748E-009  0.1374790E+03  0.7561462E-02  0.1110407E+00
         22   -1    0    0    0    0  0.00000000000E+00  0.00000000000E+00  0.22451339847E+03  0.22451339847E+03  0.00000000000E+00 0.  1.
         22   -1    0    0    0    0 -0.00000000000E+00 -0.00000000000E+00 -0.60227299608E+03  0.60227299608E+03  0.00000000000E+00 0.  1.
        -24    2    1    2    0    0 -0.65996669016E+01 -0.56210956648E+02 -0.48145898237E+03  0.49144182926E+03  0.80678947577E+02 0.  0.
         25    2    1    2    0    0  0.35343444229E+02  0.56947713174E+02 -0.57344471297E+02  0.15305821890E+03  0.12508488677E+03 0.  0.
         24    2    1    2    0    0 -0.28743777327E+02 -0.73675652636E+00  0.16104385606E+03  0.18228634639E+03  0.80414183817E+02 0.  0.
        -13    1    5    5    0    0  0.12937328218E+02 -0.29733900716E+02  0.43600256542E+02  0.54336559366E+02  0.00000000000E+00 0.  1.
         14    1    5    5    0    0 -0.41681105545E+02  0.28997144190E+02  0.11744359952E+03  0.12794978702E+03  0.00000000000E+00 0. -1.
         11    1    3    3    0    0  0.16131330101E+02  0.50988611966E+01 -0.24176416670E+02  0.29507919603E+02  0.00000000000E+00 0. -1.
        -12    1    3    3    0    0 -0.22730997002E+02 -0.61309817845E+02 -0.45728256570E+03  0.46193390965E+03  0.00000000000E+00 0.  1.
          5    1    4    4  501    0  0.22550666094E+02 -0.26109822238E+02  0.18858226184E+02  0.39539353224E+02  0.41800000000E+01 0. -1.
         -5    1    4    4    0  501  0.12792778135E+02  0.83057535412E+02 -0.76202697481E+02  0.11351886568E+03  0.41800000000E+01 0. -1.
</event>
<event>
11    1  0.8037748E-009  0.1640965E+03  0.7561462E-02  0.1083286E+00
         22   -1    0    0    0    0  0.00000000000E+00  0.00000000000E+00  0.13945126512E+03  0.13945126512E+03  0.00000000000E+00 0. -1.
         22   -1    0    0    0    0 -0.00000000000E+00 -0.00000000000E+00 -0.41805147309E+04  0.41805147309E+04  0.00000000000E+00 0. -1.
         24    2    1    2    0    0 -0.10522282105E+03 -0.11735351566E+02 -0.38960794779E+04  0.38983797294E+04  0.81973510947E+02 0.  0.
         25    2    1    2    0    0  0.11872542732E+03 -0.33952057528E+02 -0.23434263223E+03  0.29293850358E+03  0.12509207927E+03 0.  0.
        -24    2    1    2    0    0 -0.13502606269E+02  0.45687409094E+02  0.89358644343E+02  0.12864776297E+03  0.79344942329E+02 0.  0.
        -13    1    3    3    0    0 -0.47972388740E+01  0.24196705003E+02 -0.10786811943E+04  0.10789632120E+04  0.00000000000E+00 0.  1.
         14    1    3    3    0    0 -0.10042558218E+03 -0.35932056569E+02 -0.28173982836E+04  0.28194165174E+04  0.00000000000E+00 0. -1.
         13    1    5    5    0    0 -0.29174295427E+02  0.44777793081E+02  0.97333220182E+02  0.11104029007E+03  0.00000000000E+00 0. -1.
        -14    1    5    5    0    0  0.15671689158E+02  0.90961601329E+00 -0.79745758391E+01  0.17607472907E+02  0.00000000000E+00 0.  1.
          5    1    4    4  501    0  0.74329121502E+02  0.38909400285E+02 -0.77249899501E+02  0.11412177315E+03  0.41800000000E+01 0.  1.
         -5    1    4    4    0  501  0.44396305818E+02 -0.72861457813E+02 -0.15709273273E+03  0.17881673043E+03  0.41800000000E+01 0.  1.
</event>
<event>
11    1  0.8037748E-009  0.1301252E+03  0.7561462E-02  0.1119115E+00
         22   -1    0    0    0    0  0.00000000000E+00  0.00000000000E+00  0.23070873642E+03  0.23070873642E+03  0.00000000000E+00 0. -1.
         22   -1    0    0    0    0 -0.00000000000E+00 -0.00000000000E+00 -0.27547822083E+03  0.27547822083E+03  0.00000000000E+00 0. -1.
        -24    2    1    2    0    0 -0.65481929410E+00 -0.38116982651E+02 -0.11795880871E+03  0.14828585751E+03  0.81370030291E+02 0.  0.
         25    2    1    2    0    0 -0.29715085196E+02  0.14629201176E+02 -0.92939282922E+02  0.15932044728E+03  0.12509314448E+03 0.  0.
         24    2    1    2    0    0  0.30369904491E+02  0.23487781475E+02  0.16612860722E+03  0.19858065245E+03  0.10179172075E+03 0.  0.
        -13    1    5    5    0    0 -0.17134910598E+02 -0.85020389831E+01 -0.35874151589E+01  0.19461741330E+02  0.00000000000E+00 0.  1.
         14    1    5    5    0    0  0.47504815089E+02  0.31989820458E+02  0.16971602238E+03  0.17911891112E+03  0.00000000000E+00 0. -1.
         13    1    3    3    0    0  0.18201382040E+02 -0.17087640463E+02 -0.11741043960E+03  0.12003536600E+03  0.00000000000E+00 0. -1.
        -14    1    3    3    0    0 -0.18856201334E+02 -0.21029342188E+02 -0.54836911304E+00  0.28250491506E+02  0.00000000000E+00 0.  1.
          5    1    4    4  501    0 -0.54711853994E+02  0.51814411358E+02 -0.84923425945E+02  0.11361153492E+03  0.41800000000E+01 0.  1.
         -5    1    4    4    0  501  0.24996768798E+02 -0.37185210182E+02 -0.80158569769E+01  0.45708912366E+02  0.41800000000E+01 0.  1.
</event>
<event>
11    1  0.1297578E-008  0.1864186E+03  0.7561462E-02  0.1064566E+00
         22   -1    0    0    0    0  0.00000000000E+00  0.00000000000E+00  0.66695522666E+03  0.66695522666E+03  0.00000000000E+00 0. -1.
         22   -1    0    0    0    0 -0.00000000000E+00 -0.00000000000E+00 -0.30879361512E+03  0.30879361512E+03  0.00000000000E+00 0. -1.
        -24    2    1    2    0    0  0.30366742698E+02 -0.42047035760E+02 -0.21706911575E+03  0.24937360244E+03  0.11125691126E+03 0.  0.
         25    2    1    2    0    0  0.10601325462E+03  0.78273569745E+02  0.68611835725E+02  0.19421927493E+03  0.12509188973E+03 0.  0.
         24    2    1    2    0    0 -0.13637999732E+03 -0.36226533985E+02  0.50661889156E+03  0.53215596440E+03  0.81335132183E+02 0.  0.
        -11    1    5    5    0    0 -0.88768631848E+01 -0.73269403235E+01  0.30706219743E+01  0.11912660232E+02  0.00000000000E+00 0.  1.
         12    1    5    5    0    0 -0.12750313414E+03 -0.28899593661E+02  0.50354826959E+03  0.52024330417E+03  0.00000000000E+00 0. -1.
         13    1    3    3    0    0  0.81996029329E+01 -0.54703713141E+02 -0.21690507296E+03  0.22384713622E+03  0.00000000000E+00 0. -1.
        -14    1    3    3    0    0  0.22167139765E+02  0.12656677381E+02 -0.16404279319E+00  0.25526466221E+02  0.00000000000E+00 0.  1.
          5    1    4    4  501    0  0.76386367415E+02  0.55947521671E+02 -0.21059325687E+02  0.97087434339E+02  0.41800000000E+01 0.  1.
         -5    1    4    4    0  501  0.29626887208E+02  0.22326048073E+02  0.89671161411E+02  0.97131840593E+02  0.41800000000E+01 0.  1.
</event>
<event>
11    1  0.8037748E-009  0.1349957E+03  0.7561462E-02  0.1113279E+00
         22   -1    0    0    0    0  0.00000000000E+00  0.00000000000E+00  0.55280040640E+03  0.55280040640E+03  0.00000000000E+00 0.  1.
         22   -1    0    0    0    0 -0.00000000000E+00 -0.00000000000E+00 -0.54231201546E+03  0.54231201546E+03  0.00000000000E+00 0.  1.
        -24    2    1    2    0    0  0.26704298312E+02  0.12513078819E+02 -0.38626692722E+03  0.39581098963E+03  0.81206549986E+02 0.  0.
         25    2    1    2    0    0 -0.59704740692E+02  0.25767053500E+02 -0.11306128713E+03  0.18071198623E+03  0.12508145431E+03 0.  0.
         24    2    1    2    0    0  0.33000442380E+02 -0.38280132319E+02  0.50981660529E+03  0.51858944600E+03  0.80421668406E+02 0.  0.
        -11    1    5    5    0    0  0.79501633714E+01  0.30218348438E+01  0.37970757008E+03  0.37980281115E+03  0.00000000000E+00 0.  1.
         12    1    5    5    0    0  0.25050279008E+02 -0.41301967163E+02  0.13010903521E+03  0.13878663485E+03  0.00000000000E+00 0. -1.
         11    1    3    3    0    0  0.15000951104E+02  0.23384813457E+00 -0.76984606004E+01  0.16862666295E+02  0.00000000000E+00 0. -1.
        -12    1    3    3    0    0  0.11703347208E+02  0.12279230685E+02 -0.37856846662E+03  0.37894832334E+03  0.00000000000E+00 0.  1.
          5    1    4    4  501    0 -0.46428503959E+02 -0.28868748179E+02 -0.11156527768E+03  0.12431127940E+03  0.41800000000E+01 0.  1.
         -5    1    4    4    0  501 -0.13276236733E+02  0.54635801679E+02 -0.14960094457E+01  0.56400706832E+02  0.41800000000E+01 0.  1.
</event>
<event>
11    1  0.8037748E-009  0.1372944E+03  0.7561462E-02  0.1110618E+00
         22   -1    0    0    0    0  0.00000000000E+00  0.00000000000E+00  0.11358428481E+03  0.11358428481E+03  0.00000000000E+00 0.  1.
         22   -1    0    0    0    0 -0.00000000000E+00 -0.00000000000E+00 -0.11804194973E+04  0.11804194973E+04  0.00000000000E+00 0.  1.
         24    2    1    2    0    0  0.37838309606E+02  0.40598146392E+02 -0.79422596618E+03  0.80026209249E+03  0.80898604172E+02 0.  0.
         25    2    1    2    0    0 -0.61863276656E+02 -0.24669349397E+02 -0.35571845093E+03  0.38290768079E+03  0.12508810446E+03 0.  0.
        -24    2    1    2    0    0  0.24024967050E+02 -0.15928796995E+02  0.83109204627E+02  0.11083400882E+03  0.67424861891E+02 0.  0.
        -11    1    3    3    0    0  0.38380043387E+02  0.63075109701E+02 -0.66596343436E+03  0.67004387401E+03  0.00000000000E+00 0.  1.
         12    1    3    3    0    0 -0.54173378145E+00 -0.22476963308E+02 -0.12826253182E+03  0.13021821848E+03  0.00000000000E+00 0. -1.
         13    1    5    5    0    0  0.14006234670E+02 -0.31979406463E+02  0.11484856483E+02  0.36752673043E+02  0.00000000000E+00 0. -1.
        -14    1    5    5    0    0  0.10018732380E+02  0.16050609468E+02  0.71624348145E+02  0.74081335773E+02  0.00000000000E+00 0.  1.
          5    1    4    4  501    0  0.34842503007E+02 -0.23713023555E+02 -0.14420067713E+03  0.15029176686E+03  0.41800000000E+01 0.  1.
         -5    1    4    4    0  501 -0.96705779663E+02 -0.95632584190E+00 -0.21151777380E+03  0.23261591393E+03  0.41800000000E+01 0.  1.
</event>
<event>
11    1  0.8037748E-009  0.1509245E+03  0.7561462E-02  0.1095938E+00
         22   -1    0    0    0    0  0.00000000000E+00  0.00000000000E+00  0.13846196585E+03  0.13846196585E+03  0.00000000000E+00 0.  1.
         22   -1    0    0    0    0 -0.00000000000E+00 -0.00000000000E+00 -0.12265696449E+04  0.12265696449E+04  0.00000000000E+00 0.  1.
        -24    2    1    2    0    0  0.73522887882E+02 -0.31240541067E+02 -0.92886650485E+03  0.93577764108E+03  0.80654964317E+02 0.  0.
         25    2    1    2    0    0 -0.11160747049E+03  0.46129216663E+02 -0.24697500814E+03  0.30204035118E+03  0.12509031536E+03 0.  0.
         24    2    1    2    0    0  0.38084582611E+02 -0.14888675596E+02  0.87733833951E+02  0.12721361848E+03  0.82546780762E+02 0.  0.
        -13    1    5    5    0    0  0.62241080692E+02  0.15422038850E+00  0.70060774925E+02  0.93714929935E+02  0.00000000000E+00 0.  1.
         14    1    5    5    0    0 -0.24156498080E+02 -0.15042895984E+02  0.17673059026E+02  0.33498688548E+02  0.00000000000E+00 0. -1.
         13    1    3    3    0    0 -0.87596066711E+01 -0.20135558288E+02 -0.38339101842E+03  0.38401932819E+03  0.00000000000E+00 0. -1.
        -14    1    3    3    0    0  0.82282494554E+02 -0.11104982779E+02 -0.54547548643E+03  0.55175831289E+03  0.00000000000E+00 0.  1.
          5    1    4    4  501    0 -0.44850276349E+02  0.53137080667E+02 -0.31754759921E+02  0.76556735876E+02  0.41800000000E+01 0. -1.
         -5    1    4    4    0  501 -0.66757194145E+02 -0.70078640042E+01 -0.21522024822E+03  0.22548361531E+03  0.41800000000E+01 0. -1.
</event>
<event>
11    1  0.8037748E-009  0.1362630E+03  0.7561462E-02  0.1111805E+00
         22   -1    0    0    0    0  0.00000000000E+00  0.00000000000E+00  0.99786198128E+03  0.99786198128E+03  0.00000000000E+00 0. -1.
         22   -1    0    0    0    0 -0.00000000000E+00 -0.00000000000E+00 -0.67204131377E+02  0.67204131377E+02  0.00000000000E+00 0. -1.
         24    2    1    2    0    0  0.29420047996E+02 -0.32542337832E+02  0.17932574094E+02  0.92167091774E+02  0.79048419445E+02 0.  0.
         25    2    1    2    0    0 -0.64847059899E+02 -0.87929865687E+01  0.15966262730E+03  0.21312475192E+03  0.12509015761E+03 0.  0.
        -24    2    1    2    0    0  0.35427011903E+02  0.41335324401E+02  0.75306264851E+03  0.75977426897E+03  0.84793307496E+02 0.  0.
        -13    1    3    3    0    0  0.41669803297E+02 -0.26977906388E+02  0.41716287195E+02  0.64841565043E+02  0.00000000000E+00 0.  1.
         14    1    3    3    0    0 -0.12249755300E+02 -0.55644314440E+01 -0.23783713102E+02  0.27325526731E+02  0.00000000000E+00 0. -1.
         11    1    5    5    0    0  0.33455941122E+02  0.83311078362E+01  0.66196443111E+03  0.66286168648E+03  0.00000000000E+00 0. -1.
        -12    1    5    5    0    0  0.19710707808E+01  0.33004216565E+02  0.91098217400E+02  0.96912582488E+02  0.00000000000E+00 0.  1.
          5    1    4    4  501    0  0.21978183622E+02 -0.30033462074E+01  0.11113129017E+03  0.11340060272E+03  0.41800000000E+01 0. -1.
         -5    1    4    4    0  501 -0.86825243521E+02 -0.57896403613E+01  0.48531337138E+02  0.99724149193E+02  0.41800000000E+01 0. -1.
</event>
<event>
11    1  0.8037748E-009  0.1557472E+03  0.7561462E-02  0.1091147E+00
         22   -1    0    0    0    0  0.00000000000E+00  0.00000000000E+00  0.32190356108E+03  0.32190356108E+03  0.00000000000E+00 0.  1.
         22   -1    0    0    0    0 -0.00000000000E+00 -0.00000000000E+00 -0.63271765944E+03  0.63271765944E+03  0.00000000000E+00 0.  1.
         24    2    1    2    0    0 -0.17210447016E+02 -0.55854590659E+02 -0.44607972928E+03  0.45747758316E+03  0.82961915579E+02 0.  0.
         25    2    1    2    0    0  0.10692539247E+03  0.33507227233E+02 -0.12557217573E+03  0.20969301910E+03  0.12508803743E+03 0.  0.
        -24    2    1    2    0    0 -0.89714945457E+02  0.22347363426E+02  0.26083780665E+03  0.28745061826E+03  0.77738796425E+02 0.  0.
        -11    1    3    3    0    0 -0.31993925048E+02 -0.47829682783E+02 -0.43119092430E+03  0.43501368139E+03  0.00000000000E+00 0.  1.
         12    1    3    3    0    0  0.14783478033E+02 -0.80249078769E+01 -0.14888804978E+02  0.22463901772E+02  0.00000000000E+00 0. -1.
         13    1    5    5    0    0 -0.54264059675E+02  0.30718493345E+02  0.72518084379E+02  0.95640402382E+02  0.00000000000E+00 0. -1.
        -14    1    5    5    0    0 -0.35450885783E+02 -0.83711299187E+01  0.18831972228E+03  0.19181021588E+03  0.00000000000E+00 0.  1.
          5    1    4    4  501    0  0.12162819543E+03  0.54448530403E+02 -0.75276114828E+02  0.15310789088E+03  0.41800000000E+01 0. -1.
         -5    1    4    4    0  501 -0.14702802953E+02 -0.20941303170E+02 -0.50296060902E+02  0.56585128217E+02  0.41800000000E+01 0. -1.
</event>
<event>
11    1  0.8968890E-009  0.2613636E+03  0.7561462E-02  0.1018014E+00
         22   -1    0    0    0    0  0.00000000000E+00  0.00000000000E+00  0.17040533049E+04  0.17040533049E+04  0.00000000000E+00 0.  1.
         22   -1    0    0    0    0 -0.00000000000E+00 -0.00000000000E+00 -0.76656427654E+03  0.76656427654E+03  0.00000000000E+00 0. -1.
        -24    2    1    2    0    0 -0.13296823062E+03 -0.17258923850E+03 -0.57190707783E+03  0.61959816860E+03  0.96729464298E+02 0.  0.
         25    2    1    2    0    0  0.14743117170E+03  0.28250831959E+03  0.69925609333E+01  0.34240774382E+03  0.12508903265E+03 0.  0.
         24    2    1    2    0    0 -0.14462941087E+02 -0.10991908109E+03  0.15024035452E+04  0.15086116690E+04  0.80008587605E+02 0.  0.
        -11    1    5    5    0    0 -0.43722493455E+02 -0.51960415099E+02  0.94567847988E+03  0.94811356307E+03  0.00000000000E+00 0.  1.
         12    1    5    5    0    0  0.29259552369E+02 -0.57958665991E+02  0.55672506536E+03  0.56049810595E+03  0.00000000000E+00 0. -1.
         11    1    3    3    0    0 -0.14437454869E+03 -0.13005896228E+03 -0.46256906482E+03  0.50172650290E+03  0.00000000000E+00 0. -1.
        -12    1    3    3    0    0  0.11406318076E+02 -0.42530276221E+02 -0.10933801301E+03  0.11787166570E+03  0.00000000000E+00 0.  1.
          5    1    4    4  501    0  0.10208074506E+03  0.75116262791E+02  0.25223602131E+02  0.12929282251E+03  0.41800000000E+01 0.  1.
         -5    1    4    4    0  501  0.45350426642E+02  0.20739205680E+03 -0.18231041198E+02  0.21311492131E+03  0.41800000000E+01 0.  1.
</event>
<event>
11    1  0.8037748E-009  0.3213103E+03  0.7561462E-02  0.9915549E-01
         22   -1    0    0    0    0  0.00000000000E+00  0.00000000000E+00  0.52953559602E+03  0.52953559602E+03  0.00000000000E+00 0.  1.
         22   -1    0    0    0    0 -0.00000000000E+00 -0.00000000000E+00 -0.36300987616E+04  0.36300987616E+04  0.00000000000E+00 0.  1.
         24    2    1    2    0    0  0.29364816275E+03 -0.69712227885E+02 -0.34178583253E+04  0.34321089654E+04  0.80792205065E+02 0.  0.
         25    2    1    2    0    0 -0.18382598992E+03  0.15595423614E+03 -0.92833037533E+02  0.28701813450E+03  0.12509084031E+03 0.  0.
        -24    2    1    2    0    0 -0.10982217283E+03 -0.86242008259E+02  0.41012819729E+03  0.44050725767E+03  0.79642402124E+02 0.  0.
        -13    1    3    3    0    0  0.18305998149E+03 -0.16380418929E+02 -0.23610608454E+04  0.23682034521E+04  0.00000000000E+00 0.  1.
         14    1    3    3    0    0  0.11058818127E+03 -0.53331808956E+02 -0.10567974799E+04  0.10639055133E+04  0.00000000000E+00 0. -1.
         13    1    5    5    0    0 -0.39800171696E+02 -0.24084023672E+01  0.48736573719E+02  0.62969101049E+02  0.00000000000E+00 0. -1.
        -14    1    5    5    0    0 -0.70022001132E+02 -0.83833605892E+02  0.36139162357E+03  0.37753815662E+03  0.00000000000E+00 0.  1.
          5    1    4    4  501    0 -0.52349042548E+02 -0.10412511214E+02 -0.44198082006E+02  0.69424674997E+02  0.41800000000E+01 0.  1.
         -5    1    4    4    0  501 -0.13147694737E+03  0.16636674736E+03 -0.48634955527E+02  0.21759345950E+03  0.41800000000E+01 0.  1.
</event>
<event>
11    1  0.8037748E-009  0.1446301E+03  0.7561462E-02  0.1102496E+00
         22   -1    0    0    0    0  0.00000000000E+00  0.00000000000E+00  0.11209021493E+04  0.11209021493E+04  0.00000000000E+00 0. -1.
         22   -1    0    0    0    0 -0.00000000000E+00 -0.00000000000E+00 -0.31479534935E+03  0.31479534935E+03  0.00000000000E+00 0. -1.
         24    2    1    2    0    0  0.50778477397E+01 -0.63225641649E+01 -0.26596551054E+03  0.27798252567E+03  0.80441733081E+02 0.  0.
         25    2    1    2    0    0 -0.46744913159E+02  0.65087875119E+02  0.98623336252E+02  0.17831163246E+03  0.12508779886E+03 0.  0.
        -24    2    1    2    0    0  0.41667065420E+02 -0.58765310954E+02  0.97344897425E+03  0.97940334053E+03  0.80240213549E+02 0.  0.
        -13    1    3    3    0    0  0.19181639811E+02 -0.33721232184E+01 -0.10528559143E+02  0.22139491377E+02  0.00000000000E+00 0.  1.
         14    1    3    3    0    0 -0.14103792071E+02 -0.29504409465E+01 -0.25543695140E+03  0.25584303429E+03  0.00000000000E+00 0. -1.
         13    1    5    5    0    0  0.31711365259E+02 -0.79073840298E+02  0.76142619252E+03  0.76617760967E+03  0.00000000000E+00 0. -1.
        -14    1    5    5    0    0  0.99557001603E+01  0.20308529344E+02  0.21202278173E+03  0.21322573086E+03  0.00000000000E+00 0.  1.
          5    1    4    4  501    0  0.34913277868E+02 -0.81752476528E+01  0.10685684801E+02  0.37648743742E+02  0.41800000000E+01 0. -1.
         -5    1    4    4    0  501 -0.81658191027E+02  0.73263122772E+02  0.87937651451E+02  0.14066288872E+03  0.41800000000E+01 0. -1.
</event>
<event>
11    1  0.8037748E-009  0.1633565E+03  0.7561462E-02  0.1083962E+00
         22   -1    0    0    0    0  0.00000000000E+00  0.00000000000E+00  0.11106832845E+04  0.11106832845E+04  0.00000000000E+00 0.  1.
         22   -1    0    0    0    0 -0.00000000000E+00 -0.00000000000E+00 -0.21285014012E+03  0.21285014012E+03  0.00000000000E+00 0.  1.
        -24    2    1    2    0    0 -0.62654663528E+02 -0.18743695801E+02 -0.17521380818E+03  0.20647909223E+03  0.87503165409E+02 0.  0.
         25    2    1    2    0    0 -0.39249644172E+02  0.78404717901E+02  0.37287927270E+03  0.40295634828E+03  0.12508809797E+03 0.  0.
         24    2    1    2    0    0  0.10190430770E+03 -0.59661022100E+02  0.70016767989E+03  0.71409798414E+03  0.75876382981E+02 0.  0.
        -13    1    5    5    0    0  0.10043056003E+03 -0.45657562843E+02  0.68319419577E+03  0.69204423238E+03  0.00000000000E+00 0.  1.
         14    1    5    5    0    0  0.14737476730E+01 -0.14003459257E+02  0.16973484122E+02  0.22053751759E+02  0.00000000000E+00 0. -1.
         13    1    3    3    0    0 -0.15688121008E+02  0.19640892339E+02 -0.12567281091E+03  0.12816215195E+03  0.00000000000E+00 0. -1.
        -14    1    3    3    0    0 -0.46966542520E+02 -0.38384588140E+02 -0.49540997273E+02  0.78316940273E+02  0.00000000000E+00 0.  1.
          5    1    4    4  501    0 -0.47866257066E+02  0.27848713753E+02  0.46173021369E+02  0.72222916900E+02  0.41800000000E+01 0. -1.
         -5    1    4    4    0  501  0.86166128946E+01  0.50556004148E+02  0.32670625133E+03  0.33073343138E+03  0.41800000000E+01 0. -1.
</event>
<event>
11    1  0.8037748E-009  0.1332950E+03  0.7561462E-02  0.1115285E+00
         22   -1    0    0    0    0  0.00000000000E+00  0.00000000000E+00  0.70529033050E+03  0.70529033050E+03  0.00000000000E+00 0.  1.
         22   -1    0    0    0    0 -0.00000000000E+00 -0.00000000000E+00 -0.45889963044E+03  0.45889963044E+03  0.00000000000E+00 0.  1.
         24    2    1    2    0    0  0.29905526837E+02 -0.12226923105E+02 -0.18906316151E+03  0.20836026070E+03  0.81395829208E+02 0.  0.
         25    2    1    2    0    0 -0.72930253098E+02 -0.33199027318E+01 -0.23657353893E+03  0.27738858179E+03  0.12509013715E+03 0.  0.
        -24    2    1    2    0    0  0.43024726261E+02  0.15546825836E+02  0.67202740051E+03  0.67844111846E+03  0.81047475692E+02 0.  0.
        -11    1    3    3    0    0  0.53219208190E+02 -0.18053377060E+02 -0.87497823778E+02  0.10399075781E+03  0.00000000000E+00 0.  1.
         12    1    3    3    0    0 -0.23313681353E+02  0.58264539557E+01 -0.10156533774E+03  0.10436950289E+03  0.00000000000E+00 0. -1.
         11    1    5    5    0    0 -0.14362120272E+02  0.10483034890E+02  0.39763251068E+02  0.43557785237E+02  0.00000000000E+00 0. -1.
        -12    1    5    5    0    0  0.57386846533E+02  0.50637909461E+01  0.63226414944E+03  0.63488333322E+03  0.00000000000E+00 0.  1.
          5    1    4    4  501    0 -0.24024356120E+02  0.12146566258E+02 -0.22232679791E+03  0.22398970116E+03  0.41800000000E+01 0. -1.
         -5    1    4    4    0  501 -0.48905896979E+02 -0.15466468990E+02 -0.14246741023E+02  0.53398880626E+02  0.41800000000E+01 0. -1.
</event>
<event>
11    1  0.8037748E-009  0.2033977E+03  0.7561462E-02  0.1052147E+00
         22   -1    0    0    0    0  0.00000000000E+00  0.00000000000E+00  0.90025798781E+03  0.90025798781E+03  0.00000000000E+00 0. -1.
         22   -1    0    0    0    0 -0.00000000000E+00 -0.00000000000E+00 -0.39961887144E+03  0.39961887144E+03  0.00000000000E+00 0. -1.
         24    2    1    2    0    0  0.14094111976E+03 -0.91462227088E+02 -0.34121025910E+03  0.38776075900E+03  0.75526333660E+02 0.  0.
         25    2    1    2    0    0 -0.79514463446E+02  0.51621379144E+02  0.16919046377E+03  0.23078184224E+03  0.12509008352E+03 0.  0.
        -24    2    1    2    0    0 -0.61426656316E+02  0.39840847944E+02  0.67265891171E+03  0.68133425801E+03  0.79911403281E+02 0.  0.
        -13    1    3    3    0    0  0.82562188491E+02 -0.32194061610E+02 -0.24520077537E+03  0.26072282757E+03  0.00000000000E+00 0.  1.
         14    1    3    3    0    0  0.58378931271E+02 -0.59268165478E+02 -0.96009483731E+02  0.12703793143E+03  0.00000000000E+00 0. -1.
         13    1    5    5    0    0  0.44096719906E+01  0.35663351193E+02  0.36015718334E+03  0.36194546072E+03  0.00000000000E+00 0. -1.
        -14    1    5    5    0    0 -0.65836328307E+02  0.41774967504E+01  0.31250172837E+03  0.31938879729E+03  0.00000000000E+00 0.  1.
          5    1    4    4  501    0 -0.85712026568E+02 -0.10722564673E+02  0.13199101651E+03  0.15779932107E+03  0.41800000000E+01 0.  1.
         -5    1    4    4    0  501  0.61975631226E+01  0.62343943818E+02  0.37199447264E+02  0.72982521169E+02  0.41800000000E+01 0.  1.
</event>
<event>
11    1  0.8037748E-009  0.1328346E+03  0.7561462E-02  0.1115834E+00
         22   -1    0    0    0    0  0.00000000000E+00  0.00000000000E+00  0.16893796629E+04  0.16893796629E+04  0.00000000000E+00 0.  1.
         22   -1    0    0    0    0 -0.00000000000E+00 -0.00000000000E+00 -0.76017417458E+02  0.76017417458E+02  0.00000000000E+00 0.  1.
         24    2    1    2    0    0 -0.18932926685E+02 -0.62213852729E+01 -0.38456326529E+02  0.91341889197E+02  0.80419464835E+02 0.  0.
         25    2    1    2    0    0  0.30117417415E+02  0.47575398875E+02  0.49528781903E+03  0.51393432596E+03  0.12509192744E+03 0.  0.
        -24    2    1    2    0    0 -0.11184490730E+02 -0.41354013602E+02  0.11565307529E+04  0.11601208652E+04  0.80509577716E+02 0.  0.
        -11    1    3    3    0    0  0.12905277084E+02 -0.12425729659E+02 -0.52887569491E+02  0.55839412074E+02  0.00000000000E+00 0.  1.
         12    1    3    3    0    0 -0.31838203768E+02  0.62043443858E+01  0.14431242961E+02  0.35502477123E+02  0.00000000000E+00 0. -1.
         11    1    5    5    0    0  0.32019708119E+02 -0.56428393432E+01  0.29964903317E+03  0.30140777432E+03  0.00000000000E+00 0. -1.
        -12    1    5    5    0    0 -0.43204198849E+02 -0.35711174259E+02  0.85688171973E+03  0.85871309083E+03  0.00000000000E+00 0.  1.
          5    1    4    4  501    0 -0.38909714327E+02  0.49228095504E+02  0.16724708483E+03  0.17867968838E+03  0.41800000000E+01 0. -1.
         -5    1    4    4    0  501  0.69027131742E+02 -0.16526966298E+01  0.32804073420E+03  0.33525463757E+03  0.41800000000E+01 0. -1.
</event>
<event>
11    1  0.8037748E-009  0.1496328E+03  0.7561462E-02  0.1097255E+00
         22   -1    0    0    0    0  0.00000000000E+00  0.00000000000E+00  0.28153896161E+04  0.28153896161E+04  0.00000000000E+00 0. -1.
         22   -1    0    0    0    0 -0.00000000000E+00 -0.00000000000E+00 -0.13400006807E+04  0.13400006807E+04  0.00000000000E+00 0.  1.
        -24    2    1    2    0    0 -0.83129598456E+02  0.21727690952E+02 -0.11993224890E+04  0.12050508432E+04  0.79940474099E+02 0.  0.
         25    2    1    2    0    0  0.35155697894E+02 -0.22856227081E+02 -0.10528703109E+03  0.16879323320E+03  0.12508983351E+03 0.  0.
         24    2    1    2    0    0  0.47973900562E+02  0.11285361290E+01  0.27799984555E+04  0.27815462204E+04  0.79405256514E+02 0.  0.
        -11    1    5    5    0    0  0.26510070113E+00 -0.66435756305E+01  0.20205845709E+04  0.20205955101E+04  0.00000000000E+00 0.  1.
         12    1    5    5    0    0  0.47708799860E+02  0.77721117595E+01  0.75941388465E+03  0.76095071030E+03  0.00000000000E+00 0. -1.
         13    1    3    3    0    0  0.11992142640E+02 -0.35572378577E+01 -0.31864277652E+03  0.31888820056E+03  0.00000000000E+00 0. -1.
        -14    1    3    3    0    0 -0.95121741096E+02  0.25284928810E+02 -0.88067971247E+03  0.88616264264E+03  0.00000000000E+00 0.  1.
          5    1    4    4  501    0  0.59947524339E+02 -0.54306710655E+02 -0.99207308607E+02  0.12807219440E+03  0.41800000000E+01 0.  1.
         -5    1    4    4    0  501 -0.24791826445E+02  0.31450483573E+02 -0.60797224823E+01  0.40721038800E+02  0.41800000000E+01 0.  1.
</event>
<event>
11    1  0.8037748E-009  0.1469334E+03  0.7561462E-02  0.1100054E+00
         22   -1    0    0    0    0  0.00000000000E+00  0.00000000000E+00  0.65207790760E+03  0.65207790760E+03  0.00000000000E+00 0. -1.
         22   -1    0    0    0    0 -0.00000000000E+00 -0.00000000000E+00 -0.82382700736E+03  0.82382700736E+03  0.00000000000E+00 0. -1.
         24    2    1    2    0    0 -0.49183519346E+02  0.16406602930E+01 -0.74000302382E+03  0.74581363862E+03  0.78814960208E+02 0.  0.
         25    2    1    2    0    0  0.85957202511E+02  0.64290759472E+02  0.14463501511E+02  0.16547824924E+03  0.12510761639E+03 0.  0.
        -24    2    1    2    0    0 -0.36773683165E+02 -0.65931419765E+02  0.55379042255E+03  0.56461302710E+03  0.80029884261E+02 0.  0.
        -11    1    3    3    0    0 -0.43341740962E+02  0.26025903862E+02 -0.24426592416E+03  0.24944277076E+03  0.00000000000E+00 0.  1.
         12    1    3    3    0    0 -0.58417783835E+01 -0.24385243569E+02 -0.49573709966E+03  0.49637086786E+03  0.00000000000E+00 0. -1.
         11    1    5    5    0    0 -0.78516644461E+01 -0.60759676817E+02  0.49613263115E+03  0.49990096484E+03  0.00000000000E+00 0. -1.
        -12    1    5    5    0    0 -0.28922018719E+02 -0.51717429475E+01  0.57657791404E+02  0.64712062257E+02  0.00000000000E+00 0.  1.
          5    1    4    4  501    0  0.37481624530E+02 -0.36651872723E+02  0.84071153578E+01  0.53257712494E+02  0.41800000000E+01 0. -1.
         -5    1    4    4    0  501  0.48475577981E+02  0.10094263219E+03  0.60563861534E+01  0.11222053675E+03  0.41800000000E+01 0. -1.
</event>
<event>
11    1  0.8037748E-009  0.1313544E+03  0.7561462E-02  0.1117616E+00
         22   -1    0    0    0    0  0.00000000000E+00  0.00000000000E+00  0.11286718681E+03  0.11286718681E+03  0.00000000000E+00 0.  1.
         22   -1    0    0    0    0 -0.00000000000E+00 -0.00000000000E+00 -0.20794895273E+04  0.20794895273E+04  0.00000000000E+00 0. -1.
         24    2    1    2    0    0  0.34285742022E+02  0.23044293465E+02 -0.17671036439E+04  0.17692609929E+04  0.76958569357E+02 0.  0.
         25    2    1    2    0    0 -0.24981095872E+02 -0.63842708364E+01 -0.28004934646E+03  0.30779765172E+03  0.12508774477E+03 0.  0.
        -24    2    1    2    0    0 -0.93046461500E+01 -0.16660022629E+02  0.80530649810E+02  0.11529806947E+03  0.80276562396E+02 0.  0.
        -11    1    3    3    0    0  0.25017192526E+02 -0.54211969872E+00 -0.15894319454E+03  0.16090087914E+03  0.00000000000E+00 0.  1.
         12    1    3    3    0    0  0.92685494964E+01  0.23586413164E+02 -0.16081604493E+04  0.16083601138E+04  0.00000000000E+00 0. -1.
         13    1    5    5    0    0  0.15294396103E+02 -0.33826018388E+02  0.96877380464E+01  0.38366265659E+02  0.00000000000E+00 0. -1.
        -14    1    5    5    0    0 -0.24599042253E+02  0.17165995759E+02  0.70842911764E+02  0.76931803809E+02  0.00000000000E+00 0.  1.
          5    1    4    4  501    0  0.34096162730E+02 -0.40020569363E+02 -0.74662609273E+02  0.91412099355E+02  0.41800000000E+01 0.  1.
         -5    1    4    4    0  501 -0.59077258603E+02  0.33636298527E+02 -0.20538673719E+03  0.21638555237E+03  0.41800000000E+01 0.  1.
</event>
<event>
11    1  0.8037748E-009  0.1276282E+03  0.7561462E-02  0.1122218E+00
         22   -1    0    0    0    0  0.00000000000E+00  0.00000000000E+00  0.75691513990E+02  0.75691513990E+02  0.00000000000E+00 0. -1.
         22   -1    0    0    0    0 -0.00000000000E+00 -0.00000000000E+00 -0.30533887661E+04  0.30533887661E+04  0.00000000000E+00 0.  1.
         24    2    1    2    0    0 -0.29597818174E+02 -0.95744227748E+01 -0.18291527845E+04  0.18311084920E+04  0.78681002205E+02 0.  0.
         25    2    1    2    0    0  0.20193921931E+02 -0.14382386739E+02 -0.11944793745E+04  0.12012671991E+04  0.12508900862E+03 0.  0.
        -24    2    1    2    0    0  0.94038962437E+01  0.23956809514E+02  0.45934906901E+02  0.96704588920E+02  0.81113499860E+02 0.  0.
        -13    1    3    3    0    0 -0.34546099202E+02 -0.29943169371E+02 -0.16643856692E+04  0.16650134180E+04  0.00000000000E+00 0.  1.
         14    1    3    3    0    0  0.49482810280E+01  0.20368746596E+02 -0.16476711535E+03  0.16609507405E+03  0.00000000000E+00 0. -1.
         11    1    5    5    0    0  0.33225370100E+02 -0.17143259475E+02  0.23587289683E+02  0.44206071962E+02  0.00000000000E+00 0. -1.
        -12    1    5    5    0    0 -0.23821473856E+02  0.41100068988E+02  0.22347617218E+02  0.52498516959E+02  0.00000000000E+00 0.  1.
          5    1    4    4  501    0 -0.22337262067E+02 -0.58429824021E+02 -0.74214736912E+03  0.74479070047E+03  0.41800000000E+01 0.  1.
         -5    1    4    4    0  501  0.42531183998E+02  0.44047437282E+02 -0.45233200535E+03  0.45647649864E+03  0.41800000000E+01 0.  1.
</event>
<event>
11    1  0.8037748E-009  0.1746375E+03  0.7561462E-02  0.1074065E+00
         22   -1    0    0    0    0  0.00000000000E+00  0.00000000000E+00  0.62813274161E+02  0.62813274161E+02  0.00000000000E+00 0.  1.
         22   -1    0    0    0    0 -0.00000000000E+00 -0.00000000000E+00 -0.32280970287E+04  0.32280970287E+04  0.00000000000E+00 0. -1.
         24    2    1    2    0    0  0.92014222560E+01  0.97845111459E+01 -0.21976965904E+04  0.21992862105E+04  0.82517449897E+02 0.  0.
         25    2    1    2    0    0  0.30870897167E+02 -0.12423113559E+03 -0.92252206980E+03  0.93972468120E+03  0.12509644216E+03 0.  0.
        -24    2    1    2    0    0 -0.40072319423E+02  0.11444662445E+03 -0.45065094376E+02  0.15189941117E+03  0.79616253059E+02 0.  0.
        -11    1    3    3    0    0 -0.22955743505E+02 -0.26486128598E+02 -0.87493402472E+03  0.87563578546E+03  0.00000000000E+00 0.  1.
         12    1    3    3    0    0  0.32157165761E+02  0.36270639744E+02 -0.13227625657E+04  0.13236504251E+04  0.00000000000E+00 0. -1.
         11    1    5    5    0    0 -0.30909112816E+01  0.10609285746E+03 -0.40949903697E+02  0.11376353875E+03  0.00000000000E+00 0. -1.
        -12    1    5    5    0    0 -0.36981408141E+02  0.83537669925E+01 -0.41151906786E+01  0.38135872422E+02  0.00000000000E+00 0.  1.
          5    1    4    4  501    0 -0.11951495429E+01 -0.89786837489E+02 -0.83871055060E+03  0.84351405718E+03  0.41800000000E+01 0. -1.
         -5    1    4    4    0  501  0.32066046710E+02 -0.34444298106E+02 -0.83811519198E+02  0.96210624018E+02  0.41800000000E+01 0. -1.
</event>
<event>
11    1  0.8037748E-009  0.9205932E+03  0.7561462E-02  0.8758440E-01
         22   -1    0    0    0    0  0.00000000000E+00  0.00000000000E+00  0.35831871650E+03  0.35831871650E+03  0.00000000000E+00 0. -1.
         22   -1    0    0    0    0 -0.00000000000E+00 -0.00000000000E+00 -0.59129744199E+03  0.59129744199E+03  0.00000000000E+00 0. -1.
        -24    2    1    2    0    0  0.62676337550E+00 -0.19996093764E+03 -0.24257390627E+02  0.21717358223E+03  0.81186048093E+02 0.  0.
         25    2    1    2    0    0  0.78507587086E+01  0.38119332839E+03 -0.31264511817E+03  0.50868887694E+03  0.12508963023E+03 0.  0.
         24    2    1    2    0    0 -0.84775220841E+01 -0.18123239075E+03  0.10392378331E+03  0.22375369932E+03  0.79677583939E+02 0.  0.
        -11    1    5    5    0    0 -0.26627214294E+02 -0.99843685945E+02  0.19626477051E+02  0.10518064825E+03  0.00000000000E+00 0.  1.
         12    1    5    5    0    0  0.18149692210E+02 -0.81388704804E+02  0.84297306260E+02  0.11857305107E+03  0.00000000000E+00 0. -1.
         11    1    3    3    0    0 -0.26703060903E+02 -0.13630764104E+03  0.11208498280E+02  0.13935012344E+03  0.00000000000E+00 0. -1.
        -12    1    3    3    0    0  0.27329824278E+02 -0.63653296600E+02 -0.35465888907E+02  0.77823458796E+02  0.00000000000E+00 0.  1.
          5    1    4    4  501    0  0.21372988283E+02  0.37726966032E+03 -0.31712825616E+03  0.49333254958E+03  0.41800000000E+01 0.  1.
         -5    1    4    4    0  501 -0.13522229574E+02  0.39236680740E+01  0.44831379896E+01  0.15356327362E+02  0.41800000000E+01 0.  1.
</event>
<event>
11    1  0.8037748E-009  0.1496757E+03  0.7561462E-02  0.1097211E+00
         22   -1    0    0    0    0  0.00000000000E+00  0.00000000000E+00  0.70988399327E+03  0.70988399327E+03  0.00000000000E+00 0. -1.
         22   -1    0    0    0    0 -0.00000000000E+00 -0.00000000000E+00 -0.21792049284E+03  0.21792049284E+03  0.00000000000E+00 0. -1.
        -24    2    1    2    0    0  0.43191668032E+02 -0.70597048528E+02 -0.16046306474E+03  0.19809299757E+03  0.81504460558E+02 0.  0.
         25    2    1    2    0    0 -0.53896624285E+02  0.57498794486E+02  0.12631649262E+03  0.19445847295E+03  0.12508910391E+03 0.  0.
         24    2    1    2    0    0  0.10704956253E+02  0.13098254042E+02  0.52611007255E+03  0.53525301559E+03  0.97045463090E+02 0.  0.
        -13    1    5    5    0    0 -0.23652668473E+01 -0.24764231660E+01 -0.37065776991E+01  0.50463726770E+01  0.00000000000E+00 0.  1.
         14    1    5    5    0    0  0.13070223100E+02  0.15574677208E+02  0.52981665025E+03  0.53020664291E+03  0.00000000000E+00 0. -1.
         11    1    3    3    0    0  0.44008538730E+02 -0.58595327701E+02 -0.16841856748E+03  0.18367084085E+03  0.00000000000E+00 0. -1.
        -12    1    3    3    0    0 -0.81687069774E+00 -0.12001720827E+02  0.79555027334E+01  0.14422156714E+02  0.00000000000E+00 0.  1.
          5    1    4    4  501    0 -0.71414272173E+02  0.73142163295E+02  0.48795420272E+02  0.11335007614E+03  0.41800000000E+01 0.  1.
         -5    1    4    4    0  501  0.17517647888E+02 -0.15643368809E+02  0.77521072345E+02  0.81108396808E+02  0.41800000000E+01 0.  1.
</event>
<event>
11    1  0.8037748E-009  0.1311425E+03  0.7561462E-02  0.1117873E+00
         22   -1    0    0    0    0  0.00000000000E+00  0.00000000000E+00  0.30783928898E+03  0.30783928898E+03  0.00000000000E+00 0. -1.
         22   -1    0    0    0    0 -0.00000000000E+00 -0.00000000000E+00 -0.75707966110E+03  0.75707966110E+03  0.00000000000E+00 0.  1.
        -24    2    1    2    0    0 -0.14992065389E+02  0.15985802230E+02 -0.51567156273E+03  0.52170852334E+03  0.76041533528E+02 0.  0.
         25    2    1    2    0    0 -0.21606440521E+01 -0.51185729304E+02 -0.21179977348E+03  0.25125867660E+03  0.12508849368E+03 0.  0.
         24    2    1    2    0    0  0.17152709441E+02  0.35199927073E+02  0.27823096409E+03  0.29195175015E+03  0.79310180486E+02 0.  0.
        -11    1    5    5    0    0 -0.15765587451E+02  0.16984529316E+02  0.18893823265E+02  0.29899908717E+02  0.00000000000E+00 0.  1.
         12    1    5    5    0    0  0.32918296891E+02  0.18215397758E+02  0.25933714083E+03  0.26205184143E+03  0.00000000000E+00 0. -1.
         13    1    3    3    0    0  0.29526600624E+02  0.11511340521E+02 -0.15010082502E+03  0.15340987183E+03  0.00000000000E+00 0. -1.
        -14    1    3    3    0    0 -0.44518666012E+02  0.44744617086E+01 -0.36557073771E+03  0.36829865151E+03  0.00000000000E+00 0.  1.
          5    1    4    4  501    0  0.16701590557E+02 -0.74678394143E+02 -0.20665816768E+03  0.22041069926E+03  0.41800000000E+01 0.  1.
         -5    1    4    4    0  501 -0.18862234609E+02  0.23492664840E+02 -0.51416058044E+01  0.30847977340E+02  0.41800000000E+01 0.  1.
</event>
<event>
11    1  0.8037748E-009  0.1458224E+03  0.7561462E-02  0.1101225E+00
         22   -1    0    0    0    0  0.00000000000E+00  0.00000000000E+00  0.84102102507E+03  0.84102102507E+03  0.00000000000E+00 0.  1.
         22   -1    0    0    0    0 -0.00000000000E+00 -0.00000000000E+00 -0.30070528299E+03  0.30070528299E+03  0.00000000000E+00 0.  1.
         24    2    1    2    0    0  0.50469290834E+02  0.55262206430E+02 -0.24207313812E+03  0.26441852758E+03  0.75608813953E+02 0.  0.
         25    2    1    2    0    0 -0.57670567986E+02 -0.12269536752E+03  0.16049785030E+03  0.24452460752E+03  0.12511065546E+03 0.  0.
        -24    2    1    2    0    0  0.72012771513E+01  0.67433161093E+02  0.62189102990E+03  0.63278317296E+03  0.95220802859E+02 0.  0.
        -11    1    3    3    0    0  0.66760124613E+02  0.51049965851E+02 -0.22611487350E+03  0.24122800266E+03  0.00000000000E+00 0.  1.
         12    1    3    3    0    0 -0.16290833778E+02  0.42122405791E+01 -0.15958264627E+02  0.23190524915E+02  0.00000000000E+00 0. -1.
         13    1    5    5    0    0  0.34497772366E+02  0.42119644317E+02  0.15266291988E+03  0.16208062143E+03  0.00000000000E+00 0. -1.
        -14    1    5    5    0    0 -0.27296495215E+02  0.25313516776E+02  0.46922811002E+03  0.47070255153E+03  0.00000000000E+00 0.  1.
          5    1    4    4  501    0 -0.52295480770E+00 -0.15366474689E+02  0.11267579630E+03  0.11379679037E+03  0.41800000000E+01 0.  1.
         -5    1    4    4    0  501 -0.57147613178E+02 -0.10732889283E+03  0.47822053999E+02  0.13072781715E+03  0.41800000000E+01 0.  1.
</event>
<event>
11    1  0.8037748E-009  0.1972495E+03  0.7561462E-02  0.1056486E+00
         22   -1    0    0    0    0  0.00000000000E+00  0.00000000000E+00  0.29041492546E+03  0.29041492546E+03  0.00000000000E+00 0. -1.
         22   -1    0    0    0    0 -0.00000000000E+00 -0.00000000000E+00 -0.45753496734E+03  0.45753496734E+03  0.00000000000E+00 0. -1.
         24    2    1    2    0    0  0.33668435923E+01 -0.62715310123E+01 -0.27759028725E+03  0.28983549063E+03  0.83051648508E+02 0.  0.
         25    2    1    2    0    0 -0.13336762836E+02  0.15716913853E+03 -0.66673409203E+02  0.21206787396E+03  0.12508969710E+03 0.  0.
        -24    2    1    2    0    0  0.99699192434E+01 -0.15089760752E+03  0.17714365457E+03  0.24604652821E+03  0.79306572531E+02 0.  0.
        -11    1    3    3    0    0 -0.21833466941E+02  0.57836781923E+01 -0.18368385510E+02  0.29112691362E+02  0.00000000000E+00 0.  1.
         12    1    3    3    0    0  0.25200310533E+02 -0.12055209205E+02 -0.25922190174E+03  0.26072279927E+03  0.00000000000E+00 0. -1.
         11    1    5    5    0    0  0.19168556490E+02 -0.10976749728E+03  0.71730560801E+02  0.13252022627E+03  0.00000000000E+00 0. -1.
        -12    1    5    5    0    0 -0.91986372465E+01 -0.41130110236E+02  0.10541309377E+03  0.11352630194E+03  0.00000000000E+00 0.  1.
          5    1    4    4  501    0 -0.62690814733E+02  0.12899887889E+03 -0.38828877631E+02  0.14864724399E+03  0.41800000000E+01 0.  1.
         -5    1    4    4    0  501  0.49354051898E+02  0.28170259640E+02 -0.27844531572E+02  0.63420629967E+02  0.41800000000E+01 0.  1.
</event>
<event>
11    1  0.8037748E-009  0.1406510E+03  0.7561462E-02  0.1106834E+00
         22   -1    0    0    0    0  0.00000000000E+00  0.00000000000E+00  0.98402568170E+02  0.98402568170E+02  0.00000000000E+00 0. -1.
         22   -1    0    0    0    0 -0.00000000000E+00 -0.00000000000E+00 -0.15740282913E+04  0.15740282913E+04  0.00000000000E+00 0. -1.
        -24    2    1    2    0    0 -0.16437035427E+02 -0.46757446456E+02 -0.12089797041E+04  0.12127268924E+04  0.81352047869E+02 0.  0.
         25    2    1    2    0    0  0.60182779687E+02 -0.33034107154E+01 -0.31429446191E+03  0.34359959309E+03  0.12508713797E+03 0.  0.
         24    2    1    2    0    0 -0.43745744260E+02  0.50060857171E+02  0.47648442834E+02  0.11610437404E+03  0.82401893206E+02 0.  0.
        -13    1    5    5    0    0 -0.18970331947E+02  0.67501188476E+02  0.15267844194E+02  0.71759257285E+02  0.00000000000E+00 0.  1.
         14    1    5    5    0    0 -0.24775412313E+02 -0.17440331304E+02  0.32380598639E+02  0.44345116750E+02  0.00000000000E+00 0. -1.
         13    1    3    3    0    0  0.32835703818E+02 -0.21723147901E+02 -0.43606973855E+03  0.43784346002E+03  0.00000000000E+00 0. -1.
        -14    1    3    3    0    0 -0.49272739245E+02 -0.25034298554E+02 -0.77290996555E+03  0.77488343238E+03  0.00000000000E+00 0.  1.
          5    1    4    4  501    0 -0.33149449025E+02  0.28719244502E+01 -0.15704988771E+03  0.16059039059E+03  0.41800000000E+01 0. -1.
         -5    1    4    4    0  501  0.93332228713E+02 -0.61753351656E+01 -0.15724457420E+03  0.18300920249E+03  0.41800000000E+01 0. -1.
</event>
<event>
11    1  0.8037748E-009  0.1989901E+03  0.7561462E-02  0.1055240E+00
         22   -1    0    0    0    0  0.00000000000E+00  0.00000000000E+00  0.17227387703E+04  0.17227387703E+04  0.00000000000E+00 0.  1.
         22   -1    0    0    0    0 -0.00000000000E+00 -0.00000000000E+00 -0.14825965354E+03  0.14825965354E+03  0.00000000000E+00 0. -1.
        -24    2    1    2    0    0 -0.94118010233E+02  0.12178006322E+03 -0.46901991085E+02  0.18422501425E+03  0.89724441825E+02 0.  0.
         25    2    1    2    0    0  0.12008985029E+03 -0.10733684267E+03  0.30136650647E+03  0.36388538994E+03  0.12509210948E+03 0.  0.
         24    2    1    2    0    0 -0.25971840056E+02 -0.14443220550E+02  0.13200146014E+04  0.13228880197E+04  0.81920825027E+02 0.  0.
        -11    1    5    5    0    0 -0.13255666947E+02  0.28557133683E+02  0.88684063619E+03  0.88739931067E+03  0.00000000000E+00 0.  1.
         12    1    5    5    0    0 -0.12716173109E+02 -0.43000354233E+02  0.43317396519E+03  0.43548870898E+03  0.00000000000E+00 0. -1.
         13    1    3    3    0    0 -0.83753001731E+02  0.60889938001E+02 -0.61933631929E+02  0.12065622492E+03  0.00000000000E+00 0. -1.
        -14    1    3    3    0    0 -0.10365008503E+02  0.60890125219E+02  0.15031640845E+02  0.63568789330E+02  0.00000000000E+00 0.  1.
          5    1    4    4  501    0  0.11666283695E+03 -0.72717118971E+02  0.13094860762E+03  0.18990262546E+03  0.41800000000E+01 0.  1.
         -5    1    4    4    0  501  0.34270133343E+01 -0.34619723699E+02  0.17041789884E+03  0.17398276448E+03  0.41800000000E+01 0.  1.
</event>
<event>
11    1  0.8037748E-009  0.1394747E+03  0.7561462E-02  0.1108146E+00
         22   -1    0    0    0    0  0.00000000000E+00  0.00000000000E+00  0.21078050977E+03  0.21078050977E+03  0.00000000000E+00 0.  1.
         22   -1    0    0    0    0 -0.00000000000E+00 -0.00000000000E+00 -0.41013374528E+03  0.41013374528E+03  0.00000000000E+00 0.  1.
         24    2    1    2    0    0 -0.32069340549E+02 -0.19486141438E+02 -0.25583196308E+03  0.27035565023E+03  0.78955886201E+02 0.  0.
         25    2    1    2    0    0  0.66398429718E+02  0.66127203317E+02 -0.84565203088E+02  0.17771033411E+03  0.12509248894E+03 0.  0.
        -24    2    1    2    0    0 -0.34329089169E+02 -0.46641061878E+02  0.14104393066E+03  0.17284827071E+03  0.81420263427E+02 0.  0.
        -13    1    3    3    0    0 -0.33590533708E+02  0.76098555719E+01 -0.23105468898E+03  0.23360758369E+03  0.00000000000E+00 0.  1.
         14    1    3    3    0    0  0.15211931586E+01 -0.27095997010E+02 -0.24777274095E+02  0.36748066537E+02  0.00000000000E+00 0. -1.
         11    1    5    5    0    0 -0.13968981121E+02  0.12901737453E+02  0.89522338638E+02  0.91519595596E+02  0.00000000000E+00 0. -1.
        -12    1    5    5    0    0 -0.20360108048E+02 -0.59542799332E+02  0.51521592023E+02  0.81328675118E+02  0.00000000000E+00 0.  1.
          5    1    4    4  501    0  0.61338868793E+02  0.99427798247E+02 -0.83668130438E+02  0.14375733839E+03  0.41800000000E+01 0. -1.
         -5    1    4    4    0  501  0.50595609257E+01 -0.33300594930E+02 -0.89707265004E+00  0.33952995727E+02  0.41800000000E+01 0. -1.
</event>
<event>
11    1  0.8037748E-009  0.1550481E+03  0.7561462E-02  0.1091829E+00
         22   -1    0    0    0    0  0.00000000000E+00  0.00000000000E+00  0.17110126992E+04  0.17110126992E+04  0.00000000000E+00 0.  1.
         22   -1    0    0    0    0 -0.00000000000E+00 -0.00000000000E+00 -0.37597100606E+03  0.37597100606E+03  0.00000000000E+00 0.  1.
        -24    2    1    2    0    0  0.90752884547E+02 -0.13058788529E+02 -0.35368886915E+03  0.37426139211E+03  0.81050326644E+02 0.  0.
         25    2    1    2    0    0 -0.87247372242E+02  0.58236777918E+01  0.53751765404E+03  0.55876625517E+03  0.12509388604E+03 0.  0.
         24    2    1    2    0    0 -0.35055123045E+01  0.72351107367E+01  0.11512129082E+04  0.11539560580E+04  0.79112503249E+02 0.  0.
        -13    1    5    5    0    0 -0.16352046331E+02  0.18067122609E+02  0.10953389139E+04  0.10956099427E+04  0.00000000000E+00 0.  1.
         14    1    5    5    0    0  0.12846534026E+02 -0.10832011872E+02  0.55873994346E+02  0.58346115225E+02  0.00000000000E+00 0. -1.
         11    1    3    3    0    0  0.43306311973E+02 -0.43329116952E+02 -0.13172052844E+03  0.14526922125E+03  0.00000000000E+00 0. -1.
        -12    1    3    3    0    0  0.47446572574E+02  0.30270328423E+02 -0.22196834071E+03  0.22899217085E+03  0.00000000000E+00 0.  1.
          5    1    4    4  501    0 -0.55384183819E+02  0.30714653786E+02  0.94185776567E+02  0.11357478013E+03  0.41800000000E+01 0.  1.
         -5    1    4    4    0  501 -0.31863188423E+02 -0.24890975995E+02  0.44333187747E+03  0.44519147504E+03  0.41800000000E+01 0.  1.
</event>
<event>
11    1  0.8037748E-009  0.1545046E+03  0.7561462E-02  0.1092363E+00
         22   -1    0    0    0    0  0.00000000000E+00  0.00000000000E+00  0.16470639768E+04  0.16470639768E+04  0.00000000000E+00 0. -1.
         22   -1    0    0    0    0 -0.00000000000E+00 -0.00000000000E+00 -0.76021991275E+03  0.76021991275E+03  0.00000000000E+00 0.  1.
        -24    2    1    2    0    0 -0.82519785685E+02  0.30714232427E+00 -0.68669650614E+03  0.69581263317E+03  0.76115173055E+02 0.  0.
         25    2    1    2    0    0  0.13470121713E+03  0.71789951926E+02  0.79579903409E+02  0.21279326064E+03  0.12509914330E+03 0.  0.
         24    2    1    2    0    0 -0.52181431447E+02 -0.72097094251E+02  0.14939606667E+04  0.14986779957E+04  0.78717013570E+02 0.  0.
        -13    1    5    5    0    0 -0.41540146142E+02 -0.87037088779E-01  0.36118757454E+03  0.36356850155E+03  0.00000000000E+00 0.  1.
         14    1    5    5    0    0 -0.10641285305E+02 -0.72010057162E+02  0.11327730922E+04  0.11351094941E+04  0.00000000000E+00 0. -1.
         13    1    3    3    0    0 -0.22634979238E+02 -0.24045313545E+02 -0.94616003988E+02  0.10021331049E+03  0.00000000000E+00 0. -1.
        -14    1    3    3    0    0 -0.59884806447E+02  0.24352455869E+02 -0.59208050215E+03  0.59559932268E+03  0.00000000000E+00 0.  1.
          5    1    4    4  501    0  0.14230176480E+03  0.24491495433E+02  0.79121736511E+02  0.16470381660E+03  0.41800000000E+01 0.  1.
         -5    1    4    4    0  501 -0.76005476678E+01  0.47298456494E+02  0.45816689813E+00  0.48089444044E+02  0.41800000000E+01 0.  1.
</event>
<event>
11    1  0.8037748E-009  0.1924719E+03  0.7561462E-02  0.1059979E+00
         22   -1    0    0    0    0  0.00000000000E+00  0.00000000000E+00  0.20444009195E+04  0.20444009195E+04  0.00000000000E+00 0. -1.
         22   -1    0    0    0    0 -0.00000000000E+00 -0.00000000000E+00 -0.13419858065E+03  0.13419858065E+03  0.00000000000E+00 0. -1.
        -24    2    1    2    0    0  0.27997492920E+01 -0.42712821888E+02 -0.96058285576E+02  0.13241141483E+03  0.80457223410E+02 0.  0.
         25    2    1    2    0    0  0.14409770199E+03  0.27288567759E+02  0.60393954304E+03  0.63395493013E+03  0.12508824140E+03 0.  0.
         24    2    1    2    0    0 -0.14689745128E+03  0.15424254129E+02  0.14023210814E+04  0.14122331552E+04  0.77982693734E+02 0.  0.
        -13    1    5    5    0    0 -0.60179586525E+02  0.44579700760E+02  0.57000666528E+03  0.57490567123E+03  0.00000000000E+00 0.  1.
         14    1    5    5    0    0 -0.86717864759E+02 -0.29155446631E+02  0.83231441613E+03  0.83732748399E+03  0.00000000000E+00 0. -1.
         11    1    3    3    0    0  0.25108546523E+02 -0.32765446408E+02 -0.99519723868E+02  0.10774130603E+03  0.00000000000E+00 0. -1.
        -12    1    3    3    0    0 -0.22308797231E+02 -0.99473754806E+01  0.34614382925E+01  0.24670108794E+02  0.00000000000E+00 0.  1.
          5    1    4    4  501    0  0.14278494792E+03  0.41712950885E+02  0.35992648968E+03  0.38947665142E+03  0.41800000000E+01 0. -1.
         -5    1    4    4    0  501  0.13127540674E+01 -0.14424383126E+02  0.24401305337E+03  0.24447827872E+03  0.41800000000E+01 0. -1.
</event>
<event>
11    1  0.8037748E-009  0.1934879E+03  0.7561462E-02  0.1059227E+00
         22   -1    0    0    0    0  0.00000000000E+00  0.00000000000E+00  0.18115665983E+04  0.18115665983E+04  0.00000000000E+00 0.  1.
         22   -1    0    0    0    0 -0.00000000000E+00 -0.00000000000E+00 -0.17530441015E+03  0.17530441015E+03  0.00000000000E+00 0.  1.
        -24    2    1    2    0    0 -0.21339365505E+01  0.11852956675E+02 -0.47030489224E+02  0.91309168390E+02  0.77333376030E+02 0.  0.
         25    2    1    2    0    0  0.33391819616E+02 -0.15562897612E+03 -0.15163986246E+01  0.20245494670E+03  0.12510121564E+03 0.  0.
         24    2    1    2    0    0 -0.31257883066E+02  0.14377601945E+03  0.16848090760E+04  0.16931068934E+04  0.79879476437E+02 0.  0.
        -11    1    5    5    0    0 -0.44562273170E+01  0.12047045457E+03  0.15051926284E+04  0.15100125287E+04  0.00000000000E+00 0.  1.
         12    1    5    5    0    0 -0.26801655749E+02  0.23305564874E+02  0.17961644762E+03  0.18309436464E+03  0.00000000000E+00 0. -1.
         13    1    3    3    0    0  0.18203161400E+02 -0.24111288781E+01  0.15497286236E+02  0.24027786167E+02  0.00000000000E+00 0. -1.
        -14    1    3    3    0    0 -0.20337097951E+02  0.14264085553E+02 -0.62527775460E+02  0.67281382222E+02  0.00000000000E+00 0.  1.
          5    1    4    4  501    0 -0.14713169567E+02 -0.10585760329E+03  0.48011875705E+02  0.11723873994E+03  0.41800000000E+01 0.  1.
         -5    1    4    4    0  501  0.48104989183E+02 -0.49771372828E+02 -0.49528274330E+02  0.85216206766E+02  0.41800000000E+01 0.  1.
</event>
<event>
11    1  0.8037748E-009  0.2150102E+03  0.7561462E-02  0.1044389E+00
         22   -1    0    0    0    0  0.00000000000E+00  0.00000000000E+00  0.18437336746E+04  0.18437336746E+04  0.00000000000E+00 0.  1.
         22   -1    0    0    0    0 -0.00000000000E+00 -0.00000000000E+00 -0.12017241680E+03  0.12017241680E+03  0.00000000000E+00 0. -1.
        -24    2    1    2    0    0 -0.25006385334E+02 -0.10842291915E+03 -0.31822454041E+02  0.14165514647E+03  0.81686371168E+02 0.  0.
         25    2    1    2    0    0 -0.11199411799E+03  0.19980424972E+03  0.62738969988E+03  0.67950709828E+03  0.12509052896E+03 0.  0.
         24    2    1    2    0    0  0.13700050333E+03 -0.91381330564E+02  0.11279940119E+04  0.11427438466E+04  0.79833091652E+02 0.  0.
        -13    1    5    5    0    0  0.13232204788E+03 -0.85251685109E+02  0.11219720567E+04  0.11329599597E+04  0.00000000000E+00 0.  1.
         14    1    5    5    0    0  0.46784554493E+01 -0.61296454550E+01  0.60219551895E+01  0.97838869116E+01  0.00000000000E+00 0. -1.
         11    1    3    3    0    0 -0.15721974687E+02 -0.12014330742E+03 -0.35492942416E+02  0.12625903439E+03  0.00000000000E+00 0. -1.
        -12    1    3    3    0    0 -0.92844106470E+01  0.11720388263E+02  0.36704883747E+01  0.15396112074E+02  0.00000000000E+00 0.  1.
          5    1    4    4  501    0 -0.42823212810E+02  0.26319804106E+01  0.53247201012E+02  0.68509062844E+02  0.41800000000E+01 0.  1.
         -5    1    4    4    0  501 -0.69170905181E+02  0.19717226931E+03  0.57414249887E+03  0.61099803544E+03  0.41800000000E+01 0.  1.
</event>
<event>
11    1  0.8037748E-009  0.1446799E+03  0.7561462E-02  0.1102442E+00
         22   -1    0    0    0    0  0.00000000000E+00  0.00000000000E+00  0.92677947316E+03  0.92677947316E+03  0.00000000000E+00 0.  1.
         22   -1    0    0    0    0 -0.00000000000E+00 -0.00000000000E+00 -0.46851917112E+03  0.46851917112E+03  0.00000000000E+00 0. -1.
        -24    2    1    2    0    0 -0.27756740415E+02 -0.19294324838E+02 -0.44115685664E+03  0.44838879470E+03  0.72735352097E+02 0.  0.
         25    2    1    2    0    0  0.16281033659E+02  0.87967572069E+02  0.29018727219E+03  0.32842160475E+03  0.12509489091E+03 0.  0.
         24    2    1    2    0    0  0.11475706755E+02 -0.68673247231E+02  0.60922988649E+03  0.61848824482E+03  0.80740000379E+02 0.  0.
        -13    1    5    5    0    0  0.18505516294E+02 -0.53337066872E+02  0.59084410580E+03  0.59353521732E+03  0.00000000000E+00 0.  1.
         14    1    5    5    0    0 -0.70298095387E+01 -0.15336180359E+02  0.18385780687E+02  0.24953027504E+02  0.00000000000E+00 0. -1.
         11    1    3    3    0    0  0.75120579242E+01 -0.82507193251E+01 -0.34785613891E+03  0.34803505392E+03  0.00000000000E+00 0. -1.
        -12    1    3    3    0    0 -0.35268798339E+02 -0.11043605513E+02 -0.93300717736E+02  0.10035374078E+03  0.00000000000E+00 0.  1.
          5    1    4    4  501    0 -0.45431670295E+02  0.54125765241E+02  0.21017742331E+03  0.22177839570E+03  0.41800000000E+01 0.  1.
         -5    1    4    4    0  501  0.61712703954E+02  0.33841806829E+02  0.80009848882E+02  0.10664320905E+03  0.41800000000E+01 0.  1.
</event>
<event>
11    1  0.8037748E-009  0.4928394E+03  0.7561462E-02  0.9409666E-01
         22   -1    0    0    0    0  0.00000000000E+00  0.00000000000E+00  0.13551533183E+04  0.13551533183E+04  0.00000000000E+00 0. -1.
         22   -1    0    0    0    0 -0.00000000000E+00 -0.00000000000E+00 -0.27940328372E+04  0.27940328372E+04  0.00000000000E+00 0. -1.
        -24    2    1    2    0    0  0.31452462482E+03 -0.35844859947E+03 -0.25754674961E+04  0.26205367337E+04  0.82272784288E+02 0.  0.
         25    2    1    2    0    0 -0.29413825270E+03  0.37281851343E+03  0.11587884552E+03  0.50456547610E+03  0.12508979644E+03 0.  0.
         24    2    1    2    0    0 -0.20386372119E+02 -0.14369913955E+02  0.10207091317E+04  0.10240839457E+04  0.79238234711E+02 0.  0.
        -13    1    5    5    0    0  0.35181526082E+01  0.13104599978E+02  0.32693452206E+02  0.35397312829E+02  0.00000000000E+00 0.  1.
         14    1    5    5    0    0 -0.23904524727E+02 -0.27474513933E+02  0.98801567946E+03  0.98868663290E+03  0.00000000000E+00 0. -1.
         11    1    3    3    0    0  0.19394572948E+03 -0.26979466311E+03 -0.16617921031E+04  0.16946849560E+04  0.00000000000E+00 0. -1.
        -12    1    3    3    0    0  0.12057889534E+03 -0.88653936369E+02 -0.91367539302E+03  0.92585177768E+03  0.00000000000E+00 0.  1.
          5    1    4    4  501    0 -0.64393437431E+02  0.17900897457E+03  0.38071238770E+02  0.19405571206E+03  0.41800000000E+01 0. -1.
         -5    1    4    4    0  501 -0.22974481527E+03  0.19380953886E+03  0.77807606747E+02  0.31050976404E+03  0.41800000000E+01 0. -1.
</event>
<event>
11    1  0.8037748E-009  0.1319788E+03  0.7561462E-02  0.1116861E+00
         22   -1    0    0    0    0  0.00000000000E+00  0.00000000000E+00  0.70653758050E+03  0.70653758050E+03  0.00000000000E+00 0.  1.
         22   -1    0    0    0    0 -0.00000000000E+00 -0.00000000000E+00 -0.71520711389E+02  0.71520711389E+02  0.00000000000E+00 0.  1.
         24    2    1    2    0    0  0.12249429979E+02 -0.31172357965E+02 -0.11058790664E+02  0.88565982406E+02  0.81239595966E+02 0.  0.
         25    2    1    2    0    0 -0.50392780752E+02  0.25070202541E+02  0.29951601402E+03  0.32942859131E+03  0.12508160021E+03 0.  0.
        -24    2    1    2    0    0  0.38143350773E+02  0.61021554240E+01  0.34655964575E+03  0.36006371817E+03  0.89722581159E+02 0.  0.
        -11    1    3    3    0    0  0.60183223384E+01 -0.36744487908E+02 -0.42225840140E+02  0.56297417090E+02  0.00000000000E+00 0.  1.
         12    1    3    3    0    0  0.62311076403E+01  0.55721299428E+01  0.31167049476E+02  0.32268565317E+02  0.00000000000E+00 0. -1.
         13    1    5    5    0    0 -0.26097842074E+02 -0.10029986666E+02  0.63928605570E+02  0.69775100169E+02  0.00000000000E+00 0. -1.
        -14    1    5    5    0    0  0.64241192847E+02  0.16132142090E+02  0.28263104018E+03  0.29028861800E+03  0.00000000000E+00 0.  1.
          5    1    4    4  501    0 -0.46602335544E+02  0.34766589067E+01  0.30319936274E+03  0.30680806834E+03  0.41800000000E+01 0.  1.
         -5    1    4    4    0  501 -0.37904452079E+01  0.21593543634E+02 -0.36833487174E+01  0.22620522968E+02  0.41800000000E+01 0.  1.
</event>
<event>
11    1  0.8037748E-009  0.2805141E+03  0.7561462E-02  0.1008793E+00
         22   -1    0    0    0    0  0.00000000000E+00  0.00000000000E+00  0.10721232601E+04  0.10721232601E+04  0.00000000000E+00 0.  1.
         22   -1    0    0    0    0 -0.00000000000E+00 -0.00000000000E+00 -0.91432173527E+03  0.91432173527E+03  0.00000000000E+00 0. -1.
        -24    2    1    2    0    0 -0.39916415976E+02  0.54609060286E+02 -0.52625147367E+03  0.53444160027E+03  0.64122857310E+02 0.  0.
         25    2    1    2    0    0 -0.62039202089E+02  0.17805719858E+03 -0.33195140239E+03  0.40173670566E+03  0.12508964212E+03 0.  0.
         24    2    1    2    0    0  0.10195561807E+03 -0.23266625886E+03  0.10160044008E+04  0.10502666894E+04  0.79162113664E+02 0.  0.
        -13    1    5    5    0    0  0.80266489150E+02 -0.23044107308E+03  0.91933996321E+03  0.95117388810E+03  0.00000000000E+00 0.  1.
         14    1    5    5    0    0  0.21689128915E+02 -0.22251857800E+01  0.96664437629E+02  0.99092801288E+02  0.00000000000E+00 0. -1.
         13    1    3    3    0    0 -0.48818520033E+02  0.56422908072E+02 -0.51286273053E+03  0.51826149077E+03  0.00000000000E+00 0. -1.
        -14    1    3    3    0    0  0.89021040568E+01 -0.18138477853E+01 -0.13388743144E+02  0.16180109499E+02  0.00000000000E+00 0.  1.
          5    1    4    4  501    0 -0.78017524964E+02  0.16199633383E+03 -0.33322564691E+03  0.37866390181E+03  0.41800000000E+01 0. -1.
         -5    1    4    4    0  501  0.15978322875E+02  0.16060864753E+02  0.12742445213E+01  0.23072803852E+02  0.41800000000E+01 0. -1.
</event>
<event>
11    1  0.8037748E-009  0.1428658E+03  0.7561462E-02  0.1104400E+00
         22   -1    0    0    0    0  0.00000000000E+00  0.00000000000E+00  0.25972731311E+03  0.25972731311E+03  0.00000000000E+00 0.  1.
         22   -1    0    0    0    0 -0.00000000000E+00 -0.00000000000E+00 -0.93884930026E+03  0.93884930026E+03  0.00000000000E+00 0. -1.
         24    2    1    2    0    0  0.70437386231E+02  0.21022832802E+02 -0.86320775077E+03  0.86995746200E+03  0.79340908924E+02 0.  0.
         25    2    1    2    0    0 -0.40820104139E+02  0.53301712161E+02  0.45722354877E+02  0.14914947473E+03  0.12509068173E+03 0.  0.
        -24    2    1    2    0    0 -0.29617282093E+02 -0.74324544962E+02  0.13836340873E+03  0.17946967664E+03  0.81630941290E+02 0.  0.
        -13    1    3    3    0    0  0.97039835753E+01  0.26886800420E+01 -0.93340672458E+01  0.13730298939E+02  0.00000000000E+00 0.  1.
         14    1    3    3    0    0  0.60733402656E+02  0.18334152760E+02 -0.85387368352E+03  0.85622716306E+03  0.00000000000E+00 0. -1.
         11    1    5    5    0    0  0.11229212314E+02 -0.31940441928E+02  0.56993876860E+01  0.34333220935E+02  0.00000000000E+00 0. -1.
        -12    1    5    5    0    0 -0.40846494407E+02 -0.42384103034E+02  0.13266402105E+03  0.14513645571E+03  0.00000000000E+00 0.  1.
          5    1    4    4  501    0  0.28054681912E+02  0.49665876590E+02  0.55100742493E+02  0.79418692371E+02  0.41800000000E+01 0.  1.
         -5    1    4    4    0  501 -0.68874786051E+02  0.36358355705E+01 -0.93783876165E+01  0.69730782357E+02  0.41800000000E+01 0.  1.
</event>
<event>
11    1  0.8037748E-009  0.1414256E+03  0.7561462E-02  0.1105977E+00
         22   -1    0    0    0    0  0.00000000000E+00  0.00000000000E+00  0.28488466394E+04  0.28488466394E+04  0.00000000000E+00 0. -1.
         22   -1    0    0    0    0 -0.00000000000E+00 -0.00000000000E+00 -0.10295957703E+04  0.10295957703E+04  0.00000000000E+00 0. -1.
         24    2    1    2    0    0 -0.49632862237E+02 -0.42872547069E+02 -0.99002236433E+03  0.99520103843E+03  0.77326248482E+02 0.  0.
         25    2    1    2    0    0  0.10114270991E+03  0.26816857086E+02  0.14811596606E+03  0.22030595090E+03  0.12508949199E+03 0.  0.
        -24    2    1    2    0    0 -0.51509847678E+02  0.16055689983E+02  0.26611572674E+04  0.26629354204E+04  0.80969142101E+02 0.  0.
        -11    1    3    3    0    0 -0.42196561479E+02 -0.54970893781E+02 -0.47955898296E+03  0.48454016046E+03  0.00000000000E+00 0.  1.
         12    1    3    3    0    0 -0.74363007579E+01  0.12098346713E+02 -0.51046338137E+03  0.51066087797E+03  0.00000000000E+00 0. -1.
         11    1    5    5    0    0 -0.41928548164E+02 -0.87196152206E+01  0.24094145974E+04  0.24097951650E+04  0.00000000000E+00 0. -1.
        -12    1    5    5    0    0 -0.95812995146E+01  0.24775305203E+02  0.25174266992E+03  0.25314025541E+03  0.00000000000E+00 0.  1.
          5    1    4    4  501    0 -0.17041969254E+02  0.32006474430E+02  0.68598240333E+02  0.77704788130E+02  0.41800000000E+01 0.  1.
         -5    1    4    4    0  501  0.11818467917E+03 -0.51896173445E+01  0.79517725729E+02  0.14260116277E+03  0.41800000000E+01 0.  1.
</event>
<event>
11    1  0.8037748E-009  0.1414899E+03  0.7561462E-02  0.1105906E+00
         22   -1    0    0    0    0  0.00000000000E+00  0.00000000000E+00  0.11772935534E+04  0.11772935534E+04  0.00000000000E+00 0. -1.
         22   -1    0    0    0    0 -0.00000000000E+00 -0.00000000000E+00 -0.64673462564E+02  0.64673462564E+02  0.00000000000E+00 0. -1.
        -24    2    1    2    0    0  0.95010473814E+01 -0.86325112001E+01 -0.11064686751E+02  0.83308829699E+02  0.81566804902E+02 0.  0.
         25    2    1    2    0    0  0.57742643363E+02 -0.29167276783E+01  0.32349807800E+03  0.35162600074E+03  0.12508843976E+03 0.  0.
         24    2    1    2    0    0 -0.67243690744E+02  0.11549238878E+02  0.80018669954E+03  0.80703218548E+03  0.79668660228E+02 0.  0.
        -13    1    5    5    0    0 -0.27410978432E+01  0.11603504721E+02  0.14818109132E+02  0.19019234933E+02  0.00000000000E+00 0.  1.
         14    1    5    5    0    0 -0.64502592901E+02 -0.54265842832E-01  0.78536859041E+03  0.78801295055E+03  0.00000000000E+00 0. -1.
         13    1    3    3    0    0  0.69774595984E+00  0.83966867852E+00 -0.46022749430E+02  0.46035696562E+02  0.00000000000E+00 0. -1.
        -14    1    3    3    0    0  0.88033014216E+01 -0.94721798786E+01  0.34958062679E+02  0.37273133137E+02  0.00000000000E+00 0.  1.
          5    1    4    4  501    0  0.61697287733E+02  0.44812129429E+02  0.26565010563E+03  0.27640935816E+03  0.41800000000E+01 0.  1.
         -5    1    4    4    0  501 -0.39546443699E+01 -0.47728857107E+02  0.57847972370E+02  0.75216642575E+02  0.41800000000E+01 0.  1.
</event>
<event>
11    1  0.8037748E-009  0.1487635E+03  0.7561462E-02  0.1098149E+00
         22   -1    0    0    0    0  0.00000000000E+00  0.00000000000E+00  0.44440927447E+03  0.44440927447E+03  0.00000000000E+00 0.  1.
         22   -1    0    0    0    0 -0.00000000000E+00 -0.00000000000E+00 -0.22690802498E+03  0.22690802498E+03  0.00000000000E+00 0. -1.
         24    2    1    2    0    0  0.26687271586E+02 -0.74408035085E+02 -0.12527101119E+03  0.16837620089E+03  0.80055934381E+02 0.  0.
         25    2    1    2    0    0 -0.14180664692E+02  0.85648260310E+02  0.19018507574E+01  0.15227946727E+03  0.12509477755E+03 0.  0.
        -24    2    1    2    0    0 -0.12506606895E+02 -0.11240225226E+02  0.34087040992E+03  0.35066163130E+03  0.80549273275E+02 0.  0.
        -13    1    3    3    0    0 -0.12079097995E+02  0.11992067468E+02 -0.26883755666E+02  0.31819029043E+02  0.00000000000E+00 0.  1.
         14    1    3    3    0    0  0.38766369582E+02 -0.86400102553E+02 -0.98387255528E+02  0.13655717184E+03  0.00000000000E+00 0. -1.
         11    1    5    5    0    0  0.14134077748E+02  0.30009281962E+02  0.13474596430E+03  0.13876888719E+03  0.00000000000E+00 0. -1.
        -12    1    5    5    0    0 -0.26640684643E+02 -0.41249507187E+02  0.20612444562E+03  0.21189274411E+03  0.00000000000E+00 0.  1.
          5    1    4    4  501    0 -0.40338271944E+02 -0.98475179103E+01 -0.26193925795E+02  0.49272141632E+02  0.41800000000E+01 0. -1.
         -5    1    4    4    0  501  0.26157607253E+02  0.95495778221E+02  0.28095776553E+02  0.10300732564E+03  0.41800000000E+01 0. -1.
</event>
<event>
11    1  0.8037748E-009  0.1662159E+03  0.7561462E-02  0.1081372E+00
         22   -1    0    0    0    0  0.00000000000E+00  0.00000000000E+00  0.11105361051E+03  0.11105361051E+03  0.00000000000E+00 0.  1.
         22   -1    0    0    0    0 -0.00000000000E+00 -0.00000000000E+00 -0.42113040750E+03  0.42113040750E+03  0.00000000000E+00 0.  1.
         24    2    1    2    0    0  0.93649756585E+02  0.70055414406E+02 -0.18884602739E+03  0.23628240808E+03  0.80551327201E+02 0.  0.
         25    2    1    2    0    0 -0.36995753239E+02 -0.10055474868E+03 -0.10645927596E+03  0.19611376319E+03  0.12508831854E+03 0.  0.
        -24    2    1    2    0    0 -0.56654003346E+02  0.30499334270E+02 -0.14771493636E+02  0.99787846730E+02  0.74830019675E+02 0.  0.
        -13    1    3    3    0    0  0.51227444757E+02  0.76533630418E+02 -0.15987754435E+03  0.18450603477E+03  0.00000000000E+00 0.  1.
         14    1    3    3    0    0  0.42422311828E+02 -0.64782160119E+01 -0.28968483039E+02  0.51776373309E+02  0.00000000000E+00 0. -1.
         13    1    5    5    0    0  0.76005210016E+01 -0.15781063333E+02 -0.10638191233E+02  0.20493437783E+02  0.00000000000E+00 0. -1.
        -14    1    5    5    0    0 -0.64254524348E+02  0.46280397603E+02 -0.41333024023E+01  0.79294408947E+02  0.00000000000E+00 0.  1.
          5    1    4    4  501    0  0.20630521618E+02 -0.63101243492E+02 -0.10845528230E+03  0.12722973714E+03  0.41800000000E+01 0. -1.
         -5    1    4    4    0  501 -0.57626274857E+02 -0.37453505183E+02  0.19960063391E+01  0.68884026056E+02  0.41800000000E+01 0. -1.
</event>
<event>
11    1  0.8037748E-009  0.1498752E+03  0.7561462E-02  0.1097006E+00
         22   -1    0    0    0    0  0.00000000000E+00  0.00000000000E+00  0.64206264228E+03  0.64206264228E+03  0.00000000000E+00 0.  1.
         22   -1    0    0    0    0 -0.00000000000E+00 -0.00000000000E+00 -0.39618308308E+03  0.39618308308E+03  0.00000000000E+00 0.  1.
        -24    2    1    2    0    0  0.25415593713E+02 -0.23862872422E+02 -0.33429864779E+03  0.34560469001E+03  0.80446421666E+02 0.  0.
         25    2    1    2    0    0 -0.23918809677E+02 -0.61256933915E+02  0.49356940225E+02  0.14969212253E+03  0.12508837912E+03 0.  0.
         24    2    1    2    0    0 -0.14967840358E+01  0.85119806338E+02  0.53082126676E+03  0.54294891282E+03  0.75991334382E+02 0.  0.
        -13    1    5    5    0    0 -0.22974966969E+02  0.89161939842E+02  0.44066309495E+03  0.45017959069E+03  0.00000000000E+00 0.  1.
         14    1    5    5    0    0  0.21478182933E+02 -0.40421335042E+01  0.90158171810E+02  0.92769322135E+02  0.00000000000E+00 0. -1.
         11    1    3    3    0    0  0.31518649196E+02  0.14852511395E+02 -0.67696170567E+02  0.76136678752E+02  0.00000000000E+00 0. -1.
        -12    1    3    3    0    0 -0.61030554836E+01 -0.38715383817E+02 -0.26660247722E+03  0.26946801126E+03  0.00000000000E+00 0.  1.
          5    1    4    4  501    0  0.20188833653E+02 -0.81798263455E+02  0.63091708215E+01  0.84592097415E+02  0.41800000000E+01 0. -1.
         -5    1    4    4    0  501 -0.44107643329E+02  0.20541329540E+02  0.43047769404E+02  0.65100025115E+02  0.41800000000E+01 0. -1.
</event>
<event>
11    1  0.8037748E-009  0.1331317E+03  0.7561462E-02  0.1115480E+00
         22   -1    0    0    0    0  0.00000000000E+00  0.00000000000E+00  0.11485223102E+03  0.11485223102E+03  0.00000000000E+00 0. -1.
         22   -1    0    0    0    0 -0.00000000000E+00 -0.00000000000E+00 -0.27852678133E+04  0.27852678133E+04  0.00000000000E+00 0.  1.
        -24    2    1    2    0    0  0.52963095626E+02  0.40669582274E+01 -0.17415761773E+04  0.17442495343E+04  0.80605377921E+02 0.  0.
         25    2    1    2    0    0 -0.18843042597E+02 -0.26585904029E+02 -0.10195574920E+04  0.10277191147E+04  0.12508888249E+03 0.  0.
         24    2    1    2    0    0 -0.34120053030E+02  0.22518945802E+02  0.90718087041E+02  0.12815139536E+03  0.80757215638E+02 0.  0.
        -11    1    5    5    0    0  0.17446379440E+02  0.24155828658E+00 -0.41182585307E+01  0.17927480561E+02  0.00000000000E+00 0.  1.
         12    1    5    5    0    0 -0.51566432469E+02  0.22277387515E+02  0.94836345571E+02  0.11022391480E+03  0.00000000000E+00 0. -1.
         13    1    3    3    0    0  0.58524835023E+02 -0.23693313306E+02 -0.90793554915E+03  0.91012828262E+03  0.00000000000E+00 0. -1.
        -14    1    3    3    0    0 -0.55617393971E+01  0.27760271534E+02 -0.83364062811E+03  0.83412125165E+03  0.00000000000E+00 0.  1.
          5    1    4    4  501    0  0.42774504361E+02  0.23608433992E+02 -0.43967264748E+03  0.44239860502E+03  0.41800000000E+01 0. -1.
         -5    1    4    4    0  501 -0.61617546958E+02 -0.50194338022E+02 -0.57988484455E+03  0.58532050964E+03  0.41800000000E+01 0. -1.
</event>
<event>
11    1  0.8612569E-009  0.1856932E+03  0.7561462E-02  0.1065129E+00
         22   -1    0    0    0    0  0.00000000000E+00  0.00000000000E+00  0.11683737346E+04  0.11683737346E+04  0.00000000000E+00 0.  1.
         22   -1    0    0    0    0 -0.00000000000E+00 -0.00000000000E+00 -0.72762620247E+03  0.72762620247E+03  0.00000000000E+00 0. -1.
        -24    2    1    2    0    0  0.15081587983E+02 -0.73787319504E+02 -0.57308457525E+03  0.58369990182E+03  0.81287281778E+02 0.  0.
         25    2    1    2    0    0 -0.12205232395E+02  0.20815455626E+03 -0.40458921962E+02  0.24650323740E+03  0.12509849996E+03 0.  0.
         24    2    1    2    0    0 -0.28763555879E+01 -0.13436723676E+03  0.10542910293E+04  0.10657967978E+04  0.79563886320E+02 0.  0.
        -11    1    5    5    0    0 -0.27912388526E+02 -0.12706325916E+03  0.88283857185E+03  0.89237218536E+03  0.00000000000E+00 0.  1.
         12    1    5    5    0    0  0.25036032938E+02 -0.73039775926E+01  0.17145245749E+03  0.17342461248E+03  0.00000000000E+00 0. -1.
         11    1    3    3    0    0 -0.92127980742E+01 -0.72995818694E+02 -0.27651948840E+03  0.28614033735E+03  0.00000000000E+00 0. -1.
        -12    1    3    3    0    0  0.24294386057E+02 -0.79150081015E+00 -0.29656508685E+03  0.29755956447E+03  0.00000000000E+00 0.  1.
          5    1    4    4  501    0 -0.53117811219E+02  0.16843439739E+03 -0.34803646223E+00  0.17666137558E+03  0.41800000000E+01 0. -1.
         -5    1    4    4    0  501  0.40912578823E+02  0.39720158873E+02 -0.40110885500E+02  0.69841861820E+02  0.41800000000E+01 0. -1.
</event>
<event>
11    1  0.8037748E-009  0.1435608E+03  0.7561462E-02  0.1103646E+00
         22   -1    0    0    0    0  0.00000000000E+00  0.00000000000E+00  0.15001461523E+04  0.15001461523E+04  0.00000000000E+00 0. -1.
         22   -1    0    0    0    0 -0.00000000000E+00 -0.00000000000E+00 -0.17074299431E+03  0.17074299431E+03  0.00000000000E+00 0.  1.
         24    2    1    2    0    0  0.23960190648E+01  0.31635991055E+02 -0.12842062319E+03  0.15824277635E+03  0.86846663554E+02 0.  0.
         25    2    1    2    0    0  0.66734360478E+02 -0.14471474641E+02  0.17755248900E+03  0.22767931327E+03  0.12510029933E+03 0.  0.
        -24    2    1    2    0    0 -0.69130379543E+02 -0.17164516414E+02  0.12802712922E+04  0.12849670570E+04  0.83499257510E+02 0.  0.
        -11    1    3    3    0    0 -0.15372589633E+02  0.35499330569E+02 -0.13379989023E+03  0.13928004023E+03  0.00000000000E+00 0.  1.
         12    1    3    3    0    0  0.17768608698E+02 -0.38633395147E+01  0.53792670385E+01  0.18962736119E+02  0.00000000000E+00 0. -1.
         13    1    5    5    0    0 -0.55191102964E+02  0.25564331307E+02  0.89911527412E+03  0.90117027749E+03  0.00000000000E+00 0. -1.
        -14    1    5    5    0    0 -0.13939276579E+02 -0.42728847721E+02  0.38115601807E+03  0.38379677952E+03  0.00000000000E+00 0.  1.
          5    1    4    4  501    0 -0.32751850340E+02 -0.70912445235E+01  0.15093098418E+02  0.36989775201E+02  0.41800000000E+01 0.  1.
         -5    1    4    4    0  501  0.99486210818E+02 -0.73802301174E+01  0.16245939058E+03  0.19068953807E+03  0.41800000000E+01 0.  1.
</event>
<event>
11    1  0.8037748E-009  0.1554688E+03  0.7561462E-02  0.1091418E+00
         22   -1    0    0    0    0  0.00000000000E+00  0.00000000000E+00  0.49837454111E+03  0.49837454111E+03  0.00000000000E+00 0. -1.
         22   -1    0    0    0    0 -0.00000000000E+00 -0.00000000000E+00 -0.45033399491E+03  0.45033399491E+03  0.00000000000E+00 0.  1.
         24    2    1    2    0    0 -0.15319194677E+02  0.33536861871E+02 -0.38749713915E+03  0.39759394788E+03  0.81040210440E+02 0.  0.
         25    2    1    2    0    0 -0.68372140126E+02  0.16965377649E+02  0.61581138204E+02  0.15621866606E+03  0.12509780757E+03 0.  0.
        -24    2    1    2    0    0  0.83691334803E+02 -0.50502239520E+02  0.37395654714E+03  0.39489592209E+03  0.80898543982E+02 0.  0.
        -13    1    3    3    0    0 -0.16292084953E+02  0.13727444727E+02 -0.37150767320E+03  0.37211802700E+03  0.00000000000E+00 0.  1.
         14    1    3    3    0    0  0.97289027587E+00  0.19809417144E+02 -0.15989465946E+02  0.25475920873E+02  0.00000000000E+00 0. -1.
         11    1    5    5    0    0  0.72196151223E+02 -0.26251971379E+02  0.14249281458E+03  0.16188160013E+03  0.00000000000E+00 0. -1.
        -12    1    5    5    0    0  0.11495183580E+02 -0.24250268141E+02  0.23146373256E+03  0.23301432196E+03  0.00000000000E+00 0.  1.
          5    1    4    4  501    0  0.32719663919E+02 -0.16616044598E+02  0.17226762901E+02  0.40754178989E+02  0.41800000000E+01 0. -1.
         -5    1    4    4    0  501 -0.10109180405E+03  0.33581422247E+02  0.44354375304E+02  0.11546448707E+03  0.41800000000E+01 0. -1.
</event>
<event>
11    1  0.8037748E-009  0.2096402E+03  0.7561462E-02  0.1047908E+00
         22   -1    0    0    0    0  0.00000000000E+00  0.00000000000E+00  0.16478961749E+03  0.16478961749E+03  0.00000000000E+00 0. -1.
         22   -1    0    0    0    0 -0.00000000000E+00 -0.00000000000E+00 -0.11170483791E+04  0.11170483791E+04  0.00000000000E+00 0. -1.
        -24    2    1    2    0    0 -0.35654498505E+02  0.63827514076E+01 -0.81714314619E+03  0.82206721403E+03  0.82216788016E+02 0.  0.
         25    2    1    2    0    0  0.18423799939E+03  0.53349490232E+02 -0.16019128379E+03  0.27946368127E+03  0.12509553635E+03 0.  0.
         24    2    1    2    0    0 -0.14858350089E+03 -0.59732241639E+02  0.25075668329E+02  0.18030710134E+03  0.78973819872E+02 0.  0.
        -13    1    5    5    0    0 -0.36482315138E+02 -0.13357770330E+02 -0.28000644611E+02  0.47889721702E+02  0.00000000000E+00 0.  1.
         14    1    5    5    0    0 -0.11210118575E+03 -0.46374471309E+02  0.53076312941E+02  0.13241737964E+03  0.00000000000E+00 0. -1.
         11    1    3    3    0    0 -0.32551507864E+02 -0.34933865063E+02 -0.48668914219E+03  0.48902586508E+03  0.00000000000E+00 0. -1.
        -12    1    3    3    0    0 -0.31029906418E+01  0.41316616470E+02 -0.33045400401E+03  0.33304134895E+03  0.00000000000E+00 0.  1.
          5    1    4    4  501    0  0.64532900607E+02 -0.12256015445E+02 -0.12040047205E+03  0.13721680380E+03  0.41800000000E+01 0. -1.
         -5    1    4    4    0  501  0.11970509878E+03  0.65605505677E+02 -0.39790811748E+02  0.14224687747E+03  0.41800000000E+01 0. -1.
</event>
<event>
11    1  0.8037748E-009  0.1413460E+03  0.7561462E-02  0.1106065E+00
         22   -1    0    0    0    0  0.00000000000E+00  0.00000000000E+00  0.74392655119E+02  0.74392655119E+02  0.00000000000E+00 0. -1.
         22   -1    0    0    0    0 -0.00000000000E+00 -0.00000000000E+00 -0.23921160019E+04  0.23921160019E+04  0.00000000000E+00 0. -1.
        -24    2    1    2    0    0 -0.99388154326E+01  0.57351930594E+02 -0.20381492826E+04  0.20406078739E+04  0.81486029578E+02 0.  0.
         25    2    1    2    0    0 -0.43290653525E+02 -0.88749494506E+02 -0.27297354904E+03  0.31608970024E+03  0.12509031403E+03 0.  0.
         24    2    1    2    0    0  0.53229468957E+02  0.31397563912E+02 -0.66005150903E+01  0.10981108279E+03  0.90530236489E+02 0.  0.
        -11    1    5    5    0    0  0.48753927604E+01 -0.30552517477E+02  0.95929543034E-01  0.30939214296E+02  0.00000000000E+00 0.  1.
         12    1    5    5    0    0  0.48354076197E+02  0.61950081389E+02 -0.66964446333E+01  0.78871868493E+02  0.00000000000E+00 0. -1.
         13    1    3    3    0    0  0.21796135245E+02 -0.81248860100E+01 -0.78772298369E+03  0.78806635782E+03  0.00000000000E+00 0. -1.
        -14    1    3    3    0    0 -0.31734950678E+02  0.65476816604E+02 -0.12504262989E+04  0.12525415161E+04  0.00000000000E+00 0.  1.
          5    1    4    4  501    0 -0.13164470739E+01 -0.68891913152E+02 -0.42757855508E+02  0.81200587056E+02  0.41800000000E+01 0.  1.
         -5    1    4    4    0  501 -0.41974206451E+02 -0.19857581354E+02 -0.23021569353E+03  0.23488911318E+03  0.41800000000E+01 0.  1.
</event>
<event>
11    1  0.8037748E-009  0.1686554E+03  0.7561462E-02  0.1079208E+00
         22   -1    0    0    0    0  0.00000000000E+00  0.00000000000E+00  0.36371265216E+03  0.36371265216E+03  0.00000000000E+00 0.  1.
         22   -1    0    0    0    0 -0.00000000000E+00 -0.00000000000E+00 -0.18680052245E+03  0.18680052245E+03  0.00000000000E+00 0.  1.
        -24    2    1    2    0    0  0.29919265650E+02  0.96950598376E+02 -0.67396505266E+02  0.14564341285E+03  0.79844435013E+02 0.  0.
         25    2    1    2    0    0 -0.27864098616E+02 -0.16694935010E+03  0.12416296085E+03  0.24435412330E+03  0.12507598984E+03 0.  0.
         24    2    1    2    0    0 -0.20551670344E+01  0.69998751726E+02  0.12014567412E+03  0.16051563846E+03  0.80163821174E+02 0.  0.
        -13    1    5    5    0    0  0.19873639383E+02  0.77890538881E+02  0.76148810506E+02  0.11072731791E+03  0.00000000000E+00 0.  1.
         14    1    5    5    0    0 -0.21928806418E+02 -0.78917871545E+01  0.43996863616E+02  0.49788320553E+02  0.00000000000E+00 0. -1.
         11    1    3    3    0    0  0.12849411216E+02  0.26761265009E+02  0.17274160832E+02  0.34346314299E+02  0.00000000000E+00 0. -1.
        -12    1    3    3    0    0  0.17069854434E+02  0.70189333367E+02 -0.84670666098E+02  0.11129709855E+03  0.00000000000E+00 0.  1.
          5    1    4    4  501    0  0.96989219277E+01 -0.99529468443E+02  0.13311652276E+03  0.16654628548E+03  0.41800000000E+01 0. -1.
         -5    1    4    4    0  501 -0.37563020543E+02 -0.67419881660E+02 -0.89535619111E+01  0.77807837820E+02  0.41800000000E+01 0. -1.
</event>
<event>
11    1  0.8037748E-009  0.1333340E+03  0.7561462E-02  0.1115239E+00
         22   -1    0    0    0    0  0.00000000000E+00  0.00000000000E+00  0.62752914111E+03  0.62752914111E+03  0.00000000000E+00 0.  1.
         22   -1    0    0    0    0 -0.00000000000E+00 -0.00000000000E+00 -0.42400466508E+03  0.42400466508E+03  0.00000000000E+00 0. -1.
         24    2    1    2    0    0 -0.33274170703E+02  0.30689543478E+02 -0.36953485586E+03  0.38099989854E+03  0.80968478299E+02 0.  0.
         25    2    1    2    0    0  0.40989363625E+02 -0.48281666570E+02  0.62661917516E+02  0.15357585080E+03  0.12509108196E+03 0.  0.
        -24    2    1    2    0    0 -0.77151929218E+01  0.17592123092E+02  0.51039741437E+03  0.51695805685E+03  0.79819201623E+02 0.  0.
        -11    1    3    3    0    0  0.14201498773E+02 -0.14088409930E+02 -0.36416438285E+02  0.41549041374E+02  0.00000000000E+00 0.  1.
         12    1    3    3    0    0 -0.47475669476E+02  0.44777953408E+02 -0.33311841757E+03  0.33945085717E+03  0.00000000000E+00 0. -1.
         11    1    5    5    0    0  0.19907780457E+02 -0.15917234607E+02  0.34547205918E+03  0.34641105893E+03  0.00000000000E+00 0. -1.
        -12    1    5    5    0    0 -0.27622973379E+02  0.33509357699E+02  0.16492535519E+03  0.17054699791E+03  0.00000000000E+00 0.  1.
          5    1    4    4  501    0  0.29990193648E+02  0.37753139884E+02  0.42550385704E+02  0.64441593786E+02  0.41800000000E+01 0.  1.
         -5    1    4    4    0  501  0.10999169977E+02 -0.86034806454E+02  0.20111531812E+02  0.89134257015E+02  0.41800000000E+01 0.  1.
</event>
<event>
11    1  0.8037748E-009  0.1447694E+03  0.7561462E-02  0.1102346E+00
         22   -1    0    0    0    0  0.00000000000E+00  0.00000000000E+00  0.67471947950E+03  0.67471947950E+03  0.00000000000E+00 0. -1.
         22   -1    0    0    0    0 -0.00000000000E+00 -0.00000000000E+00 -0.35160527480E+03  0.35160527480E+03  0.00000000000E+00 0.  1.
         24    2    1    2    0    0 -0.45898948370E+01  0.64844102541E+02 -0.28502291804E+03  0.30362631518E+03  0.82006406421E+02 0.  0.
         25    2    1    2    0    0 -0.47032861514E+02 -0.11069753777E+03  0.92882645300E+02  0.19682586997E+03  0.12508877792E+03 0.  0.
        -24    2    1    2    0    0  0.51622756351E+02  0.45853435232E+02  0.51525447743E+03  0.52587256915E+03  0.79292723298E+02 0.  0.
        -11    1    3    3    0    0 -0.12995525974E+02  0.63416144577E+01 -0.19742716246E+03  0.19795601594E+03  0.00000000000E+00 0.  1.
         12    1    3    3    0    0  0.84056311374E+01  0.58502488083E+02 -0.87595755584E+02  0.10567029925E+03  0.00000000000E+00 0. -1.
         11    1    5    5    0    0  0.61641207673E+02  0.61156418698E+02  0.42936043583E+03  0.43805265652E+03  0.00000000000E+00 0. -1.
        -12    1    5    5    0    0 -0.10018451322E+02 -0.15302983465E+02  0.85894041604E+02  0.87819912622E+02  0.00000000000E+00 0.  1.
          5    1    4    4  501    0 -0.10901796500E+02 -0.71097064654E+02 -0.17411429623E+02  0.74123356986E+02  0.41800000000E+01 0.  1.
         -5    1    4    4    0  501 -0.36131065014E+02 -0.39600473120E+02  0.11029407492E+03  0.12270251299E+03  0.41800000000E+01 0.  1.
</event>
<event>
11    1  0.8037748E-009  0.2157490E+03  0.7561462E-02  0.1043914E+00
         22   -1    0    0    0    0  0.00000000000E+00  0.00000000000E+00  0.94013404133E+03  0.94013404133E+03  0.00000000000E+00 0.  1.
         22   -1    0    0    0    0 -0.00000000000E+00 -0.00000000000E+00 -0.14119293542E+04  0.14119293542E+04  0.00000000000E+00 0.  1.
        -24    2    1    2    0    0  0.17242456470E+03 -0.30341573839E+02 -0.12996980075E+04  0.13138047900E+04  0.78849691343E+02 0.  0.
         25    2    1    2    0    0 -0.17369207784E+03  0.10484562813E+03  0.38856010026E+02  0.24149086931E+03  0.12508599762E+03 0.  0.
         24    2    1    2    0    0  0.12675131423E+01 -0.74504054287E+02  0.78904668465E+03  0.79676773621E+03  0.81802776251E+02 0.  0.
        -11    1    5    5    0    0 -0.39288940130E+02 -0.42718701647E+02  0.36191626907E+03  0.36654043993E+03  0.00000000000E+00 0.  1.
         12    1    5    5    0    0  0.40556453273E+02 -0.31785352641E+02  0.42713041558E+03  0.43022729627E+03  0.00000000000E+00 0. -1.
         13    1    3    3    0    0  0.17088078832E+02 -0.69783589760E+01 -0.40509468450E+03  0.40551498534E+03  0.00000000000E+00 0. -1.
        -14    1    3    3    0    0  0.15533648587E+03 -0.23363214863E+02 -0.89460332302E+03  0.90828980464E+03  0.00000000000E+00 0.  1.
          5    1    4    4  501    0 -0.57000687434E+02 -0.26094643951E+02  0.76009174736E+01  0.63287085233E+02  0.41800000000E+01 0.  1.
         -5    1    4    4    0  501 -0.11669139041E+03  0.13094027208E+03  0.31255092552E+02  0.17820378407E+03  0.41800000000E+01 0.  1.
</event>
<event>
11    1  0.8037748E-009  0.1788755E+03  0.7561462E-02  0.1070556E+00
         22   -1    0    0    0    0  0.00000000000E+00  0.00000000000E+00  0.58688203274E+03  0.58688203274E+03  0.00000000000E+00 0.  1.
         22   -1    0    0    0    0 -0.00000000000E+00 -0.00000000000E+00 -0.10476633312E+04  0.10476633312E+04  0.00000000000E+00 0.  1.
         24    2    1    2    0    0  0.99049888039E+02 -0.80358613659E+02 -0.99954555899E+03  0.10110527760E+04  0.82873423391E+02 0.  0.
         25    2    1    2    0    0 -0.12556927434E+03  0.69371089336E+02  0.21010783445E+03  0.28350213871E+03  0.12509264513E+03 0.  0.
        -24    2    1    2    0    0  0.26519386298E+02  0.10987524323E+02  0.32865642613E+03  0.33999044916E+03  0.82185494702E+02 0.  0.
        -11    1    3    3    0    0  0.42712730845E+02 -0.85342436469E+02 -0.64641709783E+03  0.65342388478E+03  0.00000000000E+00 0.  1.
         12    1    3    3    0    0  0.56337157194E+02  0.49838228093E+01 -0.35312846116E+03  0.35762889125E+03  0.00000000000E+00 0. -1.
         11    1    5    5    0    0  0.88928428639E+01  0.37146328337E+02  0.72938641760E+02  0.82334548186E+02  0.00000000000E+00 0. -1.
        -12    1    5    5    0    0  0.17626543434E+02 -0.26158804014E+02  0.25571778437E+03  0.25765590097E+03  0.00000000000E+00 0.  1.
          5    1    4    4  501    0 -0.14264153443E+03  0.80309544380E+02  0.20463968736E+03  0.26208987830E+03  0.41800000000E+01 0.  1.
         -5    1    4    4    0  501  0.17072260094E+02 -0.10938455044E+02  0.54681470822E+01  0.21412260413E+02  0.41800000000E+01 0.  1.
</event>
<event>
11    1  0.8037748E-009  0.1643980E+03  0.7561462E-02  0.1083012E+00
         22   -1    0    0    0    0  0.00000000000E+00  0.00000000000E+00  0.28903960317E+03  0.28903960317E+03  0.00000000000E+00 0. -1.
         22   -1    0    0    0    0 -0.00000000000E+00 -0.00000000000E+00 -0.35504047833E+03  0.35504047833E+03  0.00000000000E+00 0.  1.
         24    2    1    2    0    0  0.17616937381E+02  0.10683908725E+03 -0.26212056360E+03  0.29470495287E+03  0.80117865292E+02 0.  0.
         25    2    1    2    0    0 -0.31071343850E+02 -0.93359883458E+02  0.27544725380E+02  0.16151733430E+03  0.12509053175E+03 0.  0.
        -24    2    1    2    0    0  0.13454406468E+02 -0.13479203792E+02  0.16857496305E+03  0.18785779433E+03  0.80686570953E+02 0.  0.
        -13    1    3    3    0    0 -0.23303723261E+02  0.79263052746E+02 -0.19140983768E+03  0.20847882628E+03  0.00000000000E+00 0.  1.
         14    1    3    3    0    0  0.40920660642E+02  0.27576034504E+02 -0.70710725925E+02  0.86226126593E+02  0.00000000000E+00 0. -1.
         13    1    5    5    0    0 -0.20914037840E+02  0.36872913015E+01  0.13553039228E+03  0.13718411106E+03  0.00000000000E+00 0. -1.
        -14    1    5    5    0    0  0.34368444308E+02 -0.17166495093E+02  0.33044570771E+02  0.50673683263E+02  0.00000000000E+00 0.  1.
          5    1    4    4  501    0  0.12615493998E+02 -0.26952620512E+02 -0.44806258143E+02  0.53950603426E+02  0.41800000000E+01 0. -1.
         -5    1    4    4    0  501 -0.43686837848E+02 -0.66407262946E+02  0.72350983523E+02  0.10756673087E+03  0.41800000000E+01 0. -1.
</event>
<event>
11    1  0.8037748E-009  0.3615608E+03  0.7561462E-02  0.9770521E-01
         22   -1    0    0    0    0  0.00000000000E+00  0.00000000000E+00  0.11684616203E+04  0.11684616203E+04  0.00000000000E+00 0. -1.
         22   -1    0    0    0    0 -0.00000000000E+00 -0.00000000000E+00 -0.10083679081E+04  0.10083679081E+04  0.00000000000E+00 0. -1.
        -24    2    1    2    0    0 -0.24966234101E+03 -0.13279718654E+03 -0.95794756170E+03  0.10017795355E+04  0.77021617248E+02 0.  0.
         25    2    1    2    0    0  0.16933713354E+03  0.52375223216E+02  0.63656593859E+03  0.67251904311E+03  0.12508972928E+03 0.  0.
         24    2    1    2    0    0  0.80325207462E+02  0.80421963322E+02  0.48147533529E+03  0.50253094974E+03  0.88312093263E+02 0.  0.
        -11    1    5    5    0    0  0.37540760689E+02  0.92198826265E+02  0.32953060784E+03  0.34423880342E+03  0.00000000000E+00 0.  1.
         12    1    5    5    0    0  0.42784446773E+02 -0.11776862944E+02  0.15194472745E+03  0.15829214632E+03  0.00000000000E+00 0. -1.
         11    1    3    3    0    0 -0.12417734528E+03 -0.28778126515E+02 -0.48782445000E+03  0.50420322060E+03  0.00000000000E+00 0. -1.
        -12    1    3    3    0    0 -0.12548499573E+03 -0.10401906002E+03 -0.47012311170E+03  0.49757631491E+03  0.00000000000E+00 0.  1.
          5    1    4    4  501    0  0.44981258121E+02  0.20086318047E+02  0.44042101043E+02  0.66211425141E+02  0.41800000000E+01 0.  1.
         -5    1    4    4    0  501  0.12435587542E+03  0.32288905169E+02  0.59252383755E+03  0.60630761797E+03  0.41800000000E+01 0.  1.
</event>
<event>
11    1  0.8037748E-009  0.1883683E+03  0.7561462E-02  0.1063068E+00
         22   -1    0    0    0    0  0.00000000000E+00  0.00000000000E+00  0.20851198971E+04  0.20851198971E+04  0.00000000000E+00 0. -1.
         22   -1    0    0    0    0 -0.00000000000E+00 -0.00000000000E+00 -0.24545305049E+03  0.24545305049E+03  0.00000000000E+00 0. -1.
        -24    2    1    2    0    0 -0.88561972465E+02 -0.95674935865E+02 -0.78292813542E+02  0.17186264737E+03  0.80063028849E+02 0.  0.
         25    2    1    2    0    0  0.84519863052E+02  0.13879191581E+03 -0.31106920681E+02  0.20741857179E+03  0.12509204716E+03 0.  0.
         24    2    1    2    0    0  0.40421094133E+01 -0.43116979943E+02  0.19490665809E+04  0.19512917285E+04  0.82483091412E+02 0.  0.
        -11    1    5    5    0    0 -0.25713801062E+02  0.10032552497E+02  0.35929179222E+03  0.36035044558E+03  0.00000000000E+00 0.  1.
         12    1    5    5    0    0  0.29755910475E+02 -0.53149532440E+02  0.15897747886E+04  0.15909412829E+04  0.00000000000E+00 0. -1.
         11    1    3    3    0    0 -0.98091758562E+02 -0.60719579238E+02 -0.69129620196E+02  0.13449076098E+03  0.00000000000E+00 0. -1.
        -12    1    3    3    0    0  0.95297860961E+01 -0.34955356627E+02 -0.91631933455E+01  0.37371886388E+02  0.00000000000E+00 0.  1.
          5    1    4    4  501    0  0.96284173943E+02  0.99831582098E+02 -0.65991424795E+02  0.15365327033E+03  0.41800000000E+01 0.  1.
         -5    1    4    4    0  501 -0.11764310891E+02  0.38960333710E+02  0.34884504114E+02  0.53765301457E+02  0.41800000000E+01 0.  1.
</event>
<event>
11    1  0.8037748E-009  0.2549033E+03  0.7561462E-02  0.1021319E+00
         22   -1    0    0    0    0  0.00000000000E+00  0.00000000000E+00  0.17333382907E+04  0.17333382907E+04  0.00000000000E+00 0. -1.
         22   -1    0    0    0    0 -0.00000000000E+00 -0.00000000000E+00 -0.61453340720E+03  0.61453340720E+03  0.00000000000E+00 0.  1.
        -24    2    1    2    0    0  0.10136378396E+03 -0.37646488753E+02 -0.52795540322E+03  0.54476405184E+03  0.79618399701E+02 0.  0.
         25    2    1    2    0    0 -0.20477696936E+03  0.22257500061E+03  0.32174179063E+03  0.45893919629E+03  0.12503666652E+03 0.  0.
         24    2    1    2    0    0  0.10341318540E+03 -0.18492851186E+03  0.13250184961E+04  0.13441684498E+04  0.78879433234E+02 0.  0.
        -13    1    5    5    0    0  0.31274469552E+02 -0.65916040483E+02  0.25817246791E+03  0.26828350681E+03  0.00000000000E+00 0.  1.
         14    1    5    5    0    0  0.72138715852E+02 -0.11901247137E+03  0.10668460282E+04  0.10758849429E+04  0.00000000000E+00 0. -1.
         11    1    3    3    0    0 -0.36044054758E+01  0.12735879567E+02 -0.22796109063E+02  0.26360139522E+02  0.00000000000E+00 0. -1.
        -12    1    3    3    0    0  0.10496818943E+03 -0.50382368320E+02 -0.50515929416E+03  0.51840391231E+03  0.00000000000E+00 0.  1.
          5    1    4    4  501    0 -0.69929068627E+02  0.74944628490E+02  0.33122937609E+02  0.10780247388E+03  0.41800000000E+01 0.  1.
         -5    1    4    4    0  501 -0.13484790074E+03  0.14763037212E+03  0.28861885302E+03  0.35113672241E+03  0.41800000000E+01 0.  1.
</event>
<event>
11    1  0.8037748E-009  0.1556434E+03  0.7561462E-02  0.1091248E+00
         22   -1    0    0    0    0  0.00000000000E+00  0.00000000000E+00  0.68565256960E+03  0.68565256960E+03  0.00000000000E+00 0. -1.
         22   -1    0    0    0    0 -0.00000000000E+00 -0.00000000000E+00 -0.31230078646E+04  0.31230078646E+04  0.00000000000E+00 0.  1.
         24    2    1    2    0    0  0.22212794760E+02 -0.19067661747E+01 -0.30700945043E+04  0.30712231752E+04  0.80215229576E+02 0.  0.
         25    2    1    2    0    0  0.72849438550E+02 -0.72816405366E+01  0.69659001524E+02  0.16080681701E+03  0.12508554240E+03 0.  0.
        -24    2    1    2    0    0 -0.95062233310E+02  0.91884067113E+01  0.56308020779E+03  0.57663044189E+03  0.79511578381E+02 0.  0.
        -13    1    3    3    0    0  0.22248560644E+01 -0.19716327374E+02 -0.27314722211E+04  0.27315442845E+04  0.00000000000E+00 0.  1.
         14    1    3    3    0    0  0.19987938696E+02  0.17809561200E+02 -0.33862228319E+03  0.33967889077E+03  0.00000000000E+00 0. -1.
         13    1    5    5    0    0 -0.68799252892E+02 -0.29741286082E+02  0.39822118451E+03  0.40521351544E+03  0.00000000000E+00 0. -1.
        -14    1    5    5    0    0 -0.26262980418E+02  0.38929692794E+02  0.16485902327E+03  0.17141692646E+03  0.00000000000E+00 0.  1.
          5    1    4    4  501    0  0.94324761156E+02 -0.42519918376E+01  0.90197763950E+02  0.13064589172E+03  0.41800000000E+01 0.  1.
         -5    1    4    4    0  501 -0.21475322606E+02 -0.30296486990E+01 -0.20538762426E+02  0.30160925289E+02  0.41800000000E+01 0.  1.
</event>
<event>
11    1  0.8037748E-009  0.1388992E+03  0.7561462E-02  0.1108794E+00
         22   -1    0    0    0    0  0.00000000000E+00  0.00000000000E+00  0.96135666918E+03  0.96135666918E+03  0.00000000000E+00 0. -1.
         22   -1    0    0    0    0 -0.00000000000E+00 -0.00000000000E+00 -0.17707591697E+04  0.17707591697E+04  0.00000000000E+00 0. -1.
         24    2    1    2    0    0 -0.37506557727E+02 -0.15596193685E+02 -0.17500235824E+04  0.17519319313E+04  0.70943427577E+02 0.  0.
         25    2    1    2    0    0 -0.25910294143E+02  0.35524143959E+02  0.26314492093E+03  0.29466171486E+03  0.12508784370E+03 0.  0.
        -24    2    1    2    0    0  0.63416851871E+02 -0.19927950274E+02  0.67747616092E+03  0.68552219271E+03  0.80919143519E+02 0.  0.
        -11    1    3    3    0    0 -0.12581609443E+01 -0.15683762402E+02 -0.80958803692E+02  0.82473579207E+02  0.00000000000E+00 0.  1.
         12    1    3    3    0    0 -0.36248396783E+02  0.87568717288E-01 -0.16690647787E+04  0.16694583521E+04  0.00000000000E+00 0. -1.
         13    1    5    5    0    0  0.43105648851E+02 -0.18192119303E+02  0.64798141169E+03  0.64966834621E+03  0.00000000000E+00 0. -1.
        -14    1    5    5    0    0  0.20311203019E+02 -0.17358309716E+01  0.29494749223E+02  0.35853846502E+02  0.00000000000E+00 0.  1.
          5    1    4    4  501    0 -0.75051279278E+01 -0.24198514430E+02  0.16069339984E+01  0.25728382823E+02  0.41800000000E+01 0. -1.
         -5    1    4    4    0  501 -0.18405166216E+02  0.59722658389E+02  0.26153798694E+03  0.26893333203E+03  0.41800000000E+01 0. -1.
</event>
<event>
11    1  0.8037748E-009  0.2086821E+03  0.7561462E-02  0.1048548E+00
         22   -1    0    0    0    0  0.00000000000E+00  0.00000000000E+00  0.10327598429E+04  0.10327598429E+04  0.00000000000E+00 0. -1.
         22   -1    0    0    0    0 -0.00000000000E+00 -0.00000000000E+00 -0.70040503219E+03  0.70040503219E+03  0.00000000000E+00 0. -1.
         24    2    1    2    0    0 -0.16011742040E+03 -0.42371480428E+02 -0.51741776551E+03  0.54923290987E+03  0.80639410617E+02 0.  0.
         25    2    1    2    0    0  0.16107738414E+03  0.67121391749E+02 -0.95613228613E+02  0.23503276072E+03  0.12508918504E+03 0.  0.
        -24    2    1    2    0    0 -0.95996373779E+00 -0.24749911321E+02  0.94538580484E+03  0.94889920450E+03  0.77729664010E+02 0.  0.
        -11    1    3    3    0    0  0.68601351555E+01  0.72017120063E+01 -0.32043315383E+02  0.33551455571E+02  0.00000000000E+00 0.  1.
         12    1    3    3    0    0 -0.16697755556E+03 -0.49573192435E+02 -0.48537445013E+03  0.51568145430E+03  0.00000000000E+00 0. -1.
         11    1    5    5    0    0 -0.70678632452E-01 -0.36967924225E+02  0.91968957254E+03  0.92043225837E+03  0.00000000000E+00 0. -1.
        -12    1    5    5    0    0 -0.88928510534E+00  0.12218012904E+02  0.25696232300E+02  0.28466946126E+02  0.00000000000E+00 0.  1.
          5    1    4    4  501    0  0.51981802968E+02  0.88898983341E+02 -0.52309745431E+02  0.11558078969E+03  0.41800000000E+01 0. -1.
         -5    1    4    4    0  501  0.10909558117E+03 -0.21777591592E+02 -0.43303483182E+02  0.11945197103E+03  0.41800000000E+01 0. -1.
</event>
<event>
11    1  0.8037748E-009  0.1390570E+03  0.7561462E-02  0.1108616E+00
         22   -1    0    0    0    0  0.00000000000E+00  0.00000000000E+00  0.15219401445E+03  0.15219401445E+03  0.00000000000E+00 0.  1.
         22   -1    0    0    0    0 -0.00000000000E+00 -0.00000000000E+00 -0.61844480933E+03  0.61844480933E+03  0.00000000000E+00 0.  1.
        -24    2    1    2    0    0  0.54521209973E+02 -0.27144806868E+02 -0.46991912122E+03  0.47900804743E+03  0.70109386943E+02 0.  0.
         25    2    1    2    0    0 -0.41250025637E+02  0.47702506799E+02 -0.89563242593E+02  0.16629631280E+03  0.12512312120E+03 0.  0.
         24    2    1    2    0    0 -0.13271184336E+02 -0.20557699931E+02  0.93231568937E+02  0.12533446355E+03  0.80111540664E+02 0.  0.
        -13    1    5    5    0    0  0.26101882477E+02 -0.23404902410E+02  0.72986639889E+02  0.80970039694E+02  0.00000000000E+00 0.  1.
         14    1    5    5    0    0 -0.39373066814E+02  0.28472024783E+01  0.20244929048E+02  0.44364423860E+02  0.00000000000E+00 0. -1.
         11    1    3    3    0    0  0.82925880355E+01  0.89977851017E+01 -0.11318339818E+02  0.16668292333E+02  0.00000000000E+00 0. -1.
        -12    1    3    3    0    0  0.46228621937E+02 -0.36142591970E+02 -0.45860078140E+03  0.46233975510E+03  0.00000000000E+00 0.  1.
          5    1    4    4  501    0  0.24173170345E+02  0.55888748077E+02 -0.83489094128E+01  0.61604147705E+02  0.41800000000E+01 0.  1.
         -5    1    4    4    0  501 -0.65423195981E+02 -0.81862412775E+01 -0.81214333180E+02  0.10469216510E+03  0.41800000000E+01 0.  1.
</event>
<event>
11    1  0.8037748E-009  0.1422566E+03  0.7561462E-02  0.1105064E+00
         22   -1    0    0    0    0  0.00000000000E+00  0.00000000000E+00  0.50905757766E+03  0.50905757766E+03  0.00000000000E+00 0. -1.
         22   -1    0    0    0    0 -0.00000000000E+00 -0.00000000000E+00 -0.75621688403E+03  0.75621688403E+03  0.00000000000E+00 0. -1.
        -24    2    1    2    0    0 -0.61558719423E+02  0.13549705581E+02 -0.56700779992E+03  0.57799214608E+03  0.92757777601E+02 0.  0.
         25    2    1    2    0    0  0.86739512921E+02 -0.66385883224E+02 -0.13977724736E+03  0.21706072367E+03  0.12508737062E+03 0.  0.
         24    2    1    2    0    0 -0.25180793497E+02  0.52836177643E+02  0.45962574091E+03  0.47022159193E+03  0.80167261287E+02 0.  0.
        -11    1    5    5    0    0  0.57542640089E+01 -0.16289121773E+02  0.36623394454E+02  0.40493457049E+02  0.00000000000E+00 0.  1.
         12    1    5    5    0    0 -0.30935057506E+02  0.69125299416E+02  0.42300234646E+03  0.42972813488E+03  0.00000000000E+00 0. -1.
         13    1    3    3    0    0 -0.37819009324E+02  0.53273106016E+02 -0.30356272298E+03  0.31051349097E+03  0.00000000000E+00 0. -1.
        -14    1    3    3    0    0 -0.23739710099E+02 -0.39723400435E+02 -0.26344507694E+03  0.26747865511E+03  0.00000000000E+00 0.  1.
          5    1    4    4  501    0  0.42414958733E+02 -0.44738393644E+02  0.69757893182E+01  0.62182687516E+02  0.41800000000E+01 0.  1.
         -5    1    4    4    0  501  0.44324554188E+02 -0.21647489581E+02 -0.14675303668E+03  0.15487803616E+03  0.41800000000E+01 0.  1.
</event>
<event>
11    1  0.8037748E-009  0.1276644E+03  0.7561462E-02  0.1122172E+00
         22   -1    0    0    0    0  0.00000000000E+00  0.00000000000E+00  0.37717390739E+03  0.37717390739E+03  0.00000000000E+00 0. -1.
         22   -1    0    0    0    0 -0.00000000000E+00 -0.00000000000E+00 -0.68956140415E+03  0.68956140415E+03  0.00000000000E+00 0.  1.
         24    2    1    2    0    0 -0.90089164092E+01 -0.22839116136E+02 -0.61369981341E+03  0.61967892821E+03  0.82290505442E+02 0.  0.
         25    2    1    2    0    0  0.27728732639E+02  0.39223299011E+02 -0.28152678949E+00  0.13399715207E+03  0.12509119756E+03 0.  0.
        -24    2    1    2    0    0 -0.18719816229E+02 -0.16384182875E+02  0.30159384344E+03  0.31305923126E+03  0.80177072212E+02 0.  0.
        -13    1    3    3    0    0 -0.43698824809E+01 -0.40992152653E+02 -0.14889170607E+03  0.15449334156E+03  0.00000000000E+00 0.  1.
         14    1    3    3    0    0 -0.46390339283E+01  0.18153036517E+02 -0.46480810734E+03  0.46518558665E+03  0.00000000000E+00 0. -1.
         13    1    5    5    0    0  0.16789868475E+02  0.14404258865E+01  0.23434376689E+03  0.23494887867E+03  0.00000000000E+00 0. -1.
        -14    1    5    5    0    0 -0.35509684704E+02 -0.17824608761E+02  0.67250076554E+02  0.78110352590E+02  0.00000000000E+00 0.  1.
          5    1    4    4  501    0  0.20860808959E+02  0.45106080879E+02  0.57067909896E+02  0.75788855530E+02  0.41800000000E+01 0. -1.
         -5    1    4    4    0  501  0.68679236794E+01 -0.58827818686E+01 -0.57349436685E+02  0.58208296542E+02  0.41800000000E+01 0. -1.
</event>
<event>
11    1  0.8037748E-009  0.1450829E+03  0.7561462E-02  0.1102012E+00
         22   -1    0    0    0    0  0.00000000000E+00  0.00000000000E+00  0.56953018118E+03  0.56953018118E+03  0.00000000000E+00 0.  1.
         22   -1    0    0    0    0 -0.00000000000E+00 -0.00000000000E+00 -0.15530082146E+03  0.15530082146E+03  0.00000000000E+00 0.  1.
         24    2    1    2    0    0 -0.34635175736E+02  0.22972559924E+02 -0.84293153741E+02  0.12343804913E+03  0.80026759880E+02 0.  0.
         25    2    1    2    0    0  0.25057283436E+02 -0.93182025474E+02  0.96027458592E+02  0.18487444364E+03  0.12508608949E+03 0.  0.
        -24    2    1    2    0    0  0.95778922997E+01  0.70209465550E+02  0.40249505487E+03  0.41651850987E+03  0.80400838314E+02 0.  0.
        -13    1    3    3    0    0 -0.39874540675E+02  0.42559141780E+02 -0.85077482977E+02  0.10314764977E+03  0.00000000000E+00 0.  1.
         14    1    3    3    0    0  0.52393649391E+01 -0.19586581856E+02  0.78432923604E+00  0.20290399358E+02  0.00000000000E+00 0. -1.
         11    1    5    5    0    0 -0.35115202773E+02  0.39776319037E+02  0.19362960865E+03  0.20076767262E+03  0.00000000000E+00 0. -1.
        -12    1    5    5    0    0  0.44693095073E+02  0.30433146513E+02  0.20886544621E+03  0.21575083726E+03  0.00000000000E+00 0.  1.
          5    1    4    4  501    0 -0.45145277335E+02 -0.84394452950E+01  0.16272921175E+02  0.48903994378E+02  0.41800000000E+01 0.  1.
         -5    1    4    4    0  501  0.70202560771E+02 -0.84742580179E+02  0.79754537417E+02  0.13597044926E+03  0.41800000000E+01 0.  1.
</event>
<event>
11    1  0.8037748E-009  0.1668927E+03  0.7561462E-02  0.1080768E+00
         22   -1    0    0    0    0  0.00000000000E+00  0.00000000000E+00  0.80230011057E+03  0.80230011057E+03  0.00000000000E+00 0.  1.
         22   -1    0    0    0    0 -0.00000000000E+00 -0.00000000000E+00 -0.85588028462E+02  0.85588028462E+02  0.00000000000E+00 0. -1.
        -24    2    1    2    0    0  0.12240217208E+02 -0.10615957336E+03  0.15761012875E+02  0.13574958547E+03  0.82218382952E+02 0.  0.
         25    2    1    2    0    0 -0.17686111640E+02  0.12849624058E+03  0.38151806173E+03  0.42193214076E+03  0.12508644046E+03 0.  0.
         24    2    1    2    0    0  0.54458944319E+01 -0.22336667226E+02  0.31943300750E+03  0.33020641280E+03  0.80437828831E+02 0.  0.
        -11    1    5    5    0    0  0.37105329177E+01 -0.47824330975E+02  0.27325170373E+03  0.27743004214E+03  0.00000000000E+00 0.  1.
         12    1    5    5    0    0  0.17353615142E+01  0.25487663749E+02  0.46181303766E+02  0.52776370664E+02  0.00000000000E+00 0. -1.
         13    1    3    3    0    0  0.10028522298E+02 -0.11257009710E+03 -0.57827292177E+01  0.11316376619E+03  0.00000000000E+00 0. -1.
        -14    1    3    3    0    0  0.22116949099E+01  0.64105237462E+01  0.21543742092E+02  0.22585819277E+02  0.00000000000E+00 0.  1.
          5    1    4    4  501    0  0.16950788273E+01  0.84750151009E+02  0.80062763462E+02  0.11667467541E+03  0.41800000000E+01 0.  1.
         -5    1    4    4    0  501 -0.19381190468E+02  0.43746089574E+02  0.30145529827E+03  0.30525746535E+03  0.41800000000E+01 0.  1.
</event>
<event>
11    1  0.8037748E-009  0.1341332E+03  0.7561462E-02  0.1114292E+00
         22   -1    0    0    0    0  0.00000000000E+00  0.00000000000E+00  0.33945638433E+03  0.33945638433E+03  0.00000000000E+00 0. -1.
         22   -1    0    0    0    0 -0.00000000000E+00 -0.00000000000E+00 -0.35273071903E+03  0.35273071903E+03  0.00000000000E+00 0. -1.
        -24    2    1    2    0    0  0.25961286134E+02  0.39877026404E+02 -0.29208052723E+03  0.30936921195E+03  0.90189297065E+02 0.  0.
         25    2    1    2    0    0 -0.13829711556E+02 -0.61511761932E+02  0.67858642592E+02  0.15564531007E+03  0.12508281014E+03 0.  0.
         24    2    1    2    0    0 -0.12131574579E+02  0.21634735528E+02  0.21094754994E+03  0.22717258135E+03  0.80580866270E+02 0.  0.
        -11    1    5    5    0    0 -0.27089535587E+02 -0.94064372770E+01  0.24951874930E+02  0.38012104165E+02  0.00000000000E+00 0.  1.
         12    1    5    5    0    0  0.14957961008E+02  0.31041172805E+02  0.18599567501E+03  0.18916047718E+03  0.00000000000E+00 0. -1.
         13    1    3    3    0    0  0.26354372256E+02  0.54421211492E+02 -0.28797058421E+03  0.29425036715E+03  0.00000000000E+00 0. -1.
        -14    1    3    3    0    0 -0.39308612203E+00 -0.14544185088E+02 -0.41099430197E+01  0.15118844804E+02  0.00000000000E+00 0.  1.
          5    1    4    4  501    0  0.13893074361E+02  0.30906117732E+02 -0.52157154574E+01  0.34538119755E+02  0.41800000000E+01 0. -1.
         -5    1    4    4    0  501 -0.27722785917E+02 -0.92417879664E+02  0.73074358049E+02  0.12110719031E+03  0.41800000000E+01 0. -1.
</event>
<event>
11    1  0.8037748E-009  0.1569780E+03  0.7561462E-02  0.1089955E+00
         22   -1    0    0    0    0  0.00000000000E+00  0.00000000000E+00  0.11720815584E+03  0.11720815584E+03  0.00000000000E+00 0.  1.
         22   -1    0    0    0    0 -0.00000000000E+00 -0.00000000000E+00 -0.97278002141E+03  0.97278002141E+03  0.00000000000E+00 0.  1.
        -24    2    1    2    0    0 -0.19656290873E+02  0.90625374154E+02 -0.73774956273E+03  0.74800246915E+03  0.81449053609E+02 0.  0.
         25    2    1    2    0    0  0.18145979112E+02 -0.10688182477E+03 -0.17599681224E+03  0.24161039457E+03  0.12509078233E+03 0.  0.
         24    2    1    2    0    0  0.15103117613E+01  0.16256450613E+02  0.58174509398E+02  0.10037531352E+03  0.80152210152E+02 0.  0.
        -11    1    5    5    0    0  0.14082162164E+02  0.46478326755E+02  0.40123126429E+02  0.62995296837E+02  0.00000000000E+00 0.  1.
         12    1    5    5    0    0 -0.12571850403E+02 -0.30221876141E+02  0.18051382969E+02  0.37380016682E+02  0.00000000000E+00 0. -1.
         13    1    3    3    0    0  0.21984675061E+02  0.18677050815E+01 -0.21580326991E+03  0.21692824981E+03  0.00000000000E+00 0. -1.
        -14    1    3    3    0    0 -0.41640965935E+02  0.88757669073E+02 -0.52194629282E+03  0.53107421934E+03  0.00000000000E+00 0.  1.
          5    1    4    4  501    0  0.44808697506E+02 -0.89259779475E+02 -0.18309513423E+03  0.20860591598E+03  0.41800000000E+01 0. -1.
         -5    1    4    4    0  501 -0.26662718394E+02 -0.17622045292E+02  0.70983219840E+01  0.33004478597E+02  0.41800000000E+01 0. -1.
</event>
<event>
11    1  0.8037748E-009  0.1800588E+03  0.7561462E-02  0.1069595E+00
         22   -1    0    0    0    0  0.00000000000E+00  0.00000000000E+00  0.88610656688E+02  0.88610656688E+02  0.00000000000E+00 0.  1.
         22   -1    0    0    0    0 -0.00000000000E+00 -0.00000000000E+00 -0.31729307669E+04  0.31729307669E+04  0.00000000000E+00 0. -1.
         24    2    1    2    0    0  0.12814388728E+03 -0.19921774093E+02 -0.27001807560E+04  0.27044738088E+04  0.79904532025E+02 0.  0.
         25    2    1    2    0    0 -0.12723392256E+03  0.15016882339E+02 -0.42965740949E+03  0.46547663252E+03  0.12509607544E+03 0.  0.
        -24    2    1    2    0    0 -0.90996471824E+00  0.49048917541E+01  0.45518055334E+02  0.91590982253E+02  0.79322939115E+02 0.  0.
        -11    1    3    3    0    0  0.30124713225E+02  0.20688133546E+02 -0.11948201352E+04  0.11953788741E+04  0.00000000000E+00 0.  1.
         12    1    3    3    0    0  0.98019174056E+02 -0.40609907639E+02 -0.15053606208E+04  0.15090949347E+04  0.00000000000E+00 0. -1.
         11    1    5    5    0    0  0.20808366319E+02  0.46500282722E+01 -0.15801356575E+02  0.26538533143E+02  0.00000000000E+00 0. -1.
        -12    1    5    5    0    0 -0.21718331037E+02  0.25486348197E+00  0.61319411908E+02  0.65052449110E+02  0.00000000000E+00 0.  1.
          5    1    4    4  501    0 -0.63306324643E+02  0.19669834997E+01 -0.51584596895E+02  0.81792437308E+02  0.41800000000E+01 0. -1.
         -5    1    4    4    0  501 -0.63927597919E+02  0.13049898839E+02 -0.37807281259E+03  0.38368419521E+03  0.41800000000E+01 0. -1.
</event>
<event>
11    1  0.8037748E-009  0.1660727E+03  0.7561462E-02  0.1081501E+00
         22   -1    0    0    0    0  0.00000000000E+00  0.00000000000E+00  0.19949549577E+04  0.19949549577E+04  0.00000000000E+00 0.  1.
         22   -1    0    0    0    0 -0.00000000000E+00 -0.00000000000E+00 -0.91892332739E+03  0.91892332739E+03  0.00000000000E+00 0.  1.
        -24    2    1    2    0    0 -0.10504739930E+03 -0.31396737482E+02 -0.88168316616E+03  0.89221289782E+03  0.81596190611E+02 0.  0.
         25    2    1    2    0    0  0.96655213804E+02  0.38786585446E+01  0.17128083630E+03  0.23311345138E+03  0.12508989560E+03 0.  0.
         24    2    1    2    0    0  0.83921854984E+01  0.27518078937E+02  0.17864339602E+04  0.17885519359E+04  0.82122225550E+02 0.  0.
        -13    1    5    5    0    0 -0.35781707573E+02  0.29948970190E+01  0.84617751596E+03  0.84693901110E+03  0.00000000000E+00 0.  1.
         14    1    5    5    0    0  0.44173893071E+02  0.24523181918E+02  0.94025644421E+03  0.94161292480E+03  0.00000000000E+00 0. -1.
         11    1    3    3    0    0  0.37102549220E+01  0.39882871524E+01 -0.26245369312E+03  0.26251021591E+03  0.00000000000E+00 0. -1.
        -12    1    3    3    0    0 -0.10875765422E+03 -0.35385024634E+02 -0.61922947304E+03  0.62970268191E+03  0.00000000000E+00 0.  1.
          5    1    4    4  501    0  0.47418733218E+02 -0.28230383619E+01 -0.68126862977E+01  0.48170435956E+02  0.41800000000E+01 0. -1.
         -5    1    4    4    0  501  0.49236480586E+02  0.67016969065E+01  0.17809352260E+03  0.18494301543E+03  0.41800000000E+01 0. -1.
</event>
<event>
11    1  0.8037748E-009  0.2186407E+03  0.7561462E-02  0.1042072E+00
         22   -1    0    0    0    0  0.00000000000E+00  0.00000000000E+00  0.25845613767E+04  0.25845613767E+04  0.00000000000E+00 0. -1.
         22   -1    0    0    0    0 -0.00000000000E+00 -0.00000000000E+00 -0.11992899939E+04  0.11992899939E+04  0.00000000000E+00 0.  1.
         24    2    1    2    0    0 -0.82580296166E+01 -0.12120361305E+02 -0.10453085002E+04  0.10483960111E+04  0.79052117767E+02 0.  0.
         25    2    1    2    0    0  0.18736766992E+03  0.11999186409E+02 -0.62944072407E+02  0.23422476214E+03  0.12509459917E+03 0.  0.
        -24    2    1    2    0    0 -0.17910964030E+03  0.12117489601E+00  0.24935239554E+04  0.25012305973E+04  0.80078128072E+02 0.  0.
        -11    1    3    3    0    0 -0.23060732520E+02 -0.34657561314E+02 -0.87287057428E+03  0.87386267994E+03  0.00000000000E+00 0.  1.
         12    1    3    3    0    0  0.14802702904E+02  0.22537200009E+02 -0.17243792592E+03  0.17453333118E+03  0.00000000000E+00 0. -1.
         13    1    5    5    0    0 -0.13722065668E+03  0.26579522862E+02  0.15085195133E+04  0.15149808915E+04  0.00000000000E+00 0. -1.
        -14    1    5    5    0    0 -0.41888983623E+02 -0.26458347966E+02  0.98500444210E+03  0.98624970575E+03  0.00000000000E+00 0.  1.
          5    1    4    4  501    0  0.65008746313E+01 -0.37290948476E+02 -0.11667844944E+02  0.39830732040E+02  0.41800000000E+01 0. -1.
         -5    1    4    4    0  501  0.18086679529E+03  0.49290134885E+02 -0.51276227463E+02  0.19439403010E+03  0.41800000000E+01 0. -1.
</event>
<event>
11    1  0.8037748E-009  0.1384123E+03  0.7561462E-02  0.1109344E+00
         22   -1    0    0    0    0  0.00000000000E+00  0.00000000000E+00  0.16525418160E+03  0.16525418160E+03  0.00000000000E+00 0. -1.
         22   -1    0    0    0    0 -0.00000000000E+00 -0.00000000000E+00 -0.24632049244E+04  0.24632049244E+04  0.00000000000E+00 0. -1.
        -24    2    1    2    0    0 -0.36511795170E+02  0.47243441746E+02 -0.20385522747E+04  0.20409381099E+04  0.78536219623E+02 0.  0.
         25    2    1    2    0    0  0.47762736404E+02 -0.31981272852E+02 -0.40038204367E+03  0.42338858392E+03  0.12509209128E+03 0.  0.
         24    2    1    2    0    0 -0.11250941234E+02 -0.15262168894E+02  0.14098357556E+03  0.16413241218E+03  0.81875287318E+02 0.  0.
        -11    1    5    5    0    0 -0.31745875460E+02 -0.31148626397E+02  0.39814085370E+02  0.59692536627E+02  0.00000000000E+00 0.  1.
         12    1    5    5    0    0  0.20494934225E+02  0.15886457503E+02  0.10116949019E+03  0.10443987556E+03  0.00000000000E+00 0. -1.
         11    1    3    3    0    0 -0.43341131581E+02 -0.12158537677E+01 -0.60546215739E+03  0.60701264898E+03  0.00000000000E+00 0. -1.
        -12    1    3    3    0    0  0.68293364108E+01  0.48459295513E+02 -0.14330901173E+04  0.14339254609E+04  0.00000000000E+00 0.  1.
          5    1    4    4  501    0  0.52051517715E+02 -0.96428366307E+01 -0.52278113678E+02  0.74517235351E+02  0.41800000000E+01 0. -1.
         -5    1    4    4    0  501 -0.42887813107E+01 -0.22338436221E+02 -0.34810392999E+03  0.34887134857E+03  0.41800000000E+01 0. -1.
</event>
<event>
11    1  0.8037748E-009  0.1530071E+03  0.7561462E-02  0.1093845E+00
         22   -1    0    0    0    0  0.00000000000E+00  0.00000000000E+00  0.18234284428E+04  0.18234284428E+04  0.00000000000E+00 0.  1.
         22   -1    0    0    0    0 -0.00000000000E+00 -0.00000000000E+00 -0.83369260096E+02  0.83369260096E+02  0.00000000000E+00 0.  1.
        -24    2    1    2    0    0 -0.89062698747E+02 -0.13738008300E+02 -0.27025164145E+02  0.12321615067E+03  0.79567349520E+02 0.  0.
         25    2    1    2    0    0  0.56819266705E+02  0.11226682640E+02  0.72065242975E+03  0.73371739006E+03  0.12508723556E+03 0.  0.
         24    2    1    2    0    0  0.32243432041E+02  0.25113256600E+01  0.10464319171E+04  0.10498641622E+04  0.78415918050E+02 0.  0.
        -11    1    5    5    0    0 -0.16243183643E+02 -0.22629134330E+02  0.47918797631E+03  0.47999691184E+03  0.00000000000E+00 0.  1.
         12    1    5    5    0    0  0.48486615684E+02  0.25140459990E+02  0.56724394078E+03  0.56986725032E+03  0.00000000000E+00 0. -1.
         13    1    3    3    0    0 -0.28612781883E+02 -0.13806665787E+02  0.27341196010E+02  0.41914869754E+02  0.00000000000E+00 0. -1.
        -14    1    3    3    0    0 -0.60449916864E+02  0.68657486794E-01 -0.54366360155E+02  0.81301280920E+02  0.00000000000E+00 0.  1.
          5    1    4    4  501    0 -0.37390647199E+02  0.14324686108E+02  0.29489424390E+03  0.29762954258E+03  0.41800000000E+01 0.  1.
         -5    1    4    4    0  501  0.94209913904E+02 -0.30980034679E+01  0.42575818585E+03  0.43608784748E+03  0.41800000000E+01 0.  1.
</event>
<event>
11    1  0.8037748E-009  0.1318683E+03  0.7561462E-02  0.1116994E+00
         22   -1    0    0    0    0  0.00000000000E+00  0.00000000000E+00  0.28204701147E+03  0.28204701147E+03  0.00000000000E+00 0.  1.
         22   -1    0    0    0    0 -0.00000000000E+00 -0.00000000000E+00 -0.33118361400E+03  0.33118361400E+03  0.00000000000E+00 0. -1.
        -24    2    1    2    0    0 -0.20108664845E+02 -0.48359623279E+02 -0.19949665221E+03  0.22118350362E+03  0.79876257205E+02 0.  0.
         25    2    1    2    0    0 -0.25681581404E+01  0.80309065381E+02 -0.60488829286E+02  0.16050769596E+03  0.12509068940E+03 0.  0.
         24    2    1    2    0    0  0.22676822985E+02 -0.31949442101E+02  0.21084887897E+03  0.23153942590E+03  0.87282591802E+02 0.  0.
        -11    1    5    5    0    0  0.15500225713E+02 -0.61062496734E+02  0.11520122266E+03  0.13130196954E+03  0.00000000000E+00 0.  1.
         12    1    5    5    0    0  0.71765972714E+01  0.29113054633E+02  0.95647656311E+02  0.10023745635E+03  0.00000000000E+00 0. -1.
         11    1    3    3    0    0 -0.19128390509E+02 -0.98051647580E+01 -0.17314368288E+03  0.17447283886E+03  0.00000000000E+00 0. -1.
        -12    1    3    3    0    0 -0.98027433579E+00 -0.38554458521E+02 -0.26352969332E+02  0.46710664759E+02  0.00000000000E+00 0.  1.
          5    1    4    4  501    0 -0.41295767331E+02  0.22478049462E+01  0.15944794514E+02  0.44520802987E+02  0.41800000000E+01 0.  1.
         -5    1    4    4    0  501  0.38727609191E+02  0.78061260435E+02 -0.76433623800E+02  0.11598689297E+03  0.41800000000E+01 0.  1.
</event>
<event>
11    1  0.8037748E-009  0.1502017E+03  0.7561462E-02  0.1096673E+00
         22   -1    0    0    0    0  0.00000000000E+00  0.00000000000E+00  0.67775894385E+02  0.67775894385E+02  0.00000000000E+00 0.  1.
         22   -1    0    0    0    0 -0.00000000000E+00 -0.00000000000E+00 -0.11089836279E+04  0.11089836279E+04  0.00000000000E+00 0.  1.
        -24    2    1    2    0    0 -0.19258762375E+02  0.42667617092E+01 -0.61015805848E+03  0.61578800235E+03  0.80702554689E+02 0.  0.
         25    2    1    2    0    0  0.52998636722E+02 -0.78514669584E+02 -0.41621357961E+03  0.44480838304E+03  0.12508934781E+03 0.  0.
         24    2    1    2    0    0 -0.33739874347E+02  0.74247907875E+02 -0.14836095427E+02  0.11616313689E+03  0.81379565620E+02 0.  0.
        -11    1    5    5    0    0 -0.10389399234E+02  0.52042064041E+02 -0.46813547498E+02  0.70765982474E+02  0.00000000000E+00 0.  1.
         12    1    5    5    0    0 -0.23350475113E+02  0.22205843834E+02  0.31977452071E+02  0.45397154419E+02  0.00000000000E+00 0. -1.
         13    1    3    3    0    0  0.13343129421E+02 -0.58847905910E+01 -0.20586292397E+02  0.25228263866E+02  0.00000000000E+00 0. -1.
        -14    1    3    3    0    0 -0.32601891796E+02  0.10151552300E+02 -0.58957176608E+03  0.59055973849E+03  0.00000000000E+00 0.  1.
          5    1    4    4  501    0 -0.34339794294E+02 -0.39517195624E+02 -0.22394890133E+03  0.23002480960E+03  0.41800000000E+01 0.  1.
         -5    1    4    4    0  501  0.87338431016E+02 -0.38997473960E+02 -0.19226467828E+03  0.21478357344E+03  0.41800000000E+01 0.  1.
</event>
<event>
11    1  0.8037748E-009  0.1482082E+03  0.7561462E-02  0.1098724E+00
         22   -1    0    0    0    0  0.00000000000E+00  0.00000000000E+00  0.28163851999E+03  0.28163851999E+03  0.00000000000E+00 0. -1.
         22   -1    0    0    0    0 -0.00000000000E+00 -0.00000000000E+00 -0.69246850687E+03  0.69246850687E+03  0.00000000000E+00 0.  1.
         24    2    1    2    0    0 -0.62013161794E+01 -0.32812268627E+02 -0.56823337402E+03  0.57486253674E+03  0.80390717795E+02 0.  0.
         25    2    1    2    0    0 -0.38164847707E+02  0.95358249614E+02 -0.45285700592E+02  0.16808319553E+03  0.12510561367E+03 0.  0.
        -24    2    1    2    0    0  0.44366163886E+02 -0.62545980988E+02  0.20268908774E+03  0.23116129459E+03  0.80450740157E+02 0.  0.
        -13    1    3    3    0    0  0.31843164954E+02  0.24654888017E+01 -0.29692226498E+03  0.29863505693E+03  0.00000000000E+00 0.  1.
         14    1    3    3    0    0 -0.38044481134E+02 -0.35277757428E+02 -0.27131110904E+03  0.27622747981E+03  0.00000000000E+00 0. -1.
         13    1    5    5    0    0  0.88548699480E+01 -0.44962298883E+02  0.17948132941E+03  0.18523920927E+03  0.00000000000E+00 0. -1.
        -14    1    5    5    0    0  0.35511293938E+02 -0.17583682105E+02  0.23207758324E+02  0.45922085318E+02  0.00000000000E+00 0.  1.
          5    1    4    4  501    0 -0.27995293679E+02  0.10041293484E+03  0.16060135977E+02  0.10555517192E+03  0.41800000000E+01 0.  1.
         -5    1    4    4    0  501 -0.10169554028E+02 -0.50546852287E+01 -0.61345836569E+02  0.62528023607E+02  0.41800000000E+01 0.  1.
</event>
<event>
11    1  0.8037748E-009  0.1573622E+03  0.7561462E-02  0.1089585E+00
         22   -1    0    0    0    0  0.00000000000E+00  0.00000000000E+00  0.18568325357E+04  0.18568325357E+04  0.00000000000E+00 0.  1.
         22   -1    0    0    0    0 -0.00000000000E+00 -0.00000000000E+00 -0.95007425700E+02  0.95007425700E+02  0.00000000000E+00 0.  1.
        -24    2    1    2    0    0  0.38289940670E+02 -0.92967406055E+02  0.39458155373E+02  0.14470491183E+03  0.96299051590E+02 0.  0.
         25    2    1    2    0    0 -0.10506893890E+03  0.35495822365E+02  0.13303767132E+03  0.21366115832E+03  0.12511048420E+03 0.  0.
         24    2    1    2    0    0  0.66778998227E+02  0.57471583690E+02  0.15893292833E+04  0.15934738913E+04  0.73682113053E+02 0.  0.
        -11    1    5    5    0    0  0.32141178184E+02  0.39100893967E+01  0.10317649745E+04  0.10322728838E+04  0.00000000000E+00 0.  1.
         12    1    5    5    0    0  0.34637820044E+02  0.53561494294E+02  0.55756430886E+03  0.56120100745E+03  0.00000000000E+00 0. -1.
         11    1    3    3    0    0 -0.79212659862E+01 -0.92554785602E+02  0.23567495513E+02  0.95836118648E+02  0.00000000000E+00 0. -1.
        -12    1    3    3    0    0  0.46211206657E+02 -0.41262045261E+00  0.15890659859E+02  0.48868793182E+02  0.00000000000E+00 0.  1.
          5    1    4    4  501    0 -0.85521489955E+01 -0.44283438811E+00  0.10689928680E+03  0.10732318143E+03  0.41800000000E+01 0.  1.
         -5    1    4    4    0  501 -0.96516789902E+02  0.35938656753E+02  0.26138384515E+02  0.10633797688E+03  0.41800000000E+01 0.  1.
</event>
<event>
11    1  0.8037748E-009  0.1538927E+03  0.7561462E-02  0.1092966E+00
         22   -1    0    0    0    0  0.00000000000E+00  0.00000000000E+00  0.59140020043E+02  0.59140020043E+02  0.00000000000E+00 0. -1.
         22   -1    0    0    0    0 -0.00000000000E+00 -0.00000000000E+00 -0.10388329272E+04  0.10388329272E+04  0.00000000000E+00 0. -1.
         24    2    1    2    0    0  0.76990391256E+02 -0.53109060962E+02 -0.54380023639E+03  0.55806617161E+03  0.83492886523E+02 0.  0.
         25    2    1    2    0    0 -0.10372057022E+03 -0.29186025985E+02 -0.37986165524E+03  0.41418850991E+03  0.12508982302E+03 0.  0.
        -24    2    1    2    0    0  0.26730178963E+02  0.82295086947E+02 -0.56031015539E+02  0.12571826573E+03  0.71962655815E+02 0.  0.
        -13    1    3    3    0    0  0.58355051440E+02 -0.18240750242E+02 -0.14570564706E+03  0.15801320382E+03  0.00000000000E+00 0.  1.
         14    1    3    3    0    0  0.18635339816E+02 -0.34868310720E+02 -0.39809458933E+03  0.40005296779E+03  0.00000000000E+00 0. -1.
         13    1    5    5    0    0 -0.17023247085E+01  0.83679971264E+02 -0.37232637691E+02  0.91605157112E+02  0.00000000000E+00 0. -1.
        -14    1    5    5    0    0  0.28432503672E+02 -0.13848843169E+01 -0.18798377848E+02  0.34113108615E+02  0.00000000000E+00 0.  1.
          5    1    4    4  501    0 -0.54867741357E+02  0.11518764801E+02 -0.32581628312E+03  0.33063102354E+03  0.41800000000E+01 0. -1.
         -5    1    4    4    0  501 -0.48852828862E+02 -0.40704790786E+02 -0.54045372121E+02  0.83557486370E+02  0.41800000000E+01 0. -1.
</event>
<event>
11    1  0.8037748E-009  0.1907254E+03  0.7561462E-02  0.1061283E+00
         22   -1    0    0    0    0  0.00000000000E+00  0.00000000000E+00  0.44961829794E+04  0.44961829794E+04  0.00000000000E+00 0. -1.
         22   -1    0    0    0    0 -0.00000000000E+00 -0.00000000000E+00 -0.11494913022E+03  0.11494913022E+03  0.00000000000E+00 0.  1.
         24    2    1    2    0    0 -0.23215019783E+00  0.33909609498E+01 -0.75679330022E+02  0.11100896319E+03  0.81142321921E+02 0.  0.
         25    2    1    2    0    0  0.13509936346E+03  0.47221309171E+02  0.43383374964E+03  0.47364628456E+03  0.12508952996E+03 0.  0.
        -24    2    1    2    0    0 -0.13486721326E+03 -0.50612270121E+02  0.40230794296E+04  0.40264768619E+04  0.81222259604E+02 0.  0.
        -11    1    3    3    0    0  0.15578074430E+02 -0.12137240064E+02 -0.84782149068E+02  0.87051719109E+02  0.00000000000E+00 0.  1.
         12    1    3    3    0    0 -0.15810224628E+02  0.15528201014E+02  0.91028190460E+01  0.23957244084E+02  0.00000000000E+00 0. -1.
         13    1    5    5    0    0 -0.52604123277E+02 -0.36381396358E+02  0.27050764942E+04  0.27058325224E+04  0.00000000000E+00 0. -1.
        -14    1    5    5    0    0 -0.82263089984E+02 -0.14230873763E+02  0.13180029354E+04  0.13206443395E+04  0.00000000000E+00 0.  1.
          5    1    4    4  501    0  0.13281253524E+03 -0.75961783025E+01  0.27418914473E+03  0.30478522098E+03  0.41800000000E+01 0.  1.
         -5    1    4    4    0  501  0.22868282211E+01  0.54817487474E+02  0.15964460491E+03  0.16886106358E+03  0.41800000000E+01 0.  1.
</event>
<event>
11    1  0.8037748E-009  0.2170069E+03  0.7561462E-02  0.1043109E+00
         22   -1    0    0    0    0  0.00000000000E+00  0.00000000000E+00  0.30865862481E+04  0.30865862481E+04  0.00000000000E+00 0. -1.
         22   -1    0    0    0    0 -0.00000000000E+00 -0.00000000000E+00 -0.98969804213E+03  0.98969804213E+03  0.00000000000E+00 0.  1.
         24    2    1    2    0    0 -0.46341422400E+02 -0.17171176596E+03 -0.93768357781E+03  0.95771521298E+03  0.79595722783E+02 0.  0.
         25    2    1    2    0    0  0.36744283664E+02  0.15974087814E+03  0.21536183672E+03  0.29815261262E+03  0.12508784580E+03 0.  0.
        -24    2    1    2    0    0  0.95971387362E+01  0.11970887823E+02  0.28192099471E+04  0.28204164646E+04  0.81048757634E+02 0.  0.
        -11    1    3    3    0    0 -0.46914542631E+02 -0.15397209319E+03 -0.91429041137E+03  0.92835086907E+03  0.00000000000E+00 0.  1.
         12    1    3    3    0    0  0.57312023109E+00 -0.17739672780E+02 -0.23393166444E+02  0.29364343913E+02  0.00000000000E+00 0. -1.
         13    1    5    5    0    0 -0.22821717282E+02  0.29679054681E+02  0.20270282370E+04  0.20273739543E+04  0.00000000000E+00 0. -1.
        -14    1    5    5    0    0  0.32418856018E+02 -0.17708166857E+02  0.79218171004E+03  0.79304251028E+03  0.00000000000E+00 0.  1.
          5    1    4    4  501    0  0.68797212989E+02  0.10353452276E+03  0.79507947702E+02  0.14761924016E+03  0.41800000000E+01 0. -1.
         -5    1    4    4    0  501 -0.32052929325E+02  0.56206355382E+02  0.13585388902E+03  0.15053337246E+03  0.41800000000E+01 0. -1.
</event>
<event>
11    1  0.8037748E-009  0.1340092E+03  0.7561462E-02  0.1114439E+00
         22   -1    0    0    0    0  0.00000000000E+00  0.00000000000E+00  0.60753671356E+03  0.60753671356E+03  0.00000000000E+00 0.  1.
         22   -1    0    0    0    0 -0.00000000000E+00 -0.00000000000E+00 -0.24309537216E+03  0.24309537216E+03  0.00000000000E+00 0. -1.
        -24    2    1    2    0    0  0.47847791503E+02  0.62812689533E+01 -0.19453233675E+03  0.21666421287E+03  0.82290252186E+02 0.  0.
         25    2    1    2    0    0 -0.49164844822E+02  0.38228366398E+02  0.11030158869E+03  0.17803212024E+03  0.12510158035E+03 0.  0.
         24    2    1    2    0    0  0.13170533189E+01 -0.44509635351E+02  0.44867208946E+03  0.45593575261E+03  0.67734218662E+02 0.  0.
        -11    1    5    5    0    0  0.17795110600E+02 -0.54932303557E+02  0.38616745510E+03  0.39046066039E+03  0.00000000000E+00 0.  1.
         12    1    5    5    0    0 -0.16478057281E+02  0.10422668206E+02  0.62504634364E+02  0.65475092220E+02  0.00000000000E+00 0. -1.
         11    1    3    3    0    0 -0.16526885084E+01 -0.89106512506E+01 -0.14409575401E+03  0.14438046061E+03  0.00000000000E+00 0. -1.
        -12    1    3    3    0    0  0.49500480011E+02  0.15191920204E+02 -0.50436582747E+02  0.72283752255E+02  0.00000000000E+00 0.  1.
          5    1    4    4  501    0 -0.64455244388E+02  0.65226986442E+02  0.38201026770E+02  0.99427506937E+02  0.41800000000E+01 0. -1.
         -5    1    4    4    0  501  0.15290399566E+02 -0.26998620045E+02  0.72100561925E+02  0.78604613307E+02  0.41800000000E+01 0. -1.
</event>
<event>
11    1  0.8037748E-009  0.1814672E+03  0.7561462E-02  0.1068462E+00
         22   -1    0    0    0    0  0.00000000000E+00  0.00000000000E+00  0.18530736475E+04  0.18530736475E+04  0.00000000000E+00 0.  1.
         22   -1    0    0    0    0 -0.00000000000E+00 -0.00000000000E+00 -0.56377078840E+02  0.56377078840E+02  0.00000000000E+00 0.  1.
         24    2    1    2    0    0 -0.44918170487E+02 -0.30545266725E+02  0.10809959237E+03  0.14416168692E+03  0.78399073628E+02 0.  0.
         25    2    1    2    0    0  0.78189321436E+01  0.15474033983E+03  0.25475556451E+03  0.32334718132E+03  0.12508914241E+03 0.  0.
        -24    2    1    2    0    0  0.37099238343E+02 -0.12419507310E+03  0.14338414117E+04  0.14419418581E+04  0.80587581810E+02 0.  0.
        -11    1    3    3    0    0 -0.66152868344E+02 -0.28843269551E+02  0.94433797116E+02  0.11885233791E+03  0.00000000000E+00 0.  1.
         12    1    3    3    0    0  0.21234697857E+02 -0.17019971743E+01  0.13665795255E+02  0.25309349012E+02  0.00000000000E+00 0. -1.
         13    1    5    5    0    0  0.26647046348E+02 -0.52003173394E+02  0.29294171914E+03  0.29871264776E+03  0.00000000000E+00 0. -1.
        -14    1    5    5    0    0  0.10452191995E+02 -0.72191899707E+02  0.11408996926E+04  0.11432292103E+04  0.00000000000E+00 0.  1.
          5    1    4    4  501    0 -0.88416396167E+01  0.49393953203E+02  0.19421433225E+03  0.20063553138E+03  0.41800000000E+01 0. -1.
         -5    1    4    4    0  501  0.16660571760E+02  0.10534638662E+03  0.60541232264E+02  0.12271164994E+03  0.41800000000E+01 0. -1.
</event>
<event>
11    1  0.8037748E-009  0.2713587E+03  0.7561462E-02  0.1013099E+00
         22   -1    0    0    0    0  0.00000000000E+00  0.00000000000E+00  0.51541846537E+03  0.51541846537E+03  0.00000000000E+00 0. -1.
         22   -1    0    0    0    0 -0.00000000000E+00 -0.00000000000E+00 -0.22739015266E+03  0.22739015266E+03  0.00000000000E+00 0.  1.
        -24    2    1    2    0    0 -0.23897648542E+02 -0.85092570193E+02 -0.23133842826E+02  0.12135221863E+03  0.79870790500E+02 0.  0.
         25    2    1    2    0    0  0.12829315818E+03 -0.16195564366E+03  0.68701034194E+02  0.25111226371E+03  0.12509505160E+03 0.  0.
         24    2    1    2    0    0 -0.10439550964E+03  0.24704821386E+03  0.24246112135E+03  0.37034413569E+03  0.80225563719E+02 0.  0.
        -13    1    5    5    0    0 -0.10744794084E+03  0.20388269679E+03  0.17166799579E+03  0.28737278023E+03  0.00000000000E+00 0.  1.
         14    1    5    5    0    0  0.30524312029E+01  0.43165517061E+02  0.70793125563E+02  0.82971355457E+02  0.00000000000E+00 0. -1.
         11    1    3    3    0    0 -0.30923983490E+02 -0.95674700840E+02 -0.69630499564E+01  0.10078901329E+03  0.00000000000E+00 0. -1.
        -12    1    3    3    0    0  0.70263349477E+01  0.10582130647E+02 -0.16170792870E+02  0.20563205340E+02  0.00000000000E+00 0.  1.
          5    1    4    4  501    0 -0.24664303820E+02 -0.32055072576E+02  0.14945465142E+02  0.43320836661E+02  0.41800000000E+01 0. -1.
         -5    1    4    4    0  501  0.15295746200E+03 -0.12990057109E+03  0.53755569053E+02  0.20779142705E+03  0.41800000000E+01 0. -1.
</event>
<event>
11    1  0.8037748E-009  0.1313931E+03  0.7561462E-02  0.1117569E+00
         22   -1    0    0    0    0  0.00000000000E+00  0.00000000000E+00  0.41336250958E+03  0.41336250958E+03  0.00000000000E+00 0.  1.
         22   -1    0    0    0    0 -0.00000000000E+00 -0.00000000000E+00 -0.19341455859E+03  0.19341455859E+03  0.00000000000E+00 0. -1.
         24    2    1    2    0    0 -0.35854345901E+02  0.96603600894E+01 -0.12936079599E+03  0.15311658383E+03  0.73017915799E+02 0.  0.
         25    2    1    2    0    0  0.57144082009E+02 -0.39212697407E+02  0.66965191903E+02  0.15790019033E+03  0.12508018002E+03 0.  0.
        -24    2    1    2    0    0 -0.21289736108E+02  0.29552337318E+02  0.28234355508E+03  0.29576029401E+03  0.80185253708E+02 0.  0.
        -11    1    3    3    0    0  0.11288856057E+02 -0.83308747636E+01  0.24744622784E+00  0.14032212051E+02  0.00000000000E+00 0.  1.
         12    1    3    3    0    0 -0.47143201958E+02  0.17991234853E+02 -0.12960824222E+03  0.13908437178E+03  0.00000000000E+00 0. -1.
         11    1    5    5    0    0  0.13975342167E+02  0.10102431386E+00  0.53225229412E+01  0.14954920430E+02  0.00000000000E+00 0. -1.
        -12    1    5    5    0    0 -0.35265078275E+02  0.29451313004E+02  0.27702103214E+03  0.28080537358E+03  0.00000000000E+00 0.  1.
          5    1    4    4  501    0  0.79168604751E+01 -0.77879596783E+02  0.24458859328E+02  0.82119525537E+02  0.41800000000E+01 0.  1.
         -5    1    4    4    0  501  0.49227221534E+02  0.38666899376E+02  0.42506332575E+02  0.75780664792E+02  0.41800000000E+01 0.  1.
</event>
<event>
11    1  0.8037748E-009  0.2041868E+03  0.7561462E-02  0.1051602E+00
         22   -1    0    0    0    0  0.00000000000E+00  0.00000000000E+00  0.33112531604E+03  0.33112531604E+03  0.00000000000E+00 0. -1.
         22   -1    0    0    0    0 -0.00000000000E+00 -0.00000000000E+00 -0.22311015334E+04  0.22311015334E+04  0.00000000000E+00 0. -1.
        -24    2    1    2    0    0  0.66844185569E+02  0.39696186812E+02 -0.19980490363E+04  0.20012226881E+04  0.81537496861E+02 0.  0.
         25    2    1    2    0    0 -0.21819701916E+03 -0.55647549630E+02 -0.11920313133E+03  0.28383680075E+03  0.12508938402E+03 0.  0.
         24    2    1    2    0    0  0.15135283359E+03  0.15951362818E+02  0.21727595030E+03  0.27716736058E+03  0.80316754059E+02 0.  0.
        -11    1    5    5    0    0  0.71467095744E+02 -0.16298676577E+02  0.49151488855E+02  0.88255659813E+02  0.00000000000E+00 0.  1.
         12    1    5    5    0    0  0.79885737845E+02  0.32250039395E+02  0.16812446144E+03  0.18891170077E+03  0.00000000000E+00 0. -1.
         11    1    3    3    0    0  0.85971436472E+01  0.34216506319E+02 -0.13701124201E+04  0.13705665704E+04  0.00000000000E+00 0. -1.
        -12    1    3    3    0    0  0.58247041922E+02  0.54796804930E+01 -0.62793661626E+03  0.63065611773E+03  0.00000000000E+00 0.  1.
          5    1    4    4  501    0 -0.18247433066E+03 -0.87622713679E+02 -0.12065544855E+03  0.23569011640E+03  0.41800000000E+01 0. -1.
         -5    1    4    4    0  501 -0.35722688498E+02  0.31975164049E+02  0.14523172173E+01  0.48146684359E+02  0.41800000000E+01 0. -1.
</event>
<event>
11    1  0.8037748E-009  0.1494500E+03  0.7561462E-02  0.1097442E+00
         22   -1    0    0    0    0  0.00000000000E+00  0.00000000000E+00  0.66259674123E+03  0.66259674123E+03  0.00000000000E+00 0.  1.
         22   -1    0    0    0    0 -0.00000000000E+00 -0.00000000000E+00 -0.71867624610E+03  0.71867624610E+03  0.00000000000E+00 0. -1.
         24    2    1    2    0    0 -0.71533735196E+02 -0.37418701764E+02 -0.63554126187E+03  0.64656666723E+03  0.87284163086E+02 0.  0.
         25    2    1    2    0    0  0.10013648708E+03  0.20784475113E+02  0.14669065104E+02  0.16223978734E+03  0.12508899502E+03 0.  0.
        -24    2    1    2    0    0 -0.28602751888E+02  0.16634226651E+02  0.56479269189E+03  0.57246653276E+03  0.87363215360E+02 0.  0.
        -11    1    3    3    0    0 -0.23080215117E+02 -0.11566742845E+02 -0.34852396522E+02  0.43372519101E+02  0.00000000000E+00 0.  1.
         12    1    3    3    0    0 -0.48453520079E+02 -0.25851958919E+02 -0.60068886534E+03  0.60319414813E+03  0.00000000000E+00 0. -1.
         13    1    5    5    0    0  0.25643406670E+02  0.89754482410E+01  0.77908084173E+02  0.82509469495E+02  0.00000000000E+00 0. -1.
        -14    1    5    5    0    0 -0.54246158558E+02  0.76587784103E+01  0.48688460772E+03  0.48995706326E+03  0.00000000000E+00 0.  1.
          5    1    4    4  501    0  0.72597120526E+02  0.40708782343E+02 -0.44050628796E+02  0.94262809028E+02  0.41800000000E+01 0. -1.
         -5    1    4    4    0  501  0.27539366558E+02 -0.19924307231E+02  0.58719693900E+02  0.67976978314E+02  0.41800000000E+01 0. -1.
</event>
<event>
11    1  0.8037748E-009  0.2177238E+03  0.7561462E-02  0.1042653E+00
         22   -1    0    0    0    0  0.00000000000E+00  0.00000000000E+00  0.26390377210E+04  0.26390377210E+04  0.00000000000E+00 0.  1.
         22   -1    0    0    0    0 -0.00000000000E+00 -0.00000000000E+00 -0.40987679484E+02  0.40987679484E+02  0.00000000000E+00 0.  1.
         24    2    1    2    0    0  0.26874616008E+02 -0.77872833598E+02  0.17037069888E+03  0.20538010145E+03  0.79802179402E+02 0.  0.
         25    2    1    2    0    0 -0.11588300924E+03  0.20984178379E+03  0.10036549514E+04  0.10394392726E+04  0.12509314074E+03 0.  0.
        -24    2    1    2    0    0  0.89008393233E+02 -0.13196895019E+03  0.14240243912E+04  0.14352060264E+04  0.81440614248E+02 0.  0.
        -13    1    3    3    0    0  0.41949162842E+02 -0.63772658775E+02  0.72221452956E+02  0.10508388334E+03  0.00000000000E+00 0.  1.
         14    1    3    3    0    0 -0.15074546835E+02 -0.14100174823E+02  0.98149245927E+02  0.10029621812E+03  0.00000000000E+00 0. -1.
         13    1    5    5    0    0  0.47430920780E+02 -0.80933680208E+02  0.11307556858E+04  0.11346401958E+04  0.00000000000E+00 0. -1.
        -14    1    5    5    0    0  0.41577472453E+02 -0.51035269981E+02  0.29326870534E+03  0.30056583061E+03  0.00000000000E+00 0.  1.
          5    1    4    4  501    0 -0.43369991040E+02  0.11847132119E+03  0.74565687532E+03  0.75626586475E+03  0.41800000000E+01 0.  1.
         -5    1    4    4    0  501 -0.72513018200E+02  0.91370462596E+02  0.25799807607E+03  0.28317340783E+03  0.41800000000E+01 0.  1.
</event>
<event>
11    1  0.8037748E-009  0.1574978E+03  0.7561462E-02  0.1089455E+00
         22   -1    0    0    0    0  0.00000000000E+00  0.00000000000E+00  0.55630807185E+03  0.55630807185E+03  0.00000000000E+00 0. -1.
         22   -1    0    0    0    0 -0.00000000000E+00 -0.00000000000E+00 -0.14645088033E+04  0.14645088033E+04  0.00000000000E+00 0.  1.
        -24    2    1    2    0    0 -0.20707432579E+02 -0.16481220017E+02 -0.12830094393E+04  0.12857618170E+04  0.79811028482E+02 0.  0.
         25    2    1    2    0    0 -0.75593779133E+02  0.23111352951E+02 -0.14064834319E+03  0.20415318384E+03  0.12509201394E+03 0.  0.
         24    2    1    2    0    0  0.96301211712E+02 -0.66301329344E+01  0.51545705109E+03  0.53090187428E+03  0.82722104377E+02 0.  0.
        -13    1    5    5    0    0 -0.58474785230E+01  0.17376068295E+02  0.39968982303E+02  0.43973177061E+02  0.00000000000E+00 0.  1.
         14    1    5    5    0    0  0.10214869023E+03 -0.24006201229E+02  0.47548806879E+03  0.48692869722E+03  0.00000000000E+00 0. -1.
         11    1    3    3    0    0 -0.12155231181E+02  0.39082526820E+01 -0.30596629028E+02  0.33153850334E+02  0.00000000000E+00 0. -1.
        -12    1    3    3    0    0 -0.85522013979E+01 -0.20389472699E+02 -0.12524128103E+04  0.12526079667E+04  0.00000000000E+00 0.  1.
          5    1    4    4  501    0 -0.54774841944E+02  0.72718176686E+02 -0.10704199277E+03  0.14058334590E+03  0.41800000000E+01 0. -1.
         -5    1    4    4    0  501 -0.20818937188E+02 -0.49606823735E+02 -0.33606350420E+02  0.63569837936E+02  0.41800000000E+01 0. -1.
</event>
<event>
11    1  0.8037748E-009  0.2196676E+03  0.7561462E-02  0.1041426E+00
         22   -1    0    0    0    0  0.00000000000E+00  0.00000000000E+00  0.23524185621E+04  0.23524185621E+04  0.00000000000E+00 0. -1.
         22   -1    0    0    0    0 -0.00000000000E+00 -0.00000000000E+00 -0.32567706196E+04  0.32567706196E+04  0.00000000000E+00 0. -1.
         24    2    1    2    0    0 -0.12390257548E+03  0.13012618217E+03 -0.31461950247E+04  0.31523352435E+04  0.79935489409E+02 0.  0.
         25    2    1    2    0    0  0.13362734140E+03 -0.18640732745E+03  0.54081870538E+02  0.26678931953E+03  0.12509090374E+03 0.  0.
        -24    2    1    2    0    0 -0.97247659214E+01  0.56281145278E+02  0.21877610967E+04  0.21900646187E+04  0.82597093182E+02 0.  0.
        -11    1    3    3    0    0  0.94908960733E+01 -0.34509324821E+00 -0.10849910554E+03  0.10891396651E+03  0.00000000000E+00 0.  1.
         12    1    3    3    0    0 -0.13339347155E+03  0.13047127542E+03 -0.30376959192E+04  0.30434212770E+04  0.00000000000E+00 0. -1.
         13    1    5    5    0    0 -0.40712820978E+02  0.51361291963E+02  0.17227066064E+04  0.17239528903E+04  0.00000000000E+00 0. -1.
        -14    1    5    5    0    0  0.30988055057E+02  0.49198533154E+01  0.46505449021E+03  0.46611172843E+03  0.00000000000E+00 0.  1.
          5    1    4    4  501    0  0.14569379202E+03 -0.11055221700E+03  0.25392425486E+02  0.18469088064E+03  0.41800000000E+01 0.  1.
         -5    1    4    4    0  501 -0.12066450625E+02 -0.75855110450E+02  0.28689445052E+02  0.82098438898E+02  0.41800000000E+01 0.  1.
</event>
<event>
11    1  0.8037748E-009  0.1557116E+03  0.7561462E-02  0.1091181E+00
         22   -1    0    0    0    0  0.00000000000E+00  0.00000000000E+00  0.17038508633E+04  0.17038508633E+04  0.00000000000E+00 0.  1.
         22   -1    0    0    0    0 -0.00000000000E+00 -0.00000000000E+00 -0.11068055194E+04  0.11068055194E+04  0.00000000000E+00 0. -1.
        -24    2    1    2    0    0  0.70315889425E+02  0.59467541294E+02 -0.10573931029E+04  0.10646910187E+04  0.83702320507E+02 0.  0.
         25    2    1    2    0    0 -0.15677847018E+03 -0.21212606471E+02  0.19258285382E+03  0.27886363893E+03  0.12508920875E+03 0.  0.
         24    2    1    2    0    0  0.86462580756E+02 -0.38254934823E+02  0.14618555931E+04  0.14671017251E+04  0.80165322199E+02 0.  0.
        -13    1    5    5    0    0  0.20312244588E+02 -0.31996849031E+02  0.97458347595E+03  0.97532012038E+03  0.00000000000E+00 0.  1.
         14    1    5    5    0    0  0.66150336168E+02 -0.62580857921E+01  0.48727211711E+03  0.49178160471E+03  0.00000000000E+00 0. -1.
         13    1    3    3    0    0  0.67499365644E+02  0.45791423723E+02 -0.10356080077E+04  0.10388151734E+04  0.00000000000E+00 0. -1.
        -14    1    3    3    0    0  0.28165237807E+01  0.13676117571E+02 -0.21785095262E+02  0.25875845370E+02  0.00000000000E+00 0.  1.
          5    1    4    4  501    0  0.62928102845E+01 -0.37031557850E+02  0.36327123222E+02  0.52422018462E+02  0.41800000000E+01 0. -1.
         -5    1    4    4    0  501 -0.16307128047E+03  0.15818951379E+02  0.15625573060E+03  0.22644162047E+03  0.41800000000E+01 0. -1.
</event>
<event>
11    1  0.8037748E-009  0.3935175E+03  0.7561462E-02  0.9669081E-01
         22   -1    0    0    0    0  0.00000000000E+00  0.00000000000E+00  0.40435620754E+03  0.40435620754E+03  0.00000000000E+00 0. -1.
         22   -1    0    0    0    0 -0.00000000000E+00 -0.00000000000E+00 -0.25167416315E+04  0.25167416315E+04  0.00000000000E+00 0.  1.
        -24    2    1    2    0    0 -0.32207208889E+03  0.22663514113E+03 -0.22592769391E+04  0.22947256864E+04  0.79622677735E+02 0.  0.
         25    2    1    2    0    0  0.19197928008E+03 -0.17846767123E+03 -0.12109590594E+03  0.31467673662E+03  0.12510186442E+03 0.  0.
         24    2    1    2    0    0  0.13009280881E+03 -0.48167469901E+02  0.26798742111E+03  0.31169541597E+03  0.78054662918E+02 0.  0.
        -11    1    5    5    0    0  0.83108880981E+02  0.69007257733E+01  0.17499032432E+03  0.19384612382E+03  0.00000000000E+00 0.  1.
         12    1    5    5    0    0  0.46983927827E+02 -0.55068195674E+02  0.92997096780E+02  0.11784929214E+03  0.00000000000E+00 0. -1.
         13    1    3    3    0    0 -0.13464485756E+02  0.33521333820E+02 -0.15199552764E+03  0.15622935902E+03  0.00000000000E+00 0. -1.
        -14    1    3    3    0    0 -0.30860760313E+03  0.19311380731E+03 -0.21072814114E+04  0.21384963274E+04  0.00000000000E+00 0.  1.
          5    1    4    4  501    0  0.19786893135E+03 -0.12538060739E+03 -0.81500141824E+02  0.24805676008E+03  0.41800000000E+01 0.  1.
         -5    1    4    4    0  501 -0.58896512717E+01 -0.53087063833E+02 -0.39595764114E+02  0.66619976540E+02  0.41800000000E+01 0.  1.
</event>
<event>
11    1  0.8037748E-009  0.2439522E+03  0.7561462E-02  0.1027171E+00
         22   -1    0    0    0    0  0.00000000000E+00  0.00000000000E+00  0.22159104488E+04  0.22159104488E+04  0.00000000000E+00 0.  1.
         22   -1    0    0    0    0 -0.00000000000E+00 -0.00000000000E+00 -0.43091984422E+03  0.43091984422E+03  0.00000000000E+00 0. -1.
         24    2    1    2    0    0 -0.36553318066E+02 -0.12085729051E+03 -0.21480929898E+03  0.26276570809E+03  0.83427529556E+02 0.  0.
         25    2    1    2    0    0  0.24665664823E+02  0.32622451747E+03 -0.21282202677E+02  0.35089880798E+03  0.12508481312E+03 0.  0.
        -24    2    1    2    0    0  0.11887653243E+02 -0.20536722696E+03  0.20210821062E+04  0.20331657769E+04  0.81689547806E+02 0.  0.
        -11    1    3    3    0    0 -0.22112241539E+02 -0.28383687642E+02 -0.96288597815E+01  0.37246474877E+02  0.00000000000E+00 0.  1.
         12    1    3    3    0    0 -0.14441076527E+02 -0.92473602865E+02 -0.20518043920E+03  0.22551923321E+03  0.00000000000E+00 0. -1.
         11    1    5    5    0    0 -0.10352809523E+02  0.26195290073E+01  0.16240769039E+03  0.16275841144E+03  0.00000000000E+00 0. -1.
        -12    1    5    5    0    0  0.22240462765E+02 -0.20798675597E+03  0.18586744158E+04  0.18704073655E+04  0.00000000000E+00 0.  1.
          5    1    4    4  501    0  0.19768787301E+02  0.31412504346E+03  0.11898287195E+02  0.31499903098E+03  0.41800000000E+01 0.  1.
         -5    1    4    4    0  501  0.48968775224E+01  0.12099474013E+02 -0.33180489872E+02  0.35899777005E+02  0.41800000000E+01 0.  1.
</event>
<event>
11    1  0.8037748E-009  0.1545282E+03  0.7561462E-02  0.1092340E+00
         22   -1    0    0    0    0  0.00000000000E+00  0.00000000000E+00  0.13072389738E+04  0.13072389738E+04  0.00000000000E+00 0. -1.
         22   -1    0    0    0    0 -0.00000000000E+00 -0.00000000000E+00 -0.11419988706E+04  0.11419988706E+04  0.00000000000E+00 0. -1.
         24    2    1    2    0    0  0.36868646292E+02 -0.15549925856E+02 -0.10762794487E+04  0.10811040194E+04  0.93847492176E+02 0.  0.
         25    2    1    2    0    0 -0.10436432572E+03  0.73323318274E+02  0.72313312282E+02  0.19273820051E+03  0.12510226744E+03 0.  0.
        -24    2    1    2    0    0  0.67495679428E+02 -0.57773392418E+02  0.11692062396E+04  0.11753956244E+04  0.81352391141E+02 0.  0.
        -13    1    3    3    0    0 -0.59770573219E+01 -0.47445626228E+01 -0.54842648395E+01  0.93975129445E+01  0.00000000000E+00 0.  1.
         14    1    3    3    0    0  0.42845703614E+02 -0.10805363233E+02 -0.10707951838E+04  0.10717065064E+04  0.00000000000E+00 0. -1.
         11    1    5    5    0    0  0.63939155727E+02 -0.24285638125E+02  0.42850106952E+03  0.43392530975E+03  0.00000000000E+00 0. -1.
        -12    1    5    5    0    0  0.35565237007E+01 -0.33487754293E+02  0.74070517008E+03  0.74147031467E+03  0.00000000000E+00 0.  1.
          5    1    4    4  501    0 -0.12702580543E+03  0.56409573934E+02  0.83325531807E+02  0.16210555798E+03  0.41800000000E+01 0. -1.
         -5    1    4    4    0  501  0.22661479706E+02  0.16913744341E+02 -0.11012219526E+02  0.30632642540E+02  0.41800000000E+01 0. -1.
</event>
<event>
11    1  0.8037748E-009  0.1580514E+03  0.7561462E-02  0.1088924E+00
         22   -1    0    0    0    0  0.00000000000E+00  0.00000000000E+00  0.40538104178E+03  0.40538104178E+03  0.00000000000E+00 0.  1.
         22   -1    0    0    0    0 -0.00000000000E+00 -0.00000000000E+00 -0.18874074599E+04  0.18874074599E+04  0.00000000000E+00 0. -1.
         24    2    1    2    0    0  0.90585440729E+02  0.17795797859E+02 -0.10724518196E+04  0.10794356925E+04  0.80660376906E+02 0.  0.
         25    2    1    2    0    0 -0.92761356512E+02 -0.67869721813E+02 -0.79686563914E+03  0.81477311345E+03  0.12509760653E+03 0.  0.
        -24    2    1    2    0    0  0.21759157825E+01  0.50073923954E+02  0.38729104059E+03  0.39857969575E+03  0.79745164583E+02 0.  0.
        -13    1    3    3    0    0 -0.10681879873E+02 -0.98026466000E+01 -0.23245174644E+03  0.23290343248E+03  0.00000000000E+00 0.  1.
         14    1    3    3    0    0  0.10126732060E+03  0.27598444459E+02 -0.84000007312E+03  0.84653225999E+03  0.00000000000E+00 0. -1.
         13    1    5    5    0    0  0.46486768576E+00  0.47064989916E+02  0.92664824136E+02  0.10393314683E+03  0.00000000000E+00 0. -1.
        -14    1    5    5    0    0  0.17110480967E+01  0.30089340379E+01  0.29462621645E+03  0.29464654892E+03  0.00000000000E+00 0.  1.
          5    1    4    4  501    0 -0.12722658694E+02 -0.72435949854E+02 -0.21220659075E+03  0.22462845419E+03  0.41800000000E+01 0. -1.
         -5    1    4    4    0  501 -0.80038697817E+02  0.45662280416E+01 -0.58465904839E+03  0.59014465925E+03  0.41800000000E+01 0. -1.
</event>
<event>
11    1  0.8037748E-009  0.1555985E+03  0.7561462E-02  0.1091292E+00
         22   -1    0    0    0    0  0.00000000000E+00  0.00000000000E+00  0.88570295851E+03  0.88570295851E+03  0.00000000000E+00 0. -1.
         22   -1    0    0    0    0 -0.00000000000E+00 -0.00000000000E+00 -0.12457137483E+03  0.12457137483E+03  0.00000000000E+00 0.  1.
        -24    2    1    2    0    0 -0.35154184501E+02 -0.42944208272E+02 -0.56937946920E+02  0.11253140286E+03  0.79632688755E+02 0.  0.
         25    2    1    2    0    0  0.12228669030E+03  0.45170985098E+02  0.20485903913E+03  0.27314832603E+03  0.12509328353E+03 0.  0.
         24    2    1    2    0    0 -0.87132505795E+02 -0.22267768263E+01  0.61321049148E+03  0.62459460445E+03  0.80587101615E+02 0.  0.
        -13    1    5    5    0    0 -0.40975847025E+02  0.11520982921E+01  0.85079909507E+02  0.94440131150E+02  0.00000000000E+00 0.  1.
         14    1    5    5    0    0 -0.46156658770E+02 -0.33788751184E+01  0.52813058197E+03  0.53015447330E+03  0.00000000000E+00 0. -1.
         13    1    3    3    0    0  0.37079391862E+01 -0.55758883665E+02 -0.36922493148E+02  0.66978148832E+02  0.00000000000E+00 0. -1.
        -14    1    3    3    0    0 -0.38862123687E+02  0.12814675394E+02 -0.20015453772E+02  0.45553254029E+02  0.00000000000E+00 0.  1.
          5    1    4    4  501    0  0.10852160605E+03 -0.18729167526E+02  0.15789686643E+03  0.19255288501E+03  0.41800000000E+01 0. -1.
         -5    1    4    4    0  501  0.13765084243E+02  0.63900152624E+02  0.46962172694E+02  0.80595441023E+02  0.41800000000E+01 0. -1.
</event>
<event>
11    1  0.8037748E-009  0.1530614E+03  0.7561462E-02  0.1093791E+00
         22   -1    0    0    0    0  0.00000000000E+00  0.00000000000E+00  0.18433446574E+03  0.18433446574E+03  0.00000000000E+00 0. -1.
         22   -1    0    0    0    0 -0.00000000000E+00 -0.00000000000E+00 -0.76183338750E+03  0.76183338750E+03  0.00000000000E+00 0.  1.
         24    2    1    2    0    0  0.31816028307E+02  0.44530601937E+02 -0.59751869486E+03  0.60542678905E+03  0.80732719671E+02 0.  0.
         25    2    1    2    0    0 -0.55879724010E+01 -0.12271596748E+03 -0.75572228158E+02  0.19091239890E+03  0.12508376503E+03 0.  0.
        -24    2    1    2    0    0 -0.26228055906E+02  0.78185365545E+02  0.95592001256E+02  0.14982866530E+03  0.80684174025E+02 0.  0.
        -11    1    3    3    0    0  0.25297977435E+01  0.62824675107E+02 -0.40033448747E+03  0.40524195431E+03  0.00000000000E+00 0.  1.
         12    1    3    3    0    0  0.29286230564E+02 -0.18294073170E+02 -0.19718420739E+03  0.20018483473E+03  0.00000000000E+00 0. -1.
         13    1    5    5    0    0 -0.28567874905E+02  0.94136942603E+02  0.88067191097E+02  0.13203680391E+03  0.00000000000E+00 0. -1.
        -14    1    5    5    0    0  0.23398189987E+01 -0.15951577059E+02  0.75248101593E+01  0.17791861385E+02  0.00000000000E+00 0.  1.
          5    1    4    4  501    0 -0.19191878755E+02  0.15783110250E+02 -0.39894307582E+02  0.47185410423E+02  0.41800000000E+01 0. -1.
         -5    1    4    4    0  501  0.13603906354E+02 -0.13849907773E+03 -0.35677920576E+02  0.14372698848E+03  0.41800000000E+01 0. -1.
</event>
<event>
11    1  0.8037748E-009  0.2280436E+03  0.7561462E-02  0.1036293E+00
         22   -1    0    0    0    0  0.00000000000E+00  0.00000000000E+00  0.45308881175E+03  0.45308881175E+03  0.00000000000E+00 0.  1.
         22   -1    0    0    0    0 -0.00000000000E+00 -0.00000000000E+00 -0.15225977438E+04  0.15225977438E+04  0.00000000000E+00 0.  1.
         24    2    1    2    0    0  0.19427134239E+03  0.43468028863E+02 -0.12920598910E+04  0.13097387209E+04  0.79786785274E+02 0.  0.
         25    2    1    2    0    0 -0.11219678812E+03 -0.12579994440E+03 -0.15639935702E+03  0.26176701407E+03  0.12508982973E+03 0.  0.
        -24    2    1    2    0    0 -0.82074554264E+02  0.82331915541E+02  0.37895031600E+03  0.40418082056E+03  0.79019092234E+02 0.  0.
        -11    1    3    3    0    0  0.12104798609E+03  0.41724867408E+02 -0.10195183483E+04  0.10275267597E+04  0.00000000000E+00 0.  1.
         12    1    3    3    0    0  0.73223356295E+02  0.17431614544E+01 -0.27254154276E+03  0.28221196121E+03  0.00000000000E+00 0. -1.
         11    1    5    5    0    0 -0.53181861072E+02  0.24268272725E+01  0.18334961903E+03  0.19092219000E+03  0.00000000000E+00 0. -1.
        -12    1    5    5    0    0 -0.28892693192E+02  0.79905088268E+02  0.19560069697E+03  0.21325863056E+03  0.00000000000E+00 0.  1.
          5    1    4    4  501    0 -0.12300577914E+03 -0.85289969941E+02 -0.69274918286E+02  0.16498874924E+03  0.41800000000E+01 0. -1.
         -5    1    4    4    0  501  0.10808991014E+02 -0.40509974463E+02 -0.87124438737E+02  0.96778264827E+02  0.41800000000E+01 0. -1.
</event>
<event>
11    1  0.8037748E-009  0.1278022E+03  0.7561462E-02  0.1121999E+00
         22   -1    0    0    0    0  0.00000000000E+00  0.00000000000E+00  0.11451535855E+04  0.11451535855E+04  0.00000000000E+00 0. -1.
         22   -1    0    0    0    0 -0.00000000000E+00 -0.00000000000E+00 -0.41305997141E+03  0.41305997141E+03  0.00000000000E+00 0. -1.
        -24    2    1    2    0    0  0.22159995736E+02  0.61473658320E+01 -0.35968555489E+03  0.36934972670E+03  0.80725873786E+02 0.  0.
         25    2    1    2    0    0 -0.95680422484E+01 -0.29322499299E+02  0.41864720604E+02  0.13546544711E+03  0.12508747392E+03 0.  0.
         24    2    1    2    0    0 -0.12591953488E+02  0.23175133467E+02  0.10499144484E+04  0.10533983831E+04  0.81438077792E+02 0.  0.
        -13    1    5    5    0    0  0.15373874074E+02 -0.34842904799E+01  0.43937938360E+02  0.46680174716E+02  0.00000000000E+00 0.  1.
         14    1    5    5    0    0 -0.27965827562E+02  0.26659423947E+02  0.10059765100E+04  0.10067182084E+04  0.00000000000E+00 0. -1.
         11    1    3    3    0    0  0.28516542828E+02 -0.33318469186E+02 -0.19748321000E+03  0.20229417153E+03  0.00000000000E+00 0. -1.
        -12    1    3    3    0    0 -0.63565470916E+01  0.39465835018E+02 -0.16220234489E+03  0.16705555517E+03  0.00000000000E+00 0.  1.
          5    1    4    4  501    0 -0.60290783323E+02 -0.44420685370E+02  0.17315597500E+02  0.76977127507E+02  0.41800000000E+01 0.  1.
         -5    1    4    4    0  501  0.50722741074E+02  0.15098186071E+02  0.24549123104E+02  0.58488319603E+02  0.41800000000E+01 0.  1.
</event>
<event>
11    1  0.8037748E-009  0.1874166E+03  0.7561462E-02  0.1063797E+00
         22   -1    0    0    0    0  0.00000000000E+00  0.00000000000E+00  0.51150778016E+03  0.51150778016E+03  0.00000000000E+00 0.  1.
         22   -1    0    0    0    0 -0.00000000000E+00 -0.00000000000E+00 -0.79282192545E+03  0.79282192545E+03  0.00000000000E+00 0.  1.
        -24    2    1    2    0    0  0.13512335810E+03  0.40293383656E+02 -0.39064560766E+03  0.42292380151E+03  0.79866591434E+02 0.  0.
         25    2    1    2    0    0 -0.11123947046E+03  0.99510183404E+02 -0.34601440219E+03  0.39705126640E+03  0.12508894930E+03 0.  0.
         24    2    1    2    0    0 -0.23883887643E+02 -0.13980356706E+03  0.45534586456E+03  0.48435463770E+03  0.84522666991E+02 0.  0.
        -13    1    5    5    0    0 -0.63069489172E+01 -0.31648091525E+02  0.24560659351E+03  0.24771753688E+03  0.00000000000E+00 0.  1.
         14    1    5    5    0    0 -0.17576938726E+02 -0.10815547554E+03  0.20973927105E+03  0.23663710082E+03  0.00000000000E+00 0. -1.
         13    1    3    3    0    0  0.23629352043E+02  0.25083783546E+02 -0.18799662828E+03  0.19112894788E+03  0.00000000000E+00 0. -1.
        -14    1    3    3    0    0  0.11149400606E+03  0.15209600110E+02 -0.20264897938E+03  0.23179485362E+03  0.00000000000E+00 0.  1.
          5    1    4    4  501    0 -0.71744646622E+02  0.46369737253E+01 -0.62139407390E+02  0.95118737349E+02  0.41800000000E+01 0. -1.
         -5    1    4    4    0  501 -0.39494823839E+02  0.94873209679E+02 -0.28387499480E+03  0.30193252905E+03  0.41800000000E+01 0. -1.
</event>
<event>
11    1  0.8037748E-009  0.1316039E+03  0.7561462E-02  0.1117314E+00
         22   -1    0    0    0    0  0.00000000000E+00  0.00000000000E+00  0.53429172354E+03  0.53429172354E+03  0.00000000000E+00 0. -1.
         22   -1    0    0    0    0 -0.00000000000E+00 -0.00000000000E+00 -0.31799886234E+03  0.31799886234E+03  0.00000000000E+00 0.  1.
         24    2    1    2    0    0 -0.33323930225E+02 -0.26207156589E+02 -0.28063812125E+03  0.29526799485E+03  0.81413354560E+02 0.  0.
         25    2    1    2    0    0  0.10345512550E+02  0.88540951549E+00  0.12985754854E+03  0.18060830752E+03  0.12509422150E+03 0.  0.
        -24    2    1    2    0    0  0.22978417674E+02  0.25321747073E+02  0.36707343390E+03  0.37641428351E+03  0.75997423623E+02 0.  0.
        -11    1    3    3    0    0 -0.57174612259E+02 -0.30134518803E+02 -0.16661441131E+03  0.17871034544E+03  0.00000000000E+00 0.  1.
         12    1    3    3    0    0  0.23850682034E+02  0.39273622146E+01 -0.11402370994E+03  0.11655764941E+03  0.00000000000E+00 0. -1.
         13    1    5    5    0    0 -0.96048492986E+01 -0.78778468254E+01  0.25183625186E+03  0.25214244258E+03  0.00000000000E+00 0. -1.
        -14    1    5    5    0    0  0.32583266973E+02  0.33199593899E+02  0.11523718205E+03  0.12427184093E+03  0.00000000000E+00 0.  1.
          5    1    4    4  501    0  0.32410592843E+02 -0.47094765700E+02  0.23820878652E+02  0.62074714212E+02  0.41800000000E+01 0.  1.
         -5    1    4    4    0  501 -0.22065080292E+02  0.47980175215E+02  0.10603666989E+03  0.11853359331E+03  0.41800000000E+01 0.  1.
</event>
<event>
11    1  0.8037748E-009  0.2199880E+03  0.7561462E-02  0.1041225E+00
         22   -1    0    0    0    0  0.00000000000E+00  0.00000000000E+00  0.86289411416E+03  0.86289411416E+03  0.00000000000E+00 0. -1.
         22   -1    0    0    0    0 -0.00000000000E+00 -0.00000000000E+00 -0.48701039738E+03  0.48701039738E+03  0.00000000000E+00 0.  1.
         24    2    1    2    0    0  0.10210758515E+03 -0.14683054045E+03 -0.42429901722E+03  0.46744902679E+03  0.80583931876E+02 0.  0.
         25    2    1    2    0    0 -0.11579347811E+03  0.20124749383E+03  0.47992542610E+03  0.54761746735E+03  0.12509113712E+03 0.  0.
        -24    2    1    2    0    0  0.13685892957E+02 -0.54416953371E+02  0.32025730790E+03  0.33483801741E+03  0.80020285906E+02 0.  0.
        -13    1    3    3    0    0  0.55244675664E+02 -0.83222797164E+02 -0.32807795895E+03  0.34294774428E+03  0.00000000000E+00 0.  1.
         14    1    3    3    0    0  0.46862909488E+02 -0.63607743290E+02 -0.96221058270E+02  0.12450128251E+03  0.00000000000E+00 0. -1.
         13    1    5    5    0    0  0.40473123380E+02 -0.42658910730E+02  0.27297981921E+03  0.27924154074E+03  0.00000000000E+00 0. -1.
        -14    1    5    5    0    0 -0.26787230423E+02 -0.11758042640E+02  0.47277488695E+02  0.55596476667E+02  0.00000000000E+00 0.  1.
          5    1    4    4  501    0 -0.12112143872E+03  0.20566185390E+03  0.48315739013E+03  0.53891162272E+03  0.41800000000E+01 0. -1.
         -5    1    4    4    0  501  0.53279606115E+01 -0.44143600722E+01 -0.32319640340E+01  0.87058446254E+01  0.41800000000E+01 0. -1.
</event>
<event>
11    1  0.8037748E-009  0.2913851E+03  0.7561462E-02  0.1003905E+00
         22   -1    0    0    0    0  0.00000000000E+00  0.00000000000E+00  0.39270312741E+03  0.39270312741E+03  0.00000000000E+00 0.  1.
         22   -1    0    0    0    0 -0.00000000000E+00 -0.00000000000E+00 -0.75268497541E+03  0.75268497541E+03  0.00000000000E+00 0.  1.
         24    2    1    2    0    0 -0.10334728997E+03 -0.24137462104E+03 -0.35292552543E+03  0.44734139929E+03  0.81335914536E+02 0.  0.
         25    2    1    2    0    0  0.22312153952E+02  0.27119581809E+03 -0.27392196901E+03  0.40586395474E+03  0.12508917095E+03 0.  0.
        -24    2    1    2    0    0  0.81035136016E+02 -0.29821197053E+02  0.26686564644E+03  0.29218274879E+03  0.81838184097E+02 0.  0.
        -11    1    3    3    0    0 -0.11715534743E+03 -0.22081098151E+03 -0.31682275787E+03  0.40355857678E+03  0.00000000000E+00 0.  1.
         12    1    3    3    0    0  0.13808057464E+02 -0.20563639535E+02 -0.36102767559E+02  0.43782822514E+02  0.00000000000E+00 0. -1.
         11    1    5    5    0    0  0.73085413141E+02  0.13704449594E+02  0.17814507085E+03  0.19304133190E+03  0.00000000000E+00 0. -1.
        -12    1    5    5    0    0  0.79497228750E+01 -0.43525646648E+02  0.88720575591E+02  0.99141416891E+02  0.00000000000E+00 0.  1.
          5    1    4    4  501    0 -0.14890950317E+02  0.25990974432E+03 -0.23955146291E+03  0.35380388830E+03  0.41800000000E+01 0. -1.
         -5    1    4    4    0  501  0.37203104269E+02  0.11286073769E+02 -0.34370506099E+02  0.52060066441E+02  0.41800000000E+01 0. -1.
</event>
<event>
11    1  0.8037748E-009  0.1478133E+03  0.7561462E-02  0.1099134E+00
         22   -1    0    0    0    0  0.00000000000E+00  0.00000000000E+00  0.16701202017E+04  0.16701202017E+04  0.00000000000E+00 0. -1.
         22   -1    0    0    0    0 -0.00000000000E+00 -0.00000000000E+00 -0.89324805266E+03  0.89324805266E+03  0.00000000000E+00 0.  1.
        -24    2    1    2    0    0 -0.13454149650E+02 -0.78580937783E+02 -0.82806193595E+03  0.83579452258E+03  0.80684176121E+02 0.  0.
         25    2    1    2    0    0  0.45647242912E+02  0.50184062024E+02  0.24372526173E+02  0.14437094161E+03  0.12508732103E+03 0.  0.
         24    2    1    2    0    0 -0.32193093261E+02  0.28396875759E+02  0.15805615588E+04  0.15832027902E+04  0.80705983522E+02 0.  0.
        -13    1    5    5    0    0  0.22586935179E+02  0.10852079384E+02  0.21940143794E+03  0.22082782487E+03  0.00000000000E+00 0.  1.
         14    1    5    5    0    0 -0.54780028440E+02  0.17544796375E+02  0.13611601209E+04  0.13623749653E+04  0.00000000000E+00 0. -1.
         13    1    3    3    0    0 -0.37497527291E+02 -0.13444536149E+02 -0.20169482524E+03  0.20559091088E+03  0.00000000000E+00 0. -1.
        -14    1    3    3    0    0  0.24043377641E+02 -0.65136401634E+02 -0.62636711071E+03  0.63020361170E+03  0.00000000000E+00 0.  1.
          5    1    4    4  501    0  0.43823862329E+02  0.35911231720E+02  0.73564189048E+02  0.92947887461E+02  0.41800000000E+01 0.  1.
         -5    1    4    4    0  501  0.18233805821E+01  0.14272830304E+02 -0.49191662876E+02  0.51423054150E+02  0.41800000000E+01 0.  1.
</event>
<event>
11    1  0.8037748E-009  0.2197907E+03  0.7561462E-02  0.1041349E+00
         22   -1    0    0    0    0  0.00000000000E+00  0.00000000000E+00  0.76130135322E+03  0.76130135322E+03  0.00000000000E+00 0.  1.
         22   -1    0    0    0    0 -0.00000000000E+00 -0.00000000000E+00 -0.17262657568E+04  0.17262657568E+04  0.00000000000E+00 0. -1.
         24    2    1    2    0    0  0.12646515664E+03 -0.12927622934E+03 -0.15675926135E+04  0.15800109067E+04  0.79887947942E+02 0.  0.
         25    2    1    2    0    0 -0.17667579739E+03  0.76168327924E+02 -0.58984855006E+02  0.23694282792E+03  0.12508692586E+03 0.  0.
        -24    2    1    2    0    0  0.50210640757E+02  0.53107901414E+02  0.66161306489E+03  0.67061337539E+03  0.81540750398E+02 0.  0.
        -11    1    3    3    0    0  0.51158213448E+01 -0.46963007759E+02 -0.26357965284E+03  0.26777962790E+03  0.00000000000E+00 0.  1.
         12    1    3    3    0    0  0.12134933529E+03 -0.82313221579E+02 -0.13040129606E+04  0.13122312788E+04  0.00000000000E+00 0. -1.
         13    1    5    5    0    0  0.35860451520E+02 -0.13055850833E+02  0.16202251048E+03  0.16645636403E+03  0.00000000000E+00 0. -1.
        -14    1    5    5    0    0  0.14350189237E+02  0.66163752247E+02  0.49959055441E+03  0.50415701136E+03  0.00000000000E+00 0.  1.
          5    1    4    4  501    0 -0.11057229796E+03  0.53671577283E+02 -0.97633487506E+02  0.15702433431E+03  0.41800000000E+01 0.  1.
         -5    1    4    4    0  501 -0.66103499433E+02  0.22496750641E+02  0.38648632499E+02  0.79918493609E+02  0.41800000000E+01 0.  1.
</event>
<event>
11    1  0.8037748E-009  0.1420393E+03  0.7561462E-02  0.1105302E+00
         22   -1    0    0    0    0  0.00000000000E+00  0.00000000000E+00  0.27659382684E+03  0.27659382684E+03  0.00000000000E+00 0. -1.
         22   -1    0    0    0    0 -0.00000000000E+00 -0.00000000000E+00 -0.82415264411E+03  0.82415264411E+03  0.00000000000E+00 0.  1.
        -24    2    1    2    0    0  0.88895999642E+02 -0.72780899156E+01 -0.47731743525E+03  0.49207086935E+03  0.79663900970E+02 0.  0.
         25    2    1    2    0    0 -0.20782630174E+02  0.38493704154E+02 -0.31412754357E+03  0.34093896858E+03  0.12509829611E+03 0.  0.
         24    2    1    2    0    0 -0.68113369467E+02 -0.31215614238E+02  0.24388616156E+03  0.26773663301E+03  0.81170186552E+02 0.  0.
        -11    1    5    5    0    0 -0.13533256706E+02  0.31754083371E+01 -0.15285284288E+01  0.13984586313E+02  0.00000000000E+00 0.  1.
         12    1    5    5    0    0 -0.54580112761E+02 -0.34391022575E+02  0.24541468999E+03  0.25375204670E+03  0.00000000000E+00 0. -1.
         13    1    3    3    0    0  0.37308952370E+01  0.26498762692E+02 -0.13988332510E+03  0.14241997277E+03  0.00000000000E+00 0. -1.
        -14    1    3    3    0    0  0.85165104405E+02 -0.33776852607E+02 -0.33743411016E+03  0.34965089658E+03  0.00000000000E+00 0.  1.
          5    1    4    4  501    0 -0.52280037513E+02  0.32234595257E+02 -0.29886325428E+03  0.30513765519E+03  0.41800000000E+01 0.  1.
         -5    1    4    4    0  501  0.31497407339E+02  0.62591088970E+01 -0.15264289294E+02  0.35801313397E+02  0.41800000000E+01 0.  1.
</event>
<event>
11    1  0.8037748E-009  0.1330312E+03  0.7561462E-02  0.1115600E+00
         22   -1    0    0    0    0  0.00000000000E+00  0.00000000000E+00  0.12762653279E+03  0.12762653279E+03  0.00000000000E+00 0. -1.
         22   -1    0    0    0    0 -0.00000000000E+00 -0.00000000000E+00 -0.10521388244E+04  0.10521388244E+04  0.00000000000E+00 0.  1.
        -24    2    1    2    0    0 -0.22177188625E+02  0.42132831818E+02 -0.90753040533E+03  0.91259202074E+03  0.83341205379E+02 0.  0.
         25    2    1    2    0    0  0.20495404020E+02 -0.52128011861E+01 -0.87386227969E+02  0.15405158295E+03  0.12509317523E+03 0.  0.
         24    2    1    2    0    0  0.16817846044E+01 -0.36920030631E+02  0.70404341739E+02  0.11312175345E+03  0.80460193304E+02 0.  0.
        -13    1    5    5    0    0  0.48416195782E+01  0.11075293237E+02 -0.12428192162E+02  0.17336763275E+02  0.00000000000E+00 0.  1.
         14    1    5    5    0    0 -0.31598349738E+01 -0.47995323869E+02  0.82832533901E+02  0.95784990174E+02  0.00000000000E+00 0. -1.
         11    1    3    3    0    0  0.29509687018E+02  0.26087736910E+01 -0.35779712862E+03  0.35902146534E+03  0.00000000000E+00 0. -1.
        -12    1    3    3    0    0 -0.51686875643E+02  0.39524058127E+02 -0.54973327671E+03  0.55357055540E+03  0.00000000000E+00 0.  1.
          5    1    4    4  501    0  0.43859202466E+02 -0.35825289069E+02 -0.98549747327E+02  0.11373920202E+03  0.41800000000E+01 0. -1.
         -5    1    4    4    0  501 -0.23363798445E+02  0.30612487883E+02  0.11163519358E+02  0.40312380935E+02  0.41800000000E+01 0. -1.
</event>
<event>
11    1  0.8037748E-009  0.1638227E+03  0.7561462E-02  0.1083536E+00
         22   -1    0    0    0    0  0.00000000000E+00  0.00000000000E+00  0.14209411564E+04  0.14209411564E+04  0.00000000000E+00 0. -1.
         22   -1    0    0    0    0 -0.00000000000E+00 -0.00000000000E+00 -0.20357792353E+03  0.20357792353E+03  0.00000000000E+00 0. -1.
        -24    2    1    2    0    0  0.23913556133E+02  0.15492733286E+02 -0.15277126491E+03  0.17483704045E+03  0.80106481506E+02 0.  0.
         25    2    1    2    0    0  0.27505192312E+02 -0.10770189291E+03  0.15731991624E+03  0.22968393381E+03  0.12509564366E+03 0.  0.
         24    2    1    2    0    0 -0.51418748446E+02  0.92209159624E+02  0.12128145816E+04  0.12199981057E+04  0.79559737533E+02 0.  0.
        -13    1    5    5    0    0 -0.88077760640E+01  0.13610817946E+02  0.64366131793E+03  0.64386545449E+03  0.00000000000E+00 0.  1.
         14    1    5    5    0    0 -0.42610972382E+02  0.78598341678E+02  0.56915326366E+03  0.57613265124E+03  0.00000000000E+00 0. -1.
         13    1    3    3    0    0  0.33979770480E+02  0.76196573196E+01 -0.15742955097E+03  0.16123506907E+03  0.00000000000E+00 0. -1.
        -14    1    3    3    0    0 -0.10066214346E+02  0.78730759663E+01  0.46582860584E+01  0.13601971380E+02  0.00000000000E+00 0.  1.
          5    1    4    4  501    0  0.47329742308E+02  0.82060033259E+01  0.60096301045E+02  0.77048561290E+02  0.41800000000E+01 0.  1.
         -5    1    4    4    0  501 -0.19824549996E+02 -0.11590789624E+03  0.97223615191E+02  0.15263537252E+03  0.41800000000E+01 0.  1.
</event>
<event>
11    1  0.8037748E-009  0.1798609E+03  0.7561462E-02  0.1069755E+00
         22   -1    0    0    0    0  0.00000000000E+00  0.00000000000E+00  0.13449234337E+04  0.13449234337E+04  0.00000000000E+00 0. -1.
         22   -1    0    0    0    0 -0.00000000000E+00 -0.00000000000E+00 -0.31003728596E+03  0.31003728596E+03  0.00000000000E+00 0.  1.
        -24    2    1    2    0    0  0.11647573837E+03  0.50594222572E+02 -0.23400979903E+03  0.27806293069E+03  0.80199965056E+02 0.  0.
         25    2    1    2    0    0 -0.10745947863E+03 -0.12594329616E+03  0.15869909557E+03  0.26123139273E+03  0.12508870540E+03 0.  0.
         24    2    1    2    0    0 -0.90162597402E+01  0.75349073590E+02  0.11101968512E+04  0.11156663963E+04  0.80097961673E+02 0.  0.
        -13    1    5    5    0    0  0.17818966584E+02  0.60745381068E+02  0.41519280041E+03  0.41999116467E+03  0.00000000000E+00 0.  1.
         14    1    5    5    0    0 -0.26835226325E+02  0.14603692522E+02  0.69500405080E+03  0.69567523158E+03  0.00000000000E+00 0. -1.
         13    1    3    3    0    0  0.33570941115E+02 -0.18505320601E+02 -0.36192517099E+02  0.52719572000E+02  0.00000000000E+00 0. -1.
        -14    1    3    3    0    0  0.82904797252E+02  0.69099543174E+02 -0.19781728193E+03  0.22534335869E+03  0.00000000000E+00 0.  1.
          5    1    4    4  501    0 -0.10662387491E+03 -0.13130727733E+03  0.88963857301E+02  0.19116038315E+03  0.41800000000E+01 0.  1.
         -5    1    4    4    0  501 -0.83560371865E+00  0.53639811637E+01  0.69735238268E+02  0.70071009582E+02  0.41800000000E+01 0.  1.
</event>
<event>
11    1  0.8037748E-009  0.1488621E+03  0.7561462E-02  0.1098047E+00
         22   -1    0    0    0    0  0.00000000000E+00  0.00000000000E+00  0.79210308365E+02  0.79210308365E+02  0.00000000000E+00 0. -1.
         22   -1    0    0    0    0 -0.00000000000E+00 -0.00000000000E+00 -0.85674289305E+03  0.85674289305E+03  0.00000000000E+00 0. -1.
         24    2    1    2    0    0 -0.94872251664E+01 -0.75500600453E+02 -0.53965637989E+03  0.55090237957E+03  0.80461639041E+02 0.  0.
         25    2    1    2    0    0 -0.19408480517E+02  0.10288448712E+03 -0.24564247302E+03  0.29487273483E+03  0.12509116031E+03 0.  0.
        -24    2    1    2    0    0  0.28895705684E+02 -0.27383886671E+02  0.77662682262E+01  0.90178087010E+02  0.80541501094E+02 0.  0.
        -11    1    3    3    0    0  0.13850110835E+02  0.10890667093E+02 -0.47199695496E+02  0.50380983067E+02  0.00000000000E+00 0.  1.
         12    1    3    3    0    0 -0.23337336001E+02 -0.86391267546E+02 -0.49245668439E+03  0.50052139651E+03  0.00000000000E+00 0. -1.
         13    1    5    5    0    0  0.37086946020E+02 -0.88831003983E+01  0.37975560128E+02  0.53819087737E+02  0.00000000000E+00 0. -1.
        -14    1    5    5    0    0 -0.81912403367E+01 -0.18500786272E+02 -0.30209291902E+02  0.36358999273E+02  0.00000000000E+00 0.  1.
          5    1    4    4  501    0  0.41768731426E+02  0.69575508337E+01 -0.33670532219E+02  0.54260589552E+02  0.41800000000E+01 0.  1.
         -5    1    4    4    0  501 -0.61177211944E+02  0.95926936290E+02 -0.21197194081E+03  0.24061214528E+03  0.41800000000E+01 0.  1.
</event>
<event>
11    1  0.8037748E-009  0.1472779E+03  0.7561462E-02  0.1099693E+00
         22   -1    0    0    0    0  0.00000000000E+00  0.00000000000E+00  0.50611593757E+03  0.50611593757E+03  0.00000000000E+00 0.  1.
         22   -1    0    0    0    0 -0.00000000000E+00 -0.00000000000E+00 -0.34289849549E+04  0.34289849549E+04  0.00000000000E+00 0. -1.
        -24    2    1    2    0    0  0.68758976948E+02  0.28451523770E+02 -0.27263567639E+04  0.27285255644E+04  0.79330105519E+02 0.  0.
         25    2    1    2    0    0 -0.11040731506E+03 -0.14612140355E+02 -0.68713320118E+03  0.70725522116E+03  0.12511843118E+03 0.  0.
         24    2    1    2    0    0  0.41648338115E+02 -0.13839383415E+02  0.49062094780E+03  0.49932010683E+03  0.81765164171E+02 0.  0.
        -11    1    5    5    0    0  0.39696050241E+02 -0.97857161608E+01  0.49267899566E+03  0.49437246021E+03  0.00000000000E+00 0.  1.
         12    1    5    5    0    0  0.19522878741E+01 -0.40536672547E+01 -0.20580478637E+01  0.49476466289E+01  0.00000000000E+00 0. -1.
         11    1    3    3    0    0  0.44290608373E+02  0.53409638633E+02 -0.21427884184E+04  0.21439114845E+04  0.00000000000E+00 0. -1.
        -12    1    3    3    0    0  0.24468368576E+02 -0.24958114863E+02 -0.58356834549E+03  0.58461407990E+03  0.00000000000E+00 0.  1.
          5    1    4    4  501    0 -0.10677820566E+03 -0.50202240961E+02 -0.61928942776E+03  0.63044327099E+03  0.41800000000E+01 0. -1.
         -5    1    4    4    0  501 -0.36291094044E+01  0.35590100606E+02 -0.67843773419E+02  0.76811950163E+02  0.41800000000E+01 0. -1.
</event>
<event>
11    1  0.8037748E-009  0.1286064E+03  0.7561462E-02  0.1120993E+00
         22   -1    0    0    0    0  0.00000000000E+00  0.00000000000E+00  0.51077752211E+03  0.51077752211E+03  0.00000000000E+00 0. -1.
         22   -1    0    0    0    0 -0.00000000000E+00 -0.00000000000E+00 -0.23386208291E+04  0.23386208291E+04  0.00000000000E+00 0.  1.
        -24    2    1    2    0    0  0.14557871363E+02 -0.27913649426E+02 -0.21296883754E+04  0.21315708341E+04  0.83848322029E+02 0.  0.
         25    2    1    2    0    0 -0.28290645862E+01 -0.50242518473E+01 -0.18470482188E+03  0.22315181015E+03  0.12509041704E+03 0.  0.
         24    2    1    2    0    0 -0.11728806777E+02  0.32937901273E+02  0.48654989028E+03  0.49467570695E+03  0.82163185610E+02 0.  0.
        -13    1    5    5    0    0 -0.28812794751E+02 -0.25636330249E+01  0.63302111582E+02  0.69598180195E+02  0.00000000000E+00 0.  1.
         14    1    5    5    0    0  0.17083987975E+02  0.35501534298E+02  0.42324777869E+03  0.42507752675E+03  0.00000000000E+00 0. -1.
         13    1    3    3    0    0  0.31931506029E+02 -0.17162230973E+02 -0.37166843385E+03  0.37343217318E+03  0.00000000000E+00 0. -1.
        -14    1    3    3    0    0 -0.17373634666E+02 -0.10751418452E+02 -0.17580199416E+04  0.17581386609E+04  0.00000000000E+00 0.  1.
          5    1    4    4  501    0 -0.77617056419E+01 -0.55302183662E+02 -0.37329093541E+02  0.67301628635E+02  0.41800000000E+01 0.  1.
         -5    1    4    4    0  501  0.49326410558E+01  0.50277931815E+02 -0.14737572834E+03  0.15585018152E+03  0.41800000000E+01 0.  1.
</event>
<event>
11    1  0.8037748E-009  0.1970703E+03  0.7561462E-02  0.1056615E+00
         22   -1    0    0    0    0  0.00000000000E+00  0.00000000000E+00  0.55350231823E+03  0.55350231823E+03  0.00000000000E+00 0. -1.
         22   -1    0    0    0    0 -0.00000000000E+00 -0.00000000000E+00 -0.58700298461E+03  0.58700298461E+03  0.00000000000E+00 0. -1.
        -24    2    1    2    0    0  0.97686287366E+02 -0.35623625647E+02 -0.49932760298E+03  0.51628346682E+03  0.80055665490E+02 0.  0.
         25    2    1    2    0    0 -0.14129834407E+03 -0.10920756369E+03  0.14870564568E+03  0.26391296112E+03  0.12508064593E+03 0.  0.
         24    2    1    2    0    0  0.43612056704E+02  0.14483118934E+03  0.31712129092E+03  0.36030887490E+03  0.79865432351E+02 0.  0.
        -13    1    5    5    0    0 -0.95830423671E+01  0.56913020599E+02  0.17954056331E+03  0.18858881327E+03  0.00000000000E+00 0.  1.
         14    1    5    5    0    0  0.53195099071E+02  0.87918168738E+02  0.13758072760E+03  0.17172006163E+03  0.00000000000E+00 0. -1.
         13    1    3    3    0    0  0.74526528673E+02 -0.55096506181E+02 -0.44033935264E+03  0.44998730422E+03  0.00000000000E+00 0. -1.
        -14    1    3    3    0    0  0.23159758693E+02  0.19472880534E+02 -0.58988250330E+02  0.66296162604E+02  0.00000000000E+00 0.  1.
          5    1    4    4  501    0  0.15079834568E+02  0.11827128625E+02  0.19512888024E+02  0.27667807668E+02  0.41800000000E+01 0.  1.
         -5    1    4    4    0  501 -0.15637817864E+03 -0.12103469231E+03  0.12919275765E+03  0.23624515345E+03  0.41800000000E+01 0. -1.
</event>
<event>
11    1  0.8037748E-009  0.1527069E+03  0.7561462E-02  0.1094145E+00
         22   -1    0    0    0    0  0.00000000000E+00  0.00000000000E+00  0.15210772743E+04  0.15210772743E+04  0.00000000000E+00 0.  1.
         22   -1    0    0    0    0 -0.00000000000E+00 -0.00000000000E+00 -0.55890004687E+03  0.55890004687E+03  0.00000000000E+00 0. -1.
        -24    2    1    2    0    0 -0.88500903157E+02 -0.17828036833E+02 -0.52947927964E+03  0.54290111185E+03  0.79013042780E+02 0.  0.
         25    2    1    2    0    0  0.90797617358E+01 -0.79297455938E-01  0.17443123411E+03  0.21484945921E+03  0.12510630012E+03 0.  0.
         24    2    1    2    0    0  0.79421141421E+02  0.17907334289E+02  0.13172252730E+04  0.13222267501E+04  0.81072613236E+02 0.  0.
        -11    1    5    5    0    0  0.62874704907E+02 -0.25533289089E+02  0.84402226210E+03  0.84674598097E+03  0.00000000000E+00 0.  1.
         12    1    5    5    0    0  0.16546436513E+02  0.43440623378E+02  0.47320301090E+03  0.47548076917E+03  0.00000000000E+00 0. -1.
         11    1    3    3    0    0 -0.40416405995E+02 -0.48057044087E+02 -0.29954548722E+03  0.30605630899E+03  0.00000000000E+00 0. -1.
        -12    1    3    3    0    0 -0.48084497162E+02  0.30229007255E+02 -0.22993379242E+03  0.23684480286E+03  0.00000000000E+00 0.  1.
          5    1    4    4  501    0 -0.41364288788E+01 -0.47594110164E+02  0.18752729931E+02  0.51492199856E+02  0.41800000000E+01 0.  1.
         -5    1    4    4    0  501  0.13216190615E+02  0.47514812708E+02  0.15567850418E+03  0.16335725936E+03  0.41800000000E+01 0.  1.
</event>
<event>
11    1  0.8037748E-009  0.1737211E+03  0.7561462E-02  0.1074838E+00
         22   -1    0    0    0    0  0.00000000000E+00  0.00000000000E+00  0.14079670861E+03  0.14079670861E+03  0.00000000000E+00 0. -1.
         22   -1    0    0    0    0 -0.00000000000E+00 -0.00000000000E+00 -0.16179454074E+04  0.16179454074E+04  0.00000000000E+00 0. -1.
         24    2    1    2    0    0  0.54018472056E+02 -0.50592730939E+02 -0.14193430097E+04  0.14236592492E+04  0.82422443093E+02 0.  0.
         25    2    1    2    0    0 -0.15249477753E+03  0.38145306827E+02 -0.31009767224E+02  0.20326976564E+03  0.12508904968E+03 0.  0.
        -24    2    1    2    0    0  0.98476305476E+02  0.12447424112E+02 -0.26795921913E+02  0.13181310115E+03  0.82487278389E+02 0.  0.
        -11    1    3    3    0    0  0.83702194855E+01  0.21738670989E+02 -0.20799007010E+03  0.20929046717E+03  0.00000000000E+00 0.  1.
         12    1    3    3    0    0  0.45648252570E+02 -0.72331401928E+02 -0.12113529396E+04  0.12143687821E+04  0.00000000000E+00 0. -1.
         13    1    5    5    0    0  0.10501461113E+03 -0.92030684342E+01 -0.15558898083E+02  0.10655911190E+03  0.00000000000E+00 0. -1.
        -14    1    5    5    0    0 -0.65383056557E+01  0.21650492546E+02 -0.11237023830E+02  0.25253989247E+02  0.00000000000E+00 0.  1.
          5    1    4    4  501    0 -0.16583997624E+03  0.83371694888E+01 -0.15349559856E+02  0.16680973444E+03  0.41800000000E+01 0.  1.
         -5    1    4    4    0  501  0.13345198711E+02  0.29808137338E+02 -0.15660207368E+02  0.36460031199E+02  0.41800000000E+01 0.  1.
</event>
<event>
11    1  0.8037748E-009  0.5045624E+03  0.7561462E-02  0.9383384E-01
         22   -1    0    0    0    0  0.00000000000E+00  0.00000000000E+00  0.50359276030E+03  0.50359276030E+03  0.00000000000E+00 0.  1.
         22   -1    0    0    0    0 -0.00000000000E+00 -0.00000000000E+00 -0.24311858973E+04  0.24311858973E+04  0.00000000000E+00 0.  1.
         24    2    1    2    0    0  0.56147169217E+02  0.46456272195E+03 -0.14374307515E+04  0.15138413645E+04  0.80854712073E+02 0.  0.
         25    2    1    2    0    0  0.23361312298E+02 -0.53694369133E+03 -0.86492832633E+03  0.10259639444E+04  0.12508687768E+03 0.  0.
        -24    2    1    2    0    0 -0.79508481515E+02  0.72380969378E+02  0.37476594078E+03  0.39497334868E+03  0.63196775568E+02 0.  0.
        -13    1    3    3    0    0  0.51365786514E+02  0.39138120576E+03 -0.12921542146E+04  0.13511033294E+04  0.00000000000E+00 0.  1.
         14    1    3    3    0    0  0.47813827033E+01  0.73181516188E+02 -0.14527653681E+03  0.16273803513E+03  0.00000000000E+00 0. -1.
         11    1    5    5    0    0 -0.17792625113E+02  0.11907186482E+02  0.18237850740E+02  0.28124327510E+02  0.00000000000E+00 0. -1.
        -12    1    5    5    0    0 -0.61715856402E+02  0.60473782896E+02  0.35652809004E+03  0.36684902117E+03  0.00000000000E+00 0.  1.
          5    1    4    4  501    0  0.51105331328E+01 -0.47710000087E+03 -0.68007185730E+03  0.83076213916E+03  0.41800000000E+01 0.  1.
         -5    1    4    4    0  501  0.18250779165E+02 -0.59843690457E+02 -0.18485646903E+03  0.19520180524E+03  0.41800000000E+01 0.  1.
</event>
<event>
11    1  0.8037748E-009  0.1364057E+03  0.7561462E-02  0.1111640E+00
         22   -1    0    0    0    0  0.00000000000E+00  0.00000000000E+00  0.95904169960E+03  0.95904169960E+03  0.00000000000E+00 0. -1.
         22   -1    0    0    0    0 -0.00000000000E+00 -0.00000000000E+00 -0.48141043609E+03  0.48141043609E+03  0.00000000000E+00 0.  1.
         24    2    1    2    0    0  0.32545302069E+02  0.46046400501E+02 -0.43681103142E+03  0.44764530488E+03  0.80018586158E+02 0.  0.
         25    2    1    2    0    0 -0.35502052256E+02  0.11733473561E+02  0.80953666688E+02  0.15361805271E+03  0.12508772862E+03 0.  0.
        -24    2    1    2    0    0  0.29567501872E+01 -0.57779874062E+02  0.83348862824E+03  0.83918877809E+03  0.78659110418E+02 0.  0.
        -11    1    3    3    0    0  0.16725329113E+01  0.40031437166E+02 -0.38467734179E+03  0.38675828448E+03  0.00000000000E+00 0.  1.
         12    1    3    3    0    0  0.30872769157E+02  0.60149633348E+01 -0.52133689626E+02  0.60887020402E+02  0.00000000000E+00 0. -1.
         11    1    5    5    0    0 -0.29069754323E+02 -0.52595233853E+02  0.65702587608E+03  0.65976837685E+03  0.00000000000E+00 0. -1.
        -12    1    5    5    0    0  0.32026504510E+02 -0.51846402098E+01  0.17646275216E+03  0.17942040125E+03  0.00000000000E+00 0.  1.
          5    1    4    4  501    0 -0.56926459441E+02  0.15821046475E+02 -0.99318451611E+01  0.60058648373E+02  0.41800000000E+01 0. -1.
         -5    1    4    4    0  501  0.21424407185E+02 -0.40875729130E+01  0.90885511849E+02  0.93559404336E+02  0.41800000000E+01 0. -1.
</event>
<event>
11    1  0.8037748E-009  0.2067911E+03  0.7561462E-02  0.1049823E+00
         22   -1    0    0    0    0  0.00000000000E+00  0.00000000000E+00  0.20806433078E+03  0.20806433078E+03  0.00000000000E+00 0.  1.
         22   -1    0    0    0    0 -0.00000000000E+00 -0.00000000000E+00 -0.18000695361E+04  0.18000695361E+04  0.00000000000E+00 0.  1.
         24    2    1    2    0    0  0.43593250618E+02 -0.16030353477E+03 -0.16800563645E+04  0.16901310582E+04  0.79724595856E+02 0.  0.
         25    2    1    2    0    0 -0.36248453979E+02  0.13361539411E+03 -0.10999674456E+02  0.18694598359E+03  0.12514305408E+03 0.  0.
        -24    2    1    2    0    0 -0.73447966389E+01  0.26688140659E+02  0.99050833587E+02  0.13105682515E+03  0.81231895794E+02 0.  0.
        -11    1    3    3    0    0  0.42943128332E+02 -0.16663972342E+03 -0.16637353455E+04  0.16726111950E+04  0.00000000000E+00 0.  1.
         12    1    3    3    0    0  0.65012228607E+00  0.63361886540E+01 -0.16321019000E+02  0.17519863208E+02  0.00000000000E+00 0. -1.
         13    1    5    5    0    0 -0.32235265176E+02  0.46414947150E+01  0.71741739301E+01  0.33348531688E+02  0.00000000000E+00 0. -1.
        -14    1    5    5    0    0  0.24890468537E+02  0.22046645944E+02  0.91876659657E+02  0.97708293461E+02  0.00000000000E+00 0.  1.
          5    1    4    4  501    0  0.32502272270E+02  0.88547439454E+02 -0.35804712491E+02  0.10097770335E+03  0.41800000000E+01 0. -1.
         -5    1    4    4    0  501 -0.68750726249E+02  0.45067954655E+02  0.24805038035E+02  0.85968280246E+02  0.41800000000E+01 0. -1.
</event>
<event>
11    1  0.8037748E-009  0.1444772E+03  0.7561462E-02  0.1102659E+00
         22   -1    0    0    0    0  0.00000000000E+00  0.00000000000E+00  0.48079058374E+03  0.48079058374E+03  0.00000000000E+00 0. -1.
         22   -1    0    0    0    0 -0.00000000000E+00 -0.00000000000E+00 -0.20658485159E+03  0.20658485159E+03  0.00000000000E+00 0.  1.
        -24    2    1    2    0    0  0.43562213554E+02 -0.37932216800E+02 -0.47571700067E+02  0.10979764474E+03  0.80348843308E+02 0.  0.
         25    2    1    2    0    0 -0.81076872911E+02  0.52305569170E+02 -0.72175856283E+02  0.17368407000E+03  0.12508984793E+03 0.  0.
         24    2    1    2    0    0  0.37514659357E+02 -0.14373352370E+02  0.39395328850E+03  0.40389372059E+03  0.79479563963E+02 0.  0.
        -13    1    5    5    0    0 -0.17130599551E+02 -0.25744781837E+02  0.99412435620E+02  0.10411091964E+03  0.00000000000E+00 0.  1.
         14    1    5    5    0    0  0.54645258908E+02  0.11371429467E+02  0.29454085288E+03  0.29978280095E+03  0.00000000000E+00 0. -1.
         11    1    3    3    0    0  0.13890277929E+01 -0.21169024519E+02  0.19499941720E+02  0.28815008666E+02  0.00000000000E+00 0. -1.
        -12    1    3    3    0    0  0.42173185761E+02 -0.16763192280E+02 -0.67071641787E+02  0.80982636069E+02  0.00000000000E+00 0.  1.
          5    1    4    4  501    0 -0.78016672614E+02 -0.12549001257E+02 -0.36825096007E+01  0.79215603989E+02  0.41800000000E+01 0.  1.
         -5    1    4    4    0  501 -0.30602002964E+01  0.64854570428E+02 -0.68493346682E+02  0.94468466014E+02  0.41800000000E+01 0.  1.
</event>
<event>
11    1  0.8037748E-009  0.1654976E+03  0.7561462E-02  0.1082018E+00
         22   -1    0    0    0    0  0.00000000000E+00  0.00000000000E+00  0.11666349862E+03  0.11666349862E+03  0.00000000000E+00 0.  1.
         22   -1    0    0    0    0 -0.00000000000E+00 -0.00000000000E+00 -0.11408885614E+04  0.11408885614E+04  0.00000000000E+00 0. -1.
         24    2    1    2    0    0  0.51116001999E+02 -0.87757175146E+02 -0.74519532566E+03  0.75639976845E+03  0.80686856948E+02 0.  0.
         25    2    1    2    0    0 -0.13828876980E+03  0.80585520462E+02 -0.32330317601E+03  0.38182547311E+03  0.12509171971E+03 0.  0.
        -24    2    1    2    0    0  0.87172767798E+02  0.71716546837E+01  0.44273438897E+02  0.11932681845E+03  0.68031082119E+02 0.  0.
        -11    1    3    3    0    0 -0.13423053120E+02 -0.41799169766E+01 -0.26593654498E+02  0.30081099058E+02  0.00000000000E+00 0.  1.
         12    1    3    3    0    0  0.64539055118E+02 -0.83577258170E+02 -0.71860167116E+03  0.72631866940E+03  0.00000000000E+00 0. -1.
         11    1    5    5    0    0 -0.98684131968E+01 -0.73827650147E+01  0.20164391278E+01  0.12488267496E+02  0.00000000000E+00 0. -1.
        -12    1    5    5    0    0  0.97041180995E+02  0.14554419698E+02  0.42256999769E+02  0.10683855096E+03  0.00000000000E+00 0.  1.
          5    1    4    4  501    0 -0.11912414455E+03  0.40376304803E+02 -0.12081908914E+03  0.17445782443E+03  0.41800000000E+01 0.  1.
         -5    1    4    4    0  501 -0.19164625248E+02  0.40209215660E+02 -0.20248408687E+03  0.20736764868E+03  0.41800000000E+01 0.  1.
</event>
<event>
11    1  0.8037748E-009  0.2867095E+03  0.7561462E-02  0.1005978E+00
         22   -1    0    0    0    0  0.00000000000E+00  0.00000000000E+00  0.18618497589E+04  0.18618497589E+04  0.00000000000E+00 0. -1.
         22   -1    0    0    0    0 -0.00000000000E+00 -0.00000000000E+00 -0.20391518334E+03  0.20391518334E+03  0.00000000000E+00 0.  1.
        -24    2    1    2    0    0  0.13038926601E+03  0.65300472694E+02  0.11018923457E+03  0.19971519042E+03  0.80492095534E+02 0.  0.
         25    2    1    2    0    0  0.12498867916E+03 -0.14006032377E+03 -0.60285068865E+02  0.23349725661E+03  0.12509042770E+03 0.  0.
         24    2    1    2    0    0 -0.25537794517E+03  0.74759851077E+02  0.16080304098E+04  0.16325524952E+04  0.93053320250E+02 0.  0.
        -11    1    5    5    0    0 -0.60084478372E+02  0.60380283583E+02  0.54916380004E+03  0.55573087233E+03  0.00000000000E+00 0.  1.
         12    1    5    5    0    0 -0.19529346680E+03  0.14379567495E+02  0.10588666098E+04  0.10768216229E+04  0.00000000000E+00 0. -1.
         11    1    3    3    0    0  0.13896972421E+03  0.54077485404E+02  0.11047552487E+03  0.18558502168E+03  0.00000000000E+00 0. -1.
        -12    1    3    3    0    0 -0.85804581976E+01  0.11222987290E+02 -0.28629029964E+00  0.14130168744E+02  0.00000000000E+00 0.  1.
          5    1    4    4  501    0  0.54159103705E+02 -0.13220285359E+03 -0.73778961209E+02  0.16084654342E+03  0.41800000000E+01 0. -1.
         -5    1    4    4    0  501  0.70829575456E+02 -0.78574701816E+01  0.13493892344E+02  0.72650713193E+02  0.41800000000E+01 0. -1.
</event>
<event>
11    1  0.8037748E-009  0.1876224E+03  0.7561462E-02  0.1063639E+00
         22   -1    0    0    0    0  0.00000000000E+00  0.00000000000E+00  0.13919212085E+04  0.13919212085E+04  0.00000000000E+00 0.  1.
         22   -1    0    0    0    0 -0.00000000000E+00 -0.00000000000E+00 -0.41491641356E+03  0.41491641356E+03  0.00000000000E+00 0. -1.
        -24    2    1    2    0    0 -0.23265266825E+02  0.13543459965E+03 -0.34045102888E+03  0.37568488207E+03  0.79676998735E+02 0.  0.
         25    2    1    2    0    0  0.97803504886E+02 -0.15586870286E+03  0.17422324892E+03  0.28259043072E+03  0.12507211109E+03 0.  0.
         24    2    1    2    0    0 -0.74538238060E+02  0.20434103217E+02  0.11432325749E+04  0.11485623093E+04  0.79000990258E+02 0.  0.
        -11    1    5    5    0    0 -0.86908854777E+02  0.23342364640E+02  0.79131599002E+03  0.79641635537E+03  0.00000000000E+00 0.  1.
         12    1    5    5    0    0  0.12370616716E+02 -0.29082614234E+01  0.35191658491E+03  0.35214595395E+03  0.00000000000E+00 0. -1.
         11    1    3    3    0    0 -0.75917277952E+01  0.14039592586E+03 -0.31938314733E+03  0.34896166713E+03  0.00000000000E+00 0. -1.
        -12    1    3    3    0    0 -0.15673539030E+02 -0.49613262147E+01 -0.21067881555E+02  0.26723214940E+02  0.00000000000E+00 0.  1.
          5    1    4    4  501    0  0.54219257121E+02 -0.27324816572E+02  0.12340702687E+03  0.13759774753E+03  0.41800000000E+01 0.  1.
         -5    1    4    4    0  501  0.43584247765E+02 -0.12854388629E+03  0.50816222042E+02  0.14499268319E+03  0.41800000000E+01 0.  1.
</event>
<event>
11    1  0.8037748E-009  0.1481443E+03  0.7561462E-02  0.1098790E+00
         22   -1    0    0    0    0  0.00000000000E+00  0.00000000000E+00  0.70807557109E+02  0.70807557109E+02  0.00000000000E+00 0.  1.
         22   -1    0    0    0    0 -0.00000000000E+00 -0.00000000000E+00 -0.29974534616E+04  0.29974534616E+04  0.00000000000E+00 0.  1.
        -24    2    1    2    0    0 -0.23084649063E+02 -0.82507323451E+02 -0.23429260209E+04  0.23458853163E+04  0.80840698078E+02 0.  0.
         25    2    1    2    0    0 -0.25014126387E+02  0.53216122417E+02 -0.60244082693E+03  0.61809415720E+03  0.12509106684E+03 0.  0.
         24    2    1    2    0    0  0.48098775450E+02  0.29291201034E+02  0.18720943284E+02  0.10428154525E+03  0.85747888045E+02 0.  0.
        -11    1    5    5    0    0  0.22994700092E+02  0.42413163758E+02  0.44755674207E+02  0.65808077513E+02  0.00000000000E+00 0.  1.
         12    1    5    5    0    0  0.25104075358E+02 -0.13121962724E+02 -0.26034730923E+02  0.38473467735E+02  0.00000000000E+00 0. -1.
         11    1    3    3    0    0  0.26727082912E+02 -0.23819481781E+02 -0.46211297193E+03  0.46349768446E+03  0.00000000000E+00 0. -1.
        -12    1    3    3    0    0 -0.49811731975E+02 -0.58687841670E+02 -0.18808130489E+04  0.18823876318E+04  0.00000000000E+00 0.  1.
          5    1    4    4  501    0  0.91407328656E+01  0.44178289613E+02 -0.56361611997E+03  0.56543423788E+03  0.41800000000E+01 0. -1.
         -5    1    4    4    0  501 -0.34154859253E+02  0.90378328045E+01 -0.38824706957E+02  0.52659919319E+02  0.41800000000E+01 0. -1.
</event>
<event>
11    1  0.8037748E-009  0.1354101E+03  0.7561462E-02  0.1112795E+00
         22   -1    0    0    0    0  0.00000000000E+00  0.00000000000E+00  0.86443254069E+03  0.86443254069E+03  0.00000000000E+00 0.  1.
         22   -1    0    0    0    0 -0.00000000000E+00 -0.00000000000E+00 -0.47649309231E+03  0.47649309231E+03  0.00000000000E+00 0. -1.
         24    2    1    2    0    0  0.22259776827E+02 -0.28878144064E+02 -0.45327222889E+03  0.46183313204E+03  0.80651618079E+02 0.  0.
         25    2    1    2    0    0 -0.31559580215E+02  0.72045121528E+02  0.35965539817E+03  0.38882617132E+03  0.12508908598E+03 0.  0.
        -24    2    1    2    0    0  0.92998033878E+01 -0.43166977464E+02  0.48155627911E+03  0.49026632964E+03  0.80713999647E+02 0.  0.
        -13    1    3    3    0    0  0.11832164225E+02 -0.21834903558E+02 -0.32645329384E+02  0.41018052784E+02  0.00000000000E+00 0.  1.
         14    1    3    3    0    0  0.10427612602E+02 -0.70432405056E+01 -0.42062689951E+03  0.42081507926E+03  0.00000000000E+00 0. -1.
         11    1    5    5    0    0  0.35647581309E+02 -0.52963893867E+02  0.34170266249E+03  0.34761564070E+03  0.00000000000E+00 0. -1.
        -12    1    5    5    0    0 -0.26347777921E+02  0.97969164025E+01  0.13985361662E+03  0.14265068894E+03  0.00000000000E+00 0.  1.
          5    1    4    4  501    0 -0.60909278584E+02  0.43436680426E+02  0.95044762885E+02  0.12102753726E+03  0.41800000000E+01 0. -1.
         -5    1    4    4    0  501  0.29349698368E+02  0.28608441103E+02  0.26461063528E+03  0.26779863405E+03  0.41800000000E+01 0. -1.
</event>
<event>
11    1  0.8037748E-009  0.1369746E+03  0.7561462E-02  0.1110985E+00
         22   -1    0    0    0    0  0.00000000000E+00  0.00000000000E+00  0.12181202808E+04  0.12181202808E+04  0.00000000000E+00 0. -1.
         22   -1    0    0    0    0 -0.00000000000E+00 -0.00000000000E+00 -0.98676086955E+02  0.98676086955E+02  0.00000000000E+00 0.  1.
        -24    2    1    2    0    0 -0.16535812250E+01  0.54608391837E+02 -0.51934542262E+02  0.10903875924E+03  0.78787331132E+02 0.  0.
         25    2    1    2    0    0 -0.16186919899E+02 -0.69628474782E+02  0.30522028741E+03  0.33751168526E+03  0.12507826734E+03 0.  0.
         24    2    1    2    0    0  0.17840501124E+02  0.15020082944E+02  0.86615844866E+03  0.87024592322E+03  0.80954445990E+02 0.  0.
        -11    1    5    5    0    0 -0.31084694669E+02 -0.17193941662E+01  0.40579807879E+03  0.40699053466E+03  0.00000000000E+00 0.  1.
         12    1    5    5    0    0  0.48925195793E+02  0.16739477111E+02  0.46036036987E+03  0.46325538856E+03  0.00000000000E+00 0. -1.
         13    1    3    3    0    0 -0.71461199585E+01  0.63896252172E+02 -0.91837136649E+01  0.64947199084E+02  0.00000000000E+00 0. -1.
        -14    1    3    3    0    0  0.54925387336E+01 -0.92878603352E+01 -0.42750828597E+02  0.44091560157E+02  0.00000000000E+00 0.  1.
          5    1    4    4  501    0  0.35978759396E+01 -0.10261706745E+03  0.24787697176E+03  0.26833500102E+03  0.41800000000E+01 0.  1.
         -5    1    4    4    0  501 -0.19784795839E+02  0.32988592665E+02  0.57343315650E+02  0.69176684238E+02  0.41800000000E+01 0.  1.
</event>
<event>
11    1  0.8037748E-009  0.1647246E+03  0.7561462E-02  0.1082716E+00
         22   -1    0    0    0    0  0.00000000000E+00  0.00000000000E+00  0.24939943198E+04  0.24939943198E+04  0.00000000000E+00 0. -1.
         22   -1    0    0    0    0 -0.00000000000E+00 -0.00000000000E+00 -0.62316001559E+02  0.62316001559E+02  0.00000000000E+00 0.  1.
        -24    2    1    2    0    0  0.69760893061E+02  0.75778344515E+02  0.35022717585E+02  0.13524385805E+03  0.80345321546E+02 0.  0.
         25    2    1    2    0    0 -0.93009059334E+02 -0.12014531083E+03  0.89122706340E+03  0.91269829333E+03  0.12508763043E+03 0.  0.
         24    2    1    2    0    0  0.23248166273E+02  0.44366966320E+02  0.15054285373E+04  0.15083681700E+04  0.79690341216E+02 0.  0.
        -13    1    5    5    0    0  0.31881087327E+02  0.23729634262E+02  0.28747274396E+03  0.29020695682E+03  0.00000000000E+00 0.  1.
         14    1    5    5    0    0 -0.86329210540E+01  0.20637332057E+02  0.12179557933E+04  0.12181612132E+04  0.00000000000E+00 0. -1.
         13    1    3    3    0    0  0.26278371771E+02 -0.14740321821E+02  0.10080300091E+02  0.31771722651E+02  0.00000000000E+00 0. -1.
        -14    1    3    3    0    0  0.43482521290E+02  0.90518666335E+02  0.24942417494E+02  0.10347213540E+03  0.00000000000E+00 0.  1.
          5    1    4    4  501    0 -0.39834147814E+02 -0.90896826136E+02  0.77662898864E+03  0.78295533125E+03  0.41800000000E+01 0.  1.
         -5    1    4    4    0  501 -0.53174911520E+02 -0.29248484698E+02  0.11459807475E+03  0.12974296208E+03  0.41800000000E+01 0.  1.
</event>
<event>
11    1  0.8037748E-009  0.1295420E+03  0.7561462E-02  0.1119833E+00
         22   -1    0    0    0    0  0.00000000000E+00  0.00000000000E+00  0.17413974778E+03  0.17413974778E+03  0.00000000000E+00 0.  1.
         22   -1    0    0    0    0 -0.00000000000E+00 -0.00000000000E+00 -0.27528344360E+03  0.27528344360E+03  0.00000000000E+00 0.  1.
        -24    2    1    2    0    0  0.13747242031E+02 -0.17606398744E+02 -0.15274316744E+03  0.17417991703E+03  0.80679590693E+02 0.  0.
         25    2    1    2    0    0 -0.44484921341E+02  0.22791277628E+02 -0.47925263008E+02  0.14298077678E+03  0.12509324974E+03 0.  0.
         24    2    1    2    0    0  0.30737679310E+02 -0.51848788840E+01  0.99524734631E+02  0.13226249758E+03  0.81341917638E+02 0.  0.
        -11    1    5    5    0    0 -0.54196275946E+01 -0.29679938178E+01  0.95628992180E+02  0.95828416954E+02  0.00000000000E+00 0.  1.
         12    1    5    5    0    0  0.36157306905E+02 -0.22168850662E+01  0.38957424509E+01  0.36434080629E+02  0.00000000000E+00 0. -1.
         13    1    3    3    0    0  0.41450115835E+02 -0.19816719668E+02 -0.50699898613E+02  0.68419983927E+02  0.00000000000E+00 0. -1.
        -14    1    3    3    0    0 -0.27702873804E+02  0.22103209242E+01 -0.10204326883E+03  0.10575993310E+03  0.00000000000E+00 0.  1.
          5    1    4    4  501    0 -0.35701629691E+02 -0.43129518519E+02 -0.51586508095E+02  0.76245668386E+02  0.41800000000E+01 0. -1.
         -5    1    4    4    0  501 -0.87832916497E+01  0.65920796146E+02  0.36612450870E+01  0.66735108394E+02  0.41800000000E+01 0. -1.
</event>
<event>
11    1  0.8037748E-009  0.1493830E+03  0.7561462E-02  0.1097511E+00
         22   -1    0    0    0    0  0.00000000000E+00  0.00000000000E+00  0.22857981106E+04  0.22857981106E+04  0.00000000000E+00 0. -1.
         22   -1    0    0    0    0 -0.00000000000E+00 -0.00000000000E+00 -0.70567593576E+02  0.70567593576E+02  0.00000000000E+00 0. -1.
        -24    2    1    2    0    0  0.31089849859E+01 -0.97495905439E+01  0.12351274910E+02  0.81088759044E+02  0.79486555769E+02 0.  0.
         25    2    1    2    0    0  0.22712839052E+02 -0.68264698977E+02  0.11715920590E+03  0.18587566706E+03  0.12509013508E+03 0.  0.
         24    2    1    2    0    0 -0.25821824037E+02  0.78014289521E+02  0.20857200362E+04  0.20894012780E+04  0.92825833497E+02 0.  0.
        -11    1    5    5    0    0 -0.20703038634E+01  0.48378242441E+02  0.35755420830E+03  0.36081817080E+03  0.00000000000E+00 0.  1.
         12    1    5    5    0    0 -0.23751520174E+02  0.29636047080E+02  0.17281658279E+04  0.17285831073E+04  0.00000000000E+00 0. -1.
         11    1    3    3    0    0  0.86244964144E+01 -0.10575693440E+02 -0.32835894829E+02  0.35558729159E+02  0.00000000000E+00 0. -1.
        -12    1    3    3    0    0 -0.55155114285E+01  0.82610289595E+00  0.45187169739E+02  0.45530029885E+02  0.00000000000E+00 0.  1.
          5    1    4    4  501    0 -0.39466987773E+02  0.25252170739E+01  0.69813067350E+02  0.80345233946E+02  0.41800000000E+01 0.  1.
         -5    1    4    4    0  501  0.62179826824E+02 -0.70789916051E+02  0.47346138551E+02  0.10553043312E+03  0.41800000000E+01 0.  1.
</event>
<event>
11    1  0.8037748E-009  0.1715100E+03  0.7561462E-02  0.1076725E+00
         22   -1    0    0    0    0  0.00000000000E+00  0.00000000000E+00  0.93131020498E+03  0.93131020498E+03  0.00000000000E+00 0. -1.
         22   -1    0    0    0    0 -0.00000000000E+00 -0.00000000000E+00 -0.26684429875E+03  0.26684429875E+03  0.00000000000E+00 0. -1.
        -24    2    1    2    0    0  0.83704332549E+02  0.82765493542E+02 -0.20860738151E+03  0.25268132096E+03  0.80462836959E+02 0.  0.
         25    2    1    2    0    0 -0.98394369926E+02 -0.61687929640E+02  0.18344148405E+03  0.25057150484E+03  0.12509375793E+03 0.  0.
         24    2    1    2    0    0  0.14690037377E+02 -0.21077563902E+02  0.68963180369E+03  0.69490167792E+03  0.81463221240E+02 0.  0.
        -13    1    5    5    0    0 -0.11590376001E+02 -0.17222262916E+02  0.43246456498E+02  0.47970815664E+02  0.00000000000E+00 0.  1.
         14    1    5    5    0    0  0.26280413378E+02 -0.38553009854E+01  0.64638534720E+03  0.64693086226E+03  0.00000000000E+00 0. -1.
         11    1    3    3    0    0  0.58866757973E+02  0.36462810892E+02 -0.17998917313E+03  0.19284951184E+03  0.00000000000E+00 0. -1.
        -12    1    3    3    0    0  0.24837574576E+02  0.46302682650E+02 -0.28618208379E+02  0.59831809117E+02  0.00000000000E+00 0.  1.
          5    1    4    4  501    0 -0.69421623775E+02 -0.71119370027E+02  0.19403238650E+03  0.21804441303E+03  0.41800000000E+01 0.  1.
         -5    1    4    4    0  501 -0.28972746151E+02  0.94314403871E+01 -0.10590902454E+02  0.32527091817E+02  0.41800000000E+01 0.  1.
</event>
<event>
11    1  0.8037748E-009  0.1363510E+03  0.7561462E-02  0.1111703E+00
         22   -1    0    0    0    0  0.00000000000E+00  0.00000000000E+00  0.15569333829E+03  0.15569333829E+03  0.00000000000E+00 0. -1.
         22   -1    0    0    0    0 -0.00000000000E+00 -0.00000000000E+00 -0.11036827284E+04  0.11036827284E+04  0.00000000000E+00 0. -1.
         24    2    1    2    0    0  0.66156610052E+01 -0.35637771064E+01 -0.73670958055E+03  0.74116048979E+03  0.80755173658E+02 0.  0.
         25    2    1    2    0    0  0.45217701150E+02  0.20401326137E+02 -0.33428947722E+03  0.36035899008E+03  0.12509313549E+03 0.  0.
        -24    2    1    2    0    0 -0.51833362155E+02 -0.16837549031E+02  0.12300966767E+03  0.15785658681E+03  0.82565871694E+02 0.  0.
        -13    1    3    3    0    0  0.26928231511E+02  0.29736137705E+02 -0.29188096202E+03  0.29462495402E+03  0.00000000000E+00 0.  1.
         14    1    3    3    0    0 -0.20312570505E+02 -0.33299914811E+02 -0.44482861853E+03  0.44653553577E+03  0.00000000000E+00 0. -1.
         13    1    5    5    0    0 -0.58973099626E+02 -0.28115258656E+02  0.12791714464E+03  0.14363526775E+03  0.00000000000E+00 0. -1.
        -14    1    5    5    0    0  0.71397374709E+01  0.11277709625E+02 -0.49074769692E+01  0.14221319058E+02  0.00000000000E+00 0.  1.
          5    1    4    4  501    0 -0.61736205190E+01 -0.29205736383E+02 -0.15998216001E+02  0.34124828838E+02  0.41800000000E+01 0. -1.
         -5    1    4    4    0  501  0.51391321669E+02  0.49607062520E+02 -0.31829126122E+03  0.32623416125E+03  0.41800000000E+01 0. -1.
</event>
<event>
11    1  0.8037748E-009  0.1963187E+03  0.7561462E-02  0.1057158E+00
         22   -1    0    0    0    0  0.00000000000E+00  0.00000000000E+00  0.10914073187E+04  0.10914073187E+04  0.00000000000E+00 0. -1.
         22   -1    0    0    0    0 -0.00000000000E+00 -0.00000000000E+00 -0.17568078103E+04  0.17568078103E+04  0.00000000000E+00 0. -1.
         24    2    1    2    0    0 -0.87993019354E+01 -0.12567262803E+03 -0.16498116799E+04  0.16579272615E+04  0.10475298648E+03 0.  0.
         25    2    1    2    0    0  0.15943831949E+03  0.11741983405E+03  0.48904877066E+02  0.23926316129E+03  0.12508868134E+03 0.  0.
        -24    2    1    2    0    0 -0.15063901755E+03  0.82527939745E+01  0.93550631119E+03  0.95102470623E+03  0.80719956364E+02 0.  0.
        -13    1    3    3    0    0 -0.50964791233E+02 -0.74437235409E+02 -0.69802774897E+03  0.70383311253E+03  0.00000000000E+00 0.  1.
         14    1    3    3    0    0  0.42165489297E+02 -0.51235392620E+02 -0.95178393091E+03  0.95409414896E+03  0.00000000000E+00 0. -1.
         11    1    5    5    0    0 -0.13774622744E+03  0.21445529204E+02  0.90258842343E+03  0.91329064159E+03  0.00000000000E+00 0. -1.
        -12    1    5    5    0    0 -0.12892790109E+02 -0.13192735229E+02  0.32917887763E+02  0.37734064642E+02  0.00000000000E+00 0.  1.
          5    1    4    4  501    0  0.17527501488E+02  0.93765197727E+01 -0.36266244359E+02  0.41567358725E+02  0.41800000000E+01 0. -1.
         -5    1    4    4    0  501  0.14191081800E+03  0.10804331428E+03  0.85171121425E+02  0.19769580256E+03  0.41800000000E+01 0. -1.
</event>
<event>
11    1  0.8037748E-009  0.1458333E+03  0.7561462E-02  0.1101214E+00
         22   -1    0    0    0    0  0.00000000000E+00  0.00000000000E+00  0.98570963111E+03  0.98570963111E+03  0.00000000000E+00 0.  1.
         22   -1    0    0    0    0 -0.00000000000E+00 -0.00000000000E+00 -0.58090014840E+03  0.58090014840E+03  0.00000000000E+00 0. -1.
         24    2    1    2    0    0 -0.60374450070E+02 -0.83637858755E+02 -0.41563940172E+03  0.43566127043E+03  0.80026649620E+02 0.  0.
         25    2    1    2    0    0 -0.51892919321E+01  0.59532429639E+01 -0.12529446611E+03  0.17722053410E+03  0.12508415015E+03 0.  0.
        -24    2    1    2    0    0  0.65563742002E+02  0.77684615792E+02  0.94574335054E+03  0.95372797498E+03  0.69520222763E+02 0.  0.
        -11    1    3    3    0    0 -0.55411447902E+01 -0.28088730422E+01  0.21750020762E+01  0.65821491464E+01  0.00000000000E+00 0.  1.
         12    1    3    3    0    0 -0.54833305280E+02 -0.80828985713E+02 -0.41781440380E+03  0.42907912128E+03  0.00000000000E+00 0. -1.
         11    1    5    5    0    0  0.34744217529E+02 -0.37855328371E+01  0.21683818086E+03  0.21963671731E+03  0.00000000000E+00 0. -1.
        -12    1    5    5    0    0  0.30819524473E+02  0.81470148629E+02  0.72890516968E+03  0.73409125767E+03  0.00000000000E+00 0.  1.
          5    1    4    4  501    0 -0.32076357199E+02  0.44653940753E+02 -0.11679179702E+03  0.12915364249E+03  0.41800000000E+01 0.  1.
         -5    1    4    4    0  501  0.26887065267E+02 -0.38700697789E+02 -0.85026690849E+01  0.48066891616E+02  0.41800000000E+01 0.  1.
</event>
<event>
11    1  0.8037748E-009  0.1854486E+03  0.7561462E-02  0.1065319E+00
         22   -1    0    0    0    0  0.00000000000E+00  0.00000000000E+00  0.42648599672E+03  0.42648599672E+03  0.00000000000E+00 0.  1.
         22   -1    0    0    0    0 -0.00000000000E+00 -0.00000000000E+00 -0.38222856323E+03  0.38222856323E+03  0.00000000000E+00 0.  1.
         24    2    1    2    0    0 -0.33293947545E+02 -0.54525304067E+02 -0.25031214711E+03  0.27046636533E+03  0.80089874880E+02 0.  0.
         25    2    1    2    0    0  0.10149615382E+03  0.16140558018E+03  0.24249937326E+02  0.22932309033E+03  0.12509112576E+03 0.  0.
        -24    2    1    2    0    0 -0.68202206271E+02 -0.10688027611E+03  0.27031964328E+03  0.30892510429E+03  0.79291084980E+02 0.  0.
        -11    1    3    3    0    0  0.18842796232E+02 -0.32430420365E+02 -0.15613298496E+03  0.16057488013E+03  0.00000000000E+00 0.  1.
         12    1    3    3    0    0 -0.52136743777E+02 -0.22094883702E+02 -0.94179162150E+02  0.10989148521E+03  0.00000000000E+00 0. -1.
         11    1    5    5    0    0 -0.79203418323E+02 -0.56404490521E+02  0.16254039676E+03  0.18940440492E+03  0.00000000000E+00 0. -1.
        -12    1    5    5    0    0  0.11001212052E+02 -0.50475785591E+02  0.10777924652E+03  0.11952069937E+03  0.00000000000E+00 0.  1.
          5    1    4    4  501    0  0.62350800566E+02  0.10778755083E+01  0.13089309820E+02  0.63855983105E+02  0.41800000000E+01 0.  1.
         -5    1    4    4    0  501  0.39145353250E+02  0.16032770467E+03  0.11160627505E+02  0.16546710722E+03  0.41800000000E+01 0.  1.
</event>
<event>
11    1  0.8037748E-009  0.1569862E+03  0.7561462E-02  0.1089947E+00
         22   -1    0    0    0    0  0.00000000000E+00  0.00000000000E+00  0.13934984951E+04  0.13934984951E+04  0.00000000000E+00 0.  1.
         22   -1    0    0    0    0 -0.00000000000E+00 -0.00000000000E+00 -0.12677091747E+04  0.12677091747E+04  0.00000000000E+00 0. -1.
         24    2    1    2    0    0  0.56412394705E+02  0.77194068172E+02 -0.12207129431E+04  0.12284632850E+04  0.99200154355E+02 0.  0.
         25    2    1    2    0    0 -0.46818848866E+02 -0.52904643606E+02  0.84242915221E+02  0.16653955333E+03  0.12509055974E+03 0.  0.
        -24    2    1    2    0    0 -0.95935458393E+01 -0.24289424566E+02  0.12622593484E+04  0.12662048315E+04  0.96405395645E+02 0.  0.
        -11    1    3    3    0    0  0.35063412739E+02  0.80367368067E+01 -0.84943798182E+03  0.85019933958E+03  0.00000000000E+00 0.  1.
         12    1    3    3    0    0  0.21348981966E+02  0.69157331365E+02 -0.37127496132E+03  0.37826394543E+03  0.00000000000E+00 0. -1.
         13    1    5    5    0    0  0.19169590453E+02  0.21365275542E+02  0.15526041858E+03  0.15789156334E+03  0.00000000000E+00 0. -1.
        -14    1    5    5    0    0 -0.28763136293E+02 -0.45654700108E+02  0.11069989298E+04  0.11083132681E+04  0.00000000000E+00 0.  1.
          5    1    4    4  501    0 -0.36357860763E+02 -0.74702010448E+02  0.47216234409E+01  0.83318968622E+02  0.41800000000E+01 0.  1.
         -5    1    4    4    0  501 -0.10460988102E+02  0.21797366842E+02  0.79521291780E+02  0.83220584711E+02  0.41800000000E+01 0.  1.
</event>
<event>
11    1  0.8037748E-009  0.1628182E+03  0.7561462E-02  0.1084456E+00
         22   -1    0    0    0    0  0.00000000000E+00  0.00000000000E+00  0.40583205205E+03  0.40583205205E+03  0.00000000000E+00 0.  1.
         22   -1    0    0    0    0 -0.00000000000E+00 -0.00000000000E+00 -0.37602806237E+03  0.37602806237E+03  0.00000000000E+00 0. -1.
        -24    2    1    2    0    0  0.10152935391E+02  0.24612620799E+01 -0.29852576559E+03  0.30898624792E+03  0.79029923285E+02 0.  0.
         25    2    1    2    0    0 -0.11199142319E+03 -0.89658905057E+01  0.66842664323E+02  0.18094098512E+03  0.12509689150E+03 0.  0.
         24    2    1    2    0    0  0.10183848780E+03  0.65046284258E+01  0.26148709095E+03  0.29193288139E+03  0.80224190333E+02 0.  0.
        -13    1    5    5    0    0  0.96265325512E+02 -0.13544721896E+02  0.24983751031E+03  0.26808441571E+03  0.00000000000E+00 0.  1.
         14    1    5    5    0    0  0.55731622881E+01  0.20049350322E+02  0.11649580635E+02  0.23848465678E+02  0.00000000000E+00 0. -1.
         11    1    3    3    0    0  0.22720263446E+02  0.36647655761E+02 -0.15157456372E+03  0.15758841776E+03  0.00000000000E+00 0. -1.
        -12    1    3    3    0    0 -0.12567328055E+02 -0.34186393681E+02 -0.14695120187E+03  0.15139783016E+03  0.00000000000E+00 0.  1.
          5    1    4    4  501    0 -0.26087330029E+01  0.98592002852E+01  0.68975961756E+02  0.69851020166E+02  0.41800000000E+01 0.  1.
         -5    1    4    4    0  501 -0.10938269019E+03 -0.18825090791E+02 -0.21332974322E+01  0.11108996496E+03  0.41800000000E+01 0.  1.
</event>
<event>
11    1  0.8037748E-009  0.8172914E+03  0.7561462E-02  0.8875328E-01
         22   -1    0    0    0    0  0.00000000000E+00  0.00000000000E+00  0.80410554832E+03  0.80410554832E+03  0.00000000000E+00 0.  1.
         22   -1    0    0    0    0 -0.00000000000E+00 -0.00000000000E+00 -0.20767335913E+03  0.20767335913E+03  0.00000000000E+00 0.  1.
        -24    2    1    2    0    0  0.55653945129E+02  0.22433732481E+03  0.83015552148E+02  0.25958905055E+03  0.84085054284E+02 0.  0.
         25    2    1    2    0    0 -0.13159354355E+03 -0.33412055478E+03  0.43652965434E+03  0.57892789169E+03  0.12508380724E+03 0.  0.
         24    2    1    2    0    0  0.75939598418E+02  0.10978322996E+03  0.76886982698E+02  0.17326196520E+03  0.79302712999E+02 0.  0.
        -13    1    5    5    0    0  0.55284450559E+02  0.11714514367E+03  0.50692915798E+02  0.13910113900E+03  0.00000000000E+00 0.  1.
         14    1    5    5    0    0  0.20655147859E+02 -0.73619137021E+01  0.26194066900E+02  0.34160826208E+02  0.00000000000E+00 0. -1.
         13    1    3    3    0    0  0.68048264641E+02  0.17227202677E+03  0.89433112805E+02  0.20568543749E+03  0.00000000000E+00 0. -1.
        -14    1    3    3    0    0 -0.12394319511E+02  0.52065298042E+02 -0.64175606567E+01  0.53903613062E+02  0.00000000000E+00 0.  1.
          5    1    4    4  501    0 -0.92887548659E+02 -0.10013734366E+03  0.21257648056E+03  0.25270895666E+03  0.41800000000E+01 0. -1.
         -5    1    4    4    0  501 -0.38705994889E+02 -0.23398321112E+03  0.22395317378E+03  0.32621893503E+03  0.41800000000E+01 0. -1.
</event>
<event>
11    1  0.8037748E-009  0.1427158E+03  0.7561462E-02  0.1104563E+00
         22   -1    0    0    0    0  0.00000000000E+00  0.00000000000E+00  0.22924253012E+04  0.22924253012E+04  0.00000000000E+00 0.  1.
         22   -1    0    0    0    0 -0.00000000000E+00 -0.00000000000E+00 -0.15588910429E+03  0.15588910429E+03  0.00000000000E+00 0. -1.
         24    2    1    2    0    0  0.66277836661E+01 -0.26686105749E+02 -0.13110763065E+03  0.15676470443E+03  0.81424111798E+02 0.  0.
         25    2    1    2    0    0  0.32757899548E+02  0.80055706601E+02  0.54712644664E+03  0.56787029694E+03  0.12508928567E+03 0.  0.
        -24    2    1    2    0    0 -0.39385683214E+02 -0.53369600853E+02  0.17205173810E+04  0.17236794042E+04  0.80567262480E+02 0.  0.
        -13    1    3    3    0    0 -0.29414764515E+02 -0.25233691312E+02 -0.28801384841E+02  0.48285477294E+02  0.00000000000E+00 0.  1.
         14    1    3    3    0    0  0.36042548181E+02 -0.14524144363E+01 -0.10230624581E+03  0.10847922713E+03  0.00000000000E+00 0. -1.
         13    1    5    5    0    0 -0.44222989434E+01 -0.46749544059E+02  0.41022212441E+03  0.41290103894E+03  0.00000000000E+00 0. -1.
        -14    1    5    5    0    0 -0.34963384271E+02 -0.66200567935E+01  0.13102952565E+04  0.13107783652E+04  0.00000000000E+00 0.  1.
          5    1    4    4  501    0  0.37874777758E+02  0.66441027972E+02  0.13307675799E+03  0.15354414644E+03  0.41800000000E+01 0.  1.
         -5    1    4    4    0  501 -0.51168782099E+01  0.13614678629E+02  0.41404968865E+03  0.41432615050E+03  0.41800000000E+01 0.  1.
</event>
<event>
11    1  0.8037748E-009  0.2597121E+03  0.7561462E-02  0.1018849E+00
         22   -1    0    0    0    0  0.00000000000E+00  0.00000000000E+00  0.23628128576E+04  0.23628128576E+04  0.00000000000E+00 0. -1.
         22   -1    0    0    0    0 -0.00000000000E+00 -0.00000000000E+00 -0.20732012806E+03  0.20732012806E+03  0.00000000000E+00 0. -1.
         24    2    1    2    0    0  0.17413002176E+03 -0.14174316871E+03 -0.10041581261E+03  0.25867645210E+03  0.80111054755E+02 0.  0.
         25    2    1    2    0    0 -0.26739259511E+03  0.89653703385E+02  0.95364701560E+03  0.10023110107E+04  0.12509254682E+03 0.  0.
        -24    2    1    2    0    0  0.93262573347E+02  0.52089465325E+02  0.13022615266E+04  0.13091455230E+04  0.81028986448E+02 0.  0.
        -13    1    3    3    0    0  0.88241760249E+02 -0.11986307767E+03 -0.73811702329E+02  0.16613829492E+03  0.00000000000E+00 0.  1.
         14    1    3    3    0    0  0.85888261512E+02 -0.21880091045E+02 -0.26604110281E+02  0.92538157176E+02  0.00000000000E+00 0. -1.
         13    1    5    5    0    0  0.60450570529E+02  0.71839049929E+02  0.10170075430E+04  0.10213322001E+04  0.00000000000E+00 0. -1.
        -14    1    5    5    0    0  0.32812002818E+02 -0.19749584604E+02  0.28525398363E+03  0.28781332283E+03  0.00000000000E+00 0.  1.
          5    1    4    4  501    0 -0.25510220326E+03  0.58954298419E+02  0.91265257037E+03  0.94947613451E+03  0.41800000000E+01 0. -1.
         -5    1    4    4    0  501 -0.12290391850E+02  0.30699404967E+02  0.40994445229E+02  0.52834876140E+02  0.41800000000E+01 0. -1.
</event>
<event>
11    1  0.8037748E-009  0.1384004E+03  0.7561462E-02  0.1109358E+00
         22   -1    0    0    0    0  0.00000000000E+00  0.00000000000E+00  0.16589110740E+03  0.16589110740E+03  0.00000000000E+00 0. -1.
         22   -1    0    0    0    0 -0.00000000000E+00 -0.00000000000E+00 -0.81721686187E+03  0.81721686187E+03  0.00000000000E+00 0. -1.
        -24    2    1    2    0    0  0.86353685390E+01  0.18447344627E+01 -0.62221996325E+03  0.62739697866E+03  0.79945691119E+02 0.  0.
         25    2    1    2    0    0 -0.63802652088E+02  0.17413284967E+02 -0.14339553073E+03  0.20145531342E+03  0.12509182294E+03 0.  0.
         24    2    1    2    0    0  0.55167283549E+02 -0.19258019429E+02  0.11428973951E+03  0.15425567720E+03  0.85547465791E+02 0.  0.
        -13    1    5    5    0    0  0.52563304031E+02  0.25050254362E+02  0.75231421961E+02  0.95132449903E+02  0.00000000000E+00 0.  1.
         14    1    5    5    0    0  0.26039795177E+01 -0.44308273792E+02  0.39058317552E+02  0.59123227294E+02  0.00000000000E+00 0. -1.
         13    1    3    3    0    0  0.20653435662E+02 -0.66940283914E+01 -0.60190445749E+03  0.60229589935E+03  0.00000000000E+00 0. -1.
        -14    1    3    3    0    0 -0.12018067123E+02  0.85387628540E+01 -0.20315505757E+02  0.25101079311E+02  0.00000000000E+00 0.  1.
          5    1    4    4  501    0  0.15683193548E+02  0.48524792933E+02 -0.29497474947E+02  0.59060913617E+02  0.41800000000E+01 0. -1.
         -5    1    4    4    0  501 -0.79485845636E+02 -0.31111507966E+02 -0.11389805579E+03  0.14239439981E+03  0.41800000000E+01 0. -1.
</event>
<event>
11    1  0.8037748E-009  0.3248998E+03  0.7561462E-02  0.9901711E-01
         22   -1    0    0    0    0  0.00000000000E+00  0.00000000000E+00  0.25922740548E+03  0.25922740548E+03  0.00000000000E+00 0. -1.
         22   -1    0    0    0    0 -0.00000000000E+00 -0.00000000000E+00 -0.30971060745E+04  0.30971060745E+04  0.00000000000E+00 0. -1.
         24    2    1    2    0    0 -0.65732635982E+02  0.28359643269E+03 -0.25434599926E+04  0.25613449092E+04  0.80940065956E+02 0.  0.
         25    2    1    2    0    0  0.88279818549E+02 -0.36027982548E+03 -0.45414980860E+03  0.59957878357E+03  0.12509112698E+03 0.  0.
        -24    2    1    2    0    0 -0.22547182568E+02  0.76683392786E+02  0.15973113210E+03  0.19540978721E+03  0.79260533719E+02 0.  0.
        -11    1    3    3    0    0  0.15120466417E+02  0.10444633120E+03 -0.91539698175E+03  0.92146041630E+03  0.00000000000E+00 0.  1.
         12    1    3    3    0    0 -0.80853102399E+02  0.17915010149E+03 -0.16280630108E+04  0.16398844929E+04  0.00000000000E+00 0. -1.
         11    1    5    5    0    0 -0.51171737740E+02  0.61267051456E+02  0.11899828685E+03  0.14329267465E+03  0.00000000000E+00 0. -1.
        -12    1    5    5    0    0  0.28624555172E+02  0.15416341331E+02  0.40732845253E+02  0.52117112557E+02  0.00000000000E+00 0.  1.
          5    1    4    4  501    0  0.10705047935E+03 -0.19471369635E+03 -0.22532557070E+03  0.31648430275E+03  0.41800000000E+01 0. -1.
         -5    1    4    4    0  501 -0.18770660805E+02 -0.16556612913E+03 -0.22882423790E+03  0.28309448082E+03  0.41800000000E+01 0. -1.
</event>
<event>
11    1  0.8037748E-009  0.1289836E+03  0.7561462E-02  0.1120524E+00
         22   -1    0    0    0    0  0.00000000000E+00  0.00000000000E+00  0.62287005300E+03  0.62287005300E+03  0.00000000000E+00 0. -1.
         22   -1    0    0    0    0 -0.00000000000E+00 -0.00000000000E+00 -0.10981994750E+04  0.10981994750E+04  0.00000000000E+00 0. -1.
         24    2    1    2    0    0  0.30878513178E+02 -0.85730004140E+01 -0.97325046007E+03  0.97538518882E+03  0.55971685934E+02 0.  0.
         25    2    1    2    0    0  0.17553313617E+00 -0.54891056061E+00 -0.87809185387E+02  0.15283564402E+03  0.12509176204E+03 0.  0.
        -24    2    1    2    0    0 -0.31054046314E+02  0.91219109746E+01  0.58573022350E+03  0.59284869512E+03  0.85686157124E+02 0.  0.
        -13    1    3    3    0    0  0.20417552636E+02 -0.28975659292E+02 -0.77555127027E+03  0.77636089424E+03  0.00000000000E+00 0.  1.
         14    1    3    3    0    0  0.10460960541E+02  0.20402658878E+02 -0.19769918980E+03  0.19902429458E+03  0.00000000000E+00 0. -1.
         11    1    5    5    0    0  0.15667743113E+02 -0.54998122205E+01  0.41248731516E+03  0.41282140361E+03  0.00000000000E+00 0. -1.
        -12    1    5    5    0    0 -0.46721789427E+02  0.14621723195E+02  0.17324290835E+03  0.18002729151E+03  0.00000000000E+00 0.  1.
          5    1    4    4  501    0  0.45730682676E+02 -0.32232448490E+02 -0.97083315790E+01  0.56938125854E+02  0.41800000000E+01 0.  1.
         -5    1    4    4    0  501 -0.45555149540E+02  0.31683537930E+02 -0.78100853808E+02  0.95897518168E+02  0.41800000000E+01 0.  1.
</event>
<event>
11    1  0.8037748E-009  0.1543034E+03  0.7561462E-02  0.1092561E+00
         22   -1    0    0    0    0  0.00000000000E+00  0.00000000000E+00  0.31332335475E+03  0.31332335475E+03  0.00000000000E+00 0.  1.
         22   -1    0    0    0    0 -0.00000000000E+00 -0.00000000000E+00 -0.14751410050E+04  0.14751410050E+04  0.00000000000E+00 0. -1.
        -24    2    1    2    0    0 -0.78760350274E+02  0.43741472669E+02 -0.13902264493E+04  0.13955695373E+04  0.82269336582E+02 0.  0.
         25    2    1    2    0    0  0.54649519422E+02 -0.10779864120E+03  0.42571820113E+02  0.17907373009E+03  0.12509166209E+03 0.  0.
         24    2    1    2    0    0  0.24110830852E+02  0.64057168529E+02  0.18583697894E+03  0.21382109242E+03  0.80619004080E+02 0.  0.
        -11    1    5    5    0    0  0.25101183773E+02  0.56745182908E+02  0.19348678467E+03  0.20319257135E+03  0.00000000000E+00 0.  1.
         12    1    5    5    0    0 -0.99035292082E+00  0.73119856212E+01 -0.76498057256E+01  0.10628521076E+02  0.00000000000E+00 0. -1.
         13    1    3    3    0    0 -0.36751231263E+02  0.33041569112E+02 -0.11740314773E+04  0.11750711927E+04  0.00000000000E+00 0. -1.
        -14    1    3    3    0    0 -0.42009119011E+02  0.10699903557E+02 -0.21619497206E+03  0.22049834457E+03  0.00000000000E+00 0.  1.
          5    1    4    4  501    0  0.38799001653E+02  0.11492214188E+02 -0.17765296241E+02  0.44390445670E+02  0.41800000000E+01 0.  1.
         -5    1    4    4    0  501  0.15850517769E+02 -0.11929085539E+03  0.60337116355E+02  0.13468328442E+03  0.41800000000E+01 0.  1.
</event>
<event>
11    1  0.8037748E-009  0.1531844E+03  0.7561462E-02  0.1093669E+00
         22   -1    0    0    0    0  0.00000000000E+00  0.00000000000E+00  0.42959689522E+03  0.42959689522E+03  0.00000000000E+00 0.  1.
         22   -1    0    0    0    0 -0.00000000000E+00 -0.00000000000E+00 -0.19650649763E+04  0.19650649763E+04  0.00000000000E+00 0. -1.
        -24    2    1    2    0    0 -0.81591204644E+02  0.17665548686E+02 -0.15460168938E+04  0.15499585479E+04  0.72346858426E+02 0.  0.
         25    2    1    2    0    0  0.14981271287E+03  0.15756366266E+01 -0.38699230435E+03  0.43342471105E+03  0.12509038713E+03 0.  0.
         24    2    1    2    0    0 -0.68221508225E+02 -0.19241185313E+02  0.39754111704E+03  0.41127861262E+03  0.78017690693E+02 0.  0.
        -13    1    5    5    0    0 -0.16677494555E+02 -0.44411877275E+01  0.29550463253E+03  0.29600819384E+03  0.00000000000E+00 0.  1.
         14    1    5    5    0    0 -0.51544013671E+02 -0.14799997585E+02  0.10203648451E+03  0.11527041878E+03  0.00000000000E+00 0. -1.
         13    1    3    3    0    0 -0.68876563842E+02  0.88181433327E+00 -0.14511107473E+04  0.14527446987E+04  0.00000000000E+00 0. -1.
        -14    1    3    3    0    0 -0.12714640802E+02  0.16783734353E+02 -0.94906146520E+02  0.97213849202E+02  0.00000000000E+00 0.  1.
          5    1    4    4  501    0  0.16481826278E+03  0.36953771608E+01 -0.38330795771E+03  0.41727829850E+03  0.41800000000E+01 0. -1.
         -5    1    4    4    0  501 -0.15005549909E+02 -0.21197405342E+01 -0.36843466450E+01  0.16146412549E+02  0.41800000000E+01 0. -1.
</event>
<event>
11    1  0.8037748E-009  0.1305320E+03  0.7561462E-02  0.1118617E+00
         22   -1    0    0    0    0  0.00000000000E+00  0.00000000000E+00  0.68107104728E+03  0.68107104728E+03  0.00000000000E+00 0.  1.
         22   -1    0    0    0    0 -0.00000000000E+00 -0.00000000000E+00 -0.15278226151E+03  0.15278226151E+03  0.00000000000E+00 0. -1.
         24    2    1    2    0    0 -0.86860458253E+01 -0.37041687695E+02 -0.69273408958E+02  0.11166382641E+03  0.78882640172E+02 0.  0.
         25    2    1    2    0    0  0.17799905369E+02  0.31238707542E+02  0.11404418631E+02  0.13065252281E+03  0.12508927800E+03 0.  0.
        -24    2    1    2    0    0 -0.91138595433E+01  0.58029801528E+01  0.58615777609E+03  0.59153695957E+03  0.78856192279E+02 0.  0.
        -13    1    3    3    0    0  0.23658355605E+02  0.12210948390E+02 -0.33270878816E+02  0.42611928233E+02  0.00000000000E+00 0.  1.
         14    1    3    3    0    0 -0.32344401431E+02 -0.49252636085E+02 -0.36002530142E+02  0.69051898177E+02  0.00000000000E+00 0. -1.
         11    1    5    5    0    0 -0.23826719422E+02  0.32573051751E+02  0.19190878090E+03  0.19610633964E+03  0.00000000000E+00 0. -1.
        -12    1    5    5    0    0  0.14712859879E+02 -0.26770071598E+02  0.39424899519E+03  0.39543061994E+03  0.00000000000E+00 0.  1.
          5    1    4    4  501    0  0.22456607088E+02  0.67745782587E+02 -0.27809458300E+02  0.76711333134E+02  0.41800000000E+01 0.  1.
         -5    1    4    4    0  501 -0.46567017198E+01 -0.36507075045E+02  0.39213876931E+02  0.53941189672E+02  0.41800000000E+01 0.  1.
</event>
<event>
11    1  0.8037748E-009  0.1370462E+03  0.7561462E-02  0.1110902E+00
         22   -1    0    0    0    0  0.00000000000E+00  0.00000000000E+00  0.97816520095E+02  0.97816520095E+02  0.00000000000E+00 0.  1.
         22   -1    0    0    0    0 -0.00000000000E+00 -0.00000000000E+00 -0.90949398338E+03  0.90949398338E+03  0.00000000000E+00 0.  1.
         24    2    1    2    0    0  0.26022602730E+02 -0.42743325414E+02 -0.62667905321E+03  0.63384774037E+03  0.80821745379E+02 0.  0.
         25    2    1    2    0    0 -0.55519097806E+02  0.81587027579E+02 -0.22118283050E+03  0.27259553357E+03  0.12509063563E+03 0.  0.
        -24    2    1    2    0    0  0.29496495076E+02 -0.38843702165E+02  0.36184420423E+02  0.10086722953E+03  0.80535764062E+02 0.  0.
        -13    1    3    3    0    0  0.43463896758E+02 -0.57304943846E+02 -0.44949342455E+03  0.45521127581E+03  0.00000000000E+00 0.  1.
         14    1    3    3    0    0 -0.17441294028E+02  0.14561618433E+02 -0.17718562866E+03  0.17863646456E+03  0.00000000000E+00 0. -1.
         13    1    5    5    0    0 -0.36419377706E+01  0.15922142751E+02 -0.12399290048E+02  0.20506602210E+02  0.00000000000E+00 0. -1.
        -14    1    5    5    0    0  0.33138432847E+02 -0.54765844916E+02  0.48583710471E+02  0.80360627325E+02  0.00000000000E+00 0.  1.
          5    1    4    4  501    0  0.38070628921E+02  0.11828685642E+02 -0.37312772189E+02  0.54763180686E+02  0.41800000000E+01 0. -1.
         -5    1    4    4    0  501 -0.93589726727E+02  0.69758341937E+02 -0.18387005831E+03  0.21783235288E+03  0.41800000000E+01 0. -1.
</event>
<event>
11    1  0.8037748E-009  0.2817767E+03  0.7561462E-02  0.1008213E+00
         22   -1    0    0    0    0  0.00000000000E+00  0.00000000000E+00  0.12030016200E+04  0.12030016200E+04  0.00000000000E+00 0.  1.
         22   -1    0    0    0    0 -0.00000000000E+00 -0.00000000000E+00 -0.88331787444E+03  0.88331787444E+03  0.00000000000E+00 0. -1.
         24    2    1    2    0    0 -0.99303584329E+02  0.21666557187E+03 -0.15429260104E+03  0.29499776497E+03  0.80076855003E+02 0.  0.
         25    2    1    2    0    0  0.42985383004E+01 -0.44623324501E+03 -0.55883284002E+03  0.72600540080E+03  0.12508841882E+03 0.  0.
        -24    2    1    2    0    0  0.95005046029E+02  0.22956767314E+03  0.10328091866E+04  0.10653163286E+04  0.80478499229E+02 0.  0.
        -11    1    3    3    0    0 -0.10786411987E+03  0.15463579394E+03 -0.12170238099E+03  0.22440669923E+03  0.00000000000E+00 0.  1.
         12    1    3    3    0    0  0.85605355402E+01  0.62029777930E+02 -0.32590220052E+02  0.70591065736E+02  0.00000000000E+00 0. -1.
         11    1    5    5    0    0  0.51530653467E+02  0.40160612633E+02  0.31226403987E+03  0.31902525550E+03  0.00000000000E+00 0. -1.
        -12    1    5    5    0    0  0.43474392561E+02  0.18940706050E+03  0.72054514672E+03  0.74629107313E+03  0.00000000000E+00 0.  1.
          5    1    4    4  501    0  0.24663732226E+02 -0.10987021939E+02 -0.26352077594E+02  0.37959435348E+02  0.41800000000E+01 0. -1.
         -5    1    4    4    0  501 -0.20365193926E+02 -0.43524622307E+03 -0.53248076243E+03  0.68804596545E+03  0.41800000000E+01 0. -1.
</event>
<event>
11    1  0.8037748E-009  0.1311732E+03  0.7561462E-02  0.1117836E+00
         22   -1    0    0    0    0  0.00000000000E+00  0.00000000000E+00  0.47262090377E+03  0.47262090377E+03  0.00000000000E+00 0. -1.
         22   -1    0    0    0    0 -0.00000000000E+00 -0.00000000000E+00 -0.17302087814E+03  0.17302087814E+03  0.00000000000E+00 0. -1.
        -24    2    1    2    0    0 -0.57514243941E+02  0.11884334748E+01 -0.61792095327E+02  0.11542092896E+03  0.78704683253E+02 0.  0.
         25    2    1    2    0    0  0.46381928222E+01 -0.12543301424E+02 -0.28425439033E+02  0.12898167508E+03  0.12509764058E+03 0.  0.
         24    2    1    2    0    0  0.52876051118E+02  0.11354867949E+02  0.38981755999E+03  0.40123917787E+03  0.78168650863E+02 0.  0.
        -11    1    5    5    0    0 -0.12831430991E+02  0.19268015003E+02  0.50855377629E+02  0.55876394455E+02  0.00000000000E+00 0.  1.
         12    1    5    5    0    0  0.65707482110E+02 -0.79131470539E+01  0.33896218236E+03  0.34536278342E+03  0.00000000000E+00 0. -1.
         13    1    3    3    0    0 -0.61037845799E+02 -0.28600668623E+02 -0.44952840240E+02  0.81020828873E+02  0.00000000000E+00 0. -1.
        -14    1    3    3    0    0  0.35236018589E+01  0.29789102098E+02 -0.16839255087E+02  0.34400100083E+02  0.00000000000E+00 0.  1.
          5    1    4    4  501    0 -0.50816249626E+02 -0.16618189186E+01 -0.46983382496E+02  0.69353900387E+02  0.41800000000E+01 0.  1.
         -5    1    4    4    0  501  0.55454442448E+02 -0.10881482505E+02  0.18557943463E+02  0.59627774689E+02  0.41800000000E+01 0.  1.
</event>
<event>
11    1  0.8037748E-009  0.3122766E+03  0.7561462E-02  0.9951253E-01
         22   -1    0    0    0    0  0.00000000000E+00  0.00000000000E+00  0.17680609639E+03  0.17680609639E+03  0.00000000000E+00 0. -1.
         22   -1    0    0    0    0 -0.00000000000E+00 -0.00000000000E+00 -0.18208418651E+04  0.18208418651E+04  0.00000000000E+00 0. -1.
        -24    2    1    2    0    0  0.38848441421E+02 -0.10625196792E+03 -0.75692952065E+03  0.76953400894E+03  0.80259638654E+02 0.  0.
         25    2    1    2    0    0 -0.15414526207E+03  0.34962460277E+03 -0.85476213485E+03  0.94459703325E+03  0.12508846221E+03 0.  0.
         24    2    1    2    0    0  0.11529682065E+03 -0.24337263485E+03 -0.32344113237E+02  0.28351691932E+03  0.82535481055E+02 0.  0.
        -13    1    5    5    0    0  0.26163904867E+02 -0.60214742714E+01 -0.11236115181E+02  0.29104266949E+02  0.00000000000E+00 0.  1.
         14    1    5    5    0    0  0.89132915785E+02 -0.23735116058E+03 -0.21107998056E+02  0.25441265237E+03  0.00000000000E+00 0. -1.
         13    1    3    3    0    0  0.44508459318E+02 -0.11067986818E+03 -0.75040397479E+03  0.75982706029E+03  0.00000000000E+00 0. -1.
        -14    1    3    3    0    0 -0.56600178977E+01  0.44279002566E+01 -0.65255458569E+01  0.97069486459E+01  0.00000000000E+00 0.  1.
          5    1    4    4  501    0  0.36035158267E+01  0.11224695947E+03 -0.31045775244E+03  0.33017246052E+03  0.41800000000E+01 0.  1.
         -5    1    4    4    0  501 -0.15774877790E+03  0.23737764330E+03 -0.54430438240E+03  0.61442457273E+03  0.41800000000E+01 0.  1.
</event>
<event>
11    1  0.8037748E-009  0.1448933E+03  0.7561462E-02  0.1102214E+00
         22   -1    0    0    0    0  0.00000000000E+00  0.00000000000E+00  0.26537879906E+04  0.26537879906E+04  0.00000000000E+00 0. -1.
         22   -1    0    0    0    0 -0.00000000000E+00 -0.00000000000E+00 -0.74317484028E+03  0.74317484028E+03  0.00000000000E+00 0.  1.
         24    2    1    2    0    0  0.16837885184E+02  0.10834181747E+02 -0.71366843691E+03  0.71850709164E+03  0.80801664747E+02 0.  0.
         25    2    1    2    0    0 -0.87020636711E+02 -0.28123686259E+02  0.20576730118E+03  0.25759222147E+03  0.12510010945E+03 0.  0.
        -24    2    1    2    0    0  0.70182751527E+02  0.17289504512E+02  0.24185142860E+04  0.24208635177E+04  0.78385421209E+02 0.  0.
        -13    1    3    3    0    0  0.18178658011E+02  0.16394014605E+02 -0.71217570507E+03  0.71259628277E+03  0.00000000000E+00 0.  1.
         14    1    3    3    0    0 -0.13407728269E+01 -0.55598328576E+01 -0.14927318375E+01  0.59108088715E+01  0.00000000000E+00 0. -1.
         13    1    5    5    0    0  0.84975966464E+02  0.22862633270E+02  0.18028635663E+04  0.18050098763E+04  0.00000000000E+00 0. -1.
        -14    1    5    5    0    0 -0.14793214937E+02 -0.55731287575E+01  0.61565071969E+03  0.61585364140E+03  0.00000000000E+00 0.  1.
          5    1    4    4  501    0 -0.54920652702E+00 -0.59893345631E+02  0.58460812144E+02  0.83801273470E+02  0.41800000000E+01 0.  1.
         -5    1    4    4    0  501 -0.86471430184E+02  0.31769659372E+02  0.14730648903E+03  0.17379094800E+03  0.41800000000E+01 0.  1.
</event>
<event>
11    1  0.8037748E-009  0.1262646E+03  0.7561462E-02  0.1123946E+00
         22   -1    0    0    0    0  0.00000000000E+00  0.00000000000E+00  0.96518448002E+03  0.96518448002E+03  0.00000000000E+00 0.  1.
         22   -1    0    0    0    0 -0.00000000000E+00 -0.00000000000E+00 -0.62967706936E+02  0.62967706936E+02  0.00000000000E+00 0. -1.
        -24    2    1    2    0    0  0.88172141314E+01 -0.47596360229E+02 -0.62233910625E+00  0.73520575577E+02  0.55332910235E+02 0.  0.
         25    2    1    2    0    0 -0.34534448868E+01  0.23632896494E+02  0.16291073196E+03  0.20678157338E+03  0.12509305506E+03 0.  0.
         24    2    1    2    0    0 -0.53637692446E+01  0.23963463735E+02  0.73992838023E+03  0.74785003800E+03  0.10574806781E+03 0.  0.
        -11    1    5    5    0    0 -0.18063352131E+02  0.57762296444E+02  0.61010300160E+03  0.61309741489E+03  0.00000000000E+00 0.  1.
         12    1    5    5    0    0  0.12699582886E+02 -0.33798832709E+02  0.12982537863E+03  0.13475262311E+03  0.00000000000E+00 0. -1.
         11    1    3    3    0    0  0.24032028645E+02 -0.35703480617E+02 -0.18831857958E+02  0.46977822461E+02  0.00000000000E+00 0. -1.
        -12    1    3    3    0    0 -0.15214814514E+02 -0.11892879612E+02  0.18209518852E+02  0.26542753116E+02  0.00000000000E+00 0.  1.
          5    1    4    4  501    0 -0.49885832128E+02 -0.13674308572E+02  0.27366439998E+02  0.58668367969E+02  0.41800000000E+01 0. -1.
         -5    1    4    4    0  501  0.46432387241E+02  0.37307205066E+02  0.13554429196E+03  0.14811320541E+03  0.41800000000E+01 0. -1.
</event>
<event>
11    1  0.8037748E-009  0.1792095E+03  0.7561462E-02  0.1070284E+00
         22   -1    0    0    0    0  0.00000000000E+00  0.00000000000E+00  0.38960693121E+03  0.38960693121E+03  0.00000000000E+00 0.  1.
         22   -1    0    0    0    0 -0.00000000000E+00 -0.00000000000E+00 -0.21967605180E+04  0.21967605180E+04  0.00000000000E+00 0.  1.
        -24    2    1    2    0    0  0.99832915956E+02  0.88859443672E+02 -0.20521013662E+04  0.20579847428E+04  0.79489448949E+02 0.  0.
         25    2    1    2    0    0  0.66331560453E+01 -0.81154035503E+02 -0.85464677050E+02  0.17199408042E+03  0.12509107258E+03 0.  0.
         24    2    1    2    0    0 -0.10646607200E+03 -0.77054081683E+01  0.33041245648E+03  0.35638862600E+03  0.80287380944E+02 0.  0.
        -13    1    5    5    0    0 -0.52131581595E+02 -0.12360233486E+02  0.26889130491E+03  0.27417697027E+03  0.00000000000E+00 0.  1.
         14    1    5    5    0    0 -0.54334490406E+02  0.46548253182E+01  0.61521151578E+02  0.82211655731E+02  0.00000000000E+00 0. -1.
         13    1    3    3    0    0  0.63521300147E+02  0.71389852470E+01 -0.69161961022E+03  0.69456720763E+03  0.00000000000E+00 0. -1.
        -14    1    3    3    0    0  0.36311615809E+02  0.81720458425E+02 -0.13604817560E+04  0.13634175351E+04  0.00000000000E+00 0.  1.
          5    1    4    4  501    0  0.39432873931E+02 -0.89178672741E+02 -0.95471111292E+02  0.13652835863E+03  0.41800000000E+01 0. -1.
         -5    1    4    4    0  501 -0.32799717886E+02  0.80246372376E+01  0.10006434242E+02  0.35465721795E+02  0.41800000000E+01 0. -1.
</event>
<event>
11    1  0.8037748E-009  0.1843366E+03  0.7561462E-02  0.1066188E+00
         22   -1    0    0    0    0  0.00000000000E+00  0.00000000000E+00  0.13441984533E+04  0.13441984533E+04  0.00000000000E+00 0. -1.
         22   -1    0    0    0    0 -0.00000000000E+00 -0.00000000000E+00 -0.40829372486E+03  0.40829372486E+03  0.00000000000E+00 0.  1.
         24    2    1    2    0    0 -0.85529274229E+02  0.10145285741E+03 -0.32105465245E+03  0.35867406327E+03  0.89235950002E+02 0.  0.
         25    2    1    2    0    0  0.13865454463E+03 -0.89039742645E+02  0.92760316755E+02  0.22672596577E+03  0.12508808366E+03 0.  0.
        -24    2    1    2    0    0 -0.53125270400E+02 -0.12413114768E+02  0.11641990641E+04  0.11670921491E+04  0.61386022871E+02 0.  0.
        -13    1    3    3    0    0 -0.82776155580E+02  0.10393130029E+03 -0.32626460177E+03  0.35228141802E+03  0.00000000000E+00 0.  1.
         14    1    3    3    0    0 -0.27531186485E+01 -0.24784428724E+01  0.52099493202E+01  0.63926452493E+01  0.00000000000E+00 0. -1.
         11    1    5    5    0    0 -0.52073822396E+02 -0.27410833556E+02  0.10769964035E+04  0.10786029343E+04  0.00000000000E+00 0. -1.
        -12    1    5    5    0    0 -0.10514480035E+01  0.14997718788E+02  0.87202660639E+02  0.88489214791E+02  0.00000000000E+00 0.  1.
          5    1    4    4  501    0  0.85452290483E+01 -0.28178193449E+02  0.76536601737E+02  0.82111846472E+02  0.41800000000E+01 0. -1.
         -5    1    4    4    0  501  0.13010931558E+03 -0.60861549196E+02  0.16223715019E+02  0.14461411930E+03  0.41800000000E+01 0. -1.
</event>
<event>
11    1  0.8037748E-009  0.1473237E+03  0.7561462E-02  0.1099645E+00
         22   -1    0    0    0    0  0.00000000000E+00  0.00000000000E+00  0.30129670140E+03  0.30129670140E+03  0.00000000000E+00 0.  1.
         22   -1    0    0    0    0 -0.00000000000E+00 -0.00000000000E+00 -0.50938432416E+03  0.50938432416E+03  0.00000000000E+00 0. -1.
        -24    2    1    2    0    0  0.76670660509E+02  0.30995971251E+01 -0.26679584066E+03  0.28931913048E+03  0.81471105202E+02 0.  0.
         25    2    1    2    0    0 -0.79828275078E+02 -0.88687065689E+01 -0.20063333963E+03  0.24970658514E+03  0.12509370180E+03 0.  0.
         24    2    1    2    0    0  0.31576145691E+01  0.57691094438E+01  0.25934155754E+03  0.27165530995E+03  0.80593491066E+02 0.  0.
        -11    1    5    5    0    0 -0.31419690634E+02  0.25939321344E+02  0.13712674474E+03  0.14305170211E+03  0.00000000000E+00 0.  1.
         12    1    5    5    0    0  0.34577305203E+02 -0.20170211901E+02  0.12221481279E+03  0.12860360784E+03  0.00000000000E+00 0. -1.
         11    1    3    3    0    0  0.74728707550E+02  0.25402974128E+02 -0.24744265246E+03  0.25972592686E+03  0.00000000000E+00 0. -1.
        -12    1    3    3    0    0  0.19419529587E+01 -0.22303377002E+02 -0.19353188201E+02  0.29593203621E+02  0.00000000000E+00 0.  1.
          5    1    4    4  501    0 -0.21437254766E+02 -0.34208802998E+02 -0.17713711905E+03  0.18172734918E+03  0.41800000000E+01 0. -1.
         -5    1    4    4    0  501 -0.58391020312E+02  0.25340096429E+02 -0.23496220584E+02  0.67979235961E+02  0.41800000000E+01 0. -1.
</event>
<event>
11    1  0.8037748E-009  0.1649717E+03  0.7561462E-02  0.1082492E+00
         22   -1    0    0    0    0  0.00000000000E+00  0.00000000000E+00  0.27243124597E+03  0.27243124597E+03  0.00000000000E+00 0. -1.
         22   -1    0    0    0    0 -0.00000000000E+00 -0.00000000000E+00 -0.58547727767E+03  0.58547727767E+03  0.00000000000E+00 0. -1.
        -24    2    1    2    0    0  0.13113404663E+00 -0.29248655696E+02 -0.47491853532E+03  0.48340378022E+03  0.85300049716E+02 0.  0.
         25    2    1    2    0    0 -0.78177874726E+02 -0.51584086338E+02 -0.63492676918E+01  0.15639970894E+03  0.12509139737E+03 0.  0.
         24    2    1    2    0    0  0.78046740679E+02  0.80832742034E+02  0.16822177131E+03  0.21810503448E+03  0.81523099839E+02 0.  0.
        -13    1    5    5    0    0  0.47677988572E+02  0.25979844011E+01  0.29968926334E+02  0.56374432705E+02  0.00000000000E+00 0.  1.
         14    1    5    5    0    0  0.30368752108E+02  0.78234757633E+02  0.13825284498E+03  0.16173060178E+03  0.00000000000E+00 0. -1.
         13    1    3    3    0    0  0.80888122691E+01  0.41800691076E+01 -0.40868894914E+03  0.40879036072E+03  0.00000000000E+00 0. -1.
        -14    1    3    3    0    0 -0.79576782225E+01 -0.33428724803E+02 -0.66229586176E+02  0.74613419502E+02  0.00000000000E+00 0.  1.
          5    1    4    4  501    0  0.17034297829E+02 -0.62786910219E+00  0.36218812272E+02  0.40247189772E+02  0.41800000000E+01 0.  1.
         -5    1    4    4    0  501 -0.95212172555E+02 -0.50956217236E+02 -0.42568079964E+02  0.11615251917E+03  0.41800000000E+01 0.  1.
</event>
<event>
11    1  0.8037748E-009  0.1392074E+03  0.7561462E-02  0.1108447E+00
         22   -1    0    0    0    0  0.00000000000E+00  0.00000000000E+00  0.62544665238E+03  0.62544665238E+03  0.00000000000E+00 0.  1.
         22   -1    0    0    0    0 -0.00000000000E+00 -0.00000000000E+00 -0.35616106947E+03  0.35616106947E+03  0.00000000000E+00 0. -1.
         24    2    1    2    0    0  0.24407133984E+02 -0.21130467784E+02 -0.31974322138E+03  0.33112385835E+03  0.79781433235E+02 0.  0.
         25    2    1    2    0    0 -0.43799803069E+02 -0.39132883772E+02  0.16934069758E+03  0.21857275876E+03  0.12509186095E+03 0.  0.
        -24    2    1    2    0    0  0.19392669085E+02  0.60263351556E+02  0.41968810672E+03  0.43191110475E+03  0.80008426574E+02 0.  0.
        -13    1    3    3    0    0  0.31475662399E+02  0.67901918934E+01 -0.47643942941E+02  0.57504515721E+02  0.00000000000E+00 0.  1.
         14    1    3    3    0    0 -0.70685284150E+01 -0.27920659677E+02 -0.27209927844E+03  0.27361934263E+03  0.00000000000E+00 0. -1.
         13    1    5    5    0    0  0.19227079884E+02 -0.10226697841E+02  0.38256632155E+02  0.44020857028E+02  0.00000000000E+00 0. -1.
        -14    1    5    5    0    0  0.16558920094E+00  0.70490049397E+02  0.38143147457E+03  0.38789024772E+03  0.00000000000E+00 0.  1.
          5    1    4    4  501    0  0.77607289518E+01 -0.74291098748E+02  0.80184447548E+02  0.10966500944E+03  0.41800000000E+01 0.  1.
         -5    1    4    4    0  501 -0.51560532021E+02  0.35158214976E+02  0.89156250028E+02  0.10890774932E+03  0.41800000000E+01 0.  1.
</event>
<event>
11    1  0.8037748E-009  0.1823239E+03  0.7561462E-02  0.1067778E+00
         22   -1    0    0    0    0  0.00000000000E+00  0.00000000000E+00  0.71830766684E+03  0.71830766684E+03  0.00000000000E+00 0.  1.
         22   -1    0    0    0    0 -0.00000000000E+00 -0.00000000000E+00 -0.10786103765E+04  0.10786103765E+04  0.00000000000E+00 0. -1.
         24    2    1    2    0    0 -0.32191989233E+02  0.12952395162E+03 -0.10095806886E+04  0.10215421759E+04  0.80513799745E+02 0.  0.
         25    2    1    2    0    0 -0.51427711944E+02 -0.12736207740E+03  0.93893618782E+02  0.20815236242E+03  0.12508191722E+03 0.  0.
        -24    2    1    2    0    0  0.83619701177E+02 -0.21618742175E+01  0.55538436019E+03  0.56722350507E+03  0.79333404304E+02 0.  0.
        -11    1    3    3    0    0 -0.17663741600E+01  0.23859584602E+02 -0.48357394336E+03  0.48416542478E+03  0.00000000000E+00 0.  1.
         12    1    3    3    0    0 -0.30425615073E+02  0.10566436702E+03 -0.52600674528E+03  0.53737675107E+03  0.00000000000E+00 0. -1.
         13    1    5    5    0    0 -0.32440908159E+01 -0.27748450600E+01  0.24159105657E+03  0.24162877003E+03  0.00000000000E+00 0. -1.
        -14    1    5    5    0    0  0.86863791993E+02  0.61297084249E+00  0.31379330362E+03  0.32559473505E+03  0.00000000000E+00 0.  1.
          5    1    4    4  501    0 -0.53107043601E+01 -0.12950435253E+03  0.96619078814E+02  0.16171672671E+03  0.41800000000E+01 0.  1.
         -5    1    4    4    0  501 -0.46117007584E+02  0.21422751302E+01 -0.27254600320E+01  0.46435635708E+02  0.41800000000E+01 0.  1.
</event>
<event>
11    1  0.8037748E-009  0.1737943E+03  0.7561462E-02  0.1074776E+00
         22   -1    0    0    0    0  0.00000000000E+00  0.00000000000E+00  0.12759577434E+04  0.12759577434E+04  0.00000000000E+00 0.  1.
         22   -1    0    0    0    0 -0.00000000000E+00 -0.00000000000E+00 -0.44013183736E+03  0.44013183736E+03  0.00000000000E+00 0. -1.
        -24    2    1    2    0    0  0.11215850608E+02  0.11939602839E+03 -0.40752960583E+03  0.43220842878E+03  0.79640061376E+02 0.  0.
         25    2    1    2    0    0 -0.61704506341E+02 -0.15798217577E+03  0.70021320134E+03  0.73123942191E+03  0.12508697323E+03 0.  0.
         24    2    1    2    0    0  0.50488655734E+02  0.38586147373E+02  0.54314231056E+03  0.55264173009E+03  0.79820531130E+02 0.  0.
        -11    1    5    5    0    0  0.19470614900E+01  0.50239021962E+02  0.22042132106E+03  0.22608252730E+03  0.00000000000E+00 0.  1.
         12    1    5    5    0    0  0.48541594244E+02 -0.11652874589E+02  0.32272098950E+03  0.32655920278E+03  0.00000000000E+00 0. -1.
         11    1    3    3    0    0 -0.21721808643E+02  0.98922315815E+02 -0.33481702376E+03  0.34979980123E+03  0.00000000000E+00 0. -1.
        -12    1    3    3    0    0  0.32937659251E+02  0.20473712578E+02 -0.72712582068E+02  0.82408627550E+02  0.00000000000E+00 0.  1.
          5    1    4    4  501    0 -0.99468502009E+02 -0.99216848867E+02  0.45183911457E+03  0.47319554504E+03  0.41800000000E+01 0.  1.
         -5    1    4    4    0  501  0.37763995668E+02 -0.58765326898E+02  0.24837408676E+03  0.25804387687E+03  0.41800000000E+01 0.  1.
</event>
<event>
11    1  0.8037748E-009  0.1623444E+03  0.7561462E-02  0.1084893E+00
         22   -1    0    0    0    0  0.00000000000E+00  0.00000000000E+00  0.33198349911E+03  0.33198349911E+03  0.00000000000E+00 0. -1.
         22   -1    0    0    0    0 -0.00000000000E+00 -0.00000000000E+00 -0.11664157306E+04  0.11664157306E+04  0.00000000000E+00 0.  1.
         24    2    1    2    0    0 -0.59719316736E+02  0.21330411083E+02 -0.83641310310E+03  0.84267300144E+03  0.80557588651E+02 0.  0.
         25    2    1    2    0    0  0.16062607290E+03 -0.21764179419E+02 -0.27926847741E+03  0.34628103661E+03  0.12508100992E+03 0.  0.
        -24    2    1    2    0    0 -0.10090675617E+03  0.43376833612E+00  0.28124934904E+03  0.30944519165E+03  0.80453518926E+02 0.  0.
        -13    1    3    3    0    0 -0.55250953899E+02  0.20298828498E+02 -0.83599879328E+03  0.83806842961E+03  0.00000000000E+00 0.  1.
         14    1    3    3    0    0 -0.44683628367E+01  0.10315825850E+01 -0.41430981685E+00  0.46045718253E+01  0.00000000000E+00 0. -1.
         11    1    5    5    0    0 -0.10278686112E+03 -0.16154966567E+02  0.26989055170E+03  0.28925253959E+03  0.00000000000E+00 0. -1.
        -12    1    5    5    0    0  0.18801049511E+01  0.16588734903E+02  0.11358797338E+02  0.20192652061E+02  0.00000000000E+00 0.  1.
          5    1    4    4  501    0  0.16944900235E+03  0.39068979517E+01 -0.19893609511E+03  0.26138337856E+03  0.41800000000E+01 0.  1.
         -5    1    4    4    0  501 -0.88229294469E+01 -0.25671077371E+02 -0.80332382302E+02  0.84897658058E+02  0.41800000000E+01 0.  1.
</event>
<event>
11    1  0.8037748E-009  0.2282109E+03  0.7561462E-02  0.1036192E+00
         22   -1    0    0    0    0  0.00000000000E+00  0.00000000000E+00  0.14650830798E+04  0.14650830798E+04  0.00000000000E+00 0.  1.
         22   -1    0    0    0    0 -0.00000000000E+00 -0.00000000000E+00 -0.36496097964E+03  0.36496097964E+03  0.00000000000E+00 0.  1.
         24    2    1    2    0    0 -0.93019301961E+02 -0.18201021281E+03 -0.26934872736E+03  0.34597569820E+03  0.73281230273E+02 0.  0.
         25    2    1    2    0    0  0.33859876349E+02  0.13381055932E+03  0.10327272728E+03  0.21298826184E+03  0.12508791498E+03 0.  0.
        -24    2    1    2    0    0  0.59159425612E+02  0.48199653498E+02  0.12661981002E+04  0.12710800994E+04  0.81018181874E+02 0.  0.
        -11    1    3    3    0    0 -0.88051218242E+02 -0.16208832602E+03 -0.26807108058E+03  0.32540397464E+03  0.00000000000E+00 0.  1.
         12    1    3    3    0    0 -0.49680837195E+01 -0.19921886789E+02 -0.12776467798E+01  0.20571723563E+02  0.00000000000E+00 0. -1.
         13    1    5    5    0    0  0.65668602243E+02  0.31702173182E+02  0.56862587233E+03  0.57328245725E+03  0.00000000000E+00 0. -1.
        -14    1    5    5    0    0 -0.65091766306E+01  0.16497480316E+02  0.69757222787E+03  0.69779764211E+03  0.00000000000E+00 0.  1.
          5    1    4    4  501    0  0.62852241419E+02  0.44536456732E+02  0.54275049915E+01  0.77335828954E+02  0.41800000000E+01 0.  1.
         -5    1    4    4    0  501 -0.28992365070E+02  0.89274102583E+02  0.97845222286E+02  0.13565243289E+03  0.41800000000E+01 0.  1.
</event>
<event>
11    1  0.8037748E-009  0.2098856E+03  0.7561462E-02  0.1047745E+00
         22   -1    0    0    0    0  0.00000000000E+00  0.00000000000E+00  0.29103791408E+03  0.29103791408E+03  0.00000000000E+00 0. -1.
         22   -1    0    0    0    0 -0.00000000000E+00 -0.00000000000E+00 -0.14253044121E+04  0.14253044121E+04  0.00000000000E+00 0.  1.
        -24    2    1    2    0    0 -0.15463658851E+02 -0.25505369440E+02 -0.51168529576E+03  0.51874646110E+03  0.79914957251E+02 0.  0.
         25    2    1    2    0    0  0.16429138243E+03 -0.53450669495E+02 -0.86541210929E+03  0.89131018040E+03  0.12508831428E+03 0.  0.
         24    2    1    2    0    0 -0.14882772357E+03  0.78956038935E+02  0.24283090698E+03  0.30628568472E+03  0.80376140083E+02 0.  0.
        -11    1    5    5    0    0 -0.56417124927E+02  0.15101730727E+02  0.30060011145E+02  0.65685299162E+02  0.00000000000E+00 0.  1.
         12    1    5    5    0    0 -0.92410598647E+02  0.63854308208E+02  0.21277089583E+03  0.24060038556E+03  0.00000000000E+00 0. -1.
         13    1    3    3    0    0  0.23462123684E+02  0.48220234245E+01 -0.63748581088E+02  0.68099961442E+02  0.00000000000E+00 0. -1.
        -14    1    3    3    0    0 -0.38925782535E+02 -0.30327392864E+02 -0.44793671467E+03  0.45064649966E+03  0.00000000000E+00 0.  1.
          5    1    4    4  501    0 -0.95257549863E+01 -0.23869564936E+02 -0.43571913000E+02  0.50759039991E+02  0.41800000000E+01 0.  1.
         -5    1    4    4    0  501  0.17381713741E+03 -0.29581104559E+02 -0.82184019629E+03  0.84055114041E+03  0.41800000000E+01 0.  1.
</event>
<event>
11    1  0.8037748E-009  0.1666853E+03  0.7561462E-02  0.1080953E+00
         22   -1    0    0    0    0  0.00000000000E+00  0.00000000000E+00  0.20187093307E+03  0.20187093307E+03  0.00000000000E+00 0.  1.
         22   -1    0    0    0    0 -0.00000000000E+00 -0.00000000000E+00 -0.25594249732E+04  0.25594249732E+04  0.00000000000E+00 0. -1.
         24    2    1    2    0    0 -0.15762866158E+02  0.11711995618E+02 -0.13737933269E+04  0.13765519419E+04  0.84861681769E+02 0.  0.
         25    2    1    2    0    0  0.12498849898E+03 -0.23144288486E+02 -0.11532942735E+04  0.11670016337E+04  0.12508936353E+03 0.  0.
        -24    2    1    2    0    0 -0.10922563282E+03  0.11432292868E+02  0.16953356032E+03  0.21774233056E+03  0.81296729684E+02 0.  0.
        -11    1    3    3    0    0  0.89090347206E+01  0.28803701938E+02 -0.18992561120E+03  0.19230382714E+03  0.00000000000E+00 0.  1.
         12    1    3    3    0    0 -0.24671900879E+02 -0.17091706320E+02 -0.11838677157E+04  0.11842481148E+04  0.00000000000E+00 0. -1.
         11    1    5    5    0    0 -0.38435305324E+02  0.85439733975E+01  0.64030068402E+01  0.39890734179E+02  0.00000000000E+00 0. -1.
        -12    1    5    5    0    0 -0.70790327496E+02  0.28883194701E+01  0.16313055348E+03  0.17785159638E+03  0.00000000000E+00 0.  1.
          5    1    4    4  501    0 -0.23488444048E+02  0.37995312407E+01 -0.96410651064E+02  0.99391294790E+02  0.41800000000E+01 0.  1.
         -5    1    4    4    0  501  0.14847694303E+03 -0.26943819726E+02 -0.10568836225E+04  0.10676103390E+04  0.41800000000E+01 0.  1.
</event>
<event>
11    1  0.8037748E-009  0.1557504E+03  0.7561462E-02  0.1091144E+00
         22   -1    0    0    0    0  0.00000000000E+00  0.00000000000E+00  0.11062863913E+04  0.11062863913E+04  0.00000000000E+00 0. -1.
         22   -1    0    0    0    0 -0.00000000000E+00 -0.00000000000E+00 -0.85002247762E+03  0.85002247762E+03  0.00000000000E+00 0.  1.
         24    2    1    2    0    0  0.19830174436E+02  0.89690781407E+02 -0.72199840552E+03  0.73214911211E+03  0.79516996327E+02 0.  0.
         25    2    1    2    0    0 -0.24004310901E+01 -0.10474474570E+03 -0.66351400497E+02  0.17614314127E+03  0.12508666615E+03 0.  0.
        -24    2    1    2    0    0 -0.17429743346E+02  0.15053964293E+02  0.10446137197E+04  0.10480166156E+04  0.81182419677E+02 0.  0.
        -13    1    3    3    0    0 -0.28197164301E+02  0.47025553193E+02 -0.40608784432E+03  0.40977288836E+03  0.00000000000E+00 0.  1.
         14    1    3    3    0    0  0.48027338737E+02  0.42665228214E+02 -0.31591056120E+03  0.32237622375E+03  0.00000000000E+00 0. -1.
         11    1    5    5    0    0  0.13440705060E+02  0.10062416133E+02  0.89558279606E+03  0.89574016845E+03  0.00000000000E+00 0. -1.
        -12    1    5    5    0    0 -0.30870448406E+02  0.49915481594E+01  0.14903092366E+03  0.15227644711E+03  0.00000000000E+00 0.  1.
          5    1    4    4  501    0 -0.55000885113E+02 -0.94002146907E+02 -0.39104377933E+02  0.11579346165E+03  0.41800000000E+01 0.  1.
         -5    1    4    4    0  501  0.52600454023E+02 -0.10742598793E+02 -0.27247022564E+02  0.60349679625E+02  0.41800000000E+01 0.  1.
</event>
<event>
11    1  0.8037748E-009  0.1367942E+03  0.7561462E-02  0.1111192E+00
         22   -1    0    0    0    0  0.00000000000E+00  0.00000000000E+00  0.17597767533E+03  0.17597767533E+03  0.00000000000E+00 0.  1.
         22   -1    0    0    0    0 -0.00000000000E+00 -0.00000000000E+00 -0.33183490151E+04  0.33183490151E+04  0.00000000000E+00 0. -1.
        -24    2    1    2    0    0 -0.31536812949E+02  0.71293413303E+01 -0.27255504411E+04  0.27269642913E+04  0.81631127318E+02 0.  0.
         25    2    1    2    0    0 -0.24171819825E+02 -0.13360095154E+00 -0.57059851015E+03  0.58464936077E+03  0.12509164857E+03 0.  0.
         24    2    1    2    0    0  0.55708632773E+02 -0.69957403788E+01  0.15377761154E+03  0.18271303830E+03  0.81142519079E+02 0.  0.
        -13    1    5    5    0    0  0.33719389144E+02 -0.35551080331E+02  0.13152606831E+03  0.14035662849E+03  0.00000000000E+00 0.  1.
         14    1    5    5    0    0  0.21989243629E+02  0.28555339952E+02  0.22251543234E+02  0.42356409804E+02  0.00000000000E+00 0. -1.
         11    1    3    3    0    0 -0.20872036838E+02 -0.23750043548E+02 -0.22794296331E+04  0.22796489113E+04  0.00000000000E+00 0. -1.
        -12    1    3    3    0    0 -0.10664776111E+02  0.30879384879E+02 -0.44612080800E+03  0.44731538000E+03  0.00000000000E+00 0.  1.
          5    1    4    4  501    0  0.37476383931E+02  0.27815326656E+02 -0.36869727484E+03  0.37166291801E+03  0.41800000000E+01 0. -1.
         -5    1    4    4    0  501 -0.61648203755E+02 -0.27948927608E+02 -0.20190123532E+03  0.21298644277E+03  0.41800000000E+01 0. -1.
</event>
<event>
11    1  0.8037748E-009  0.2920816E+03  0.7561462E-02  0.1003599E+00
         22   -1    0    0    0    0  0.00000000000E+00  0.00000000000E+00  0.34119373356E+03  0.34119373356E+03  0.00000000000E+00 0.  1.
         22   -1    0    0    0    0 -0.00000000000E+00 -0.00000000000E+00 -0.70305169127E+03  0.70305169127E+03  0.00000000000E+00 0.  1.
        -24    2    1    2    0    0 -0.25466093624E+03  0.23359037793E+03 -0.41855757308E+03  0.54875185993E+03  0.80755833724E+02 0.  0.
         25    2    1    2    0    0  0.62619294617E+02 -0.17077277588E+03 -0.81928240654E+02  0.23546540413E+03  0.12508878002E+03 0.  0.
         24    2    1    2    0    0  0.19204164162E+03 -0.62817602051E+02  0.13862785603E+03  0.26002816077E+03  0.87011026202E+02 0.  0.
        -13    1    5    5    0    0  0.18016146780E+03 -0.42328919972E+02  0.89679160503E+02  0.20565078112E+03  0.00000000000E+00 0.  1.
         14    1    5    5    0    0  0.11880173815E+02 -0.20488682080E+02  0.48948695527E+02  0.54377379645E+02  0.00000000000E+00 0. -1.
         11    1    3    3    0    0 -0.40084457503E+02  0.18517780948E+02 -0.22398853954E+02  0.49511418915E+02  0.00000000000E+00 0. -1.
        -12    1    3    3    0    0 -0.21457647873E+03  0.21507259698E+03 -0.39615871913E+03  0.49924044101E+03  0.00000000000E+00 0.  1.
          5    1    4    4  501    0  0.37113971283E+02 -0.36682295392E+02 -0.83900120527E+02  0.98892569408E+02  0.41800000000E+01 0.  1.
         -5    1    4    4    0  501  0.25505323334E+02 -0.13409048048E+03  0.19718798727E+01  0.13657283473E+03  0.41800000000E+01 0.  1.
</event>
<event>
11    1  0.8037748E-009  0.1947551E+03  0.7561462E-02  0.1058296E+00
         22   -1    0    0    0    0  0.00000000000E+00  0.00000000000E+00  0.22278702054E+03  0.22278702054E+03  0.00000000000E+00 0.  1.
         22   -1    0    0    0    0 -0.00000000000E+00 -0.00000000000E+00 -0.13117216995E+04  0.13117216995E+04  0.00000000000E+00 0.  1.
        -24    2    1    2    0    0 -0.34541904746E+02 -0.85355203092E+01 -0.78851528637E+03  0.79339130690E+03  0.80295770317E+02 0.  0.
         25    2    1    2    0    0  0.49937052591E+02  0.15615807862E+03 -0.46297503669E+03  0.50682563650E+03  0.12508911415E+03 0.  0.
         24    2    1    2    0    0 -0.15395147845E+02 -0.14762255831E+03  0.16255564414E+03  0.23429177660E+03  0.80242562551E+02 0.  0.
        -11    1    5    5    0    0 -0.33694533302E+02 -0.12515428527E+03  0.15894347352E+03  0.20509008867E+03  0.00000000000E+00 0.  1.
         12    1    5    5    0    0  0.18299385458E+02 -0.22468273043E+02  0.36121706130E+01  0.29201687934E+02  0.00000000000E+00 0. -1.
         11    1    3    3    0    0  0.59669413820E+00  0.33079910536E+02 -0.32897608470E+03  0.33063560127E+03  0.00000000000E+00 0. -1.
        -12    1    3    3    0    0 -0.35138598884E+02 -0.41615430845E+02 -0.45953920167E+03  0.46275570562E+03  0.00000000000E+00 0.  1.
          5    1    4    4  501    0  0.63791257438E+02  0.17209249101E+03 -0.42867195166E+03  0.46632849422E+03  0.41800000000E+01 0. -1.
         -5    1    4    4    0  501 -0.13854204847E+02 -0.15934412388E+02 -0.34303085032E+02  0.40497142280E+02  0.41800000000E+01 0. -1.
</event>
<event>
11    1  0.8037748E-009  0.1344207E+03  0.7561462E-02  0.1113954E+00
         22   -1    0    0    0    0  0.00000000000E+00  0.00000000000E+00  0.15603544533E+03  0.15603544533E+03  0.00000000000E+00 0.  1.
         22   -1    0    0    0    0 -0.00000000000E+00 -0.00000000000E+00 -0.30905271311E+03  0.30905271311E+03  0.00000000000E+00 0. -1.
         24    2    1    2    0    0  0.25833184233E+02 -0.43721699849E+02 -0.22081378078E+03  0.23842118939E+03  0.74209145803E+02 0.  0.
         25    2    1    2    0    0 -0.21460646454E+02  0.28506627631E+02  0.17442643043E+02  0.13126078389E+03  0.12510779523E+03 0.  0.
        -24    2    1    2    0    0 -0.43725377796E+01  0.15215072218E+02  0.50353869952E+02  0.95406185161E+02  0.79474589893E+02 0.  0.
        -13    1    3    3    0    0  0.47340104081E+02 -0.23032683351E+02 -0.90182432516E+02  0.10442442766E+03  0.00000000000E+00 0.  1.
         14    1    3    3    0    0 -0.21506919848E+02 -0.20689016498E+02 -0.13063134827E+03  0.13399676173E+03  0.00000000000E+00 0. -1.
         13    1    5    5    0    0 -0.16802582392E+02 -0.57753948170E+01 -0.16495836428E+02  0.24244475243E+02  0.00000000000E+00 0. -1.
        -14    1    5    5    0    0  0.12430044612E+02  0.20990467035E+02  0.66849706380E+02  0.71161709919E+02  0.00000000000E+00 0.  1.
          5    1    4    4  501    0 -0.13774884899E+02 -0.49429767083E+02  0.34713508474E+01  0.51600116323E+02  0.41800000000E+01 0.  1.
         -5    1    4    4    0  501 -0.76857615547E+01  0.77936394715E+02  0.13971292196E+02  0.79660667568E+02  0.41800000000E+01 0.  1.
</event>
<event>
11    1  0.8037748E-009  0.1464774E+03  0.7561462E-02  0.1100534E+00
         22   -1    0    0    0    0  0.00000000000E+00  0.00000000000E+00  0.20714610605E+03  0.20714610605E+03  0.00000000000E+00 0.  1.
         22   -1    0    0    0    0 -0.00000000000E+00 -0.00000000000E+00 -0.12897250900E+04  0.12897250900E+04  0.00000000000E+00 0. -1.
        -24    2    1    2    0    0  0.41822070116E+02 -0.64359188621E+02 -0.12108588624E+04  0.12161841450E+04  0.83865960117E+02 0.  0.
         25    2    1    2    0    0 -0.37725676861E+02  0.47750497705E+02  0.13120595496E+02  0.13972509295E+03  0.12509042668E+03 0.  0.
         24    2    1    2    0    0 -0.40963932550E+01  0.16608690916E+02  0.11515928295E+03  0.14096195807E+03  0.79473166055E+02 0.  0.
        -11    1    5    5    0    0 -0.20974417041E+02 -0.21930472864E+02  0.18493446069E+02  0.35537013912E+02  0.00000000000E+00 0.  1.
         12    1    5    5    0    0  0.16878023786E+02  0.38539163780E+02  0.96665836880E+02  0.10542494416E+03  0.00000000000E+00 0. -1.
         11    1    3    3    0    0 -0.84493750950E+01  0.98367914691E+01 -0.43056047593E+03  0.43075570552E+03  0.00000000000E+00 0. -1.
        -12    1    3    3    0    0  0.50271445211E+02 -0.74195980090E+02 -0.78029838645E+03  0.78542843949E+03  0.00000000000E+00 0.  1.
          5    1    4    4  501    0  0.32244315587E+02 -0.11576753943E+02 -0.22530030650E+02  0.41216402082E+02  0.41800000000E+01 0. -1.
         -5    1    4    4    0  501 -0.69969992448E+02  0.59327251648E+02  0.35650626146E+02  0.98508690865E+02  0.41800000000E+01 0. -1.
</event>
<event>
11    1  0.8037748E-009  0.1473197E+03  0.7561462E-02  0.1099649E+00
         22   -1    0    0    0    0  0.00000000000E+00  0.00000000000E+00  0.50200375141E+03  0.50200375141E+03  0.00000000000E+00 0. -1.
         22   -1    0    0    0    0 -0.00000000000E+00 -0.00000000000E+00 -0.54864167279E+03  0.54864167279E+03  0.00000000000E+00 0.  1.
        -24    2    1    2    0    0 -0.99326346556E+01 -0.27937674822E+02 -0.33480268309E+03  0.34566975293E+03  0.80719084367E+02 0.  0.
         25    2    1    2    0    0  0.10744221759E+02  0.10485021850E+03 -0.16861141866E+03  0.23491994406E+03  0.12509421645E+03 0.  0.
         24    2    1    2    0    0 -0.81158710342E+00 -0.76912543682E+02  0.45677618038E+03  0.47005572721E+03  0.79948168691E+02 0.  0.
        -11    1    5    5    0    0  0.12968791239E+02 -0.72226800049E+02  0.20289159762E+03  0.21575425970E+03  0.00000000000E+00 0.  1.
         12    1    5    5    0    0 -0.13780378343E+02 -0.46857436330E+01  0.25388458275E+03  0.25430146752E+03  0.00000000000E+00 0. -1.
         13    1    3    3    0    0 -0.16630242699E+02 -0.19477447726E+01 -0.94790041826E+01  0.19240847232E+02  0.00000000000E+00 0. -1.
        -14    1    3    3    0    0  0.66976080431E+01 -0.25989930049E+02 -0.32532367891E+03  0.32642890570E+03  0.00000000000E+00 0.  1.
          5    1    4    4  501    0  0.37137062698E+02  0.49243451652E+02 -0.16136574108E+03  0.17280177589E+03  0.41800000000E+01 0. -1.
         -5    1    4    4    0  501 -0.26392840939E+02  0.55606766852E+02 -0.72456775814E+01  0.62118168165E+02  0.41800000000E+01 0. -1.
</event>
<event>
11    1  0.8037748E-009  0.1994033E+03  0.7561462E-02  0.1054946E+00
         22   -1    0    0    0    0  0.00000000000E+00  0.00000000000E+00  0.17083122210E+04  0.17083122210E+04  0.00000000000E+00 0. -1.
         22   -1    0    0    0    0 -0.00000000000E+00 -0.00000000000E+00 -0.16812039001E+03  0.16812039001E+03  0.00000000000E+00 0. -1.
        -24    2    1    2    0    0  0.22404331378E+02  0.40160923511E+02 -0.10334851151E+03  0.13885566090E+03  0.80530279334E+02 0.  0.
         25    2    1    2    0    0 -0.58443466469E+02  0.11492088583E+03  0.15273070252E+03  0.23579249657E+03  0.12509590390E+03 0.  0.
         24    2    1    2    0    0  0.36039135092E+02 -0.15508180934E+03  0.14908096400E+04  0.15017844535E+04  0.86567750197E+02 0.  0.
        -13    1    5    5    0    0  0.37797452976E+02 -0.35536495696E+02  0.70790606355E+03  0.70980453984E+03  0.00000000000E+00 0.  1.
         14    1    5    5    0    0 -0.17583178842E+01 -0.11954531364E+03  0.78290357641E+03  0.79197991367E+03  0.00000000000E+00 0. -1.
         13    1    3    3    0    0  0.42891432144E+02  0.36569488960E+02 -0.10372770020E+03  0.11805269274E+03  0.00000000000E+00 0. -1.
        -14    1    3    3    0    0 -0.20487100767E+02  0.35914345515E+01  0.37918869201E+00  0.20802968154E+02  0.00000000000E+00 0.  1.
          5    1    4    4  501    0  0.33986997138E+02  0.14367998688E+02  0.60316335760E+02  0.70831406313E+02  0.41800000000E+01 0. -1.
         -5    1    4    4    0  501 -0.92430463607E+02  0.10055288714E+03  0.92414366757E+02  0.16496109025E+03  0.41800000000E+01 0. -1.
</event>
<event>
11    1  0.8037748E-009  0.1307010E+03  0.7561462E-02  0.1118411E+00
         22   -1    0    0    0    0  0.00000000000E+00  0.00000000000E+00  0.18757409996E+03  0.18757409996E+03  0.00000000000E+00 0. -1.
         22   -1    0    0    0    0 -0.00000000000E+00 -0.00000000000E+00 -0.86208751107E+03  0.86208751107E+03  0.00000000000E+00 0.  1.
        -24    2    1    2    0    0 -0.32073988412E+02 -0.24416716132E+02 -0.77664653062E+03  0.78456410755E+03  0.10361509824E+03 0.  0.
         25    2    1    2    0    0  0.88266395448E+01 -0.11365623724E+02 -0.33959428651E+01  0.12596138952E+03  0.12509057619E+03 0.  0.
         24    2    1    2    0    0  0.23247348867E+02  0.35782339856E+02  0.10552906237E+03  0.13913611396E+03  0.80010375120E+02 0.  0.
        -11    1    5    5    0    0 -0.51582157053E+01 -0.28043846061E+01 -0.11371119638E+02  0.12797426464E+02  0.00000000000E+00 0.  1.
         12    1    5    5    0    0  0.28405564572E+02  0.38586724462E+02  0.11690018201E+03  0.12633868749E+03  0.00000000000E+00 0. -1.
         13    1    3    3    0    0  0.96074530673E+01 -0.10097827017E+02 -0.11282504523E+02  0.17932210495E+02  0.00000000000E+00 0. -1.
        -14    1    3    3    0    0 -0.41681441479E+02 -0.14318889114E+02 -0.76536402609E+03  0.76663189706E+03  0.00000000000E+00 0.  1.
          5    1    4    4  501    0  0.99118915353E+01  0.12818193194E+02  0.57717916330E+02  0.60094774616E+02  0.41800000000E+01 0. -1.
         -5    1    4    4    0  501 -0.10852519904E+01 -0.24183816918E+02 -0.61113859195E+02  0.65866614900E+02  0.41800000000E+01 0. -1.
</event>
<event>
11    1  0.8037748E-009  0.1342478E+03  0.7561462E-02  0.1114157E+00
         22   -1    0    0    0    0  0.00000000000E+00  0.00000000000E+00  0.47390924396E+03  0.47390924396E+03  0.00000000000E+00 0. -1.
         22   -1    0    0    0    0 -0.00000000000E+00 -0.00000000000E+00 -0.21925876601E+04  0.21925876601E+04  0.00000000000E+00 0.  1.
        -24    2    1    2    0    0 -0.41623729482E+01  0.13128952288E+02 -0.21164587397E+04  0.21180355739E+04  0.80544404027E+02 0.  0.
         25    2    1    2    0    0  0.21370368470E+02  0.33358623201E+02 -0.76314968525E+01  0.13143404904E+03  0.12508868498E+03 0.  0.
         24    2    1    2    0    0 -0.17207995522E+02 -0.46487575490E+02  0.40541182042E+03  0.41702728105E+03  0.84236566992E+02 0.  0.
        -13    1    5    5    0    0 -0.18595508343E+02 -0.45728135630E+02  0.99128268649E+02  0.11073964495E+03  0.00000000000E+00 0.  1.
         14    1    5    5    0    0  0.13875128214E+01 -0.75943985930E+00  0.30628355177E+03  0.30628763609E+03  0.00000000000E+00 0. -1.
         11    1    3    3    0    0  0.27006583656E+02  0.19545613665E+02 -0.43494716526E+03  0.43622290534E+03  0.00000000000E+00 0. -1.
        -12    1    3    3    0    0 -0.31168956604E+02 -0.64166613765E+01 -0.16815115744E+04  0.16818126686E+04  0.00000000000E+00 0.  1.
          5    1    4    4  501    0  0.62200325780E+02  0.16186246160E+02  0.31938949618E+02  0.71891891021E+02  0.41800000000E+01 0.  1.
         -5    1    4    4    0  501 -0.40829957310E+02  0.17172377042E+02 -0.39570446470E+02  0.59542158015E+02  0.41800000000E+01 0.  1.
</event>
<event>
11    1  0.8037748E-009  0.1372768E+03  0.7561462E-02  0.1110638E+00
         22   -1    0    0    0    0  0.00000000000E+00  0.00000000000E+00  0.42923340991E+03  0.42923340991E+03  0.00000000000E+00 0. -1.
         22   -1    0    0    0    0 -0.00000000000E+00 -0.00000000000E+00 -0.24137879491E+04  0.24137879491E+04  0.00000000000E+00 0.  1.
        -24    2    1    2    0    0  0.54101816400E+01 -0.41427513168E+01 -0.23320902813E+04  0.23335569991E+04  0.82442435047E+02 0.  0.
         25    2    1    2    0    0  0.39548254423E+02  0.38663661089E+02 -0.11531416117E+02  0.13725829913E+03  0.12509166242E+03 0.  0.
         24    2    1    2    0    0 -0.44958436062E+02 -0.34520909772E+02  0.35906715821E+03  0.37220606087E+03  0.79969828416E+02 0.  0.
        -13    1    5    5    0    0 -0.42282843715E+02 -0.35826323061E+02  0.11047879965E+03  0.12359987649E+03  0.00000000000E+00 0.  1.
         14    1    5    5    0    0 -0.26755923470E+01  0.13054132883E+01  0.24858835856E+03  0.24860618438E+03  0.00000000000E+00 0. -1.
         13    1    3    3    0    0 -0.25765631874E+02 -0.28125045705E+02 -0.15592443081E+04  0.15597107739E+04  0.00000000000E+00 0. -1.
        -14    1    3    3    0    0  0.31175813514E+02  0.23982294388E+02 -0.77284597327E+03  0.77384622516E+03  0.00000000000E+00 0.  1.
          5    1    4    4  501    0  0.38206755882E+01  0.55702364999E+01 -0.64613558000E+02  0.65099995193E+02  0.41800000000E+01 0. -1.
         -5    1    4    4    0  501  0.35727578834E+02  0.33093424589E+02  0.53082141883E+02  0.72158303939E+02  0.41800000000E+01 0. -1.
</event>
<event>
11    1  0.8037748E-009  0.2305005E+03  0.7561462E-02  0.1034832E+00
         22   -1    0    0    0    0  0.00000000000E+00  0.00000000000E+00  0.37462277245E+03  0.37462277245E+03  0.00000000000E+00 0.  1.
         22   -1    0    0    0    0 -0.00000000000E+00 -0.00000000000E+00 -0.98797211297E+03  0.98797211297E+03  0.00000000000E+00 0. -1.
        -24    2    1    2    0    0 -0.11497388199E+03 -0.29334490734E+02 -0.76761612577E+03  0.78114891447E+03  0.82943379136E+02 0.  0.
         25    2    1    2    0    0  0.28546308715E+03  0.48635665488E+02 -0.30309808834E+02  0.31688971510E+03  0.12508319207E+03 0.  0.
         24    2    1    2    0    0 -0.17048920516E+03 -0.19301174754E+02  0.18457659408E+03  0.26455625585E+03  0.80513284654E+02 0.  0.
        -11    1    5    5    0    0 -0.16417160543E+03 -0.39086311202E+02  0.16438488237E+03  0.23558956960E+03  0.00000000000E+00 0.  1.
         12    1    5    5    0    0 -0.63175997271E+01  0.19785136448E+02  0.20191711718E+02  0.28966686256E+02  0.00000000000E+00 0. -1.
         13    1    3    3    0    0 -0.33085942093E+02 -0.21838419782E+02 -0.49024679338E+03  0.49184704387E+03  0.00000000000E+00 0. -1.
        -14    1    3    3    0    0 -0.81887939901E+02 -0.74960709516E+01 -0.27736933239E+03  0.28930187060E+03  0.00000000000E+00 0.  1.
          5    1    4    4  501    0  0.24864530328E+03  0.37966768894E+02 -0.70438620450E+02  0.26123750503E+03  0.41800000000E+01 0.  1.
         -5    1    4    4    0  501  0.36817783875E+02  0.10668896594E+02  0.40128811616E+02  0.55652210070E+02  0.41800000000E+01 0.  1.
</event>
<event>
11    1  0.8037748E-009  0.1700211E+03  0.7561462E-02  0.1078013E+00
         22   -1    0    0    0    0  0.00000000000E+00  0.00000000000E+00  0.41168478570E+03  0.41168478570E+03  0.00000000000E+00 0. -1.
         22   -1    0    0    0    0 -0.00000000000E+00 -0.00000000000E+00 -0.72091218992E+03  0.72091218992E+03  0.00000000000E+00 0.  1.
        -24    2    1    2    0    0  0.46107500506E+02 -0.65146847129E+02 -0.54141660685E+03  0.55321160413E+03  0.80877212327E+02 0.  0.
         25    2    1    2    0    0 -0.42311910488E+02  0.17502763064E+03 -0.84205582468E+02  0.23486442716E+03  0.12508297155E+03 0.  0.
         24    2    1    2    0    0 -0.37955900189E+01 -0.10988078351E+03  0.31639478509E+03  0.34452094433E+03  0.80627712105E+02 0.  0.
        -11    1    5    5    0    0 -0.29687250814E+02 -0.65848136206E+02  0.10779317678E+03  0.12975622861E+03  0.00000000000E+00 0.  1.
         12    1    5    5    0    0  0.25891660795E+02 -0.44032647301E+02  0.20860160831E+03  0.21476471572E+03  0.00000000000E+00 0. -1.
         11    1    3    3    0    0  0.50308046044E+01 -0.12357176194E+02 -0.78732592038E+01  0.15491836849E+02  0.00000000000E+00 0. -1.
        -12    1    3    3    0    0  0.41076695902E+02 -0.52789670935E+02 -0.53354334765E+03  0.53771976728E+03  0.00000000000E+00 0.  1.
          5    1    4    4  501    0 -0.53090844300E+02  0.13577259159E+03 -0.11327696217E+03  0.18466720590E+03  0.41800000000E+01 0. -1.
         -5    1    4    4    0  501  0.10778933813E+02  0.39255039049E+02  0.29071379704E+02  0.50197221266E+02  0.41800000000E+01 0. -1.
</event>
<event>
11    1  0.8037748E-009  0.1489602E+03  0.7561462E-02  0.1097946E+00
         22   -1    0    0    0    0  0.00000000000E+00  0.00000000000E+00  0.74720900126E+03  0.74720900126E+03  0.00000000000E+00 0. -1.
         22   -1    0    0    0    0 -0.00000000000E+00 -0.00000000000E+00 -0.19222371140E+04  0.19222371140E+04  0.00000000000E+00 0. -1.
        -24    2    1    2    0    0 -0.29740863645E+02 -0.75881130509E+02 -0.18337955933E+04  0.18373754417E+04  0.80621157350E+02 0.  0.
         25    2    1    2    0    0  0.33233725661E+02  0.52246622631E+02 -0.26171110787E+02  0.14200911530E+03  0.12508985447E+03 0.  0.
         24    2    1    2    0    0 -0.34928620156E+01  0.23634507878E+02  0.68493859128E+03  0.69006155827E+03  0.80456760619E+02 0.  0.
        -13    1    5    5    0    0 -0.18884626833E+02  0.16152006379E+02  0.60717160967E+02  0.65605564372E+02  0.00000000000E+00 0.  1.
         14    1    5    5    0    0  0.15391764817E+02  0.74825014995E+01  0.62422143032E+03  0.62445599390E+03  0.00000000000E+00 0. -1.
         13    1    3    3    0    0 -0.31931643434E+02 -0.71631558938E+02 -0.18287263020E+04  0.18304072218E+04  0.00000000000E+00 0. -1.
        -14    1    3    3    0    0  0.21907797893E+01 -0.42495715708E+01 -0.50692912903E+01  0.69682199166E+01  0.00000000000E+00 0.  1.
          5    1    4    4  501    0  0.19753449643E+02  0.66666362732E+02 -0.66885097099E+02  0.96569618963E+02  0.41800000000E+01 0. -1.
         -5    1    4    4    0  501  0.13480276017E+02 -0.14419740101E+02  0.40713986312E+02  0.45439496338E+02  0.41800000000E+01 0. -1.
</event>
<event>
11    1  0.8037748E-009  0.1676689E+03  0.7561462E-02  0.1080078E+00
         22   -1    0    0    0    0  0.00000000000E+00  0.00000000000E+00  0.47414122775E+03  0.47414122775E+03  0.00000000000E+00 0. -1.
         22   -1    0    0    0    0 -0.00000000000E+00 -0.00000000000E+00 -0.52886358203E+03  0.52886358203E+03  0.00000000000E+00 0.  1.
        -24    2    1    2    0    0 -0.10432760913E+03 -0.22235728830E+02 -0.39104137551E+03  0.41134497357E+03  0.70090314950E+02 0.  0.
         25    2    1    2    0    0  0.15734157961E+03 -0.97429509731E+01 -0.37197660423E+02  0.20465072112E+03  0.12508778497E+03 0.  0.
         24    2    1    2    0    0 -0.53013970476E+02  0.31978679803E+02  0.37351668167E+03  0.38700911509E+03  0.80176222499E+02 0.  0.
        -11    1    5    5    0    0  0.18489528537E+02 -0.20410511799E+01  0.38454100537E+02  0.42717050502E+02  0.00000000000E+00 0.  1.
         12    1    5    5    0    0 -0.71503499013E+02  0.34019730983E+02  0.33506258113E+03  0.34429206459E+03  0.00000000000E+00 0. -1.
         11    1    3    3    0    0 -0.23386488039E+02 -0.35696941179E+02 -0.95044166607E+02  0.10418537824E+03  0.00000000000E+00 0. -1.
        -12    1    3    3    0    0 -0.80941121092E+02  0.13461212348E+02 -0.29599720891E+03  0.30715959533E+03  0.00000000000E+00 0.  1.
          5    1    4    4  501    0  0.10019047554E+03 -0.19270493461E+02  0.38590021957E+02  0.10916109884E+03  0.41800000000E+01 0. -1.
         -5    1    4    4    0  501  0.57151104071E+02  0.95275424876E+01 -0.75787682380E+02  0.95489622279E+02  0.41800000000E+01 0. -1.
</event>
<event>
11    1  0.8037748E-009  0.1638742E+03  0.7561462E-02  0.1083489E+00
         22   -1    0    0    0    0  0.00000000000E+00  0.00000000000E+00  0.46392661948E+03  0.46392661948E+03  0.00000000000E+00 0. -1.
         22   -1    0    0    0    0 -0.00000000000E+00 -0.00000000000E+00 -0.94659002012E+02  0.94659002012E+02  0.00000000000E+00 0. -1.
         24    2    1    2    0    0 -0.40631220825E+02 -0.62297533620E+01  0.44738224497E+02  0.10155933391E+03  0.81382330029E+02 0.  0.
         25    2    1    2    0    0  0.12730712281E+03 -0.36059067431E+02  0.12398948285E+03  0.22029104080E+03  0.12508953168E+03 0.  0.
        -24    2    1    2    0    0 -0.86675901983E+02  0.42288820793E+02  0.20053991012E+03  0.23673524678E+03  0.80785302933E+02 0.  0.
        -13    1    3    3    0    0 -0.51658488271E+02  0.25362335564E+02  0.25327328532E+02  0.62875440724E+02  0.00000000000E+00 0.  1.
         14    1    3    3    0    0  0.11027267446E+02 -0.31592088926E+02  0.19410895965E+02  0.38683893189E+02  0.00000000000E+00 0. -1.
         11    1    5    5    0    0 -0.83267499025E+02  0.36806368259E+00  0.12323641341E+03  0.14873071457E+03  0.00000000000E+00 0. -1.
        -12    1    5    5    0    0 -0.34084029580E+01  0.41920757111E+02  0.77303496704E+02  0.88004532214E+02  0.00000000000E+00 0.  1.
          5    1    4    4  501    0 -0.17734867121E+02 -0.30690782392E+02  0.14905460128E+02  0.38679384396E+02  0.41800000000E+01 0.  1.
         -5    1    4    4    0  501  0.14504198993E+03 -0.53682850390E+01  0.10908402273E+03  0.18161165640E+03  0.41800000000E+01 0.  1.
</event>
<event>
11    1  0.8037748E-009  0.1444809E+03  0.7561462E-02  0.1102655E+00
         22   -1    0    0    0    0  0.00000000000E+00  0.00000000000E+00  0.41126462395E+03  0.41126462395E+03  0.00000000000E+00 0.  1.
         22   -1    0    0    0    0 -0.00000000000E+00 -0.00000000000E+00 -0.39038402352E+03  0.39038402352E+03  0.00000000000E+00 0. -1.
        -24    2    1    2    0    0  0.62701331468E+01  0.43417832170E+02 -0.32260825200E+03  0.33549741288E+03  0.80981522982E+02 0.  0.
         25    2    1    2    0    0  0.21805948434E+02  0.31194939472E+02  0.33654220819E+02  0.13501446474E+03  0.12509066902E+03 0.  0.
         24    2    1    2    0    0 -0.28076081581E+02 -0.74612771642E+02  0.30983463162E+03  0.33113676985E+03  0.85432601204E+02 0.  0.
        -13    1    5    5    0    0 -0.16611675249E+02 -0.15043097540E+02  0.22888411161E+03  0.22997864919E+03  0.00000000000E+00 0.  1.
         14    1    5    5    0    0 -0.11464406331E+02 -0.59569674102E+02  0.80950520010E+02  0.10115812066E+03  0.00000000000E+00 0. -1.
         11    1    3    3    0    0  0.12090613836E+02 -0.37343461555E+01 -0.23898831352E+03  0.23932309183E+03  0.00000000000E+00 0. -1.
        -12    1    3    3    0    0 -0.58204806895E+01  0.47152178326E+02 -0.83619938486E+02  0.96174321046E+02  0.00000000000E+00 0.  1.
          5    1    4    4  501    0 -0.20476146760E+02 -0.21609160824E+02 -0.29685874361E+02  0.42248691746E+02  0.41800000000E+01 0.  1.
         -5    1    4    4    0  501  0.42282095194E+02  0.52804100296E+02  0.63340095180E+02  0.92765772996E+02  0.41800000000E+01 0.  1.
</event>
<event>
11    1  0.8037748E-009  0.1410603E+03  0.7561462E-02  0.1106380E+00
         22   -1    0    0    0    0  0.00000000000E+00  0.00000000000E+00  0.99286246234E+03  0.99286246234E+03  0.00000000000E+00 0.  1.
         22   -1    0    0    0    0 -0.00000000000E+00 -0.00000000000E+00 -0.64653020797E+03  0.64653020797E+03  0.00000000000E+00 0. -1.
        -24    2    1    2    0    0  0.25894048309E+01  0.64592378009E+02 -0.58494254367E+03  0.59424773549E+03  0.82423973578E+02 0.  0.
         25    2    1    2    0    0 -0.16433097619E+02 -0.76263968994E+02  0.43800933151E+02  0.15379268440E+03  0.12508968129E+03 0.  0.
         24    2    1    2    0    0  0.13843692788E+02  0.11671590985E+02  0.88747386489E+03  0.89135225043E+03  0.81062319314E+02 0.  0.
        -13    1    5    5    0    0  0.42054489273E+02  0.77118724759E+01  0.73483561503E+03  0.73607841577E+03  0.00000000000E+00 0.  1.
         14    1    5    5    0    0 -0.28210796485E+02  0.39597185089E+01  0.15263824986E+03  0.15527383466E+03  0.00000000000E+00 0. -1.
         11    1    3    3    0    0  0.17820127467E+02  0.16277725216E+02 -0.44083915767E+03  0.44149935925E+03  0.00000000000E+00 0. -1.
        -12    1    3    3    0    0 -0.15230722637E+02  0.48314652793E+02 -0.14410338600E+03  0.15274837624E+03  0.00000000000E+00 0.  1.
          5    1    4    4  501    0  0.50173518798E+02 -0.23500747410E+02 -0.48763352876E+01  0.55775605450E+02  0.41800000000E+01 0. -1.
         -5    1    4    4    0  501 -0.66606616417E+02 -0.52763221584E+02  0.48677268439E+02  0.98017078946E+02  0.41800000000E+01 0. -1.
</event>
<event>
11    1  0.8037748E-009  0.1323044E+03  0.7561462E-02  0.1116470E+00
         22   -1    0    0    0    0  0.00000000000E+00  0.00000000000E+00  0.17295364185E+04  0.17295364185E+04  0.00000000000E+00 0. -1.
         22   -1    0    0    0    0 -0.00000000000E+00 -0.00000000000E+00 -0.55422329654E+02  0.55422329654E+02  0.00000000000E+00 0.  1.
        -24    2    1    2    0    0 -0.54066612207E+02  0.30583563639E+02  0.36739578386E+02  0.11203596591E+03  0.85695438139E+02 0.  0.
         25    2    1    2    0    0  0.60128766436E+02  0.14297514677E+02  0.29519033383E+03  0.32650390160E+03  0.12509027577E+03 0.  0.
         24    2    1    2    0    0 -0.60621542289E+01 -0.44881078316E+02  0.13421841766E+04  0.13464188806E+04  0.96614580968E+02 0.  0.
        -11    1    5    5    0    0  0.69332591132E+01 -0.29550331774E+02  0.11112706939E+03  0.11519773323E+03  0.00000000000E+00 0.  1.
         12    1    5    5    0    0 -0.12995413342E+02 -0.15330746542E+02  0.12310571072E+04  0.12312211474E+04  0.00000000000E+00 0. -1.
         11    1    3    3    0    0 -0.14914380053E+02  0.12802088828E+02  0.60006766728E+02  0.63143837893E+02  0.00000000000E+00 0. -1.
        -12    1    3    3    0    0 -0.39152232154E+02  0.17781474811E+02 -0.23267188342E+02  0.48892128021E+02  0.00000000000E+00 0.  1.
          5    1    4    4  501    0  0.98298688813E+02 -0.38464851902E+00  0.20518172861E+03  0.22755173990E+03  0.41800000000E+01 0. -1.
         -5    1    4    4    0  501 -0.38169922378E+02  0.14682163196E+02  0.90008605218E+02  0.98952161693E+02  0.41800000000E+01 0. -1.
</event>
<event>
11    1  0.8037748E-009  0.1345828E+03  0.7561462E-02  0.1113763E+00
         22   -1    0    0    0    0  0.00000000000E+00  0.00000000000E+00  0.29010180694E+03  0.29010180694E+03  0.00000000000E+00 0. -1.
         22   -1    0    0    0    0 -0.00000000000E+00 -0.00000000000E+00 -0.83693938212E+03  0.83693938212E+03  0.00000000000E+00 0.  1.
         24    2    1    2    0    0  0.37358199569E+02  0.34574281083E+02 -0.77576258032E+03  0.78152422644E+03  0.79884413397E+02 0.  0.
         25    2    1    2    0    0  0.11451830661E+02 -0.27927399084E+02  0.40173709213E+02  0.13481453520E+03  0.12509975197E+03 0.  0.
        -24    2    1    2    0    0 -0.48810030230E+02 -0.66468819993E+01  0.18875129593E+03  0.21070242742E+03  0.79635802955E+02 0.  0.
        -11    1    3    3    0    0  0.21323902575E+02  0.60162837976E+02 -0.48038372790E+03  0.48460582118E+03  0.00000000000E+00 0.  1.
         12    1    3    3    0    0  0.16034296994E+02 -0.25588556894E+02 -0.29537885242E+03  0.29691840526E+03  0.00000000000E+00 0. -1.
         11    1    5    5    0    0 -0.19788468767E+02 -0.40496272419E+00  0.17805077134E+03  0.17914749417E+03  0.00000000000E+00 0. -1.
        -12    1    5    5    0    0 -0.29021561462E+02 -0.62419192751E+01  0.10700524591E+02  0.31554933251E+02  0.00000000000E+00 0.  1.
          5    1    4    4  501    0  0.20102597406E+01 -0.25915381226E+02  0.84889354344E+02  0.88878135721E+02  0.41800000000E+01 0. -1.
         -5    1    4    4    0  501  0.94415709201E+01 -0.20120178574E+01 -0.44715645131E+02  0.45936399476E+02  0.41800000000E+01 0. -1.
</event>
<event>
11    1  0.8037748E-009  0.1381163E+03  0.7561462E-02  0.1109680E+00
         22   -1    0    0    0    0  0.00000000000E+00  0.00000000000E+00  0.20385355037E+03  0.20385355037E+03  0.00000000000E+00 0. -1.
         22   -1    0    0    0    0 -0.00000000000E+00 -0.00000000000E+00 -0.44024268224E+03  0.44024268224E+03  0.00000000000E+00 0.  1.
         24    2    1    2    0    0 -0.16293051628E+02  0.52246724477E+02 -0.25639280751E+03  0.27419243298E+03  0.80305882776E+02 0.  0.
         25    2    1    2    0    0  0.68532480826E+02 -0.51708484849E+02 -0.12419552195E+03  0.19606537848E+03  0.12508651659E+03 0.  0.
        -24    2    1    2    0    0 -0.52239429198E+02 -0.53823962857E+00  0.14419919759E+03  0.17383842116E+03  0.81836058188E+02 0.  0.
        -13    1    3    3    0    0  0.23097336658E+02  0.44999639385E+02 -0.91967038155E+02  0.10495899491E+03  0.00000000000E+00 0.  1.
         14    1    3    3    0    0 -0.39390388286E+02  0.72470850919E+01 -0.16442576936E+03  0.16923343807E+03  0.00000000000E+00 0. -1.
         13    1    5    5    0    0 -0.52225233180E+02 -0.27103712756E+02  0.13217174004E+03  0.14467707175E+03  0.00000000000E+00 0. -1.
        -14    1    5    5    0    0 -0.14196018553E-01  0.26565473128E+02  0.12027457554E+02  0.29161349407E+02  0.00000000000E+00 0.  1.
          5    1    4    4  501    0  0.65409715280E+02 -0.44615804681E+02 -0.14952671294E+03  0.16924748495E+03  0.41800000000E+01 0. -1.
         -5    1    4    4    0  501  0.31227655469E+01 -0.70926801674E+01  0.25331190985E+02  0.26817893529E+02  0.41800000000E+01 0. -1.
</event>
<event>
11    1  0.8037748E-009  0.1709231E+03  0.7561462E-02  0.1077231E+00
         22   -1    0    0    0    0  0.00000000000E+00  0.00000000000E+00  0.75431310143E+03  0.75431310143E+03  0.00000000000E+00 0. -1.
         22   -1    0    0    0    0 -0.00000000000E+00 -0.00000000000E+00 -0.93285532938E+03  0.93285532938E+03  0.00000000000E+00 0.  1.
         24    2    1    2    0    0  0.45195391167E+02  0.10511400890E+03 -0.85173449402E+03  0.86309700494E+03  0.79957572415E+02 0.  0.
         25    2    1    2    0    0 -0.12429998965E+03 -0.14981999272E+03  0.12577834003E+03  0.26336992513E+03  0.12508800500E+03 0.  0.
        -24    2    1    2    0    0  0.79104598487E+02  0.44705983818E+02  0.54741392604E+03  0.56070150073E+03  0.80423902020E+02 0.  0.
        -13    1    3    3    0    0  0.40140784365E+02  0.33331815512E+02 -0.17682388226E+03  0.18436099867E+03  0.00000000000E+00 0.  1.
         14    1    3    3    0    0  0.50546068017E+01  0.71782193390E+02 -0.67491061176E+03  0.67873600627E+03  0.00000000000E+00 0. -1.
         11    1    5    5    0    0  0.46386818401E+02  0.63969646083E+02  0.43304172143E+03  0.44019198657E+03  0.00000000000E+00 0. -1.
        -12    1    5    5    0    0  0.32717780087E+02 -0.19263662265E+02  0.11437220461E+03  0.12050951417E+03  0.00000000000E+00 0.  1.
          5    1    4    4  501    0 -0.40782738966E+02 -0.14116241804E+03  0.86742308530E+02  0.17068028753E+03  0.41800000000E+01 0.  1.
         -5    1    4    4    0  501 -0.83517250688E+02 -0.86575746843E+01  0.39036031503E+02  0.92689637595E+02  0.41800000000E+01 0.  1.
</event>
<event>
11    1  0.8037748E-009  0.1402936E+03  0.7561462E-02  0.1107231E+00
         22   -1    0    0    0    0  0.00000000000E+00  0.00000000000E+00  0.39414556895E+03  0.39414556895E+03  0.00000000000E+00 0. -1.
         22   -1    0    0    0    0 -0.00000000000E+00 -0.00000000000E+00 -0.11528860587E+04  0.11528860587E+04  0.00000000000E+00 0. -1.
        -24    2    1    2    0    0  0.85649140140E+01  0.63702713477E+02 -0.10497904018E+04  0.10547950997E+04  0.80008881774E+02 0.  0.
         25    2    1    2    0    0  0.27832333308E+02 -0.52166478439E+02 -0.45890173909E+02  0.14577160401E+03  0.12508985660E+03 0.  0.
         24    2    1    2    0    0 -0.36397247322E+02 -0.11536235037E+02  0.33694008596E+03  0.34646492396E+03  0.71073748142E+02 0.  0.
        -13    1    5    5    0    0 -0.39997034832E+02  0.19755511456E+02  0.13757217427E+03  0.14462415483E+03  0.00000000000E+00 0.  1.
         14    1    5    5    0    0  0.35997875097E+01 -0.31291746493E+02  0.19936791169E+03  0.20184076912E+03  0.00000000000E+00 0. -1.
         13    1    3    3    0    0  0.27780285741E+02  0.61344905578E+02 -0.98167204713E+03  0.98397914096E+03  0.00000000000E+00 0. -1.
        -14    1    3    3    0    0 -0.19215371727E+02  0.23578078989E+01 -0.68118354648E+02  0.70815958714E+02  0.00000000000E+00 0.  1.
          5    1    4    4  501    0 -0.39308992687E+02  0.38997794913E+01  0.11154183211E+02  0.41258858312E+02  0.41800000000E+01 0.  1.
         -5    1    4    4    0  501  0.67141325995E+02 -0.56066257931E+02 -0.57044357120E+02  0.10451274570E+03  0.41800000000E+01 0.  1.
</event>
<event>
11    1  0.8037748E-009  0.1456123E+03  0.7561462E-02  0.1101448E+00
         22   -1    0    0    0    0  0.00000000000E+00  0.00000000000E+00  0.12562191653E+04  0.12562191653E+04  0.00000000000E+00 0.  1.
         22   -1    0    0    0    0 -0.00000000000E+00 -0.00000000000E+00 -0.65364562195E+03  0.65364562195E+03  0.00000000000E+00 0.  1.
        -24    2    1    2    0    0  0.14747889587E+02 -0.43309384693E+02 -0.62724336043E+03  0.63384459552E+03  0.78940072299E+02 0.  0.
         25    2    1    2    0    0  0.41972343525E+02 -0.13065490988E+02  0.19961129857E+03  0.23963362894E+03  0.12508885212E+03 0.  0.
         24    2    1    2    0    0 -0.56720233112E+02  0.56374875681E+02  0.10302056053E+04  0.10363865628E+04  0.79863677999E+02 0.  0.
        -13    1    5    5    0    0  0.21188423507E+01  0.51731858319E+01  0.53883342864E+03  0.53886242694E+03  0.00000000000E+00 0.  1.
         14    1    5    5    0    0 -0.58839075463E+02  0.51201689849E+02  0.49137217662E+03  0.49752413590E+03  0.00000000000E+00 0. -1.
         11    1    3    3    0    0 -0.14241218482E+02 -0.27656278572E+02 -0.83536310200E+02  0.89140322919E+02  0.00000000000E+00 0. -1.
        -12    1    3    3    0    0  0.28989108069E+02 -0.15653106121E+02 -0.54370705023E+03  0.54470427260E+03  0.00000000000E+00 0.  1.
          5    1    4    4  501    0  0.74335674354E+02  0.10125252681E+02  0.65516572339E+02  0.99690555594E+02  0.41800000000E+01 0.  1.
         -5    1    4    4    0  501 -0.32363330829E+02 -0.23190743669E+02  0.13409472623E+03  0.13994307335E+03  0.41800000000E+01 0.  1.
</event>
<event>
11    1  0.8037748E-009  0.1466460E+03  0.7561462E-02  0.1100356E+00
         22   -1    0    0    0    0  0.00000000000E+00  0.00000000000E+00  0.13831953193E+04  0.13831953193E+04  0.00000000000E+00 0.  1.
         22   -1    0    0    0    0 -0.00000000000E+00 -0.00000000000E+00 -0.10673008613E+04  0.10673008613E+04  0.00000000000E+00 0. -1.
         24    2    1    2    0    0  0.14751348521E+02 -0.74720029096E+02 -0.10435686237E+04  0.10493112936E+04  0.78854508253E+02 0.  0.
         25    2    1    2    0    0 -0.34037356914E+02  0.13785159737E+03  0.48862749453E+03  0.52399068313E+03  0.12509117888E+03 0.  0.
        -24    2    1    2    0    0  0.19286008393E+02 -0.63131568274E+02  0.87083558712E+03  0.87719420386E+03  0.82204053806E+02 0.  0.
        -13    1    3    3    0    0  0.33446708203E+02 -0.92242779411E+00 -0.30545770426E+03  0.30728479015E+03  0.00000000000E+00 0.  1.
         14    1    3    3    0    0 -0.18695359682E+02 -0.73797601302E+02 -0.73811091945E+03  0.74202650346E+03  0.00000000000E+00 0. -1.
         11    1    5    5    0    0 -0.31473810312E+02 -0.26561103694E+02  0.42496232991E+03  0.42695324663E+03  0.00000000000E+00 0. -1.
        -12    1    5    5    0    0  0.50759818705E+02 -0.36570464580E+02  0.44587325721E+03  0.45024095723E+03  0.00000000000E+00 0.  1.
          5    1    4    4  501    0  0.21572779911E+02  0.98895414156E+02  0.39789341498E+03  0.41058778581E+03  0.41800000000E+01 0. -1.
         -5    1    4    4    0  501 -0.55610136825E+02  0.38956183214E+02  0.90734079553E+02  0.11340289732E+03  0.41800000000E+01 0. -1.
</event>
<event>
11    1  0.8037748E-009  0.2373402E+03  0.7561462E-02  0.1030868E+00
         22   -1    0    0    0    0  0.00000000000E+00  0.00000000000E+00  0.80435960839E+03  0.80435960839E+03  0.00000000000E+00 0. -1.
         22   -1    0    0    0    0 -0.00000000000E+00 -0.00000000000E+00 -0.12607856110E+04  0.12607856110E+04  0.00000000000E+00 0. -1.
         24    2    1    2    0    0 -0.58325037717E+02 -0.15884616069E+02 -0.11648468402E+04  0.11692002758E+04  0.80665932324E+02 0.  0.
         25    2    1    2    0    0  0.22660841952E+03  0.10253115954E+03  0.18744124080E+03  0.33562692408E+03  0.12508876425E+03 0.  0.
        -24    2    1    2    0    0 -0.16828338180E+03 -0.86646543475E+02  0.52097959678E+03  0.56031801957E+03  0.81912286683E+02 0.  0.
        -13    1    3    3    0    0 -0.11674577284E+02  0.10871633844E+02 -0.39931253085E+02  0.42999920351E+02  0.00000000000E+00 0.  1.
         14    1    3    3    0    0 -0.46650460433E+02 -0.26756249913E+02 -0.11249155871E+04  0.11262003554E+04  0.00000000000E+00 0. -1.
         11    1    5    5    0    0 -0.12686193653E+03 -0.88409092821E+02  0.46897871845E+03  0.49381287650E+03  0.00000000000E+00 0. -1.
        -12    1    5    5    0    0 -0.41421445268E+02  0.17625493460E+01  0.52000878321E+02  0.66505143068E+02  0.00000000000E+00 0.  1.
          5    1    4    4  501    0  0.69643562945E+02 -0.13616395805E+02  0.10066152070E+02  0.71794372425E+02  0.41800000000E+01 0.  1.
         -5    1    4    4    0  501  0.15696485657E+03  0.11614755535E+03  0.17737508872E+03  0.26383255166E+03  0.41800000000E+01 0.  1.
</event>
<event>
11    1  0.8037748E-009  0.1456364E+03  0.7561462E-02  0.1101423E+00
         22   -1    0    0    0    0  0.00000000000E+00  0.00000000000E+00  0.43459864046E+03  0.43459864046E+03  0.00000000000E+00 0.  1.
         22   -1    0    0    0    0 -0.00000000000E+00 -0.00000000000E+00 -0.38012188092E+03  0.38012188092E+03  0.00000000000E+00 0.  1.
         24    2    1    2    0    0 -0.39091706318E+02 -0.63547144044E+02 -0.33464515906E+03  0.35182366935E+03  0.78905708351E+02 0.  0.
         25    2    1    2    0    0  0.37268015853E+02  0.63947707828E+02  0.13448927872E+03  0.19802430307E+03  0.12509214274E+03 0.  0.
        -24    2    1    2    0    0  0.18236904647E+01 -0.40056378369E+00  0.25463263988E+03  0.26487254895E+03  0.72912273285E+02 0.  0.
        -11    1    3    3    0    0  0.19112036924E+02 -0.32057897651E+02 -0.17628652169E+03  0.18019410780E+03  0.00000000000E+00 0.  1.
         12    1    3    3    0    0 -0.58203743242E+02 -0.31489246393E+02 -0.15835863737E+03  0.17162956155E+03  0.00000000000E+00 0. -1.
         11    1    5    5    0    0 -0.76047525714E+00  0.34023039815E+02  0.81291276017E+02  0.88127277942E+02  0.00000000000E+00 0. -1.
        -12    1    5    5    0    0  0.25841657219E+01 -0.34423603599E+02  0.17334136386E+03  0.17674527101E+03  0.00000000000E+00 0.  1.
          5    1    4    4  501    0  0.18896571929E+02  0.85095605969E+02  0.14380070503E+03  0.16820956498E+03  0.41800000000E+01 0.  1.
         -5    1    4    4    0  501  0.18371443924E+02 -0.21147898141E+02 -0.93114263020E+01  0.29814738091E+02  0.41800000000E+01 0.  1.
</event>
<event>
11    1  0.8037748E-009  0.1488102E+03  0.7561462E-02  0.1098101E+00
         22   -1    0    0    0    0  0.00000000000E+00  0.00000000000E+00  0.40840890738E+03  0.40840890738E+03  0.00000000000E+00 0. -1.
         22   -1    0    0    0    0 -0.00000000000E+00 -0.00000000000E+00 -0.99177927773E+03  0.99177927773E+03  0.00000000000E+00 0. -1.
        -24    2    1    2    0    0 -0.36699635037E+02  0.24761768525E+02 -0.94239677201E+03  0.94690262340E+03  0.80949947027E+02 0.  0.
         25    2    1    2    0    0  0.25826890763E+02 -0.98007164411E+02  0.16238939818E+03  0.22867398253E+03  0.12509612736E+03 0.  0.
         24    2    1    2    0    0  0.10872744274E+02  0.73245395886E+02  0.19663700348E+03  0.22461157917E+03  0.79379756710E+02 0.  0.
        -11    1    5    5    0    0 -0.19420747498E+02  0.82925227336E+00  0.90710932507E+02  0.92770288180E+02  0.00000000000E+00 0.  1.
         12    1    5    5    0    0  0.30293491771E+02  0.72416143613E+02  0.10592607097E+03  0.13184129099E+03  0.00000000000E+00 0. -1.
         11    1    3    3    0    0 -0.26273146950E+02  0.69821575626E+00 -0.86067017679E+03  0.86107137856E+03  0.00000000000E+00 0. -1.
        -12    1    3    3    0    0 -0.10426488086E+02  0.24063552768E+02 -0.81726595214E+02  0.85831244841E+02  0.00000000000E+00 0.  1.
          5    1    4    4  501    0 -0.42401298757E+02 -0.43557707734E+01  0.27943800788E+02  0.51138745368E+02  0.41800000000E+01 0. -1.
         -5    1    4    4    0  501  0.68228189520E+02 -0.93651393638E+02  0.13444559739E+03  0.17753523716E+03  0.41800000000E+01 0. -1.
</event>
<event>
11    1  0.8037748E-009  0.1286949E+03  0.7561462E-02  0.1120883E+00
         22   -1    0    0    0    0  0.00000000000E+00  0.00000000000E+00  0.58385833439E+03  0.58385833439E+03  0.00000000000E+00 0. -1.
         22   -1    0    0    0    0 -0.00000000000E+00 -0.00000000000E+00 -0.18922132476E+03  0.18922132476E+03  0.00000000000E+00 0. -1.
         24    2    1    2    0    0 -0.21281616970E+02 -0.10073671455E+02 -0.14567715871E+03  0.16727541789E+03  0.78770837134E+02 0.  0.
         25    2    1    2    0    0  0.21607031838E+01 -0.16745849823E+02  0.11188814366E+03  0.16867621988E+03  0.12509044063E+03 0.  0.
        -24    2    1    2    0    0  0.19120913786E+02  0.26819521278E+02  0.42842602468E+03  0.43712802138E+03  0.80294161639E+02 0.  0.
        -13    1    3    3    0    0  0.23957559519E+02  0.15378951379E+02 -0.35681020765E+02  0.45646599506E+02  0.00000000000E+00 0.  1.
         14    1    3    3    0    0 -0.45239176489E+02 -0.25452622835E+02 -0.10999613794E+03  0.12162881838E+03  0.00000000000E+00 0. -1.
         13    1    5    5    0    0 -0.31028125692E+02  0.17992194286E+02  0.17681762670E+03  0.18041878159E+03  0.00000000000E+00 0. -1.
        -14    1    5    5    0    0  0.50149039478E+02  0.88273269921E+01  0.25160839798E+03  0.25670923979E+03  0.00000000000E+00 0.  1.
          5    1    4    4  501    0  0.55688743044E+02  0.34216548672E+01  0.18216847348E+02  0.58841054980E+02  0.41800000000E+01 0.  1.
         -5    1    4    4    0  501 -0.53528039860E+02 -0.20167504690E+02  0.93671296313E+02  0.10983516490E+03  0.41800000000E+01 0.  1.
</event>
<event>
11    1  0.8222605E-009  0.1676883E+03  0.7561462E-02  0.1080061E+00
         22   -1    0    0    0    0  0.00000000000E+00  0.00000000000E+00  0.21783279010E+04  0.21783279010E+04  0.00000000000E+00 0.  1.
         22   -1    0    0    0    0 -0.00000000000E+00 -0.00000000000E+00 -0.17667942828E+04  0.17667942828E+04  0.00000000000E+00 0.  1.
        -24    2    1    2    0    0 -0.60690191995E+01 -0.41540243712E+02 -0.16318129665E+04  0.16343333645E+04  0.80433599862E+02 0.  0.
         25    2    1    2    0    0  0.98181498192E+02  0.10384906671E+03 -0.62914750522E+02  0.20007362524E+03  0.12508778694E+03 0.  0.
         24    2    1    2    0    0 -0.92112478993E+02 -0.62308822993E+02  0.21062613353E+04  0.21107151941E+04  0.80091946074E+02 0.  0.
        -13    1    5    5    0    0 -0.78627590756E+02 -0.77316896858E+02  0.19559112956E+04  0.19590174059E+04  0.00000000000E+00 0.  1.
         14    1    5    5    0    0 -0.13484888236E+02  0.15008073865E+02  0.15035003970E+03  0.15169778815E+03  0.00000000000E+00 0. -1.
         11    1    3    3    0    0 -0.19902816397E+02  0.69171615673E+01 -0.13175670831E+03  0.13343087877E+03  0.00000000000E+00 0. -1.
        -12    1    3    3    0    0  0.13833797198E+02 -0.48457405280E+02 -0.15000562582E+04  0.15009024858E+04  0.00000000000E+00 0.  1.
          5    1    4    4  501    0  0.78464413339E+02  0.10452044401E+03  0.33534796134E+01  0.13080483784E+03  0.41800000000E+01 0. -1.
         -5    1    4    4    0  501  0.19717084854E+02 -0.67137730866E+00 -0.66268230135E+02  0.69268787400E+02  0.41800000000E+01 0. -1.
</event>
<event>
11    1  0.8037748E-009  0.1368482E+03  0.7561462E-02  0.1111130E+00
         22   -1    0    0    0    0  0.00000000000E+00  0.00000000000E+00  0.48648085912E+02  0.48648085912E+02  0.00000000000E+00 0.  1.
         22   -1    0    0    0    0 -0.00000000000E+00 -0.00000000000E+00 -0.91751255260E+03  0.91751255260E+03  0.00000000000E+00 0.  1.
         24    2    1    2    0    0 -0.15153429916E+02  0.57953470011E+02 -0.54526387249E+03  0.55444210532E+03  0.80654363683E+02 0.  0.
         25    2    1    2    0    0  0.52087786227E+02 -0.23201138287E+02 -0.26631979075E+03  0.29970730912E+03  0.12508720920E+03 0.  0.
        -24    2    1    2    0    0 -0.36934356311E+02 -0.34752331725E+02 -0.57280803444E+02  0.11201122407E+03  0.81814134706E+02 0.  0.
        -13    1    3    3    0    0  0.35976146859E+01  0.42409156247E+02 -0.50888981515E+03  0.51066654808E+03  0.00000000000E+00 0.  1.
         14    1    3    3    0    0 -0.18751044602E+02  0.15544313764E+02 -0.36374057343E+02  0.43775557240E+02  0.00000000000E+00 0. -1.
         13    1    5    5    0    0 -0.30296260259E+02 -0.28357602538E+02 -0.78546182388E+02  0.88834226372E+02  0.00000000000E+00 0. -1.
        -14    1    5    5    0    0 -0.66380960522E+01 -0.63947291867E+01  0.21265378944E+02  0.23176997696E+02  0.00000000000E+00 0.  1.
          5    1    4    4  501    0  0.91651271532E+02 -0.16282450159E+02 -0.15008530771E+03  0.17665827393E+03  0.41800000000E+01 0. -1.
         -5    1    4    4    0  501 -0.39563485306E+02 -0.69186881272E+01 -0.11623448304E+03  0.12304903520E+03  0.41800000000E+01 0. -1.
</event>
<event>
11    1  0.8037748E-009  0.1617428E+03  0.7561462E-02  0.1085449E+00
         22   -1    0    0    0    0  0.00000000000E+00  0.00000000000E+00  0.27683392483E+04  0.27683392483E+04  0.00000000000E+00 0. -1.
         22   -1    0    0    0    0 -0.00000000000E+00 -0.00000000000E+00 -0.97397571116E+03  0.97397571116E+03  0.00000000000E+00 0.  1.
        -24    2    1    2    0    0  0.41990355614E+02  0.90598574740E+01 -0.95209530995E+03  0.95652801093E+03  0.81333175806E+02 0.  0.
         25    2    1    2    0    0 -0.68454263215E+02 -0.10619634207E+03  0.42421376710E+03  0.45996573577E+03  0.12509000226E+03 0.  0.
         24    2    1    2    0    0  0.26463907601E+02  0.97136484600E+02  0.23222450800E+04  0.23258212127E+04  0.80537364492E+02 0.  0.
        -13    1    5    5    0    0  0.31595951858E+02  0.34656839299E+02  0.43224343277E+03  0.43478015807E+03  0.00000000000E+00 0.  1.
         14    1    5    5    0    0 -0.51320442574E+01  0.62479645301E+02  0.18900016472E+04  0.18910410547E+04  0.00000000000E+00 0. -1.
         13    1    3    3    0    0  0.34722427372E+01  0.37087036738E+02 -0.24342188866E+03  0.24625539719E+03  0.00000000000E+00 0. -1.
        -14    1    3    3    0    0  0.38518112877E+02 -0.28027179264E+02 -0.70867342129E+03  0.71027261375E+03  0.00000000000E+00 0.  1.
          5    1    4    4  501    0  0.10834018674E+02 -0.71300884977E+02  0.93998680771E+02  0.11855132452E+03  0.41800000000E+01 0. -1.
         -5    1    4    4    0  501 -0.79288281889E+02 -0.34895457097E+02  0.33021508633E+03  0.34141441125E+03  0.41800000000E+01 0. -1.
</event>
<event>
11    1  0.8037748E-009  0.1877560E+03  0.7561462E-02  0.1063536E+00
         22   -1    0    0    0    0  0.00000000000E+00  0.00000000000E+00  0.21583730581E+03  0.21583730581E+03  0.00000000000E+00 0.  1.
         22   -1    0    0    0    0 -0.00000000000E+00 -0.00000000000E+00 -0.57880398655E+03  0.57880398655E+03  0.00000000000E+00 0.  1.
        -24    2    1    2    0    0  0.62902739666E+01 -0.91833313852E+02 -0.39593626985E+03  0.41439072826E+03  0.80506029612E+02 0.  0.
         25    2    1    2    0    0  0.13503044069E+03  0.50212439145E+02 -0.44684616941E+02  0.19594438059E+03  0.12507188467E+03 0.  0.
         24    2    1    2    0    0 -0.14132071466E+03  0.41620874707E+02  0.77654206048E+02  0.18430618352E+03  0.78960445576E+02 0.  0.
        -11    1    5    5    0    0 -0.10070764468E+03  0.22147773239E+02  0.10776530951E+02  0.10367587557E+03  0.00000000000E+00 0.  1.
         12    1    5    5    0    0 -0.40613069975E+02  0.19473101468E+02  0.66877675097E+02  0.80630307949E+02  0.00000000000E+00 0. -1.
         13    1    3    3    0    0 -0.15809180362E+02 -0.65990950855E+02 -0.35378517952E+03  0.36023421413E+03  0.00000000000E+00 0. -1.
        -14    1    3    3    0    0  0.22099454328E+02 -0.25842362997E+02 -0.42151090324E+02  0.54156514127E+02  0.00000000000E+00 0.  1.
          5    1    4    4  501    0  0.13948383534E+03  0.64490497488E+00 -0.22720225047E+02  0.14138542093E+03  0.41800000000E+01 0.  1.
         -5    1    4    4    0  501 -0.44533946554E+01  0.49567534170E+02 -0.21964391893E+02  0.54558959657E+02  0.41800000000E+01 0.  1.
</event>
<event>
11    1  0.8037748E-009  0.1494158E+03  0.7561462E-02  0.1097477E+00
         22   -1    0    0    0    0  0.00000000000E+00  0.00000000000E+00  0.11417789666E+04  0.11417789666E+04  0.00000000000E+00 0.  1.
         22   -1    0    0    0    0 -0.00000000000E+00 -0.00000000000E+00 -0.90020212088E+03  0.90020212088E+03  0.00000000000E+00 0.  1.
        -24    2    1    2    0    0 -0.19879812115E+02 -0.10976586943E+02 -0.85664985273E+03  0.86067120562E+03  0.79939111897E+02 0.  0.
         25    2    1    2    0    0  0.96106421193E+02  0.34960389586E+02  0.13279080006E+03  0.20914046009E+03  0.12509061688E+03 0.  0.
         24    2    1    2    0    0 -0.76226609078E+02 -0.23983802644E+02  0.96543589836E+03  0.97216942174E+03  0.81616125927E+02 0.  0.
        -13    1    5    5    0    0 -0.80856573515E+02 -0.32546018646E+02  0.94952619605E+03  0.95351823569E+03  0.00000000000E+00 0.  1.
         14    1    5    5    0    0  0.46299644371E+01  0.85622160023E+01  0.15909702304E+02  0.18651186047E+02  0.00000000000E+00 0. -1.
         13    1    3    3    0    0 -0.12560688254E+02 -0.20419405961E+00 -0.18167942089E+02  0.22088157559E+02  0.00000000000E+00 0. -1.
        -14    1    3    3    0    0 -0.73191238610E+01 -0.10772392883E+02 -0.83848191064E+03  0.83858304806E+03  0.00000000000E+00 0.  1.
          5    1    4    4  501    0  0.10024179028E+03  0.71916885734E+02  0.93291727516E+02  0.15472967975E+03  0.41800000000E+01 0.  1.
         -5    1    4    4    0  501 -0.41353690891E+01 -0.36956496148E+02  0.39499072545E+02  0.54410780337E+02  0.41800000000E+01 0.  1.
</event>
<event>
11    1  0.8037748E-009  0.1985230E+03  0.7561462E-02  0.1055573E+00
         22   -1    0    0    0    0  0.00000000000E+00  0.00000000000E+00  0.14505789962E+04  0.14505789962E+04  0.00000000000E+00 0.  1.
         22   -1    0    0    0    0 -0.00000000000E+00 -0.00000000000E+00 -0.10047144396E+04  0.10047144396E+04  0.00000000000E+00 0. -1.
        -24    2    1    2    0    0 -0.49802690013E+02 -0.16573485734E+03 -0.78112178351E+03  0.80400308431E+03  0.79507031427E+02 0.  0.
         25    2    1    2    0    0  0.66931878340E+02  0.83677003255E+02 -0.17747109413E+03  0.24212497310E+03  0.12508715414E+03 0.  0.
         24    2    1    2    0    0 -0.17129188326E+02  0.82057854089E+02  0.14044574342E+04  0.14091653785E+04  0.78863672421E+02 0.  0.
        -11    1    5    5    0    0 -0.22288378020E+02  0.96529927188E+02  0.11583479491E+04  0.11625767801E+04  0.00000000000E+00 0.  1.
         12    1    5    5    0    0  0.51591896940E+01 -0.14472073098E+02  0.24610948516E+03  0.24658859832E+03  0.00000000000E+00 0. -1.
         13    1    3    3    0    0 -0.70627090137E+02 -0.13756440331E+03 -0.66309881361E+03  0.68089073097E+03  0.00000000000E+00 0. -1.
        -14    1    3    3    0    0  0.20824400123E+02 -0.28170454036E+02 -0.11802296990E+03  0.12311235334E+03  0.00000000000E+00 0.  1.
          5    1    4    4  501    0  0.56757407782E+02  0.10033204606E+03 -0.18722790777E+03  0.21990835512E+03  0.41800000000E+01 0. -1.
         -5    1    4    4    0  501  0.10174470558E+02 -0.16655042800E+02  0.97568136393E+01  0.22216617974E+02  0.41800000000E+01 0. -1.
</event>
<event>
11    1  0.8037748E-009  0.6551519E+03  0.7561462E-02  0.9101137E-01
         22   -1    0    0    0    0  0.00000000000E+00  0.00000000000E+00  0.18781459121E+04  0.18781459121E+04  0.00000000000E+00 0.  1.
         22   -1    0    0    0    0 -0.00000000000E+00 -0.00000000000E+00 -0.27251499293E+03  0.27251499293E+03  0.00000000000E+00 0.  1.
         24    2    1    2    0    0 -0.12534204292E+03 -0.64229615523E+03  0.62397394661E+03  0.90768680454E+03  0.79352821856E+02 0.  0.
         25    2    1    2    0    0  0.41380331303E+02  0.63073448556E+03  0.82832047440E+03  0.10494285509E+04  0.12508857670E+03 0.  0.
        -24    2    1    2    0    0  0.83961711621E+02  0.11561669671E+02  0.15333649818E+03  0.19354554961E+03  0.82246926246E+02 0.  0.
        -13    1    3    3    0    0 -0.11298880860E+03 -0.61639120271E+03  0.61393964996E+03  0.87728357983E+03  0.00000000000E+00 0.  1.
         14    1    3    3    0    0 -0.12353234328E+02 -0.25904952527E+02  0.10034296655E+02  0.30403224717E+02  0.00000000000E+00 0. -1.
         13    1    5    5    0    0  0.32678118871E+02 -0.25876395519E+02  0.10731608321E+03  0.11512683881E+03  0.00000000000E+00 0. -1.
        -14    1    5    5    0    0  0.51283592750E+02  0.37438065191E+02  0.46020414970E+02  0.78418710807E+02  0.00000000000E+00 0.  1.
          5    1    4    4  501    0  0.65784259767E+02  0.53630647003E+03  0.64235803906E+03  0.83940069179E+03  0.41800000000E+01 0. -1.
         -5    1    4    4    0  501 -0.24403928465E+02  0.94428015528E+02  0.18596243534E+03  0.21002785910E+03  0.41800000000E+01 0. -1.
</event>
<event>
11    1  0.8037748E-009  0.1907872E+03  0.7561462E-02  0.1061237E+00
         22   -1    0    0    0    0  0.00000000000E+00  0.00000000000E+00  0.16723694422E+04  0.16723694422E+04  0.00000000000E+00 0.  1.
         22   -1    0    0    0    0 -0.00000000000E+00 -0.00000000000E+00 -0.22842982145E+03  0.22842982145E+03  0.00000000000E+00 0. -1.
        -24    2    1    2    0    0 -0.20344626127E+02 -0.14702604343E+03 -0.17803822575E+03  0.24523204426E+03  0.80066125450E+02 0.  0.
         25    2    1    2    0    0 -0.49046643943E+02  0.88793723256E+02  0.46254806518E+03  0.48978444789E+03  0.12509274245E+03 0.  0.
         24    2    1    2    0    0  0.69391270070E+02  0.58232320178E+02  0.11594297813E+04  0.11657827715E+04  0.81030247573E+02 0.  0.
        -13    1    5    5    0    0  0.28853910551E+02 -0.13732687483E+02  0.52914282223E+03  0.53010683940E+03  0.00000000000E+00 0.  1.
         14    1    5    5    0    0  0.40537359518E+02  0.71965007661E+02  0.63028695905E+03  0.63567593205E+03  0.00000000000E+00 0. -1.
         13    1    3    3    0    0 -0.41391196730E+02 -0.13394705720E+03 -0.13006878068E+03  0.19124051090E+03  0.00000000000E+00 0. -1.
        -14    1    3    3    0    0  0.21046570603E+02 -0.13078986232E+02 -0.47969445070E+02  0.53991533367E+02  0.00000000000E+00 0.  1.
          5    1    4    4  501    0 -0.64901874868E+01  0.96191003100E+02  0.41206065285E+03  0.42320950561E+03  0.41800000000E+01 0. -1.
         -5    1    4    4    0  501 -0.42556456456E+02 -0.73972798433E+01  0.50487412339E+02  0.66574942282E+02  0.41800000000E+01 0. -1.
</event>
<event>
11    1  0.8037748E-009  0.1529318E+03  0.7561462E-02  0.1093920E+00
         22   -1    0    0    0    0  0.00000000000E+00  0.00000000000E+00  0.19478338321E+04  0.19478338321E+04  0.00000000000E+00 0.  1.
         22   -1    0    0    0    0 -0.00000000000E+00 -0.00000000000E+00 -0.11204812872E+04  0.11204812872E+04  0.00000000000E+00 0.  1.
         24    2    1    2    0    0  0.75111495468E+02 -0.46422256099E+02 -0.10706987567E+04  0.10788396478E+04  0.98500739225E+02 0.  0.
         25    2    1    2    0    0 -0.30536649798E+02  0.97053030971E+02  0.10356508872E+03  0.19162240143E+03  0.12506653960E+03 0.  0.
        -24    2    1    2    0    0 -0.44574845670E+02 -0.50630774872E+02  0.17944862128E+04  0.17978530700E+04  0.86859089304E+02 0.  0.
        -11    1    3    3    0    0  0.57625558466E+02  0.12416257502E+02 -0.75043748802E+03  0.75274915601E+03  0.00000000000E+00 0.  1.
         12    1    3    3    0    0  0.17485937002E+02 -0.58838513601E+02 -0.32026126863E+03  0.32609049183E+03  0.00000000000E+00 0. -1.
         13    1    5    5    0    0 -0.19945523635E+01 -0.96523750468E+01  0.19186810450E+02  0.21570356474E+02  0.00000000000E+00 0. -1.
        -14    1    5    5    0    0 -0.42580293307E+02 -0.40978399826E+02  0.17752994023E+04  0.17762827136E+04  0.00000000000E+00 0.  1.
          5    1    4    4  501    0  0.20639987158E+02  0.44386478458E+02 -0.15633301928E+02  0.51556193313E+02  0.41800000000E+01 0.  1.
         -5    1    4    4    0  501 -0.51176636956E+02  0.52666552514E+02  0.11919839065E+03  0.14006620812E+03  0.41800000000E+01 0.  1.
</event>
<event>
11    1  0.8037748E-009  0.2460804E+03  0.7561462E-02  0.1026008E+00
         22   -1    0    0    0    0  0.00000000000E+00  0.00000000000E+00  0.52074676356E+03  0.52074676356E+03  0.00000000000E+00 0.  1.
         22   -1    0    0    0    0 -0.00000000000E+00 -0.00000000000E+00 -0.10961271215E+04  0.10961271215E+04  0.00000000000E+00 0.  1.
         24    2    1    2    0    0 -0.22258106349E+02  0.17554884201E+03 -0.95257134295E+03  0.97231667413E+03  0.81821342947E+02 0.  0.
         25    2    1    2    0    0  0.22584881672E+03 -0.98234278757E+02  0.12855170483E+03  0.30469029331E+03  0.12511183990E+03 0.  0.
        -24    2    1    2    0    0 -0.20359071037E+03 -0.77314563258E+02  0.24863928017E+03  0.33986691763E+03  0.79128446298E+02 0.  0.
        -13    1    3    3    0    0 -0.16124241013E+02  0.18415345045E+02 -0.45033075242E+02  0.51255184587E+02  0.00000000000E+00 0.  1.
         14    1    3    3    0    0 -0.61338653360E+01  0.15713349697E+03 -0.90753826771E+03  0.92106148955E+03  0.00000000000E+00 0. -1.
         13    1    5    5    0    0 -0.66427243124E+01  0.68973389080E+01  0.38977887641E+02  0.40136950497E+02  0.00000000000E+00 0. -1.
        -14    1    5    5    0    0 -0.19694798606E+03 -0.84211902166E+02  0.20966139253E+03  0.29972996713E+03  0.00000000000E+00 0.  1.
          5    1    4    4  501    0  0.34915030241E+02 -0.16633732029E+02  0.83588371519E+02  0.92196684491E+02  0.41800000000E+01 0. -1.
         -5    1    4    4    0  501  0.19093378648E+03 -0.81600546727E+02  0.44963333316E+02  0.21249360882E+03  0.41800000000E+01 0. -1.
</event>
<event>
11    1  0.8037748E-009  0.1507743E+03  0.7561462E-02  0.1096090E+00
         22   -1    0    0    0    0  0.00000000000E+00  0.00000000000E+00  0.73997431618E+03  0.73997431618E+03  0.00000000000E+00 0. -1.
         22   -1    0    0    0    0 -0.00000000000E+00 -0.00000000000E+00 -0.14569868191E+03  0.14569868191E+03  0.00000000000E+00 0.  1.
        -24    2    1    2    0    0  0.20958703307E+02 -0.38505995413E+01 -0.89264895447E+02  0.11662321485E+03  0.71962895449E+02 0.  0.
         25    2    1    2    0    0 -0.65220063247E+02  0.72983002535E+02  0.13499465941E+03  0.20845321875E+03  0.12509600724E+03 0.  0.
         24    2    1    2    0    0  0.44261359940E+02 -0.69132402994E+02  0.54854587030E+03  0.56059656449E+03  0.81409945167E+02 0.  0.
        -11    1    5    5    0    0  0.36729137951E+02  0.55141068768E+01  0.12290977442E+03  0.12839878347E+03  0.00000000000E+00 0.  1.
         12    1    5    5    0    0  0.75322219892E+01 -0.74646509871E+02  0.42563609588E+03  0.43219778102E+03  0.00000000000E+00 0. -1.
         13    1    3    3    0    0 -0.76513100088E+00 -0.35965115824E+02 -0.37714627003E+02  0.52119747425E+02  0.00000000000E+00 0. -1.
        -14    1    3    3    0    0  0.21723834308E+02  0.32114516282E+02 -0.51550268444E+02  0.64503467425E+02  0.00000000000E+00 0.  1.
          5    1    4    4  501    0 -0.47194625115E+01 -0.26377551984E+02 -0.37122115338E+01  0.27373371907E+02  0.41800000000E+01 0.  1.
         -5    1    4    4    0  501 -0.60500600736E+02  0.99360554519E+02  0.13870687095E+03  0.18107984684E+03  0.41800000000E+01 0.  1.
</event>
<event>
11    1  0.8037748E-009  0.1301019E+03  0.7561462E-02  0.1119144E+00
         22   -1    0    0    0    0  0.00000000000E+00  0.00000000000E+00  0.30961330934E+04  0.30961330934E+04  0.00000000000E+00 0. -1.
         22   -1    0    0    0    0 -0.00000000000E+00 -0.00000000000E+00 -0.96739445007E+02  0.96739445007E+02  0.00000000000E+00 0. -1.
         24    2    1    2    0    0  0.88757265798E+01 -0.43408225602E+01 -0.51401368694E+02  0.90157573127E+02  0.73407533849E+02 0.  0.
         25    2    1    2    0    0 -0.12622365522E+02  0.39839457929E+02  0.14624894657E+03  0.19692266876E+03  0.12507308496E+03 0.  0.
        -24    2    1    2    0    0  0.37466389425E+01 -0.35498635369E+02  0.29045460705E+04  0.29057922965E+04  0.77245092444E+02 0.  0.
        -13    1    3    3    0    0  0.29567240500E+02 -0.27505754240E+02 -0.17018557255E+02  0.43822591412E+02  0.00000000000E+00 0.  1.
         14    1    3    3    0    0 -0.20691513920E+02  0.23164931679E+02 -0.34382811439E+02  0.46334981715E+02  0.00000000000E+00 0. -1.
         11    1    5    5    0    0  0.14787314843E+02 -0.37424225728E+02  0.28396846918E+04  0.28399697862E+04  0.00000000000E+00 0. -1.
        -12    1    5    5    0    0 -0.11040675901E+02  0.19255903593E+01  0.64861378662E+02  0.65822510317E+02  0.00000000000E+00 0.  1.
          5    1    4    4  501    0  0.10010222211E+02  0.22920423181E+02 -0.17429542262E+02  0.30770305344E+02  0.41800000000E+01 0. -1.
         -5    1    4    4    0  501 -0.22632587734E+02  0.16919034748E+02  0.16367848883E+03  0.16615236342E+03  0.41800000000E+01 0. -1.
</event>
<event>
11    1  0.8037748E-009  0.2243442E+03  0.7561462E-02  0.1038530E+00
         22   -1    0    0    0    0  0.00000000000E+00  0.00000000000E+00  0.18426619342E+04  0.18426619342E+04  0.00000000000E+00 0.  1.
         22   -1    0    0    0    0 -0.00000000000E+00 -0.00000000000E+00 -0.20699428586E+03  0.20699428586E+03  0.00000000000E+00 0.  1.
         24    2    1    2    0    0  0.99067165915E+02 -0.14552884315E+03 -0.62160811430E+02  0.20314218753E+03  0.80061440950E+02 0.  0.
         25    2    1    2    0    0 -0.14870650707E+03  0.16151994477E+03  0.14604133506E+03  0.29185198299E+03  0.12508873101E+03 0.  0.
        -24    2    1    2    0    0  0.49639341155E+02 -0.15991101624E+02  0.15517871247E+04  0.15546620495E+04  0.78810077452E+02 0.  0.
        -11    1    3    3    0    0  0.41239076291E+02 -0.12048917479E+03 -0.58147755065E+02  0.13999808597E+03  0.00000000000E+00 0.  1.
         12    1    3    3    0    0  0.57828089624E+02 -0.25039668356E+02 -0.40130563653E+01  0.63144101564E+02  0.00000000000E+00 0. -1.
         13    1    5    5    0    0  0.58615873019E+02  0.16294113769E+02  0.95735625592E+03  0.95928740191E+03  0.00000000000E+00 0. -1.
        -14    1    5    5    0    0 -0.89765318639E+01 -0.32285215393E+02  0.59443086880E+03  0.59537464763E+03  0.00000000000E+00 0.  1.
          5    1    4    4  501    0 -0.13069580604E+02  0.79507213935E+02  0.70366016528E+01  0.80988870641E+02  0.41800000000E+01 0.  1.
         -5    1    4    4    0  501 -0.13563692647E+03  0.82012730840E+02  0.13900473340E+03  0.21086311235E+03  0.41800000000E+01 0.  1.
</event>
<event>
11    1  0.8037748E-009  0.1468417E+03  0.7561462E-02  0.1100150E+00
         22   -1    0    0    0    0  0.00000000000E+00  0.00000000000E+00  0.12538943945E+03  0.12538943945E+03  0.00000000000E+00 0.  1.
         22   -1    0    0    0    0 -0.00000000000E+00 -0.00000000000E+00 -0.65908049635E+03  0.65908049635E+03  0.00000000000E+00 0.  1.
         24    2    1    2    0    0 -0.63598663084E+01  0.40197083463E+02 -0.27548013315E+03  0.28710187920E+03  0.69870822678E+02 0.  0.
         25    2    1    2    0    0  0.55134093674E+02 -0.96170751147E+02 -0.32878777849E+03  0.36883326151E+03  0.12509192559E+03 0.  0.
        -24    2    1    2    0    0 -0.48774227366E+02  0.55973667684E+02  0.70576854745E+02  0.12853479509E+03  0.77640996856E+02 0.  0.
        -11    1    3    3    0    0  0.10545754948E+02  0.12645487712E+02 -0.23368855256E+03  0.23426792548E+03  0.00000000000E+00 0.  1.
         12    1    3    3    0    0 -0.16905621256E+02  0.27551595751E+02 -0.41791580590E+02  0.52833953729E+02  0.00000000000E+00 0. -1.
         11    1    5    5    0    0 -0.30402436102E+02  0.50519221796E+02  0.38243528771E+01  0.59085747577E+02  0.00000000000E+00 0. -1.
        -12    1    5    5    0    0 -0.18371791263E+02  0.54544458882E+01  0.66752501868E+02  0.69449047508E+02  0.00000000000E+00 0.  1.
          5    1    4    4  501    0  0.38603388586E+02 -0.86796738827E+01 -0.23908764977E+03  0.24237560732E+03  0.41800000000E+01 0.  1.
         -5    1    4    4    0  501  0.16530705088E+02 -0.87491077264E+02 -0.89700128722E+02  0.12645765419E+03  0.41800000000E+01 0.  1.
</event>
<event>
11    1  0.8037748E-009  0.1350323E+03  0.7561462E-02  0.1113236E+00
         22   -1    0    0    0    0  0.00000000000E+00  0.00000000000E+00  0.16914992874E+03  0.16914992874E+03  0.00000000000E+00 0. -1.
         22   -1    0    0    0    0 -0.00000000000E+00 -0.00000000000E+00 -0.22047771473E+03  0.22047771473E+03  0.00000000000E+00 0.  1.
        -24    2    1    2    0    0 -0.85333178835E+02 -0.40496978003E+02 -0.50302061622E+02  0.13360263851E+03  0.79985067198E+02 0.  0.
         25    2    1    2    0    0  0.43175742156E+01 -0.23426429565E+01 -0.39883340444E+02  0.13138472222E+03  0.12508850852E+03 0.  0.
         24    2    1    2    0    0  0.81015604620E+02  0.42839620959E+02  0.38857616070E+02  0.12464028275E+03  0.75010162254E+02 0.  0.
        -11    1    5    5    0    0  0.32356029248E+02  0.20331835018E+02 -0.21550897516E+02  0.43871828405E+02  0.00000000000E+00 0.  1.
         12    1    5    5    0    0  0.48659575372E+02  0.22507785942E+02  0.60408513587E+02  0.80768454344E+02  0.00000000000E+00 0. -1.
         11    1    3    3    0    0 -0.12925353863E+02 -0.20179023696E+02  0.19577179187E+02  0.30943880085E+02  0.00000000000E+00 0. -1.
        -12    1    3    3    0    0 -0.72407824973E+02 -0.20317954307E+02 -0.69879240809E+02  0.10265875842E+03  0.00000000000E+00 0.  1.
          5    1    4    4  501    0  0.46358876556E+02 -0.74734407979E+01  0.25326666825E+02  0.53515513689E+02  0.41800000000E+01 0.  1.
         -5    1    4    4    0  501 -0.42041302341E+02  0.51307978414E+01 -0.65210007269E+02  0.77869208530E+02  0.41800000000E+01 0.  1.
</event>
<event>
11    1  0.8037748E-009  0.1903677E+03  0.7561462E-02  0.1061552E+00
         22   -1    0    0    0    0  0.00000000000E+00  0.00000000000E+00  0.60367509116E+03  0.60367509116E+03  0.00000000000E+00 0. -1.
         22   -1    0    0    0    0 -0.00000000000E+00 -0.00000000000E+00 -0.20769156100E+03  0.20769156100E+03  0.00000000000E+00 0.  1.
        -24    2    1    2    0    0 -0.10155420386E+03 -0.11598937879E+03 -0.12154085951E+03  0.21174670219E+03  0.79358005555E+02 0.  0.
         25    2    1    2    0    0  0.60103457835E+02  0.79301836591E+02  0.15266359074E+03  0.22103518522E+03  0.12509665958E+03 0.  0.
         24    2    1    2    0    0  0.41450746020E+02  0.36687542203E+02  0.36486079894E+03  0.37858476474E+03  0.84491901347E+02 0.  0.
        -13    1    5    5    0    0 -0.13103407829E+02  0.42576049104E+02  0.19737932733E+03  0.20234381165E+03  0.00000000000E+00 0.  1.
         14    1    5    5    0    0  0.54554153849E+02 -0.58885069007E+01  0.16748147161E+03  0.17624095309E+03  0.00000000000E+00 0. -1.
         13    1    3    3    0    0 -0.48223070200E+02 -0.93930423469E+01 -0.60177210527E+02  0.77685200720E+02  0.00000000000E+00 0. -1.
        -14    1    3    3    0    0 -0.53331133656E+02 -0.10659633645E+03 -0.61363648983E+02  0.13406150147E+03  0.00000000000E+00 0.  1.
          5    1    4    4  501    0  0.98680667797E+02  0.47123422275E+02  0.10424674494E+03  0.15114015798E+03  0.41800000000E+01 0.  1.
         -5    1    4    4    0  501 -0.38577209961E+02  0.32178414316E+02  0.48416845793E+02  0.69895027239E+02  0.41800000000E+01 0.  1.
</event>
<event>
11    1  0.8037748E-009  0.2391429E+03  0.7561462E-02  0.1029847E+00
         22   -1    0    0    0    0  0.00000000000E+00  0.00000000000E+00  0.35598409978E+03  0.35598409978E+03  0.00000000000E+00 0.  1.
         22   -1    0    0    0    0 -0.00000000000E+00 -0.00000000000E+00 -0.69266225450E+03  0.69266225450E+03  0.00000000000E+00 0. -1.
         24    2    1    2    0    0 -0.62463325618E+02 -0.17105440957E+03 -0.36407249620E+03  0.41673094282E+03  0.89188665968E+02 0.  0.
         25    2    1    2    0    0  0.27457893130E+02  0.27504290205E+03 -0.20321597348E+03  0.36516627204E+03  0.12508853062E+03 0.  0.
        -24    2    1    2    0    0  0.35005432488E+02 -0.10398849249E+03  0.23061031496E+03  0.26674913943E+03  0.77038945652E+02 0.  0.
        -13    1    3    3    0    0 -0.28807392059E+02 -0.10967905783E+03 -0.13045427960E+03  0.17285161448E+03  0.00000000000E+00 0.  1.
         14    1    3    3    0    0 -0.33655933559E+02 -0.61375351740E+02 -0.23361821660E+03  0.24387932834E+03  0.00000000000E+00 0. -1.
         11    1    5    5    0    0 -0.10351169708E+02 -0.45876280495E+01 -0.26532572447E+00  0.11325345168E+02  0.00000000000E+00 0. -1.
        -12    1    5    5    0    0  0.45356602196E+02 -0.99400864438E+02  0.23087564068E+03  0.25542379426E+03  0.00000000000E+00 0.  1.
          5    1    4    4  501    0  0.41599048455E+02  0.28321679723E+03 -0.19517789184E+03  0.34648826377E+03  0.41800000000E+01 0. -1.
         -5    1    4    4    0  501 -0.14141155325E+02 -0.81738951815E+01 -0.80380816393E+01  0.18678008266E+02  0.41800000000E+01 0. -1.
</event>
<event>
11    1  0.8037748E-009  0.1500901E+03  0.7561462E-02  0.1096787E+00
         22   -1    0    0    0    0  0.00000000000E+00  0.00000000000E+00  0.22325943958E+03  0.22325943958E+03  0.00000000000E+00 0.  1.
         22   -1    0    0    0    0 -0.00000000000E+00 -0.00000000000E+00 -0.56420696904E+03  0.56420696904E+03  0.00000000000E+00 0.  1.
        -24    2    1    2    0    0  0.20435373586E+02 -0.10553372424E+03 -0.38744583302E+03  0.41018932000E+03  0.81154379261E+02 0.  0.
         25    2    1    2    0    0  0.88149813915E+01  0.24586654657E+02 -0.11866748345E+03  0.17439176556E+03  0.12509320038E+03 0.  0.
         24    2    1    2    0    0 -0.29250354978E+02  0.80947069583E+02  0.16516578701E+03  0.20288532307E+03  0.80465556474E+02 0.  0.
        -11    1    5    5    0    0 -0.34353652844E+02  0.21370463645E+02  0.12362514037E+03  0.13007707527E+03  0.00000000000E+00 0.  1.
         12    1    5    5    0    0  0.51032978668E+01  0.59576605938E+02  0.41540646640E+02  0.72808247799E+02  0.00000000000E+00 0. -1.
         13    1    3    3    0    0 -0.98278295358E+01 -0.54043585240E+02 -0.80298024094E+02  0.97288581099E+02  0.00000000000E+00 0. -1.
        -14    1    3    3    0    0  0.30263203122E+02 -0.51490139000E+02 -0.30714780892E+03  0.31290073890E+03  0.00000000000E+00 0.  1.
          5    1    4    4  501    0  0.26263951550E+01  0.65278418822E+02 -0.21700255524E+02  0.68967698274E+02  0.41800000000E+01 0. -1.
         -5    1    4    4    0  501  0.61885862365E+01 -0.40691764165E+02 -0.96967227927E+02  0.10542406728E+03  0.41800000000E+01 0. -1.
</event>
<event>
11    1  0.8037748E-009  0.1456189E+03  0.7561462E-02  0.1101441E+00
         22   -1    0    0    0    0  0.00000000000E+00  0.00000000000E+00  0.10049046860E+04  0.10049046860E+04  0.00000000000E+00 0. -1.
         22   -1    0    0    0    0 -0.00000000000E+00 -0.00000000000E+00 -0.35750869128E+02  0.35750869128E+02  0.00000000000E+00 0.  1.
         24    2    1    2    0    0  0.29235265796E+02  0.57745730820E+02  0.15822499402E+03  0.18748207016E+03  0.76974721225E+02 0.  0.
         25    2    1    2    0    0 -0.89383632955E+02 -0.34800909077E+02  0.56194983387E+03  0.58363950908E+03  0.12508766391E+03 0.  0.
        -24    2    1    2    0    0  0.60148367159E+02 -0.22944821744E+02  0.24897898896E+03  0.26953397586E+03  0.80707721319E+02 0.  0.
        -13    1    3    3    0    0  0.17714598882E+02 -0.44360778842E+01  0.13166596953E+01  0.18308997605E+02  0.00000000000E+00 0.  1.
         14    1    3    3    0    0  0.11520666914E+02  0.62181808705E+02  0.15690833432E+03  0.16917307256E+03  0.00000000000E+00 0. -1.
         11    1    5    5    0    0  0.46041844604E+02 -0.50469875698E+02  0.20242554775E+03  0.21364260387E+03  0.00000000000E+00 0. -1.
        -12    1    5    5    0    0  0.14106522555E+02  0.27525053954E+02  0.46553441212E+02  0.55891371986E+02  0.00000000000E+00 0.  1.
          5    1    4    4  501    0 -0.33268451687E+02 -0.56613693136E+01  0.23174776113E+02  0.41150742740E+02  0.41800000000E+01 0.  1.
         -5    1    4    4    0  501 -0.56115181268E+02 -0.29139539763E+02  0.53877505776E+03  0.54248876634E+03  0.41800000000E+01 0.  1.
</event>
<event>
11    1  0.8037748E-009  0.1487059E+03  0.7561462E-02  0.1098208E+00
         22   -1    0    0    0    0  0.00000000000E+00  0.00000000000E+00  0.12627180796E+04  0.12627180796E+04  0.00000000000E+00 0. -1.
         22   -1    0    0    0    0 -0.00000000000E+00 -0.00000000000E+00 -0.82424409552E+03  0.82424409552E+03  0.00000000000E+00 0. -1.
        -24    2    1    2    0    0 -0.36375898052E+02  0.68336857805E+02 -0.62507169637E+03  0.63530932290E+03  0.83127480772E+02 0.  0.
         25    2    1    2    0    0  0.74236501998E+02 -0.73572913189E+02 -0.15781755559E+03  0.22688863790E+03  0.12509213152E+03 0.  0.
         24    2    1    2    0    0 -0.37860603946E+02  0.52360553846E+01  0.12213632360E+04  0.12247642143E+04  0.82815365383E+02 0.  0.
        -11    1    5    5    0    0 -0.10179827894E+02 -0.32778078796E+02  0.26055228157E+03  0.26280320161E+03  0.00000000000E+00 0.  1.
         12    1    5    5    0    0 -0.27680776052E+02  0.38014134181E+02  0.96081095442E+03  0.96196101267E+03  0.00000000000E+00 0. -1.
         13    1    3    3    0    0 -0.48417428682E+02  0.94447214785E+01 -0.36867382518E+03  0.37195945953E+03  0.00000000000E+00 0. -1.
        -14    1    3    3    0    0  0.12041530630E+02  0.58892136326E+02 -0.25639787119E+03  0.26334986336E+03  0.00000000000E+00 0.  1.
          5    1    4    4  501    0  0.68279318322E+02 -0.20662213727E+02 -0.13126641846E+02  0.72655168520E+02  0.41800000000E+01 0.  1.
         -5    1    4    4    0  501  0.59571836765E+01 -0.52910699463E+02 -0.14469091375E+03  0.15423346938E+03  0.41800000000E+01 0.  1.
</event>
<event>
11    1  0.8037748E-009  0.1728541E+03  0.7561462E-02  0.1075574E+00
         22   -1    0    0    0    0  0.00000000000E+00  0.00000000000E+00  0.27464000206E+03  0.27464000206E+03  0.00000000000E+00 0.  1.
         22   -1    0    0    0    0 -0.00000000000E+00 -0.00000000000E+00 -0.99737879685E+03  0.99737879685E+03  0.00000000000E+00 0.  1.
         24    2    1    2    0    0  0.26877228667E+00  0.68197492811E+02 -0.69121996754E+03  0.69932294342E+03  0.81342273166E+02 0.  0.
         25    2    1    2    0    0  0.11720457701E+03 -0.42558367359E+02 -0.25312007928E+03  0.30865225694E+03  0.12509321995E+03 0.  0.
        -24    2    1    2    0    0 -0.11747334930E+03 -0.25639125452E+02  0.22160125203E+03  0.26404359854E+03  0.78450968658E+02 0.  0.
        -11    1    3    3    0    0  0.68084203197E+01 -0.17912633772E+02 -0.15751461885E+03  0.15867599752E+03  0.00000000000E+00 0.  1.
         12    1    3    3    0    0 -0.65396480331E+01  0.86110126583E+02 -0.53370534869E+03  0.54064694590E+03  0.00000000000E+00 0. -1.
         11    1    5    5    0    0 -0.69263778167E+02  0.12466017187E+02  0.64936664264E+02  0.95758252471E+02  0.00000000000E+00 0. -1.
        -12    1    5    5    0    0 -0.48209571128E+02 -0.38105142639E+02  0.15666458776E+03  0.16828534607E+03  0.00000000000E+00 0.  1.
          5    1    4    4  501    0  0.46147370174E+02  0.86530240274E+01 -0.73491845226E+01  0.47706786854E+02  0.41800000000E+01 0.  1.
         -5    1    4    4    0  501  0.71057206835E+02 -0.51211391387E+02 -0.24577089476E+03  0.26094547009E+03  0.41800000000E+01 0.  1.
</event>
<event>
11    1  0.8037748E-009  0.1395464E+03  0.7561462E-02  0.1108066E+00
         22   -1    0    0    0    0  0.00000000000E+00  0.00000000000E+00  0.34562080274E+03  0.34562080274E+03  0.00000000000E+00 0. -1.
         22   -1    0    0    0    0 -0.00000000000E+00 -0.00000000000E+00 -0.26460351135E+03  0.26460351135E+03  0.00000000000E+00 0. -1.
        -24    2    1    2    0    0 -0.28746265947E+02 -0.16760500157E+02 -0.20462205367E+03  0.22215149599E+03  0.79836333524E+02 0.  0.
         25    2    1    2    0    0 -0.11591195166E+02 -0.39150251173E+02  0.71360315275E+02  0.14968337632E+03  0.12508285485E+03 0.  0.
         24    2    1    2    0    0  0.40337461113E+02  0.55910751329E+02  0.21427902978E+03  0.23838944179E+03  0.78491403792E+02 0.  0.
        -13    1    5    5    0    0 -0.95994599246E+01 -0.13085221323E+02  0.60064809335E+02  0.62218598252E+02  0.00000000000E+00 0.  1.
         14    1    5    5    0    0  0.49936921037E+02  0.68995972652E+02  0.15421422044E+03  0.17617084353E+03  0.00000000000E+00 0. -1.
         11    1    3    3    0    0 -0.55587848968E+02 -0.20483040322E+02 -0.13412789489E+03  0.14662829223E+03  0.00000000000E+00 0. -1.
        -12    1    3    3    0    0  0.26841583021E+02  0.37225401652E+01 -0.70494158778E+02  0.75523203760E+02  0.00000000000E+00 0.  1.
          5    1    4    4  501    0 -0.38271064536E+02 -0.42643138090E+02 -0.14796741857E+02  0.59325606415E+02  0.41800000000E+01 0. -1.
         -5    1    4    4    0  501  0.26679869370E+02  0.34928869174E+01  0.86157057133E+02  0.90357769906E+02  0.41800000000E+01 0. -1.
</event>
<event>
11    1  0.8037748E-009  0.1439889E+03  0.7561462E-02  0.1103184E+00
         22   -1    0    0    0    0  0.00000000000E+00  0.00000000000E+00  0.16455383499E+04  0.16455383499E+04  0.00000000000E+00 0. -1.
         22   -1    0    0    0    0 -0.00000000000E+00 -0.00000000000E+00 -0.23733166133E+03  0.23733166133E+03  0.00000000000E+00 0. -1.
        -24    2    1    2    0    0 -0.38994034092E+01 -0.28796246981E+02 -0.19248491823E+03  0.21052552637E+03  0.80163110715E+02 0.  0.
         25    2    1    2    0    0  0.74940159525E+02  0.27465966791E+02  0.12937201843E+03  0.19687895127E+03  0.12511512883E+03 0.  0.
         24    2    1    2    0    0 -0.71040756116E+02  0.13302801904E+01  0.14713195884E+04  0.14754655336E+04  0.84667886482E+02 0.  0.
        -11    1    5    5    0    0 -0.30903971593E+01 -0.19229733782E+02  0.80029608314E+02  0.82365474701E+02  0.00000000000E+00 0.  1.
         12    1    5    5    0    0 -0.67950358957E+02  0.20560013972E+02  0.13912899801E+04  0.13931000589E+04  0.00000000000E+00 0. -1.
         13    1    3    3    0    0  0.23784491040E+02 -0.45160820691E+02 -0.94571276834E+02  0.10746593945E+03  0.00000000000E+00 0. -1.
        -14    1    3    3    0    0 -0.27683894450E+02  0.16364573710E+02 -0.97913641399E+02  0.10305958692E+03  0.00000000000E+00 0.  1.
          5    1    4    4  501    0  0.38127816474E+02 -0.29885933612E+02  0.11804557321E+03  0.12766804287E+03  0.41800000000E+01 0. -1.
         -5    1    4    4    0  501  0.36812343052E+02  0.57351900402E+02  0.11326445221E+02  0.69210908404E+02  0.41800000000E+01 0. -1.
</event>
<event>
11    1  0.8037748E-009  0.1801530E+03  0.7561462E-02  0.1069519E+00
         22   -1    0    0    0    0  0.00000000000E+00  0.00000000000E+00  0.24836318303E+04  0.24836318303E+04  0.00000000000E+00 0. -1.
         22   -1    0    0    0    0 -0.00000000000E+00 -0.00000000000E+00 -0.57365129925E+02  0.57365129925E+02  0.00000000000E+00 0. -1.
        -24    2    1    2    0    0 -0.43996233448E+02  0.12969044575E+03  0.86480296721E+02  0.17648806910E+03  0.70099333352E+02 0.  0.
         25    2    1    2    0    0  0.54783643894E+02 -0.84110704496E+02  0.56403325939E+03  0.58639258623E+03  0.12508752628E+03 0.  0.
         24    2    1    2    0    0 -0.10787410446E+02 -0.45579741256E+02  0.17757531443E+04  0.17781163049E+04  0.78768542944E+02 0.  0.
        -13    1    5    5    0    0 -0.11367161888E+02 -0.36263419611E+02  0.30829637680E+03  0.31062985034E+03  0.00000000000E+00 0.  1.
         14    1    5    5    0    0  0.57975144227E+00 -0.93163216443E+01  0.14674567675E+04  0.14674864546E+04  0.00000000000E+00 0. -1.
         13    1    3    3    0    0 -0.43447880272E+02  0.79441473674E+02  0.19279664781E+02  0.92576301037E+02  0.00000000000E+00 0. -1.
        -14    1    3    3    0    0 -0.54835317592E+00  0.50248972077E+02  0.67200631940E+02  0.83911768061E+02  0.00000000000E+00 0.  1.
          5    1    4    4  501    0 -0.32105605844E+00 -0.32420727037E+02  0.43920666625E+03  0.44042158746E+03  0.41800000000E+01 0. -1.
         -5    1    4    4    0  501  0.55104699952E+02 -0.51689977459E+02  0.12482659314E+03  0.14597099877E+03  0.41800000000E+01 0. -1.
</event>
<event>
11    1  0.8037748E-009  0.1673618E+03  0.7561462E-02  0.1080351E+00
         22   -1    0    0    0    0  0.00000000000E+00  0.00000000000E+00  0.19216479122E+03  0.19216479122E+03  0.00000000000E+00 0. -1.
         22   -1    0    0    0    0 -0.00000000000E+00 -0.00000000000E+00 -0.83536196578E+03  0.83536196578E+03  0.00000000000E+00 0.  1.
        -24    2    1    2    0    0  0.95862368225E+02 -0.44110995139E+02 -0.43377178485E+03  0.45371680641E+03  0.81028424326E+02 0.  0.
         25    2    1    2    0    0 -0.19803587536E+03  0.26841199853E+02 -0.31934590990E+03  0.39694758059E+03  0.12508762382E+03 0.  0.
         24    2    1    2    0    0  0.10217350713E+03  0.17269795286E+02  0.10992052019E+03  0.17686237000E+03  0.91978833292E+02 0.  0.
        -11    1    5    5    0    0 -0.17457462475E+02  0.22395445549E+01  0.18631015971E+02  0.25629930004E+02  0.00000000000E+00 0.  1.
         12    1    5    5    0    0  0.11963096961E+03  0.15030250731E+02  0.91289504221E+02  0.15123244000E+03  0.00000000000E+00 0. -1.
         13    1    3    3    0    0  0.42118607510E+02  0.22215337584E+02 -0.16188013454E+03  0.16873848489E+03  0.00000000000E+00 0. -1.
        -14    1    3    3    0    0  0.53743760716E+02 -0.66326332723E+02 -0.27189165031E+03  0.28497832152E+03  0.00000000000E+00 0.  1.
          5    1    4    4  501    0 -0.59146737573E+01  0.10139739301E+01 -0.11507273262E+03  0.11530489019E+03  0.41800000000E+01 0.  1.
         -5    1    4    4    0  501 -0.19212120160E+03  0.25827225923E+02 -0.20427317728E+03  0.28164269040E+03  0.41800000000E+01 0.  1.
</event>
<event>
11    1  0.8037748E-009  0.1667208E+03  0.7561462E-02  0.1080921E+00
         22   -1    0    0    0    0  0.00000000000E+00  0.00000000000E+00  0.40428567771E+03  0.40428567771E+03  0.00000000000E+00 0. -1.
         22   -1    0    0    0    0 -0.00000000000E+00 -0.00000000000E+00 -0.54103234862E+03  0.54103234862E+03  0.00000000000E+00 0. -1.
         24    2    1    2    0    0 -0.92450329270E+02  0.72444430101E+02 -0.35693737886E+03  0.38461036604E+03  0.82009648243E+02 0.  0.
         25    2    1    2    0    0  0.10043402491E+03 -0.11590782836E+02 -0.12341875849E+03  0.20273338148E+03  0.12508914587E+03 0.  0.
        -24    2    1    2    0    0 -0.79836956363E+01 -0.60853647265E+02  0.34360946644E+03  0.35797427880E+03  0.79443143659E+02 0.  0.
        -11    1    3    3    0    0 -0.73652754266E+01  0.36896756859E+02 -0.41709487944E+02  0.56172051177E+02  0.00000000000E+00 0.  1.
         12    1    3    3    0    0 -0.85085053844E+02  0.35547673241E+02 -0.31522789092E+03  0.32843831487E+03  0.00000000000E+00 0. -1.
         13    1    5    5    0    0 -0.18578875298E+02 -0.58989078679E+02  0.34144484237E+03  0.34700067204E+03  0.00000000000E+00 0. -1.
        -14    1    5    5    0    0  0.10595179662E+02 -0.18645685858E+01  0.21646240677E+01  0.10973606765E+02  0.00000000000E+00 0.  1.
          5    1    4    4  501    0  0.10066982482E+03 -0.26010969101E+02 -0.30257267306E+02  0.10836954724E+03  0.41800000000E+01 0.  1.
         -5    1    4    4    0  501 -0.23579991685E+00  0.14420186265E+02 -0.93161491183E+02  0.94363834242E+02  0.41800000000E+01 0.  1.
</event>
<event>
11    1  0.8037748E-009  0.1347853E+03  0.7561462E-02  0.1113525E+00
         22   -1    0    0    0    0  0.00000000000E+00  0.00000000000E+00  0.20754780515E+03  0.20754780515E+03  0.00000000000E+00 0. -1.
         22   -1    0    0    0    0 -0.00000000000E+00 -0.00000000000E+00 -0.10701872778E+04  0.10701872778E+04  0.00000000000E+00 0. -1.
         24    2    1    2    0    0 -0.30751908795E+02 -0.24290757025E+02 -0.94616776059E+03  0.95041964784E+03  0.80798236673E+02 0.  0.
         25    2    1    2    0    0  0.10711095761E+02  0.68847916147E+02 -0.59259277419E+02  0.15495433791E+03  0.12507766286E+03 0.  0.
        -24    2    1    2    0    0  0.20040813034E+02 -0.44557159122E+02  0.14278756537E+03  0.17236109718E+03  0.83265145067E+02 0.  0.
        -13    1    3    3    0    0 -0.28103117116E+02  0.48549122746E+01 -0.10681304353E+03  0.11055488064E+03  0.00000000000E+00 0.  1.
         14    1    3    3    0    0 -0.26487916792E+01 -0.29145669300E+02 -0.83935471706E+03  0.83986476720E+03  0.00000000000E+00 0. -1.
         11    1    5    5    0    0  0.37087042329E+02 -0.13791072425E+02  0.12840160743E+03  0.13436002076E+03  0.00000000000E+00 0. -1.
        -12    1    5    5    0    0 -0.17046229295E+02 -0.30766086696E+02  0.14385957936E+02  0.38001076426E+02  0.00000000000E+00 0.  1.
          5    1    4    4  501    0 -0.51155796941E+02  0.57099379813E+02 -0.48823991715E+02  0.90986313820E+02  0.41800000000E+01 0. -1.
         -5    1    4    4    0  501  0.61866892702E+02  0.11748536334E+02 -0.10435285705E+02  0.63968024093E+02  0.41800000000E+01 0. -1.
</event>
<event>
11    1  0.8037748E-009  0.1278849E+03  0.7561462E-02  0.1121895E+00
         22   -1    0    0    0    0  0.00000000000E+00  0.00000000000E+00  0.57977925568E+03  0.57977925568E+03  0.00000000000E+00 0. -1.
         22   -1    0    0    0    0 -0.00000000000E+00 -0.00000000000E+00 -0.87765307240E+03  0.87765307240E+03  0.00000000000E+00 0.  1.
         24    2    1    2    0    0  0.21674369335E+01 -0.36097482251E+02 -0.74646369173E+03  0.75110195633E+03  0.75089145209E+02 0.  0.
         25    2    1    2    0    0 -0.23472561406E+02  0.19365030175E+02 -0.92534700893E+02  0.15854727634E+03  0.12509437411E+03 0.  0.
        -24    2    1    2    0    0  0.21305124472E+02  0.16732452076E+02  0.54112457590E+03  0.54778309541E+03  0.80725644548E+02 0.  0.
        -13    1    3    3    0    0  0.96806914694E+01 -0.55480350754E+02 -0.64937939450E+03  0.65181698590E+03  0.00000000000E+00 0.  1.
         14    1    3    3    0    0 -0.75132545358E+01  0.19382868503E+02 -0.97084297227E+02  0.99284970429E+02  0.00000000000E+00 0. -1.
         13    1    5    5    0    0  0.40688817750E+02  0.20330056076E+02  0.50116492398E+03  0.50322477294E+03  0.00000000000E+00 0. -1.
        -14    1    5    5    0    0 -0.19383693278E+02 -0.35976040000E+01  0.39959651922E+02  0.44558322470E+02  0.00000000000E+00 0.  1.
          5    1    4    4  501    0 -0.35792507969E+02 -0.19642489328E+02  0.14782069544E+02  0.43622390967E+02  0.41800000000E+01 0.  1.
         -5    1    4    4    0  501  0.12319946563E+02  0.39007519503E+02 -0.10731677044E+03  0.11492488537E+03  0.41800000000E+01 0.  1.
</event>
<event>
11    1  0.8037748E-009  0.2650218E+03  0.7561462E-02  0.1016188E+00
         22   -1    0    0    0    0  0.00000000000E+00  0.00000000000E+00  0.73894713064E+03  0.73894713064E+03  0.00000000000E+00 0.  1.
         22   -1    0    0    0    0 -0.00000000000E+00 -0.00000000000E+00 -0.41768049723E+03  0.41768049723E+03  0.00000000000E+00 0.  1.
        -24    2    1    2    0    0 -0.10446219130E+03 -0.16230033002E+03 -0.17111764382E+03  0.26863997220E+03  0.75049584311E+02 0.  0.
         25    2    1    2    0    0  0.23360513185E+03  0.32306597308E+03  0.87871260554E+02  0.42698058668E+03  0.12509229543E+03 0.  0.
         24    2    1    2    0    0 -0.12914294056E+03 -0.16076564306E+03  0.40451301668E+03  0.46100706898E+03  0.79832611790E+02 0.  0.
        -11    1    5    5    0    0 -0.63176033655E+02 -0.85079452962E+02  0.28977859222E+03  0.30854717152E+03  0.00000000000E+00 0.  1.
         12    1    5    5    0    0 -0.65966906903E+02 -0.75686190102E+02  0.11473442446E+03  0.15245989746E+03  0.00000000000E+00 0. -1.
         11    1    3    3    0    0 -0.29964098265E+02 -0.28003701950E+02 -0.32817367562E+01  0.41143946139E+02  0.00000000000E+00 0. -1.
        -12    1    3    3    0    0 -0.74498093031E+02 -0.13429662806E+03 -0.16783590706E+03  0.22749602606E+03  0.00000000000E+00 0.  1.
          5    1    4    4  501    0  0.16026375167E+03  0.29817007274E+03  0.86460207436E+02  0.34940335180E+03  0.41800000000E+01 0.  1.
         -5    1    4    4    0  501  0.73341380180E+02  0.24895900343E+02  0.14110531180E+01  0.77577234879E+02  0.41800000000E+01 0.  1.
</event>
<event>
11    1  0.8037748E-009  0.1936583E+03  0.7561462E-02  0.1059101E+00
         22   -1    0    0    0    0  0.00000000000E+00  0.00000000000E+00  0.97819809411E+03  0.97819809411E+03  0.00000000000E+00 0.  1.
         22   -1    0    0    0    0 -0.00000000000E+00 -0.00000000000E+00 -0.18346703817E+04  0.18346703817E+04  0.00000000000E+00 0.  1.
        -24    2    1    2    0    0  0.18579335911E+01 -0.22294092903E+02 -0.17836419644E+04  0.17863086781E+04  0.94971352226E+02 0.  0.
         25    2    1    2    0    0 -0.12826425108E+03 -0.58698507340E+02  0.19227894764E+03  0.26928734653E+03  0.12508896206E+03 0.  0.
         24    2    1    2    0    0  0.12640631749E+03  0.80992600243E+02  0.73489072915E+03  0.75727245120E+03  0.10420567715E+03 0.  0.
        -13    1    5    5    0    0 -0.68578018561E+01  0.28402731813E+02  0.24877437600E+03  0.25048440027E+03  0.00000000000E+00 0.  1.
         14    1    5    5    0    0  0.13326411934E+03  0.52589868430E+02  0.48611635315E+03  0.50678805093E+03  0.00000000000E+00 0. -1.
         13    1    3    3    0    0  0.10896525474E+02  0.26616381123E+02 -0.21951253352E+03  0.22138861395E+03  0.00000000000E+00 0. -1.
        -14    1    3    3    0    0 -0.90385918830E+01 -0.48910474026E+02 -0.15641294309E+04  0.15649200642E+04  0.00000000000E+00 0.  1.
          5    1    4    4  501    0 -0.13301748592E+03 -0.75668923413E+02  0.19801023601E+03  0.25028975907E+03  0.41800000000E+01 0.  1.
         -5    1    4    4    0  501  0.47532348425E+01  0.16970416073E+02 -0.57312883676E+01  0.18997587465E+02  0.41800000000E+01 0.  1.
</event>
<event>
11    1  0.8037748E-009  0.1455801E+03  0.7561462E-02  0.1101483E+00
         22   -1    0    0    0    0  0.00000000000E+00  0.00000000000E+00  0.22770227275E+03  0.22770227275E+03  0.00000000000E+00 0.  1.
         22   -1    0    0    0    0 -0.00000000000E+00 -0.00000000000E+00 -0.15791319970E+04  0.15791319970E+04  0.00000000000E+00 0.  1.
        -24    2    1    2    0    0  0.72768178072E+02  0.20008351876E+02 -0.13321211800E+04  0.13368263264E+04  0.82838679804E+02 0.  0.
         25    2    1    2    0    0 -0.53072862192E+02 -0.49490426341E+02 -0.21254068399E+03  0.25707447301E+03  0.12509081230E+03 0.  0.
         24    2    1    2    0    0 -0.19695315880E+02  0.29482074465E+02  0.19323213975E+03  0.21293347032E+03  0.82127369172E+02 0.  0.
        -11    1    5    5    0    0 -0.34654825668E+01 -0.99440868367E+01  0.15592346459E+03  0.15627866534E+03  0.00000000000E+00 0.  1.
         12    1    5    5    0    0 -0.16229833313E+02  0.39426161302E+02  0.37308675162E+02  0.56654804975E+02  0.00000000000E+00 0. -1.
         13    1    3    3    0    0 -0.47618609869E+01 -0.21026608528E+02 -0.40206044405E+03  0.40263804373E+03  0.00000000000E+00 0. -1.
        -14    1    3    3    0    0  0.77530039058E+02  0.41034960404E+02 -0.93006073594E+03  0.93418828266E+03  0.00000000000E+00 0.  1.
          5    1    4    4  501    0 -0.26939974412E+02 -0.83950329011E+02 -0.85811301772E+02  0.12310350066E+03  0.41800000000E+01 0. -1.
         -5    1    4    4    0  501 -0.26132887780E+02  0.34459902670E+02 -0.12672938222E+03  0.13397097235E+03  0.41800000000E+01 0. -1.
</event>
<event>
11    1  0.8037748E-009  0.1426688E+03  0.7561462E-02  0.1104614E+00
         22   -1    0    0    0    0  0.00000000000E+00  0.00000000000E+00  0.17336724839E+03  0.17336724839E+03  0.00000000000E+00 0. -1.
         22   -1    0    0    0    0 -0.00000000000E+00 -0.00000000000E+00 -0.70709652498E+03  0.70709652498E+03  0.00000000000E+00 0. -1.
         24    2    1    2    0    0 -0.17097214071E+02 -0.24253072475E+02 -0.59400371011E+03  0.60008964889E+03  0.79916536702E+02 0.  0.
         25    2    1    2    0    0  0.42942492210E+02 -0.44825524217E+02 -0.58760341911E+01  0.13977199909E+03  0.12509316006E+03 0.  0.
        -24    2    1    2    0    0 -0.25845278138E+02  0.69078596692E+02  0.66150467706E+02  0.14060212539E+03  0.99765937885E+02 0.  0.
        -13    1    3    3    0    0 -0.20720685237E+02  0.10751866218E+02 -0.52648599727E+02  0.57591878569E+02  0.00000000000E+00 0.  1.
         14    1    3    3    0    0  0.36234711656E+01 -0.35004938693E+02 -0.54135511038E+03  0.54249777033E+03  0.00000000000E+00 0. -1.
         11    1    5    5    0    0 -0.57605442674E+02  0.66533589170E+02  0.63710575090E+02  0.10864687244E+03  0.00000000000E+00 0. -1.
        -12    1    5    5    0    0  0.31760164535E+02  0.25450075225E+01  0.24398926154E+01  0.31955252942E+02  0.00000000000E+00 0.  1.
          5    1    4    4  501    0 -0.28204011415E+01  0.27450185928E+02 -0.38986907220E+02  0.47947040624E+02  0.41800000000E+01 0.  1.
         -5    1    4    4    0  501  0.45762893351E+02 -0.72275710144E+02  0.33110873029E+02  0.91824958467E+02  0.41800000000E+01 0.  1.
</event>
<event>
11    1  0.8037748E-009  0.1283041E+03  0.7561462E-02  0.1121370E+00
         22   -1    0    0    0    0  0.00000000000E+00  0.00000000000E+00  0.13567389194E+04  0.13567389194E+04  0.00000000000E+00 0.  1.
         22   -1    0    0    0    0 -0.00000000000E+00 -0.00000000000E+00 -0.10642099357E+03  0.10642099357E+03  0.00000000000E+00 0. -1.
        -24    2    1    2    0    0 -0.27673540044E+02  0.29573856261E+01 -0.72592320611E+02  0.11136523019E+03  0.79737058739E+02 0.  0.
         25    2    1    2    0    0  0.40703051355E+02 -0.37077874900E+01  0.32654226572E+03  0.35206248543E+03  0.12509059224E+03 0.  0.
         24    2    1    2    0    0 -0.13029511311E+02  0.75040186395E+00  0.99636798074E+03  0.99973219737E+03  0.80901063921E+02 0.  0.
        -13    1    5    5    0    0 -0.17963409396E+02  0.28876281851E+02  0.84561725408E+03  0.84630081185E+03  0.00000000000E+00 0.  1.
         14    1    5    5    0    0  0.49338980853E+01 -0.28125879987E+02  0.15075072666E+03  0.15343138552E+03  0.00000000000E+00 0. -1.
         11    1    3    3    0    0 -0.34248187432E+02 -0.23643233599E+02 -0.96551799449E+01  0.42721930401E+02  0.00000000000E+00 0. -1.
        -12    1    3    3    0    0  0.65746473874E+01  0.26600619225E+02 -0.62937140666E+02  0.68643299794E+02  0.00000000000E+00 0.  1.
          5    1    4    4  501    0 -0.24343861419E+02  0.34166980814E+02  0.49867152204E+02  0.65300929822E+02  0.41800000000E+01 0. -1.
         -5    1    4    4    0  501  0.65046912774E+02 -0.37874768304E+02  0.27667511351E+03  0.28676155561E+03  0.41800000000E+01 0. -1.
</event>
<event>
11    1  0.8037748E-009  0.1457437E+03  0.7561462E-02  0.1101309E+00
         22   -1    0    0    0    0  0.00000000000E+00  0.00000000000E+00  0.38590241182E+04  0.38590241182E+04  0.00000000000E+00 0.  1.
         22   -1    0    0    0    0 -0.00000000000E+00 -0.00000000000E+00 -0.31196972322E+03  0.31196972322E+03  0.00000000000E+00 0. -1.
         24    2    1    2    0    0  0.11714903114E+02 -0.77854996120E+02 -0.28309568556E+03  0.30827568118E+03  0.93231373732E+02 0.  0.
         25    2    1    2    0    0 -0.32745904798E+01 -0.57731766517E+01  0.24034552501E+03  0.27103030885E+03  0.12508958553E+03 0.  0.
        -24    2    1    2    0    0 -0.84403126339E+01  0.83628172772E+02  0.35898045555E+04  0.35916878514E+04  0.80373905693E+02 0.  0.
        -11    1    3    3    0    0 -0.35906612611E+02 -0.68848014495E+01 -0.84940030195E+02  0.92474288587E+02  0.00000000000E+00 0.  1.
         12    1    3    3    0    0  0.47621515725E+02 -0.70970194670E+02 -0.19815565537E+03  0.21580139260E+03  0.00000000000E+00 0. -1.
         13    1    5    5    0    0 -0.33222903277E+01 -0.15890630926E+02  0.40679963119E+03  0.40712343301E+03  0.00000000000E+00 0. -1.
        -14    1    5    5    0    0 -0.51180223062E+01  0.99518803698E+02  0.31830049243E+04  0.31845644184E+04  0.00000000000E+00 0.  1.
          5    1    4    4  501    0  0.32806980600E+01  0.52472653337E+02  0.17671288138E+03  0.18441544722E+03  0.41800000000E+01 0.  1.
         -5    1    4    4    0  501 -0.65552885397E+01 -0.58245829989E+02  0.63632643630E+02  0.86614861625E+02  0.41800000000E+01 0.  1.
</event>
<event>
11    1  0.8037748E-009  0.1563401E+03  0.7561462E-02  0.1090571E+00
         22   -1    0    0    0    0  0.00000000000E+00  0.00000000000E+00  0.38677750577E+03  0.38677750577E+03  0.00000000000E+00 0.  1.
         22   -1    0    0    0    0 -0.00000000000E+00 -0.00000000000E+00 -0.94471446599E+03  0.94471446599E+03  0.00000000000E+00 0. -1.
         24    2    1    2    0    0  0.19782671431E+02  0.89865036334E+02 -0.82492097866E+03  0.83397262987E+03  0.80923713962E+02 0.  0.
         25    2    1    2    0    0 -0.10444880538E+02 -0.12146639006E+03 -0.39173197531E+02  0.17901402267E+03  0.12509317113E+03 0.  0.
        -24    2    1    2    0    0 -0.93377908933E+01  0.31601353729E+02  0.30615721598E+03  0.31850531923E+03  0.81409812611E+02 0.  0.
        -11    1    3    3    0    0  0.25094263853E+01 -0.34210613711E+01 -0.68868497030E+00  0.42982750816E+01  0.00000000000E+00 0.  1.
         12    1    3    3    0    0  0.17273245046E+02  0.93286097705E+02 -0.82423229369E+03  0.82967435478E+03  0.00000000000E+00 0. -1.
         13    1    5    5    0    0  0.42110152536E+01 -0.13069368643E+02  0.64249519902E+01  0.15159850074E+02  0.00000000000E+00 0. -1.
        -14    1    5    5    0    0 -0.13548806147E+02  0.44670722372E+02  0.29973226399E+03  0.30334546916E+03  0.00000000000E+00 0.  1.
          5    1    4    4  501    0  0.22536424858E+00 -0.83510791300E+02 -0.84442907471E+02  0.11883677913E+03  0.41800000000E+01 0. -1.
         -5    1    4    4    0  501 -0.10670244786E+02 -0.37955598764E+02  0.45269709940E+02  0.60177243534E+02  0.41800000000E+01 0. -1.
</event>
<event>
11    1  0.8037748E-009  0.1865716E+03  0.7561462E-02  0.1064448E+00
         22   -1    0    0    0    0  0.00000000000E+00  0.00000000000E+00  0.47792479106E+03  0.47792479106E+03  0.00000000000E+00 0.  1.
         22   -1    0    0    0    0 -0.00000000000E+00 -0.00000000000E+00 -0.13808344681E+04  0.13808344681E+04  0.00000000000E+00 0. -1.
        -24    2    1    2    0    0 -0.13268073453E+03  0.25174460711E+02 -0.12170211588E+04  0.12266343276E+04  0.72479941847E+02 0.  0.
         25    2    1    2    0    0  0.20233001045E+03 -0.10102237281E+03 -0.33635057384E+02  0.26061786584E+03  0.12508957580E+03 0.  0.
         24    2    1    2    0    0 -0.69649275919E+02  0.75847912101E+02  0.34774653914E+03  0.37150706569E+03  0.80535190833E+02 0.  0.
        -11    1    5    5    0    0 -0.67702826086E+02  0.86609617449E+02  0.34183205325E+03  0.35907387976E+03  0.00000000000E+00 0.  1.
         12    1    5    5    0    0 -0.19464498328E+01 -0.10761705348E+02  0.59144858925E+01  0.12433185928E+02  0.00000000000E+00 0. -1.
         11    1    3    3    0    0 -0.10460198440E+03 -0.11328532683E+02 -0.93147015362E+03  0.93739349149E+03  0.00000000000E+00 0. -1.
        -12    1    3    3    0    0 -0.28078750130E+02  0.36502993394E+02 -0.28555100515E+03  0.28924083611E+03  0.00000000000E+00 0.  1.
          5    1    4    4  501    0  0.18694536296E+03 -0.37933247359E+02 -0.89170671827E+01  0.19100912668E+03  0.41800000000E+01 0.  1.
         -5    1    4    4    0  501  0.15384647493E+02 -0.63089125453E+02 -0.24717990202E+02  0.69608739168E+02  0.41800000000E+01 0.  1.
</event>
<event>
11    1  0.8037748E-009  0.2934579E+03  0.7561462E-02  0.1002999E+00
         22   -1    0    0    0    0  0.00000000000E+00  0.00000000000E+00  0.22235672008E+04  0.22235672008E+04  0.00000000000E+00 0.  1.
         22   -1    0    0    0    0 -0.00000000000E+00 -0.00000000000E+00 -0.13464464993E+04  0.13464464993E+04  0.00000000000E+00 0. -1.
         24    2    1    2    0    0  0.82669825827E+02 -0.10822871364E+03 -0.11087118179E+04  0.11199877390E+04  0.81134985635E+02 0.  0.
         25    2    1    2    0    0  0.11434987421E+03  0.28541603202E+03 -0.99255264446E+02  0.34646193932E+03  0.12508422288E+03 0.  0.
        -24    2    1    2    0    0 -0.19701970003E+03 -0.17718731838E+03  0.20850877838E+04  0.21035640218E+04  0.84725554409E+02 0.  0.
        -11    1    3    3    0    0  0.22060974710E+02 -0.93190486412E+02 -0.70506675280E+03  0.71154077836E+03  0.00000000000E+00 0.  1.
         12    1    3    3    0    0  0.60608851117E+02 -0.15038227231E+02 -0.40364506505E+03  0.40844696064E+03  0.00000000000E+00 0. -1.
         13    1    5    5    0    0 -0.61389389094E+01 -0.18811926694E+02  0.56405807081E+02  0.59776167738E+02  0.00000000000E+00 0. -1.
        -14    1    5    5    0    0 -0.19088076112E+03 -0.15837539168E+03  0.20286819768E+04  0.20437878541E+04  0.00000000000E+00 0.  1.
          5    1    4    4  501    0 -0.26040902661E+02  0.66304811442E+02 -0.27660440277E+02  0.76531228842E+02  0.41800000000E+01 0. -1.
         -5    1    4    4    0  501  0.14039077687E+03  0.21911122058E+03 -0.71594824169E+02  0.26993071048E+03  0.41800000000E+01 0. -1.
</event>
<event>
11    1  0.8037748E-009  0.1412572E+03  0.7561462E-02  0.1106163E+00
         22   -1    0    0    0    0  0.00000000000E+00  0.00000000000E+00  0.22320026494E+03  0.22320026494E+03  0.00000000000E+00 0.  1.
         22   -1    0    0    0    0 -0.00000000000E+00 -0.00000000000E+00 -0.12968668831E+04  0.12968668831E+04  0.00000000000E+00 0. -1.
        -24    2    1    2    0    0 -0.44593827491E+02 -0.53386420077E+02 -0.11615661981E+04  0.11663729095E+04  0.79693237693E+02 0.  0.
         25    2    1    2    0    0  0.11557964135E+02  0.54564037313E+01 -0.87126465709E+02  0.15297766823E+03  0.12509111508E+03 0.  0.
         24    2    1    2    0    0  0.33035863356E+02  0.47930016345E+02  0.17502604569E+03  0.20071657028E+03  0.79147774309E+02 0.  0.
        -11    1    5    5    0    0  0.57995900174E+02  0.37408166206E+02  0.10516216032E+03  0.12578543358E+03  0.00000000000E+00 0.  1.
         12    1    5    5    0    0 -0.24960036818E+02  0.10521850139E+02  0.69863885371E+02  0.74931136702E+02  0.00000000000E+00 0. -1.
         11    1    3    3    0    0 -0.30792406320E+01 -0.27886023747E+02 -0.89187842865E+03  0.89231958598E+03  0.00000000000E+00 0. -1.
        -12    1    3    3    0    0 -0.41514586859E+02 -0.25500396330E+02 -0.26968776949E+03  0.27405332355E+03  0.00000000000E+00 0.  1.
          5    1    4    4  501    0 -0.36471843923E+02 -0.36471436618E+02 -0.69591213932E+02  0.86722376262E+02  0.41800000000E+01 0.  1.
         -5    1    4    4    0  501  0.48029808058E+02  0.41927840349E+02 -0.17535251777E+02  0.66255291965E+02  0.41800000000E+01 0.  1.
</event>
<event>
11    1  0.8037748E-009  0.1315462E+03  0.7561462E-02  0.1117384E+00
         22   -1    0    0    0    0  0.00000000000E+00  0.00000000000E+00  0.12442209794E+04  0.12442209794E+04  0.00000000000E+00 0. -1.
         22   -1    0    0    0    0 -0.00000000000E+00 -0.00000000000E+00 -0.24881349026E+03  0.24881349026E+03  0.00000000000E+00 0. -1.
        -24    2    1    2    0    0  0.42222568522E+02  0.14637751815E+01 -0.21171500977E+03  0.23663081575E+03  0.96881420656E+02 0.  0.
         25    2    1    2    0    0 -0.15708300627E+02  0.46737277195E+02  0.18046302646E+03  0.22504483394E+03  0.12508856693E+03 0.  0.
         24    2    1    2    0    0 -0.26514267896E+02 -0.48201052376E+02  0.10266594725E+04  0.10313588200E+04  0.81516840715E+02 0.  0.
        -13    1    5    5    0    0 -0.15689997920E+02  0.17466248069E+02  0.12097226393E+03  0.12322960073E+03  0.00000000000E+00 0.  1.
         14    1    5    5    0    0 -0.10824269975E+02 -0.65667300445E+02  0.90568720854E+03  0.90812921927E+03  0.00000000000E+00 0. -1.
         13    1    3    3    0    0  0.49128402541E+02  0.30247877477E+02 -0.19340011326E+03  0.20182204498E+03  0.00000000000E+00 0. -1.
        -14    1    3    3    0    0 -0.69058340188E+01 -0.28784102296E+02 -0.18314896507E+02  0.34808770770E+02  0.00000000000E+00 0.  1.
          5    1    4    4  501    0  0.49245223578E+01 -0.23166444088E+02 -0.60104819939E+01  0.24789783096E+02  0.41800000000E+01 0. -1.
         -5    1    4    4    0  501 -0.20632822984E+02  0.69903721283E+02  0.18647350845E+03  0.20025505084E+03  0.41800000000E+01 0. -1.
</event>
<event>
11    1  0.8037748E-009  0.1466257E+03  0.7561462E-02  0.1100377E+00
         22   -1    0    0    0    0  0.00000000000E+00  0.00000000000E+00  0.64897592788E+03  0.64897592788E+03  0.00000000000E+00 0.  1.
         22   -1    0    0    0    0 -0.00000000000E+00 -0.00000000000E+00 -0.21664917159E+03  0.21664917159E+03  0.00000000000E+00 0. -1.
        -24    2    1    2    0    0 -0.50191368080E+02 -0.58279905232E+02 -0.17330424883E+03  0.20550268908E+03  0.79254474785E+02 0.  0.
         25    2    1    2    0    0  0.37657075346E+02  0.60782834741E+02  0.19864712291E+03  0.24540020733E+03  0.12509186224E+03 0.  0.
         24    2    1    2    0    0  0.12534292735E+02 -0.25029295085E+01  0.40698388221E+03  0.41472220305E+03  0.78709924268E+02 0.  0.
        -13    1    5    5    0    0 -0.31650187908E+02  0.18969889873E+01  0.23363941921E+03  0.23578106619E+03  0.00000000000E+00 0.  1.
         14    1    5    5    0    0  0.44184480642E+02 -0.43999184958E+01  0.17334446299E+03  0.17894113687E+03  0.00000000000E+00 0. -1.
         11    1    3    3    0    0 -0.68331241897E+01 -0.53886167439E+02 -0.46786738178E+02  0.71689674966E+02  0.00000000000E+00 0. -1.
        -12    1    3    3    0    0 -0.43358243891E+02 -0.43937377935E+01 -0.12651751065E+03  0.13381301411E+03  0.00000000000E+00 0.  1.
          5    1    4    4  501    0  0.23209419165E+02  0.99650448917E+02  0.14014441451E+03  0.17357078794E+03  0.41800000000E+01 0. -1.
         -5    1    4    4    0  501  0.14447656181E+02 -0.38867614177E+02  0.58502708394E+02  0.71829419393E+02  0.41800000000E+01 0. -1.
</event>
<event>
11    1  0.8037748E-009  0.1315053E+03  0.7561462E-02  0.1117433E+00
         22   -1    0    0    0    0  0.00000000000E+00  0.00000000000E+00  0.17588368258E+04  0.17588368258E+04  0.00000000000E+00 0. -1.
         22   -1    0    0    0    0 -0.00000000000E+00 -0.00000000000E+00 -0.55994271544E+03  0.55994271544E+03  0.00000000000E+00 0. -1.
        -24    2    1    2    0    0  0.16934144669E+02  0.36483710306E+02 -0.52862843490E+03  0.53637259729E+03  0.81423059225E+02 0.  0.
         25    2    1    2    0    0 -0.38176358292E+02 -0.45055852918E+02  0.15622397300E+03  0.20866489087E+03  0.12509053812E+03 0.  0.
         24    2    1    2    0    0  0.21242213623E+02  0.85721426126E+01  0.15712985723E+04  0.15737420531E+04  0.84617569917E+02 0.  0.
        -11    1    5    5    0    0  0.42636281667E+02  0.15232807781E+02  0.46112365790E+03  0.46334103943E+03  0.00000000000E+00 0.  1.
         12    1    5    5    0    0 -0.21394068044E+02 -0.66606651683E+01  0.11101749144E+04  0.11104010136E+04  0.00000000000E+00 0. -1.
         13    1    3    3    0    0  0.21455218592E+02  0.59958229194E+02 -0.43967748783E+03  0.44426524617E+03  0.00000000000E+00 0. -1.
        -14    1    3    3    0    0 -0.45210739229E+01 -0.23474518888E+02 -0.88950947067E+02  0.92107351122E+02  0.00000000000E+00 0.  1.
          5    1    4    4  501    0  0.11763162529E+02 -0.71282972807E+02  0.48875301968E+02  0.87326409220E+02  0.41800000000E+01 0.  1.
         -5    1    4    4    0  501 -0.49939520821E+02  0.26227119889E+02  0.10734867103E+03  0.12133848165E+03  0.41800000000E+01 0.  1.
</event>
<event>
11    1  0.8037748E-009  0.1442297E+03  0.7561462E-02  0.1102925E+00
         22   -1    0    0    0    0  0.00000000000E+00  0.00000000000E+00  0.11325901992E+03  0.11325901992E+03  0.00000000000E+00 0. -1.
         22   -1    0    0    0    0 -0.00000000000E+00 -0.00000000000E+00 -0.44505108103E+03  0.44505108103E+03  0.00000000000E+00 0. -1.
         24    2    1    2    0    0  0.12486787678E+02 -0.13641692600E+02 -0.13714822590E+03  0.16028640031E+03  0.80870752518E+02 0.  0.
         25    2    1    2    0    0 -0.82660032119E+02  0.77926849583E+01 -0.23908148916E+03  0.28231291428E+03  0.12508883350E+03 0.  0.
        -24    2    1    2    0    0  0.70173244442E+02  0.58490076416E+01  0.44437653950E+02  0.11571078635E+03  0.80347905158E+02 0.  0.
        -11    1    3    3    0    0  0.34913754211E+02 -0.29619603617E+00 -0.19939586380E+02  0.40207525045E+02  0.00000000000E+00 0.  1.
         12    1    3    3    0    0 -0.22426966533E+02 -0.13345496564E+02 -0.11720863952E+03  0.12007887527E+03  0.00000000000E+00 0. -1.
         11    1    5    5    0    0  0.74559351748E+02 -0.36666596915E+01  0.60803070380E+02  0.96278526650E+02  0.00000000000E+00 0. -1.
        -12    1    5    5    0    0 -0.43861073060E+01  0.95156673331E+01 -0.16365416430E+02  0.19432259700E+02  0.00000000000E+00 0.  1.
          5    1    4    4  501    0 -0.73852964577E+02 -0.48517220959E+02 -0.17736108280E+03  0.19819840362E+03  0.41800000000E+01 0. -1.
         -5    1    4    4    0  501 -0.88070675422E+01  0.56309905917E+02 -0.61720406358E+02  0.84114510663E+02  0.41800000000E+01 0. -1.
</event>
<event>
11    1  0.8037748E-009  0.1568162E+03  0.7561462E-02  0.1090111E+00
         22   -1    0    0    0    0  0.00000000000E+00  0.00000000000E+00  0.18978036156E+03  0.18978036156E+03  0.00000000000E+00 0. -1.
         22   -1    0    0    0    0 -0.00000000000E+00 -0.00000000000E+00 -0.48760270768E+03  0.48760270768E+03  0.00000000000E+00 0.  1.
        -24    2    1    2    0    0 -0.11802731252E+02 -0.97229310983E+02 -0.31490291178E+03  0.33920592356E+03  0.79397552569E+02 0.  0.
         25    2    1    2    0    0 -0.17422984433E+02  0.85347867087E+02 -0.10698530810E+03  0.18622975170E+03  0.12509134848E+03 0.  0.
         24    2    1    2    0    0  0.29225715685E+02  0.11881443896E+02  0.12406587376E+03  0.15194739399E+03  0.81855716624E+02 0.  0.
        -11    1    5    5    0    0  0.37316075190E+02 -0.10118083347E+02  0.16809370650E+02  0.42159459435E+02  0.00000000000E+00 0.  1.
         12    1    5    5    0    0 -0.80903595058E+01  0.21999527243E+02  0.10725650311E+03  0.10978793456E+03  0.00000000000E+00 0. -1.
         13    1    3    3    0    0 -0.24145175855E+02 -0.49261972003E+02 -0.25799075349E+03  0.26375928475E+03  0.00000000000E+00 0. -1.
        -14    1    3    3    0    0  0.12342444604E+02 -0.47967338980E+02 -0.56912158281E+02  0.75446638811E+02  0.00000000000E+00 0.  1.
          5    1    4    4  501    0 -0.10330275474E+02  0.10723700086E+03 -0.39525491862E+02  0.11483129300E+03  0.41800000000E+01 0.  1.
         -5    1    4    4    0  501 -0.70927089589E+01 -0.21889133773E+02 -0.67459816237E+02  0.71398458698E+02  0.41800000000E+01 0.  1.
</event>
<event>
11    1  0.8037748E-009  0.1401912E+03  0.7561462E-02  0.1107345E+00
         22   -1    0    0    0    0  0.00000000000E+00  0.00000000000E+00  0.23260453751E+03  0.23260453751E+03  0.00000000000E+00 0. -1.
         22   -1    0    0    0    0 -0.00000000000E+00 -0.00000000000E+00 -0.15713053736E+04  0.15713053736E+04  0.00000000000E+00 0. -1.
        -24    2    1    2    0    0  0.27823090774E+02  0.56677463927E+02 -0.13129197399E+04  0.13171387890E+04  0.84320144071E+02 0.  0.
         25    2    1    2    0    0 -0.48813106327E+02 -0.47829007430E+02 -0.22744086023E+03  0.26841547871E+03  0.12508873254E+03 0.  0.
         24    2    1    2    0    0  0.20990015553E+02 -0.88484564971E+01  0.20165976403E+03  0.21835564343E+03  0.80583190899E+02 0.  0.
        -13    1    5    5    0    0  0.20812205589E+02  0.48805764319E+01  0.59837277623E+01  0.22198489267E+02  0.00000000000E+00 0.  1.
         14    1    5    5    0    0  0.17780996428E+00 -0.13729032929E+02  0.19567603627E+03  0.19615715416E+03  0.00000000000E+00 0. -1.
         11    1    3    3    0    0  0.16622517011E+02  0.55261425788E+02 -0.39921352971E+03  0.40336283363E+03  0.00000000000E+00 0. -1.
        -12    1    3    3    0    0  0.11200573763E+02  0.14160381385E+01 -0.91370621021E+03  0.91377595536E+03  0.00000000000E+00 0.  1.
          5    1    4    4  501    0  0.39975036098E+02 -0.21106030952E+01 -0.44892322498E+02  0.60293044173E+02  0.41800000000E+01 0.  1.
         -5    1    4    4    0  501 -0.88788142425E+02 -0.45718404334E+02 -0.18254853773E+03  0.20812243454E+03  0.41800000000E+01 0.  1.
</event>
<event>
11    1  0.8037748E-009  0.1432476E+03  0.7561462E-02  0.1103985E+00
         22   -1    0    0    0    0  0.00000000000E+00  0.00000000000E+00  0.27718510969E+03  0.27718510969E+03  0.00000000000E+00 0.  1.
         22   -1    0    0    0    0 -0.00000000000E+00 -0.00000000000E+00 -0.52636654586E+03  0.52636654586E+03  0.00000000000E+00 0.  1.
         24    2    1    2    0    0 -0.30448851574E+02  0.69008279290E+02 -0.37333902449E+03  0.38925800322E+03  0.80314946881E+02 0.  0.
         25    2    1    2    0    0  0.58043851929E+02 -0.19954591674E+02 -0.98600884846E+02  0.17069553947E+03  0.12509020037E+03 0.  0.
        -24    2    1    2    0    0 -0.27595000355E+02 -0.49053687616E+02  0.22275847317E+03  0.24359811285E+03  0.80937969475E+02 0.  0.
        -11    1    3    3    0    0 -0.36951419981E+02  0.72158445461E+02 -0.37333179619E+03  0.38203256240E+03  0.00000000000E+00 0.  1.
         12    1    3    3    0    0  0.65025684075E+01 -0.31501661715E+01 -0.72283019475E-02  0.72254408205E+01  0.00000000000E+00 0. -1.
         11    1    5    5    0    0 -0.37597020414E+02 -0.45295468951E+01  0.39406945699E+02  0.54653088736E+02  0.00000000000E+00 0. -1.
        -12    1    5    5    0    0  0.10002020059E+02 -0.44524140721E+02  0.18335152747E+03  0.18894502412E+03  0.00000000000E+00 0.  1.
          5    1    4    4  501    0  0.59841561720E+02  0.19971813063E+02  0.10647565940E+01  0.63233629761E+02  0.41800000000E+01 0.  1.
         -5    1    4    4    0  501 -0.17977097911E+01 -0.39926404737E+02 -0.99665641440E+02  0.10746190971E+03  0.41800000000E+01 0.  1.
</event>
<event>
11    1  0.8037748E-009  0.1325320E+03  0.7561462E-02  0.1116197E+00
         22   -1    0    0    0    0  0.00000000000E+00  0.00000000000E+00  0.18495399909E+03  0.18495399909E+03  0.00000000000E+00 0. -1.
         22   -1    0    0    0    0 -0.00000000000E+00 -0.00000000000E+00 -0.29539333602E+03  0.29539333602E+03  0.00000000000E+00 0.  1.
         24    2    1    2    0    0  0.55487099212E+01  0.10479446606E+02 -0.19117513047E+03  0.20876802113E+03  0.83039443351E+02 0.  0.
         25    2    1    2    0    0 -0.69744819670E+01  0.35168757228E+02 -0.23397269006E+02  0.13221480068E+03  0.12509131240E+03 0.  0.
        -24    2    1    2    0    0  0.14257720458E+01 -0.45648203834E+02  0.10413306255E+03  0.13936451330E+03  0.80579038915E+02 0.  0.
        -13    1    3    3    0    0 -0.18688394011E+02 -0.23721122103E+02 -0.13689534209E+03  0.14018659847E+03  0.00000000000E+00 0.  1.
         14    1    3    3    0    0  0.24237103933E+02  0.34200568708E+02 -0.54279788376E+02  0.68581422653E+02  0.00000000000E+00 0. -1.
         11    1    5    5    0    0 -0.39577323675E+02 -0.23035699623E+02  0.52099133909E+02  0.69363735197E+02  0.00000000000E+00 0. -1.
        -12    1    5    5    0    0  0.41003095721E+02 -0.22612504211E+02  0.52033928642E+02  0.70000778105E+02  0.00000000000E+00 0.  1.
          5    1    4    4  501    0 -0.34114200488E+02 -0.22711295537E+01 -0.62598206387E+02  0.71448894653E+02  0.41800000000E+01 0. -1.
         -5    1    4    4    0  501  0.27139718521E+02  0.37439886782E+02  0.39200937381E+02  0.60765906026E+02  0.41800000000E+01 0. -1.
</event>
<event>
11    1  0.8037748E-009  0.2549868E+03  0.7561462E-02  0.1021276E+00
         22   -1    0    0    0    0  0.00000000000E+00  0.00000000000E+00  0.61890477287E+03  0.61890477287E+03  0.00000000000E+00 0.  1.
         22   -1    0    0    0    0 -0.00000000000E+00 -0.00000000000E+00 -0.25460602486E+03  0.25460602486E+03  0.00000000000E+00 0.  1.
         24    2    1    2    0    0 -0.17842308661E+03 -0.13774467217E+03 -0.61139764713E+02  0.24683980232E+03  0.79896336767E+02 0.  0.
         25    2    1    2    0    0  0.18492156170E+03  0.11410398268E+03  0.68143439755E+02  0.25982047449E+03  0.12508975872E+03 0.  0.
        -24    2    1    2    0    0 -0.64984750891E+01  0.23640689496E+02  0.35729507296E+03  0.36685052092E+03  0.79488509575E+02 0.  0.
        -13    1    3    3    0    0 -0.13010242804E+03 -0.73041998746E+02 -0.71450383238E+02  0.16542953977E+03  0.00000000000E+00 0.  1.
         14    1    3    3    0    0 -0.48320658573E+02 -0.64702673428E+02  0.10310618525E+02  0.81410262548E+02  0.00000000000E+00 0. -1.
         13    1    5    5    0    0  0.48768872522E+01  0.83527691131E+01  0.64715646890E+00  0.96938946055E+01  0.00000000000E+00 0. -1.
        -14    1    5    5    0    0 -0.11375362341E+02  0.15287920383E+02  0.35664791650E+03  0.35715662631E+03  0.00000000000E+00 0.  1.
          5    1    4    4  501    0  0.61617394174E+00  0.50927089791E+02 -0.57054922349E+01  0.51419579798E+02  0.41800000000E+01 0. -1.
         -5    1    4    4    0  501  0.18430538776E+03  0.63176892887E+02  0.73848931990E+02  0.20840089469E+03  0.41800000000E+01 0. -1.
</event>
<event>
11    1  0.8037748E-009  0.3768350E+03  0.7561462E-02  0.9720693E-01
         22   -1    0    0    0    0  0.00000000000E+00  0.00000000000E+00  0.65836776443E+03  0.65836776443E+03  0.00000000000E+00 0. -1.
         22   -1    0    0    0    0 -0.00000000000E+00 -0.00000000000E+00 -0.45200337518E+03  0.45200337518E+03  0.00000000000E+00 0.  1.
        -24    2    1    2    0    0  0.23879310086E+03 -0.35141387000E+03 -0.16347478682E+03  0.46194206454E+03  0.78438587586E+02 0.  0.
         25    2    1    2    0    0 -0.15887610479E+03  0.21473949572E+03  0.75990158600E+02  0.30458932939E+03  0.12508192387E+03 0.  0.
         24    2    1    2    0    0 -0.79916996074E+02  0.13667437427E+03  0.29384901748E+03  0.34383974568E+03  0.82534324934E+02 0.  0.
        -11    1    5    5    0    0 -0.13919663603E+02 -0.95897457106E+01  0.41289440878E+02  0.44615447836E+02  0.00000000000E+00 0.  1.
         12    1    5    5    0    0 -0.65997332471E+02  0.14626411998E+03  0.25255957660E+03  0.29922429784E+03  0.00000000000E+00 0. -1.
         13    1    3    3    0    0  0.45222728887E+02 -0.22806504417E+02 -0.17778177549E+02  0.53677699734E+02  0.00000000000E+00 0. -1.
        -14    1    3    3    0    0  0.19357037197E+03 -0.32860736558E+03 -0.14569660927E+03  0.40826436481E+03  0.00000000000E+00 0.  1.
          5    1    4    4  501    0 -0.64662787190E+02  0.64392852685E+01  0.28373394958E+02  0.71030010442E+02  0.41800000000E+01 0. -1.
         -5    1    4    4    0  501 -0.94213317596E+02  0.20830021046E+03  0.47616763642E+02  0.23355931895E+03  0.41800000000E+01 0. -1.
</event>
<event>
11    1  0.8037748E-009  0.1663376E+03  0.7561462E-02  0.1081264E+00
         22   -1    0    0    0    0  0.00000000000E+00  0.00000000000E+00  0.61086357534E+03  0.61086357534E+03  0.00000000000E+00 0.  1.
         22   -1    0    0    0    0 -0.00000000000E+00 -0.00000000000E+00 -0.88722117300E+03  0.88722117300E+03  0.00000000000E+00 0. -1.
         24    2    1    2    0    0 -0.73964181527E+02 -0.81325824307E+02 -0.85756137645E+03  0.86696357531E+03  0.64263027382E+02 0.  0.
         25    2    1    2    0    0  0.59415799793E+02  0.67998875265E+02  0.29422802889E+03  0.33222221264E+03  0.12508949310E+03 0.  0.
        -24    2    1    2    0    0  0.14548381734E+02  0.13326949042E+02  0.28697574989E+03  0.29889896039E+03  0.81217267367E+02 0.  0.
        -11    1    3    3    0    0 -0.26062926751E+02 -0.38365535664E+02 -0.16425289925E+03  0.17067573170E+03  0.00000000000E+00 0.  1.
         12    1    3    3    0    0 -0.47901254776E+02 -0.42960288643E+02 -0.69330847719E+03  0.69628784361E+03  0.00000000000E+00 0. -1.
         13    1    5    5    0    0  0.23945828152E+02  0.44435184002E+02  0.15658734105E+03  0.16452198528E+03  0.00000000000E+00 0. -1.
        -14    1    5    5    0    0 -0.93974464183E+01 -0.31108234960E+02  0.13038840884E+03  0.13437697512E+03  0.00000000000E+00 0.  1.
          5    1    4    4  501    0  0.84559452285E+02  0.38915566670E+02  0.27222238478E+03  0.28772768632E+03  0.41800000000E+01 0. -1.
         -5    1    4    4    0  501 -0.25143652492E+02  0.29083308595E+02  0.22005644106E+02  0.44494526315E+02  0.41800000000E+01 0. -1.
</event>
<event>
11    1  0.8037748E-009  0.1823770E+03  0.7561462E-02  0.1067736E+00
         22   -1    0    0    0    0  0.00000000000E+00  0.00000000000E+00  0.44940553125E+03  0.44940553125E+03  0.00000000000E+00 0. -1.
         22   -1    0    0    0    0 -0.00000000000E+00 -0.00000000000E+00 -0.44120976725E+03  0.44120976725E+03  0.00000000000E+00 0. -1.
         24    2    1    2    0    0  0.13694094347E+02  0.35855819829E+02 -0.30382234626E+03  0.31650561523E+03  0.79966357635E+02 0.  0.
         25    2    1    2    0    0  0.73237965489E+02  0.70331710732E+02 -0.58232225496E+02  0.17131334930E+03  0.12508765902E+03 0.  0.
        -24    2    1    2    0    0 -0.86932059837E+02 -0.10618753056E+03  0.37025033575E+03  0.40279633396E+03  0.79539932450E+02 0.  0.
        -11    1    3    3    0    0  0.63638141397E+01  0.41978433591E+02 -0.65909929781E+02  0.78401567975E+02  0.00000000000E+00 0.  1.
         12    1    3    3    0    0  0.73302802075E+01 -0.61226137620E+01 -0.23791241648E+03  0.23810404726E+03  0.00000000000E+00 0. -1.
         13    1    5    5    0    0 -0.63416599878E+02 -0.81298705696E+02  0.34547286105E+03  0.36053105610E+03  0.00000000000E+00 0. -1.
        -14    1    5    5    0    0 -0.23515459959E+02 -0.24888824865E+02  0.24777474697E+02  0.42265277860E+02  0.00000000000E+00 0.  1.
          5    1    4    4  501    0  0.50883565588E+02  0.73851836316E+02 -0.93227350802E+02  0.12942968095E+03  0.41800000000E+01 0. -1.
         -5    1    4    4    0  501  0.22354399901E+02 -0.35201255845E+01  0.34995125305E+02  0.41883668347E+02  0.41800000000E+01 0. -1.
</event>
<event>
11    1  0.1021501E-008  0.2917634E+03  0.7561462E-02  0.1003739E+00
         22   -1    0    0    0    0  0.00000000000E+00  0.00000000000E+00  0.51341675611E+03  0.51341675611E+03  0.00000000000E+00 0. -1.
         22   -1    0    0    0    0 -0.00000000000E+00 -0.00000000000E+00 -0.30858293995E+03  0.30858293995E+03  0.00000000000E+00 0. -1.
        -24    2    1    2    0    0 -0.68456823929E+02  0.28103188539E+02 -0.36694580308E+01  0.10546350737E+03  0.75053051345E+02 0.  0.
         25    2    1    2    0    0 -0.12502964306E+03 -0.21567075662E+03 -0.10284346874E+03  0.29727263063E+03  0.12509177013E+03 0.  0.
         24    2    1    2    0    0  0.19348646699E+03  0.18756756808E+03  0.31134674294E+03  0.41926355805E+03  0.78908372625E+02 0.  0.
        -13    1    5    5    0    0  0.75471444142E+02  0.12521264514E+03  0.14401888514E+03  0.20522081926E+03  0.00000000000E+00 0.  1.
         14    1    5    5    0    0  0.11801502285E+03  0.62354922947E+02  0.16732785780E+03  0.21404273879E+03  0.00000000000E+00 0. -1.
         11    1    3    3    0    0 -0.84042862010E+02  0.15765903788E+02 -0.36207491757E+01  0.85585490603E+02  0.00000000000E+00 0. -1.
        -12    1    3    3    0    0  0.15586038081E+02  0.12337284750E+02 -0.48708855104E-01  0.19878016768E+02  0.00000000000E+00 0.  1.
          5    1    4    4  501    0 -0.46122191693E+02 -0.95748280653E+02  0.20074612337E+02  0.10823794286E+03  0.41800000000E+01 0. -1.
         -5    1    4    4    0  501 -0.78907451370E+02 -0.11992247597E+03 -0.12291808108E+03  0.18903468777E+03  0.41800000000E+01 0. -1.
</event>
<event>
11    1  0.8037748E-009  0.1328293E+03  0.7561462E-02  0.1115841E+00
         22   -1    0    0    0    0  0.00000000000E+00  0.00000000000E+00  0.23052664074E+03  0.23052664074E+03  0.00000000000E+00 0.  1.
         22   -1    0    0    0    0 -0.00000000000E+00 -0.00000000000E+00 -0.41822044604E+03  0.41822044604E+03  0.00000000000E+00 0.  1.
         24    2    1    2    0    0 -0.31317316600E+02 -0.34741319460E+02 -0.31258174067E+03  0.32542849699E+03  0.77515343359E+02 0.  0.
         25    2    1    2    0    0  0.14166898508E+02  0.26778196581E+02 -0.43469931404E+02  0.13585528855E+03  0.12509696904E+03 0.  0.
        -24    2    1    2    0    0  0.17150418092E+02  0.79631228791E+01  0.16835786677E+03  0.18746330124E+03  0.80253160941E+02 0.  0.
        -11    1    3    3    0    0 -0.43077489933E+02 -0.45258031829E+02 -0.29607033339E+03  0.30259147691E+03  0.00000000000E+00 0.  1.
         12    1    3    3    0    0  0.11760173333E+02  0.10516712369E+02 -0.16511407282E+02  0.22837020084E+02  0.00000000000E+00 0. -1.
         11    1    5    5    0    0  0.40557287906E+02 -0.40656867065E+01  0.42513607746E+02  0.58896776264E+02  0.00000000000E+00 0. -1.
        -12    1    5    5    0    0 -0.23406869814E+02  0.12028809586E+02  0.12584425902E+03  0.12856652497E+03  0.00000000000E+00 0.  1.
          5    1    4    4  501    0 -0.51136116078E+02  0.23522709014E+02 -0.41942775400E+02  0.70319904830E+02  0.41800000000E+01 0. -1.
         -5    1    4    4    0  501  0.65303014587E+02  0.32554875664E+01 -0.15271560038E+01  0.65535383716E+02  0.41800000000E+01 0. -1.
</event>
<event>
11    1  0.8037748E-009  0.1820304E+03  0.7561462E-02  0.1068012E+00
         22   -1    0    0    0    0  0.00000000000E+00  0.00000000000E+00  0.92718761110E+02  0.92718761110E+02  0.00000000000E+00 0.  1.
         22   -1    0    0    0    0 -0.00000000000E+00 -0.00000000000E+00 -0.12516961322E+04  0.12516961322E+04  0.00000000000E+00 0. -1.
        -24    2    1    2    0    0  0.82431450517E+02  0.10354214325E+03 -0.78285379678E+03  0.79803043544E+03  0.80477259389E+02 0.  0.
         25    2    1    2    0    0 -0.14729880563E+03  0.23176205243E+02 -0.31871594254E+03  0.37346154154E+03  0.12513830889E+03 0.  0.
         24    2    1    2    0    0  0.64867355115E+02 -0.12671834849E+03 -0.57407631752E+02  0.17292291632E+03  0.79632814847E+02 0.  0.
        -11    1    5    5    0    0  0.66198088738E+02 -0.11158080631E+03 -0.74855127937E+02  0.14978569180E+03  0.00000000000E+00 0.  1.
         12    1    5    5    0    0 -0.13307336237E+01 -0.15137542188E+02  0.17447496185E+02  0.23137224523E+02  0.00000000000E+00 0. -1.
         13    1    3    3    0    0  0.43219269285E+02  0.43195841803E+02 -0.57155455299E+03  0.57481161526E+03  0.00000000000E+00 0. -1.
        -14    1    3    3    0    0  0.39212181232E+02  0.60346301449E+02 -0.21129924379E+03  0.22321882018E+03  0.00000000000E+00 0.  1.
          5    1    4    4  501    0 -0.11358120858E+03 -0.40711582648E+02 -0.17568473293E+03  0.21316829429E+03  0.41800000000E+01 0.  1.
         -5    1    4    4    0  501 -0.33717597049E+02  0.63887787892E+02 -0.14303120961E+03  0.16029324726E+03  0.41800000000E+01 0.  1.
</event>
<event>
11    1  0.8037748E-009  0.1402469E+03  0.7561462E-02  0.1107283E+00
         22   -1    0    0    0    0  0.00000000000E+00  0.00000000000E+00  0.41204576212E+03  0.41204576212E+03  0.00000000000E+00 0.  1.
         22   -1    0    0    0    0 -0.00000000000E+00 -0.00000000000E+00 -0.23908907682E+04  0.23908907682E+04  0.00000000000E+00 0. -1.
        -24    2    1    2    0    0 -0.55802779946E+02 -0.32383575658E+02 -0.20080977804E+04  0.20107359463E+04  0.80247766079E+02 0.  0.
         25    2    1    2    0    0  0.73167818236E+02 -0.29021667982E+02 -0.36027757157E+03  0.38941427111E+03  0.12509100339E+03 0.  0.
         24    2    1    2    0    0 -0.17365038291E+02  0.61405243640E+02  0.38953034593E+03  0.40278631285E+03  0.80192112580E+02 0.  0.
        -13    1    5    5    0    0 -0.21184734066E+02  0.79594402526E+02  0.34132176050E+03  0.35111907676E+03  0.00000000000E+00 0.  1.
         14    1    5    5    0    0  0.38196957757E+01 -0.18189158886E+02  0.48208585429E+02  0.51667236097E+02  0.00000000000E+00 0. -1.
         11    1    3    3    0    0 -0.14183148518E+02  0.22806482403E+01 -0.14378026733E+04  0.14378744349E+04  0.00000000000E+00 0. -1.
        -12    1    3    3    0    0 -0.41619631428E+02 -0.34664223899E+02 -0.57029510708E+03  0.57286151144E+03  0.00000000000E+00 0.  1.
          5    1    4    4  501    0  0.36175514816E+02 -0.75090630011E+02 -0.25871395348E+03  0.27184122703E+03  0.41800000000E+01 0. -1.
         -5    1    4    4    0  501  0.36992303421E+02  0.46068962029E+02 -0.10156361809E+03  0.11757304408E+03  0.41800000000E+01 0. -1.
</event>
<event>
11    1  0.8037748E-009  0.1597092E+03  0.7561462E-02  0.1087351E+00
         22   -1    0    0    0    0  0.00000000000E+00  0.00000000000E+00  0.37451293418E+03  0.37451293418E+03  0.00000000000E+00 0. -1.
         22   -1    0    0    0    0 -0.00000000000E+00 -0.00000000000E+00 -0.29686834416E+03  0.29686834416E+03  0.00000000000E+00 0.  1.
        -24    2    1    2    0    0  0.74226362014E+02  0.65414023579E+02 -0.17504220155E+03  0.21569464844E+03  0.78075999800E+02 0.  0.
         25    2    1    2    0    0 -0.11994223799E+03 -0.82928571030E+01 -0.77429451481E+01  0.17366963920E+03  0.12508508483E+03 0.  0.
         24    2    1    2    0    0  0.45715875972E+02 -0.57121166476E+02  0.26042973672E+03  0.28201699070E+03  0.79731839968E+02 0.  0.
        -13    1    5    5    0    0 -0.13118097543E+02  0.11379938194E+02  0.32431245435E+02  0.36788220356E+02  0.00000000000E+00 0.  1.
         14    1    5    5    0    0  0.58833973516E+02 -0.68501104670E+02  0.22799849128E+03  0.24522877035E+03  0.00000000000E+00 0. -1.
         13    1    3    3    0    0 -0.69700284648E+01  0.35676011446E+02 -0.31405589234E+02  0.48038215252E+02  0.00000000000E+00 0. -1.
        -14    1    3    3    0    0  0.81196390479E+02  0.29738012133E+02 -0.14363661232E+03  0.16765643319E+03  0.00000000000E+00 0.  1.
          5    1    4    4  501    0 -0.75350012324E+02 -0.37794099943E+01  0.57117198076E+02  0.94719348674E+02  0.41800000000E+01 0. -1.
         -5    1    4    4    0  501 -0.44592225662E+02 -0.45134471087E+01 -0.64860143224E+02  0.78950290521E+02  0.41800000000E+01 0. -1.
</event>
<event>
11    1  0.8037748E-009  0.3313135E+03  0.7561462E-02  0.9877456E-01
         22   -1    0    0    0    0  0.00000000000E+00  0.00000000000E+00  0.61887476615E+03  0.61887476615E+03  0.00000000000E+00 0.  1.
         22   -1    0    0    0    0 -0.00000000000E+00 -0.00000000000E+00 -0.16379505914E+04  0.16379505914E+04  0.00000000000E+00 0.  1.
         24    2    1    2    0    0 -0.18924443547E+03 -0.23781268454E+03 -0.11664379120E+04  0.12080658468E+04  0.80482037936E+02 0.  0.
         25    2    1    2    0    0  0.39388203145E+03  0.73997303692E+02 -0.30583061622E+03  0.51942143294E+03  0.12509038142E+03 0.  0.
        -24    2    1    2    0    0 -0.20463759598E+03  0.16381538085E+03  0.45319270302E+03  0.52933807773E+03  0.78122658526E+02 0.  0.
        -13    1    3    3    0    0 -0.19279309486E+03 -0.23089963632E+03 -0.10748234657E+04  0.11161224403E+04  0.00000000000E+00 0.  1.
         14    1    3    3    0    0  0.35486593940E+01 -0.69130482190E+01 -0.91614446367E+02  0.91943406519E+02  0.00000000000E+00 0. -1.
         11    1    5    5    0    0 -0.58126466368E+02  0.73222700513E+02  0.22320749346E+03  0.24199552703E+03  0.00000000000E+00 0. -1.
        -12    1    5    5    0    0 -0.14651112962E+03  0.90592680333E+02  0.22998520956E+03  0.28734255071E+03  0.00000000000E+00 0.  1.
          5    1    4    4  501    0  0.80661096787E+02 -0.33814537667E+02 -0.49799348407E+02  0.10073273050E+03  0.41800000000E+01 0.  1.
         -5    1    4    4    0  501  0.31322093467E+03  0.10781184136E+03 -0.25603126781E+03  0.41868870244E+03  0.41800000000E+01 0.  1.
</event>
<event>
11    1  0.8037748E-009  0.2644850E+03  0.7561462E-02  0.1016454E+00
         22   -1    0    0    0    0  0.00000000000E+00  0.00000000000E+00  0.32110373525E+04  0.32110373525E+04  0.00000000000E+00 0.  1.
         22   -1    0    0    0    0 -0.00000000000E+00 -0.00000000000E+00 -0.16850838981E+03  0.16850838981E+03  0.00000000000E+00 0.  1.
        -24    2    1    2    0    0 -0.15692814014E+03  0.32251575156E+02 -0.88323564493E+02  0.20114199501E+03  0.83608880164E+02 0.  0.
         25    2    1    2    0    0  0.32894527481E+03 -0.55210656774E+02  0.21096843876E+04  0.21395505138E+04  0.12511984372E+03 0.  0.
         24    2    1    2    0    0 -0.17201713467E+03  0.22959081618E+02  0.10211681396E+04  0.10388532335E+04  0.79464819083E+02 0.  0.
        -11    1    5    5    0    0 -0.13661978303E+03 -0.16213856489E+02  0.77030244244E+03  0.78249198532E+03  0.00000000000E+00 0.  1.
         12    1    5    5    0    0 -0.35397351643E+02  0.39172938107E+02  0.25086569714E+03  0.25636124822E+03  0.00000000000E+00 0. -1.
         11    1    3    3    0    0  0.45010851792E+01  0.15794616040E+02 -0.17782141677E+02  0.24206078292E+02  0.00000000000E+00 0. -1.
        -12    1    3    3    0    0 -0.16142922532E+03  0.16456959116E+02 -0.70541422815E+02  0.17693591671E+03  0.00000000000E+00 0.  1.
          5    1    4    4  501    0  0.27048701569E+03 -0.32738928706E+02  0.13468911770E+04  0.13741791652E+04  0.41800000000E+01 0. -1.
         -5    1    4    4    0  501  0.58458259117E+02 -0.22471728068E+02  0.76279321064E+03  0.76537134858E+03  0.41800000000E+01 0. -1.
</event>
<event>
11    1  0.8037748E-009  0.1966329E+03  0.7561462E-02  0.1056931E+00
         22   -1    0    0    0    0  0.00000000000E+00  0.00000000000E+00  0.16850739298E+04  0.16850739298E+04  0.00000000000E+00 0.  1.
         22   -1    0    0    0    0 -0.00000000000E+00 -0.00000000000E+00 -0.24058531323E+04  0.24058531323E+04  0.00000000000E+00 0.  1.
        -24    2    1    2    0    0  0.90036075279E+01  0.53242989219E+02 -0.21807103683E+04  0.21828737011E+04  0.80771305265E+02 0.  0.
         25    2    1    2    0    0 -0.73868200435E+01 -0.20388100411E+03 -0.15439209602E+03  0.28479576372E+03  0.12509867614E+03 0.  0.
         24    2    1    2    0    0 -0.16167874843E+01  0.15063801489E+03  0.16143232618E+04  0.16232575973E+04  0.78938000844E+02 0.  0.
        -11    1    5    5    0    0  0.12989194366E+02  0.15395959366E+03  0.15056705464E+04  0.15135772428E+04  0.00000000000E+00 0.  1.
         12    1    5    5    0    0 -0.14605981851E+02 -0.33215787666E+01  0.10865271538E+03  0.10968035444E+03  0.00000000000E+00 0. -1.
         11    1    3    3    0    0  0.23775693193E+02  0.50107385106E+02 -0.73684071378E+03  0.73892507815E+03  0.00000000000E+00 0. -1.
        -12    1    3    3    0    0 -0.14772085665E+02  0.31356041135E+01 -0.14438696545E+04  0.14439486229E+04  0.00000000000E+00 0.  1.
          5    1    4    4  501    0  0.45560680627E+02 -0.14539728255E+03 -0.65590913584E+02  0.16593910250E+03  0.41800000000E+01 0. -1.
         -5    1    4    4    0  501 -0.52947500671E+02 -0.58483721557E+02 -0.88801182438E+02  0.11885666122E+03  0.41800000000E+01 0. -1.
</event>
<event>
11    1  0.8037748E-009  0.1524960E+03  0.7561462E-02  0.1094355E+00
         22   -1    0    0    0    0  0.00000000000E+00  0.00000000000E+00  0.77462540729E+03  0.77462540729E+03  0.00000000000E+00 0. -1.
         22   -1    0    0    0    0 -0.00000000000E+00 -0.00000000000E+00 -0.17583978586E+03  0.17583978586E+03  0.00000000000E+00 0. -1.
        -24    2    1    2    0    0 -0.14494876615E+02  0.84428535369E+02 -0.74834040888E+02  0.13908910747E+03  0.80046031191E+02 0.  0.
         25    2    1    2    0    0 -0.66794660322E+01 -0.93368913389E+02  0.26022622949E+02  0.15839686426E+03  0.12510004176E+03 0.  0.
         24    2    1    2    0    0  0.21174342648E+02  0.89403780204E+01  0.64759703936E+03  0.65297922142E+03  0.80446597592E+02 0.  0.
        -11    1    5    5    0    0  0.44524691957E+02  0.11895559960E+02  0.22207017199E+03  0.22680192642E+03  0.00000000000E+00 0.  1.
         12    1    5    5    0    0 -0.23350349310E+02 -0.29551819398E+01  0.42552686738E+03  0.42617729500E+03  0.00000000000E+00 0. -1.
         13    1    3    3    0    0 -0.42066109392E+02  0.69099833786E+02 -0.34659060821E+02  0.88009062520E+02  0.00000000000E+00 0. -1.
        -14    1    3    3    0    0  0.27571232777E+02  0.15328701582E+02 -0.40174980067E+02  0.51080044953E+02  0.00000000000E+00 0.  1.
          5    1    4    4  501    0 -0.55576769355E+02 -0.22402467231E+02  0.38309178425E+02  0.71244041025E+02  0.41800000000E+01 0.  1.
         -5    1    4    4    0  501  0.48897303322E+02 -0.70966446158E+02 -0.12286555477E+02  0.87152823236E+02  0.41800000000E+01 0.  1.
</event>
<event>
11    1  0.8037748E-009  0.1487533E+03  0.7561462E-02  0.1098160E+00
         22   -1    0    0    0    0  0.00000000000E+00  0.00000000000E+00  0.27925146909E+03  0.27925146909E+03  0.00000000000E+00 0. -1.
         22   -1    0    0    0    0 -0.00000000000E+00 -0.00000000000E+00 -0.11262319619E+04  0.11262319619E+04  0.00000000000E+00 0. -1.
         24    2    1    2    0    0 -0.33781820946E+02 -0.72370701181E+02 -0.10183333309E+04  0.10244234934E+04  0.77858789470E+02 0.  0.
         25    2    1    2    0    0  0.24895339949E+02  0.91611848514E+02 -0.32470166612E+02  0.16036023801E+03  0.12509430632E+03 0.  0.
        -24    2    1    2    0    0  0.88864809966E+01 -0.19241147333E+02  0.20382300475E+03  0.22069969958E+03  0.81947232014E+02 0.  0.
        -11    1    3    3    0    0  0.41071293652E+01  0.15226864469E+02 -0.11914026227E+03  0.12017956568E+03  0.00000000000E+00 0.  1.
         12    1    3    3    0    0 -0.37888950311E+02 -0.87597565650E+02 -0.89919306865E+03  0.90424392769E+03  0.00000000000E+00 0. -1.
         13    1    5    5    0    0 -0.28206248560E+02  0.82699501057E+01  0.13257083892E+03  0.13579032317E+03  0.00000000000E+00 0. -1.
        -14    1    5    5    0    0  0.37092729557E+02 -0.27511097439E+02  0.71252165827E+02  0.84909376416E+02  0.00000000000E+00 0.  1.
          5    1    4    4  501    0  0.42888066754E+01  0.11164048974E+03 -0.54050206644E+02  0.12418087634E+03  0.41800000000E+01 0. -1.
         -5    1    4    4    0  501  0.20606533274E+02 -0.20028641221E+02  0.21580040032E+02  0.36179361665E+02  0.41800000000E+01 0. -1.
</event>
<event>
11    1  0.8037748E-009  0.2329905E+03  0.7561462E-02  0.1033372E+00
         22   -1    0    0    0    0  0.00000000000E+00  0.00000000000E+00  0.23963478600E+04  0.23963478600E+04  0.00000000000E+00 0.  1.
         22   -1    0    0    0    0 -0.00000000000E+00 -0.00000000000E+00 -0.15031691198E+03  0.15031691198E+03  0.00000000000E+00 0. -1.
        -24    2    1    2    0    0  0.11138397070E+03 -0.16230521362E+03 -0.56603330043E+02  0.21899223539E+03  0.77487359576E+02 0.  0.
         25    2    1    2    0    0 -0.12565035848E+03  0.14685842202E+03  0.12085842023E+04  0.12303167476E+04  0.12509243212E+03 0.  0.
         24    2    1    2    0    0  0.14266387784E+02  0.15446791591E+02  0.10940500757E+04  0.10973557890E+04  0.82474397447E+02 0.  0.
        -11    1    5    5    0    0  0.41599987747E+02  0.12832951717E+02  0.93041428935E+03  0.93143222698E+03  0.00000000000E+00 0.  1.
         12    1    5    5    0    0 -0.27333599963E+02  0.26138398738E+01  0.16363578636E+03  0.16592356199E+03  0.00000000000E+00 0. -1.
         11    1    3    3    0    0  0.92177955044E+02 -0.14333836103E+03 -0.75138431678E+02  0.18624834242E+03  0.00000000000E+00 0. -1.
        -12    1    3    3    0    0  0.19206015652E+02 -0.18966852587E+02  0.18535101635E+02  0.32743892971E+02  0.00000000000E+00 0.  1.
          5    1    4    4  501    0  0.28745114273E+01  0.43447697682E+02  0.95177036922E+02  0.10474782101E+03  0.41800000000E+01 0.  1.
         -5    1    4    4    0  501 -0.12852486991E+03  0.10341072434E+03  0.11134071654E+04  0.11255689266E+04  0.41800000000E+01 0.  1.
</event>
<event>
11    1  0.8037748E-009  0.2413702E+03  0.7561462E-02  0.1028600E+00
         22   -1    0    0    0    0  0.00000000000E+00  0.00000000000E+00  0.14618364226E+04  0.14618364226E+04  0.00000000000E+00 0.  1.
         22   -1    0    0    0    0 -0.00000000000E+00 -0.00000000000E+00 -0.34367332385E+03  0.34367332385E+03  0.00000000000E+00 0.  1.
         24    2    1    2    0    0  0.10161439979E+03 -0.49769237538E+00 -0.19420726241E+03  0.23357487722E+03  0.80715726794E+02 0.  0.
         25    2    1    2    0    0 -0.29480578249E+03 -0.48419207202E+02  0.97483407966E+02  0.33823957922E+03  0.12509248221E+03 0.  0.
        -24    2    1    2    0    0  0.19319138269E+03  0.48916899577E+02  0.12148869531E+04  0.12336952900E+04  0.79611470035E+02 0.  0.
        -13    1    3    3    0    0  0.10318520877E+03 -0.90636786456E+01 -0.19847341029E+03  0.22387727033E+03  0.00000000000E+00 0.  1.
         14    1    3    3    0    0 -0.15708089787E+01  0.85659862702E+01  0.42661478773E+01  0.96976068873E+01  0.00000000000E+00 0. -1.
         11    1    5    5    0    0  0.21943938646E+02  0.23713892675E+02  0.91177096862E+02  0.96732353126E+02  0.00000000000E+00 0. -1.
        -12    1    5    5    0    0  0.17124744405E+03  0.25203006903E+02  0.11237098563E+04  0.11369629368E+04  0.00000000000E+00 0.  1.
          5    1    4    4  501    0 -0.20561601237E+03 -0.55832842538E+02  0.10492185671E+02  0.21336074899E+03  0.41800000000E+01 0.  1.
         -5    1    4    4    0  501 -0.89189770113E+02  0.74136353366E+01  0.86991222295E+02  0.12487883022E+03  0.41800000000E+01 0.  1.
</event>
<event>
11    1  0.8037748E-009  0.1501454E+03  0.7561462E-02  0.1096730E+00
         22   -1    0    0    0    0  0.00000000000E+00  0.00000000000E+00  0.10252562761E+03  0.10252562761E+03  0.00000000000E+00 0. -1.
         22   -1    0    0    0    0 -0.00000000000E+00 -0.00000000000E+00 -0.21314902497E+04  0.21314902497E+04  0.00000000000E+00 0.  1.
         24    2    1    2    0    0  0.52436658139E+02  0.61437941191E+02 -0.15698137922E+04  0.15741094148E+04  0.83551682494E+02 0.  0.
         25    2    1    2    0    0 -0.81497040944E+02 -0.55136002418E+02 -0.52742783609E+03  0.55091622022E+03  0.12508722145E+03 0.  0.
        -24    2    1    2    0    0  0.29060382804E+02 -0.63019387728E+01  0.68277006245E+02  0.10899024231E+03  0.79579539185E+02 0.  0.
        -11    1    3    3    0    0  0.58070127698E+02  0.76286181529E+02 -0.11478670495E+04  0.11518639175E+04  0.00000000000E+00 0.  1.
         12    1    3    3    0    0 -0.56334695587E+01 -0.14848240338E+02 -0.42194674277E+03  0.42224549726E+03  0.00000000000E+00 0. -1.
         13    1    5    5    0    0  0.24946878679E+02 -0.75508000417E+01  0.86461365822E+02  0.90304646154E+02  0.00000000000E+00 0. -1.
        -14    1    5    5    0    0  0.41135041254E+01  0.12488612689E+01 -0.18184359577E+02  0.18685596161E+02  0.00000000000E+00 0.  1.
          5    1    4    4  501    0 -0.94362554150E+02 -0.32385350156E+02 -0.50890884037E+03  0.51861236270E+03  0.41800000000E+01 0.  1.
         -5    1    4    4    0  501  0.12865513206E+02 -0.22750652263E+02 -0.18518995719E+02  0.32303857523E+02  0.41800000000E+01 0.  1.
</event>
<event>
11    1  0.8037748E-009  0.1862349E+03  0.7561462E-02  0.1064708E+00
         22   -1    0    0    0    0  0.00000000000E+00  0.00000000000E+00  0.21753452945E+03  0.21753452945E+03  0.00000000000E+00 0. -1.
         22   -1    0    0    0    0 -0.00000000000E+00 -0.00000000000E+00 -0.10903681297E+04  0.10903681297E+04  0.00000000000E+00 0. -1.
        -24    2    1    2    0    0 -0.61171405336E+02 -0.12208043015E+03 -0.83957898958E+03  0.85442089018E+03  0.80601523439E+02 0.  0.
         25    2    1    2    0    0  0.44963790101E+02  0.14003157815E+03 -0.19331673723E+03  0.27322057954E+03  0.12509012309E+03 0.  0.
         24    2    1    2    0    0  0.16207615235E+02 -0.17951148003E+02  0.16006212656E+03  0.18026118942E+03  0.79304990670E+02 0.  0.
        -11    1    5    5    0    0  0.15555274517E+02  0.14223071649E+02  0.14160089557E+03  0.14316101410E+03  0.00000000000E+00 0.  1.
         12    1    5    5    0    0  0.65234071819E+00 -0.32174219653E+02  0.18461230986E+02  0.37100175312E+02  0.00000000000E+00 0. -1.
         13    1    3    3    0    0 -0.45997852133E+02 -0.49793303238E+02 -0.59726351102E+03  0.60109805942E+03  0.00000000000E+00 0. -1.
        -14    1    3    3    0    0 -0.15173553203E+02 -0.72287126908E+02 -0.24231547856E+03  0.25332283076E+03  0.00000000000E+00 0.  1.
          5    1    4    4  501    0  0.61165605738E+02  0.12723016064E+03 -0.89307088193E+02  0.16709869390E+03  0.41800000000E+01 0. -1.
         -5    1    4    4    0  501 -0.16201815636E+02  0.12801417508E+02 -0.10400964903E+03  0.10612188564E+03  0.41800000000E+01 0. -1.
</event>
<event>
11    1  0.8037748E-009  0.1632546E+03  0.7561462E-02  0.1084056E+00
         22   -1    0    0    0    0  0.00000000000E+00  0.00000000000E+00  0.73087505699E+03  0.73087505699E+03  0.00000000000E+00 0. -1.
         22   -1    0    0    0    0 -0.00000000000E+00 -0.00000000000E+00 -0.23941511368E+03  0.23941511368E+03  0.00000000000E+00 0.  1.
        -24    2    1    2    0    0 -0.64198675204E+02  0.20527907181E+02 -0.17323651248E+03  0.20349655048E+03  0.82807559611E+02 0.  0.
         25    2    1    2    0    0  0.12450505394E+03  0.59415753098E+02  0.16645210884E+03  0.24977678154E+03  0.12510154230E+03 0.  0.
         24    2    1    2    0    0 -0.60306378739E+02 -0.79943660279E+02  0.49824434695E+03  0.51701683865E+03  0.95032278937E+02 0.  0.
        -13    1    5    5    0    0  0.22144506589E+02 -0.22072281981E+02  0.19469749869E+03  0.19719198969E+03  0.00000000000E+00 0.  1.
         14    1    5    5    0    0 -0.82450885328E+02 -0.57871378297E+02  0.30354684827E+03  0.31982484896E+03  0.00000000000E+00 0. -1.
         13    1    3    3    0    0  0.17786682524E+02  0.34253669717E+01 -0.59866227967E+02  0.62546498424E+02  0.00000000000E+00 0. -1.
        -14    1    3    3    0    0 -0.81985357727E+02  0.17102540210E+02 -0.11337028451E+03  0.14095005205E+03  0.00000000000E+00 0.  1.
          5    1    4    4  501    0  0.25486929833E+02  0.39532548070E+02 -0.82527002156E+01  0.47937307080E+02  0.41800000000E+01 0. -1.
         -5    1    4    4    0  501  0.99018124109E+02  0.19883205027E+02  0.17470480905E+03  0.20183947446E+03  0.41800000000E+01 0. -1.
</event>
<event>
11    1  0.8037748E-009  0.2542008E+03  0.7561462E-02  0.1021685E+00
         22   -1    0    0    0    0  0.00000000000E+00  0.00000000000E+00  0.10226366649E+04  0.10226366649E+04  0.00000000000E+00 0.  1.
         22   -1    0    0    0    0 -0.00000000000E+00 -0.00000000000E+00 -0.91359119019E+03  0.91359119019E+03  0.00000000000E+00 0. -1.
         24    2    1    2    0    0  0.11119111571E+03 -0.83250940866E+02 -0.69686858735E+03  0.71529324729E+03  0.82002550043E+02 0.  0.
         25    2    1    2    0    0  0.10868250721E+03  0.14163073660E+03 -0.13042522758E+03  0.25402435946E+03  0.12508589963E+03 0.  0.
        -24    2    1    2    0    0 -0.21987362292E+03 -0.58379795730E+02  0.93633928967E+03  0.96691024838E+03  0.80196960264E+02 0.  0.
        -11    1    3    3    0    0  0.66732540829E+02 -0.13162633043E+02 -0.44325766870E+03  0.44844603664E+03  0.00000000000E+00 0.  1.
         12    1    3    3    0    0  0.44458574883E+02 -0.70088307823E+02 -0.25361091865E+03  0.26684721065E+03  0.00000000000E+00 0. -1.
         11    1    5    5    0    0 -0.94857959332E+02 -0.34892098996E+02  0.26487727481E+03  0.28350566437E+03  0.00000000000E+00 0. -1.
        -12    1    5    5    0    0 -0.12501566359E+03 -0.23487696734E+02  0.67146201487E+03  0.68340458401E+03  0.00000000000E+00 0.  1.
          5    1    4    4  501    0 -0.25152193540E+02  0.16995768394E+02 -0.23818608316E+01  0.30734909211E+02  0.41800000000E+01 0.  1.
         -5    1    4    4    0  501  0.13383470075E+03  0.12463496820E+03 -0.12804336675E+03  0.22328945025E+03  0.41800000000E+01 0.  1.
</event>
<event>
11    1  0.8037748E-009  0.1414676E+03  0.7561462E-02  0.1105931E+00
         22   -1    0    0    0    0  0.00000000000E+00  0.00000000000E+00  0.13800911367E+04  0.13800911367E+04  0.00000000000E+00 0. -1.
         22   -1    0    0    0    0 -0.00000000000E+00 -0.00000000000E+00 -0.33668617449E+03  0.33668617449E+03  0.00000000000E+00 0.  1.
         24    2    1    2    0    0 -0.47645099352E+02  0.45424650585E+02 -0.31556226075E+03  0.33278601801E+03  0.82665222418E+02 0.  0.
         25    2    1    2    0    0  0.90528341392E+02 -0.26946140936E+02  0.64664724411E+03  0.66537372864E+03  0.12509222730E+03 0.  0.
        -24    2    1    2    0    0 -0.42883242040E+02 -0.18478509649E+02  0.71231997884E+03  0.71861756453E+03  0.82650009319E+02 0.  0.
        -13    1    3    3    0    0 -0.35923471555E+02  0.57986410437E+02 -0.30518257569E+03  0.31271284609E+03  0.00000000000E+00 0.  1.
         14    1    3    3    0    0 -0.11721627797E+02 -0.12561759852E+02 -0.10379685055E+02  0.20073171913E+02  0.00000000000E+00 0. -1.
         13    1    5    5    0    0 -0.61609602260E+02  0.83437941285E+01  0.47704195412E+03  0.48107628083E+03  0.00000000000E+00 0. -1.
        -14    1    5    5    0    0  0.18726360220E+02 -0.26822303778E+02  0.23527802472E+03  0.23754128370E+03  0.00000000000E+00 0.  1.
          5    1    4    4  501    0  0.31227146340E+02  0.44684398445E+02  0.14099400526E+03  0.15122371524E+03  0.41800000000E+01 0. -1.
         -5    1    4    4    0  501  0.59301195052E+02 -0.71630539380E+02  0.50565323886E+03  0.51415001340E+03  0.41800000000E+01 0. -1.
</event>
<event>
11    1  0.8037748E-009  0.1735716E+03  0.7561462E-02  0.1074965E+00
         22   -1    0    0    0    0  0.00000000000E+00  0.00000000000E+00  0.15680898683E+04  0.15680898683E+04  0.00000000000E+00 0.  1.
         22   -1    0    0    0    0 -0.00000000000E+00 -0.00000000000E+00 -0.61620419451E+02  0.61620419451E+02  0.00000000000E+00 0. -1.
         24    2    1    2    0    0  0.11157141004E+03 -0.34275436931E+02  0.10966014257E+03  0.17879675333E+03  0.79498094419E+02 0.  0.
         25    2    1    2    0    0 -0.12503812372E+03  0.29379116669E+02  0.29036533022E+03  0.34125759196E+03  0.12508818570E+03 0.  0.
        -24    2    1    2    0    0  0.13466713674E+02  0.48963202617E+01  0.11064439760E+04  0.11096559424E+04  0.83142721554E+02 0.  0.
        -13    1    3    3    0    0  0.86907509459E+02  0.97137248037E+01  0.87512201771E+02  0.12371603416E+03  0.00000000000E+00 0.  1.
         14    1    3    3    0    0  0.24663900583E+02 -0.43989161735E+02  0.22147940798E+02  0.55080719164E+02  0.00000000000E+00 0. -1.
         13    1    5    5    0    0 -0.13074440977E+02  0.21436599677E+02  0.11457496451E+03  0.11729403781E+03  0.00000000000E+00 0. -1.
        -14    1    5    5    0    0  0.26541154651E+02 -0.16540279415E+02  0.99186901151E+03  0.99236190461E+03  0.00000000000E+00 0.  1.
          5    1    4    4  501    0 -0.92173108700E+02 -0.26878578917E+02  0.24085426034E+03  0.25931946918E+03  0.41800000000E+01 0.  1.
         -5    1    4    4    0  501 -0.32865015015E+02  0.56257695586E+02  0.49511069878E+02  0.81938122782E+02  0.41800000000E+01 0.  1.
</event>
<event>
11    1  0.8037748E-009  0.6608273E+03  0.7561462E-02  0.9092110E-01
         22   -1    0    0    0    0  0.00000000000E+00  0.00000000000E+00  0.43210080688E+03  0.43210080688E+03  0.00000000000E+00 0. -1.
         22   -1    0    0    0    0 -0.00000000000E+00 -0.00000000000E+00 -0.25265672126E+03  0.25265672126E+03  0.00000000000E+00 0. -1.
        -24    2    1    2    0    0  0.24051671048E+03 -0.38014855049E+02 -0.86112967212E+01  0.25612468280E+03  0.78944800218E+02 0.  0.
         25    2    1    2    0    0 -0.26984000496E+03  0.19859101182E+02  0.15402251089E+03  0.33552642721E+03  0.12508811823E+03 0.  0.
         24    2    1    2    0    0  0.29323294475E+02  0.18155753866E+02  0.34032871442E+02  0.93106418133E+02  0.79505231033E+02 0.  0.
        -13    1    5    5    0    0  0.31890168805E+02  0.41167971214E+02  0.15924196485E+00  0.52075042759E+02  0.00000000000E+00 0.  1.
         14    1    5    5    0    0 -0.25668743301E+01 -0.23012217348E+02  0.33873629477E+02  0.41031375374E+02  0.00000000000E+00 0. -1.
         13    1    3    3    0    0  0.20136235778E+03 -0.15405630593E+02 -0.33193982926E+02  0.20466062906E+03  0.00000000000E+00 0. -1.
        -14    1    3    3    0    0  0.39154352697E+02 -0.22609224455E+02  0.24582686205E+02  0.51464053733E+02  0.00000000000E+00 0.  1.
          5    1    4    4  501    0 -0.10039619382E+03 -0.24879558525E+02  0.20741518452E+01  0.10353821842E+03  0.41800000000E+01 0. -1.
         -5    1    4    4    0  501 -0.16944381113E+03  0.44738659707E+02  0.15194835905E+03  0.23198820879E+03  0.41800000000E+01 0. -1.
</event>
<event>
11    1  0.8037748E-009  0.1634620E+03  0.7561462E-02  0.1083866E+00
         22   -1    0    0    0    0  0.00000000000E+00  0.00000000000E+00  0.10055914565E+04  0.10055914565E+04  0.00000000000E+00 0.  1.
         22   -1    0    0    0    0 -0.00000000000E+00 -0.00000000000E+00 -0.15220337948E+04  0.15220337948E+04  0.00000000000E+00 0. -1.
        -24    2    1    2    0    0 -0.70797743526E+02 -0.80289712101E+02 -0.14658418913E+04  0.14717468433E+04  0.76730451061E+02 0.  0.
         25    2    1    2    0    0 -0.38544748280E+01  0.62597989578E+02  0.48407645813E+02  0.14806770583E+03  0.12508948821E+03 0.  0.
         24    2    1    2    0    0  0.74652218354E+02  0.17691722523E+02  0.90099190717E+03  0.90781070221E+03  0.80298838839E+02 0.  0.
        -13    1    5    5    0    0  0.74461226442E+02  0.35443303385E+02  0.84633028333E+03  0.85033855051E+03  0.00000000000E+00 0.  1.
         14    1    5    5    0    0  0.19099191195E+00 -0.17751580862E+02  0.54661623838E+02  0.57472151705E+02  0.00000000000E+00 0. -1.
         11    1    3    3    0    0 -0.71670277152E+02 -0.52889985799E+02 -0.13398292320E+04  0.13427867851E+04  0.00000000000E+00 0. -1.
        -12    1    3    3    0    0  0.87253362623E+00 -0.27399726302E+02 -0.12601265930E+03  0.12896005824E+03  0.00000000000E+00 0.  1.
          5    1    4    4  501    0  0.19959573775E+02 -0.24298808440E+02  0.48400849422E+02  0.57869951630E+02  0.41800000000E+01 0. -1.
         -5    1    4    4    0  501 -0.23814048603E+02  0.86896798018E+02  0.67963906020E-02  0.90197754201E+02  0.41800000000E+01 0. -1.
</event>
<event>
11    1  0.8037748E-009  0.1982924E+03  0.7561462E-02  0.1055738E+00
         22   -1    0    0    0    0  0.00000000000E+00  0.00000000000E+00  0.76374918056E+03  0.76374918056E+03  0.00000000000E+00 0. -1.
         22   -1    0    0    0    0 -0.00000000000E+00 -0.00000000000E+00 -0.46673100714E+03  0.46673100714E+03  0.00000000000E+00 0.  1.
        -24    2    1    2    0    0 -0.36186741872E+02  0.10213480937E+00 -0.35891499066E+03  0.36981414348E+03  0.81443474135E+02 0.  0.
         25    2    1    2    0    0  0.23908383381E+02 -0.15373121318E+03  0.18903854168E+02  0.20052326394E+03  0.12508927602E+03 0.  0.
         24    2    1    2    0    0  0.12278358490E+02  0.15362907837E+03  0.63702930991E+03  0.66014278028E+03  0.78927161796E+02 0.  0.
        -11    1    5    5    0    0  0.87280706517E+01  0.10490470807E+03  0.26864202412E+03  0.28853026551E+03  0.00000000000E+00 0.  1.
         12    1    5    5    0    0  0.35502878387E+01  0.48724370301E+02  0.36838728579E+03  0.37161251477E+03  0.00000000000E+00 0. -1.
         13    1    3    3    0    0  0.66064607045E+01  0.13048416469E+02 -0.92558793849E+01  0.17308315879E+02  0.00000000000E+00 0. -1.
        -14    1    3    3    0    0 -0.42793202576E+02 -0.12946281659E+02 -0.34965911127E+03  0.35250582760E+03  0.00000000000E+00 0.  1.
          5    1    4    4  501    0 -0.10362262762E+02 -0.12733566854E+03  0.59552799011E+02  0.14101686864E+03  0.41800000000E+01 0.  1.
         -5    1    4    4    0  501  0.34270646143E+02 -0.26395544640E+02 -0.40648944843E+02  0.59506395293E+02  0.41800000000E+01 0.  1.
</event>
<event>
11    1  0.8037748E-009  0.1573196E+03  0.7561462E-02  0.1089626E+00
         22   -1    0    0    0    0  0.00000000000E+00  0.00000000000E+00  0.25145852551E+03  0.25145852551E+03  0.00000000000E+00 0. -1.
         22   -1    0    0    0    0 -0.00000000000E+00 -0.00000000000E+00 -0.87680596035E+03  0.87680596035E+03  0.00000000000E+00 0. -1.
         24    2    1    2    0    0  0.14110963209E+02 -0.92646849192E+01 -0.72019488196E+03  0.72460482554E+03  0.78016226032E+02 0.  0.
         25    2    1    2    0    0 -0.93765825838E+02 -0.41914822812E+02 -0.91103643914E+02  0.18573191639E+03  0.12509032084E+03 0.  0.
        -24    2    1    2    0    0  0.79654862628E+02  0.51179507731E+02  0.18595109103E+03  0.21792774394E+03  0.62852638534E+02 0.  0.
        -13    1    3    3    0    0  0.40511565292E+01  0.31411692879E+02 -0.17820317679E+03  0.18099579702E+03  0.00000000000E+00 0.  1.
         14    1    3    3    0    0  0.10059806680E+02 -0.40676377798E+02 -0.54199170516E+03  0.54360902852E+03  0.00000000000E+00 0. -1.
         13    1    5    5    0    0  0.61983772198E+02  0.24025981803E+02  0.16847792094E+03  0.18111887163E+03  0.00000000000E+00 0. -1.
        -14    1    5    5    0    0  0.17671090430E+02  0.27153525928E+02  0.17473170089E+02  0.36808872304E+02  0.00000000000E+00 0.  1.
          5    1    4    4  501    0  0.26072820156E+02  0.10910148617E+02 -0.29063869673E+02  0.40755419444E+02  0.41800000000E+01 0.  1.
         -5    1    4    4    0  501 -0.11983864599E+03 -0.52824971429E+02 -0.62039774242E+02  0.14497649695E+03  0.41800000000E+01 0.  1.
</event>
<event>
11    1  0.8037748E-009  0.1999083E+03  0.7561462E-02  0.1054589E+00
         22   -1    0    0    0    0  0.00000000000E+00  0.00000000000E+00  0.41687640260E+03  0.41687640260E+03  0.00000000000E+00 0. -1.
         22   -1    0    0    0    0 -0.00000000000E+00 -0.00000000000E+00 -0.16607068258E+04  0.16607068258E+04  0.00000000000E+00 0. -1.
        -24    2    1    2    0    0  0.14647474893E+03 -0.19086140957E+02 -0.12709882039E+04  0.12820218745E+04  0.79686507400E+02 0.  0.
         25    2    1    2    0    0 -0.21580734606E+03  0.38542818291E+02 -0.33393988253E+03  0.41859502839E+03  0.12509034014E+03 0.  0.
         24    2    1    2    0    0  0.69332597129E+02 -0.19456677334E+02  0.36109766327E+03  0.37696632544E+03  0.80786860196E+02 0.  0.
        -13    1    5    5    0    0  0.54707206241E+01  0.27792958647E+02  0.11085326959E+03  0.11441514197E+03  0.00000000000E+00 0.  1.
         14    1    5    5    0    0  0.63861876505E+02 -0.47249635982E+02  0.25024439368E+03  0.26255118347E+03  0.00000000000E+00 0. -1.
         11    1    3    3    0    0  0.13341250607E+03 -0.82598096602E+01 -0.82891541615E+03  0.83962365877E+03  0.00000000000E+00 0. -1.
        -12    1    3    3    0    0  0.13062242863E+02 -0.10826331297E+02 -0.44207278776E+03  0.44239821577E+03  0.00000000000E+00 0.  1.
          5    1    4    4  501    0 -0.28759051113E+02 -0.30231689467E+02 -0.11548901284E+03  0.12286668611E+03  0.41800000000E+01 0. -1.
         -5    1    4    4    0  501 -0.18704829495E+03  0.68774507758E+02 -0.21845086968E+03  0.29572834228E+03  0.41800000000E+01 0. -1.
</event>
<event>
11    1  0.8037748E-009  0.1548235E+03  0.7561462E-02  0.1092050E+00
         22   -1    0    0    0    0  0.00000000000E+00  0.00000000000E+00  0.84443416706E+03  0.84443416706E+03  0.00000000000E+00 0.  1.
         22   -1    0    0    0    0 -0.00000000000E+00 -0.00000000000E+00 -0.46547410723E+03  0.46547410723E+03  0.00000000000E+00 0. -1.
        -24    2    1    2    0    0  0.67875580314E+02 -0.57273470515E+02 -0.40585725540E+03  0.42246698548E+03  0.76621780397E+02 0.  0.
         25    2    1    2    0    0 -0.12799914307E+03  0.83151047718E+02  0.16017110308E+03  0.25416619316E+03  0.12509114325E+03 0.  0.
         24    2    1    2    0    0  0.60123562753E+02 -0.25877577203E+02  0.62464621216E+03  0.63327509565E+03  0.81055318230E+02 0.  0.
        -11    1    5    5    0    0  0.47307309486E+02 -0.45562914450E+02  0.57029956704E+03  0.57406929623E+03  0.00000000000E+00 0.  1.
         12    1    5    5    0    0  0.12816253267E+02  0.19685337247E+02  0.54346645112E+02  0.59205799422E+02  0.00000000000E+00 0. -1.
         11    1    3    3    0    0  0.13551643987E+02 -0.28897596901E+02 -0.28670536514E+03  0.28847648875E+03  0.00000000000E+00 0. -1.
        -12    1    3    3    0    0  0.54323936327E+02 -0.28375873614E+02 -0.11915189027E+03  0.13399049674E+03  0.00000000000E+00 0.  1.
          5    1    4    4  501    0 -0.55174040405E+01 -0.29686952023E+02  0.29785981860E+02  0.42619643161E+02  0.41800000000E+01 0. -1.
         -5    1    4    4    0  501 -0.12248173903E+03  0.11283799974E+03  0.13038512122E+03  0.21154655000E+03  0.41800000000E+01 0. -1.
</event>
<event>
11    1  0.8037748E-009  0.3087046E+03  0.7561462E-02  0.9965731E-01
         22   -1    0    0    0    0  0.00000000000E+00  0.00000000000E+00  0.83960274310E+03  0.83960274310E+03  0.00000000000E+00 0. -1.
         22   -1    0    0    0    0 -0.00000000000E+00 -0.00000000000E+00 -0.10758305570E+04  0.10758305570E+04  0.00000000000E+00 0.  1.
        -24    2    1    2    0    0 -0.62630651131E+02 -0.27008650782E+03 -0.93787042890E+03  0.98128667333E+03  0.80332270484E+02 0.  0.
         25    2    1    2    0    0  0.58598886146E+02  0.35337561637E+03  0.21951259999E+03  0.43834044590E+03  0.12509360199E+03 0.  0.
         24    2    1    2    0    0  0.40317649851E+01 -0.83289108549E+02  0.48213001502E+03  0.49580618087E+03  0.80131684569E+02 0.  0.
        -13    1    5    5    0    0  0.24928450173E+02  0.78605697927E+00  0.17216260419E+03  0.17395978787E+03  0.00000000000E+00 0.  1.
         14    1    5    5    0    0 -0.20896685188E+02 -0.84075165528E+02  0.30996741083E+03  0.32184639300E+03  0.00000000000E+00 0. -1.
         11    1    3    3    0    0 -0.74466519153E+02 -0.14551851981E+03 -0.52110429570E+03  0.54614154674E+03  0.00000000000E+00 0. -1.
        -12    1    3    3    0    0  0.11835868022E+02 -0.12456798801E+03 -0.41676613321E+03  0.43514512659E+03  0.00000000000E+00 0.  1.
          5    1    4    4  501    0 -0.21876155780E+02  0.22431545580E+03  0.10966215344E+03  0.25067758217E+03  0.41800000000E+01 0. -1.
         -5    1    4    4    0  501  0.80475041925E+02  0.12906016057E+03  0.10985044655E+03  0.18766286374E+03  0.41800000000E+01 0. -1.
</event>
<event>
11    1  0.8037748E-009  0.1745348E+03  0.7561462E-02  0.1074151E+00
         22   -1    0    0    0    0  0.00000000000E+00  0.00000000000E+00  0.20287908487E+04  0.20287908487E+04  0.00000000000E+00 0. -1.
         22   -1    0    0    0    0 -0.00000000000E+00 -0.00000000000E+00 -0.15169842591E+03  0.15169842591E+03  0.00000000000E+00 0. -1.
        -24    2    1    2    0    0  0.18051644753E+02  0.15237045689E+02 -0.10688322695E+03  0.13561255747E+03  0.80054432108E+02 0.  0.
         25    2    1    2    0    0  0.64163434152E+02 -0.10508298604E+03  0.25359330626E+03  0.30841069571E+03  0.12509281360E+03 0.  0.
         24    2    1    2    0    0 -0.82215078905E+02  0.89845940348E+02  0.17303823435E+04  0.17364660214E+04  0.79117486887E+02 0.  0.
        -11    1    5    5    0    0 -0.54407770143E+02  0.23078537367E+02  0.42600231128E+03  0.43008231021E+03  0.00000000000E+00 0.  1.
         12    1    5    5    0    0 -0.27807308762E+02  0.66767402981E+02  0.13043800322E+04  0.13063837112E+04  0.00000000000E+00 0. -1.
         13    1    3    3    0    0  0.33217883448E+02 -0.88989516448E+01 -0.11814249744E+02  0.36362007895E+02  0.00000000000E+00 0. -1.
        -14    1    3    3    0    0 -0.15166238695E+02  0.24135997334E+02 -0.95068977208E+02  0.99250549574E+02  0.00000000000E+00 0.  1.
          5    1    4    4  501    0  0.75993087578E+01  0.15524254907E+02  0.11411747563E+03  0.11549468658E+03  0.41800000000E+01 0. -1.
         -5    1    4    4    0  501  0.56564125394E+02 -0.12060724094E+03  0.13947583063E+03  0.19291600913E+03  0.41800000000E+01 0. -1.
</event>
<event>
11    1  0.8037748E-009  0.1258985E+03  0.7561462E-02  0.1124414E+00
         22   -1    0    0    0    0  0.00000000000E+00  0.00000000000E+00  0.24765450023E+03  0.24765450023E+03  0.00000000000E+00 0.  1.
         22   -1    0    0    0    0 -0.00000000000E+00 -0.00000000000E+00 -0.64415196046E+03  0.64415196046E+03  0.00000000000E+00 0.  1.
        -24    2    1    2    0    0 -0.17617355622E+02 -0.14525056383E+02 -0.50548797787E+03  0.51175139961E+03  0.76485624486E+02 0.  0.
         25    2    1    2    0    0  0.25889261252E+02  0.31079206412E+01 -0.96110471966E+02  0.15990440353E+03  0.12510908211E+03 0.  0.
         24    2    1    2    0    0 -0.82719056305E+01  0.11417135741E+02  0.20510098961E+03  0.22015065755E+03  0.78747194682E+02 0.  0.
        -13    1    5    5    0    0 -0.39690584418E+01  0.40720988036E+02  0.16673998791E+03  0.17168627161E+03  0.00000000000E+00 0.  1.
         14    1    5    5    0    0 -0.43028471887E+01 -0.29303852294E+02  0.38361001702E+02  0.48464385943E+02  0.00000000000E+00 0. -1.
         11    1    3    3    0    0 -0.10776695433E+02  0.28466360817E+02 -0.11946625355E+03  0.12328283174E+03  0.00000000000E+00 0. -1.
        -12    1    3    3    0    0 -0.68406601889E+01 -0.42991417200E+02 -0.38602172431E+03  0.38846856787E+03  0.00000000000E+00 0.  1.
          5    1    4    4  501    0 -0.28858881575E+01 -0.40104236475E+02  0.10050236517E+02  0.41655225215E+02  0.41800000000E+01 0. -1.
         -5    1    4    4    0  501  0.28775149410E+02  0.43212157116E+02 -0.10616070848E+03  0.11824917831E+03  0.41800000000E+01 0. -1.
</event>
<event>
11    1  0.8037748E-009  0.1337021E+03  0.7561462E-02  0.1114802E+00
         22   -1    0    0    0    0  0.00000000000E+00  0.00000000000E+00  0.48416321222E+03  0.48416321222E+03  0.00000000000E+00 0.  1.
         22   -1    0    0    0    0 -0.00000000000E+00 -0.00000000000E+00 -0.49504231626E+03  0.49504231626E+03  0.00000000000E+00 0.  1.
         24    2    1    2    0    0 -0.13434947579E+02 -0.44724813093E+02 -0.44632430256E+03  0.45592552434E+03  0.80510210336E+02 0.  0.
         25    2    1    2    0    0  0.30955027748E+02  0.54211206302E+02  0.85375732727E+02  0.16380490195E+03  0.12508381803E+03 0.  0.
        -24    2    1    2    0    0 -0.17520080169E+02 -0.94863932092E+01  0.35006946579E+03  0.35947510218E+03  0.79226090034E+02 0.  0.
        -11    1    3    3    0    0  0.17584639528E+02  0.15831307025E+02 -0.15263093300E+03  0.15445404345E+03  0.00000000000E+00 0.  1.
         12    1    3    3    0    0 -0.31019587107E+02 -0.60556120118E+02 -0.29369336956E+03  0.30147148089E+03  0.00000000000E+00 0. -1.
         13    1    5    5    0    0 -0.20678924062E+02 -0.18511910366E+02  0.36965082815E+02  0.46224734432E+02  0.00000000000E+00 0. -1.
        -14    1    5    5    0    0  0.31588438930E+01  0.90255171573E+01  0.31310438298E+03  0.31325036775E+03  0.00000000000E+00 0.  1.
          5    1    4    4  501    0  0.65891049865E+02 -0.88427699301E+01  0.31334947155E+02  0.73615055155E+02  0.41800000000E+01 0.  1.
         -5    1    4    4    0  501 -0.34936022117E+02  0.63053976232E+02  0.54040785573E+02  0.90189846798E+02  0.41800000000E+01 0.  1.
</event>
<event>
11    1  0.8037748E-009  0.1462270E+03  0.7561462E-02  0.1100798E+00
         22   -1    0    0    0    0  0.00000000000E+00  0.00000000000E+00  0.13059809437E+04  0.13059809437E+04  0.00000000000E+00 0. -1.
         22   -1    0    0    0    0 -0.00000000000E+00 -0.00000000000E+00 -0.20882239126E+03  0.20882239126E+03  0.00000000000E+00 0. -1.
         24    2    1    2    0    0  0.71659597856E+02 -0.29862192111E+02 -0.15989831082E+03  0.19584714331E+03  0.82230075120E+02 0.  0.
         25    2    1    2    0    0 -0.63784427524E+02 -0.39973779523E+01  0.13916961934E+03  0.19773888167E+03  0.12509216662E+03 0.  0.
        -24    2    1    2    0    0 -0.78751703321E+01  0.33859570064E+02  0.11178872439E+04  0.11212173100E+04  0.79043515367E+02 0.  0.
        -11    1    3    3    0    0 -0.17079032662E+02 -0.57016051642E+00 -0.11930056271E+02  0.20840937655E+02  0.00000000000E+00 0.  1.
         12    1    3    3    0    0  0.88738630519E+02 -0.29292031595E+02 -0.14796825455E+03  0.17500620565E+03  0.00000000000E+00 0. -1.
         11    1    5    5    0    0 -0.28525633284E+02  0.67208794103E+01  0.91610574474E+03  0.91657439279E+03  0.00000000000E+00 0. -1.
        -12    1    5    5    0    0  0.20650462952E+02  0.27138690653E+02  0.20178149915E+03  0.20464291717E+03  0.00000000000E+00 0.  1.
          5    1    4    4  501    0 -0.52136133438E+02 -0.57388906393E+02  0.47766742251E+02  0.91163573055E+02  0.41800000000E+01 0.  1.
         -5    1    4    4    0  501 -0.11648294086E+02  0.53391528441E+02  0.91402877094E+02  0.10657530861E+03  0.41800000000E+01 0.  1.
</event>
<event>
11    1  0.8037748E-009  0.1511823E+03  0.7561462E-02  0.1095677E+00
         22   -1    0    0    0    0  0.00000000000E+00  0.00000000000E+00  0.99077491854E+02  0.99077491854E+02  0.00000000000E+00 0.  1.
         22   -1    0    0    0    0 -0.00000000000E+00 -0.00000000000E+00 -0.32823421876E+04  0.32823421876E+04  0.00000000000E+00 0.  1.
         24    2    1    2    0    0  0.10190681542E+02  0.49362791693E+02 -0.30667808702E+04  0.30680145306E+04  0.70906410322E+02 0.  0.
         25    2    1    2    0    0 -0.60734584858E+02 -0.10208841809E+03 -0.10929461510E+03  0.20421350939E+03  0.12508840721E+03 0.  0.
        -24    2    1    2    0    0  0.50543903316E+02  0.52725626400E+02 -0.71892104614E+01  0.10919163948E+03  0.80848324303E+02 0.  0.
        -13    1    3    3    0    0  0.36593141057E+02  0.39766468528E+02 -0.14825522033E+04  0.14835368097E+04  0.00000000000E+00 0.  1.
         14    1    3    3    0    0 -0.26402459515E+02  0.95963231648E+01 -0.15842286669E+04  0.15844777209E+04  0.00000000000E+00 0. -1.
         13    1    5    5    0    0  0.46169642771E+02 -0.78717810936E+01 -0.11681578206E+02  0.48270696293E+02  0.00000000000E+00 0. -1.
        -14    1    5    5    0    0  0.43742605444E+01  0.60597407494E+02  0.44923677444E+01  0.60920943183E+02  0.00000000000E+00 0.  1.
          5    1    4    4  501    0 -0.84330254524E+02 -0.11270185366E+03 -0.10887563335E+03  0.17800189770E+03  0.41800000000E+01 0.  1.
         -5    1    4    4    0  501  0.23595669666E+02  0.10613435566E+02 -0.41898174989E+00  0.26211611687E+02  0.41800000000E+01 0.  1.
</event>
<event>
11    1  0.8037748E-009  0.1252059E+03  0.7561462E-02  0.1125304E+00
         22   -1    0    0    0    0  0.00000000000E+00  0.00000000000E+00  0.30073267430E+03  0.30073267430E+03  0.00000000000E+00 0.  1.
         22   -1    0    0    0    0 -0.00000000000E+00 -0.00000000000E+00 -0.94473062968E+03  0.94473062968E+03  0.00000000000E+00 0. -1.
        -24    2    1    2    0    0  0.12062041899E+02 -0.64562517636E+00 -0.86076856192E+03  0.86444900369E+03  0.78763272544E+02 0.  0.
         25    2    1    2    0    0 -0.89226282888E+01  0.54874214306E+01 -0.23572817935E+02  0.12772308814E+03  0.12509110443E+03 0.  0.
         24    2    1    2    0    0 -0.31394136105E+01 -0.48417962542E+01  0.24034342448E+03  0.25329121216E+03  0.79738181300E+02 0.  0.
        -11    1    5    5    0    0 -0.72514636036E+01 -0.41124353078E+02  0.15360762487E+03  0.15918259503E+03  0.00000000000E+00 0.  1.
         12    1    5    5    0    0  0.41120499931E+01  0.36282556824E+02  0.86735799603E+02  0.94108617127E+02  0.00000000000E+00 0. -1.
         13    1    3    3    0    0  0.17876275387E+02 -0.10092982266E+02 -0.84455070757E+03  0.84480016996E+03  0.00000000000E+00 0. -1.
        -14    1    3    3    0    0 -0.58142334880E+01  0.94473570896E+01 -0.16217854346E+02  0.19648833722E+02  0.00000000000E+00 0.  1.
          5    1    4    4  501    0  0.88137370982E+01 -0.19622894978E+02  0.46326306536E+02  0.51247819917E+02  0.41800000000E+01 0.  1.
         -5    1    4    4    0  501 -0.17736365387E+02  0.25110316409E+02 -0.69899124471E+02  0.76475268219E+02  0.41800000000E+01 0.  1.
</event>
<event>
11    1  0.8037748E-009  0.1170223E+04  0.7561462E-02  0.8532076E-01
         22   -1    0    0    0    0  0.00000000000E+00  0.00000000000E+00  0.71547695029E+03  0.71547695029E+03  0.00000000000E+00 0. -1.
         22   -1    0    0    0    0 -0.00000000000E+00 -0.00000000000E+00 -0.24510121937E+04  0.24510121937E+04  0.00000000000E+00 0. -1.
         24    2    1    2    0    0 -0.77430792045E+02 -0.25922201906E+02 -0.35848084482E+03  0.37653229153E+03  0.81243845050E+02 0.  0.
         25    2    1    2    0    0 -0.11007937900E+04 -0.16081565357E+03 -0.10853110083E+04  0.15592173626E+04  0.12510058641E+03 0.  0.
        -24    2    1    2    0    0  0.11782245820E+04  0.18673785548E+03 -0.29174339027E+03  0.12307394898E+04  0.80754527756E+02 0.  0.
        -13    1    3    3    0    0 -0.62151476683E+02 -0.10567804352E+02 -0.34565790000E+03  0.35136002672E+03  0.00000000000E+00 0.  1.
         14    1    3    3    0    0 -0.15279315362E+02 -0.15354397553E+02 -0.12822944816E+02  0.25172264814E+02  0.00000000000E+00 0. -1.
         11    1    5    5    0    0  0.67194102125E+03  0.11623236478E+03 -0.12673140801E+03  0.69359609892E+03  0.00000000000E+00 0. -1.
        -12    1    5    5    0    0  0.50628356075E+03  0.70505490699E+02 -0.16501198226E+03  0.53714339091E+03  0.00000000000E+00 0.  1.
          5    1    4    4  501    0 -0.10622153625E+04 -0.14606276925E+03 -0.10088842244E+04  0.14722434104E+04  0.41800000000E+01 0. -1.
         -5    1    4    4    0  501 -0.38578427425E+02 -0.14752884322E+02 -0.76426783937E+02  0.86973952200E+02  0.41800000000E+01 0. -1.
</event>
<event>
11    1  0.8037748E-009  0.1667933E+03  0.7561462E-02  0.1080856E+00
         22   -1    0    0    0    0  0.00000000000E+00  0.00000000000E+00  0.22631243341E+03  0.22631243341E+03  0.00000000000E+00 0. -1.
         22   -1    0    0    0    0 -0.00000000000E+00 -0.00000000000E+00 -0.69968522498E+03  0.69968522498E+03  0.00000000000E+00 0. -1.
        -24    2    1    2    0    0  0.59701055257E+02 -0.11883558007E+02 -0.48067439702E+03  0.49153660669E+03  0.82794473348E+02 0.  0.
         25    2    1    2    0    0 -0.11917203437E+03 -0.77395353857E+02 -0.13953293711E+03  0.23517371729E+03  0.12508086260E+03 0.  0.
         24    2    1    2    0    0  0.59470979117E+02  0.89278911864E+02  0.14683454256E+03  0.19928733440E+03  0.81532431000E+02 0.  0.
        -13    1    5    5    0    0  0.33587688581E+02  0.52178890570E+02  0.20908162385E+02  0.65482216667E+02  0.00000000000E+00 0.  1.
         14    1    5    5    0    0  0.25883290536E+02  0.37100021294E+02  0.12592638017E+03  0.13380511774E+03  0.00000000000E+00 0. -1.
         11    1    3    3    0    0  0.52052310414E+02  0.49326695138E+01 -0.46308799369E+03  0.46603032535E+03  0.00000000000E+00 0. -1.
        -12    1    3    3    0    0  0.76487448430E+01 -0.16816227521E+02 -0.17586403335E+02  0.25506281343E+02  0.00000000000E+00 0.  1.
          5    1    4    4  501    0 -0.27893541372E+02 -0.43228074557E+02 -0.12666182007E+03  0.13677501652E+03  0.41800000000E+01 0.  1.
         -5    1    4    4    0  501 -0.91278493001E+02 -0.34167279300E+02 -0.12871117037E+02  0.98398700769E+02  0.41800000000E+01 0.  1.
</event>
<event>
11    1  0.8037748E-009  0.1478289E+03  0.7561462E-02  0.1099118E+00
         22   -1    0    0    0    0  0.00000000000E+00  0.00000000000E+00  0.17604155960E+04  0.17604155960E+04  0.00000000000E+00 0.  1.
         22   -1    0    0    0    0 -0.00000000000E+00 -0.00000000000E+00 -0.15519873007E+03  0.15519873007E+03  0.00000000000E+00 0.  1.
         24    2    1    2    0    0 -0.21157145435E+02 -0.74878764740E+02 -0.11990508235E+03  0.16604846326E+03  0.84500941789E+02 0.  0.
         25    2    1    2    0    0 -0.18422647015E+02  0.13267927761E+03  0.10431690954E+04  0.10591466733E+04  0.12508688676E+03 0.  0.
        -24    2    1    2    0    0  0.39579792450E+02 -0.57800512874E+02  0.68195285286E+03  0.69041918954E+03  0.81923772501E+02 0.  0.
        -13    1    3    3    0    0  0.25937895267E+01 -0.50099425527E+02 -0.12174455079E+03  0.13167541847E+03  0.00000000000E+00 0.  1.
         14    1    3    3    0    0 -0.23750934961E+02 -0.24779339213E+02  0.18394684408E+01  0.34373044781E+02  0.00000000000E+00 0. -1.
         11    1    5    5    0    0  0.60632709156E+00 -0.18876190174E+02  0.25880904814E+02  0.32039029668E+02  0.00000000000E+00 0. -1.
        -12    1    5    5    0    0  0.38973465358E+02 -0.38924322700E+02  0.65607194805E+03  0.65838015988E+03  0.00000000000E+00 0.  1.
          5    1    4    4  501    0 -0.65957314736E+02  0.59039554884E+02  0.37996085704E+03  0.39015863657E+03  0.41800000000E+01 0.  1.
         -5    1    4    4    0  501  0.47534667721E+02  0.73639722730E+02  0.66320823839E+03  0.66898803671E+03  0.41800000000E+01 0.  1.
</event>
<event>
11    1  0.8037748E-009  0.1424643E+03  0.7561462E-02  0.1104837E+00
         22   -1    0    0    0    0  0.00000000000E+00  0.00000000000E+00  0.40482247621E+03  0.40482247621E+03  0.00000000000E+00 0. -1.
         22   -1    0    0    0    0 -0.00000000000E+00 -0.00000000000E+00 -0.11920879373E+04  0.11920879373E+04  0.00000000000E+00 0. -1.
        -24    2    1    2    0    0 -0.43410054438E+01 -0.40917844787E+02 -0.11271661387E+04  0.11307574173E+04  0.80098177864E+02 0.  0.
         25    2    1    2    0    0 -0.28772764692E+02  0.95045299437E+02  0.63598870163E+02  0.17191069147E+03  0.12508792356E+03 0.  0.
         24    2    1    2    0    0  0.33113770136E+02 -0.54127454650E+02  0.27630180747E+03  0.29424230477E+03  0.78800647141E+02 0.  0.
        -13    1    5    5    0    0  0.21445549830E+02 -0.59238401674E+02  0.10487763611E+03  0.12234548785E+03  0.00000000000E+00 0.  1.
         14    1    5    5    0    0  0.11668220305E+02  0.51109470234E+01  0.17142417136E+03  0.17189681693E+03  0.00000000000E+00 0. -1.
         11    1    3    3    0    0  0.13526806562E+02 -0.14158940991E+01 -0.85912282582E+03  0.85923047495E+03  0.00000000000E+00 0. -1.
        -12    1    3    3    0    0 -0.17867812006E+02 -0.39501950688E+02 -0.26804331290E+03  0.27152694231E+03  0.00000000000E+00 0.  1.
          5    1    4    4  501    0  0.18551045839E+02  0.87349974637E+02  0.81098677105E+02  0.12070056835E+03  0.41800000000E+01 0.  1.
         -5    1    4    4    0  501 -0.47323810531E+02  0.76953247994E+01 -0.17499806942E+02  0.51210123120E+02  0.41800000000E+01 0.  1.
</event>
<event>
11    1  0.8037748E-009  0.1298755E+03  0.7561462E-02  0.1119422E+00
         22   -1    0    0    0    0  0.00000000000E+00  0.00000000000E+00  0.21874012375E+03  0.21874012375E+03  0.00000000000E+00 0.  1.
         22   -1    0    0    0    0 -0.00000000000E+00 -0.00000000000E+00 -0.57496066658E+03  0.57496066658E+03  0.00000000000E+00 0. -1.
        -24    2    1    2    0    0 -0.34203721221E+02 -0.79870341334E+01 -0.44706534225E+03  0.45612878471E+03  0.83380817602E+02 0.  0.
         25    2    1    2    0    0  0.34043795953E+02  0.47726358365E+00 -0.77393037108E+02  0.15098513436E+03  0.12509045040E+03 0.  0.
         24    2    1    2    0    0  0.15992526798E+00  0.75097705498E+01  0.16823783653E+03  0.18658687126E+03  0.80338463106E+02 0.  0.
        -13    1    5    5    0    0  0.70144862951E+01 -0.18104339440E+02  0.15631154324E+03  0.15751275718E+03  0.00000000000E+00 0.  1.
         14    1    5    5    0    0 -0.68545610271E+01  0.25614109990E+02  0.11926293289E+02  0.29074114072E+02  0.00000000000E+00 0. -1.
         13    1    3    3    0    0 -0.11581464556E+02  0.44871168603E+01 -0.41391459487E+03  0.41410090122E+03  0.00000000000E+00 0. -1.
        -14    1    3    3    0    0 -0.22622256665E+02 -0.12474150994E+02 -0.33150747375E+02  0.42027883496E+02  0.00000000000E+00 0.  1.
          5    1    4    4  501    0 -0.16079544345E+02  0.43099918763E+02 -0.71060137969E+02  0.84753586071E+02  0.41800000000E+01 0. -1.
         -5    1    4    4    0  501  0.50123340298E+02 -0.42622655180E+02 -0.63328991392E+01  0.66231548288E+02  0.41800000000E+01 0. -1.
</event>
<event>
11    1  0.8037748E-009  0.1414268E+03  0.7561462E-02  0.1105976E+00
         22   -1    0    0    0    0  0.00000000000E+00  0.00000000000E+00  0.73265512909E+03  0.73265512909E+03  0.00000000000E+00 0. -1.
         22   -1    0    0    0    0 -0.00000000000E+00 -0.00000000000E+00 -0.88022849107E+03  0.88022849107E+03  0.00000000000E+00 0.  1.
        -24    2    1    2    0    0 -0.51497429612E+02 -0.44331430152E+02 -0.77719515242E+03  0.78424425269E+03  0.79934235404E+02 0.  0.
         25    2    1    2    0    0  0.41393939503E+02  0.13739806950E+02 -0.51280671376E+02  0.14206073659E+03  0.12509718263E+03 0.  0.
         24    2    1    2    0    0  0.10103490109E+02  0.30591623202E+02  0.68090246181E+03  0.68657863087E+03  0.82000767940E+02 0.  0.
        -11    1    5    5    0    0  0.27381622074E+02  0.43548112972E+02  0.25542855397E+03  0.26055697564E+03  0.00000000000E+00 0.  1.
         12    1    5    5    0    0 -0.17278131965E+02 -0.12956489770E+02  0.42547390784E+03  0.42602165523E+03  0.00000000000E+00 0. -1.
         13    1    3    3    0    0 -0.17685844535E+02 -0.67269871608E+01 -0.30869462049E+02  0.36207252594E+02  0.00000000000E+00 0. -1.
        -14    1    3    3    0    0 -0.33811585077E+02 -0.37604442991E+02 -0.74632569037E+03  0.74803700010E+03  0.00000000000E+00 0.  1.
          5    1    4    4  501    0  0.24704117044E+02  0.51074991001E+02 -0.75357410955E+02  0.94420124393E+02  0.41800000000E+01 0.  1.
         -5    1    4    4    0  501  0.16689822460E+02 -0.37335184051E+02  0.24076739579E+02  0.47640612198E+02  0.41800000000E+01 0.  1.
</event>
<event>
11    1  0.8037748E-009  0.1281847E+03  0.7561462E-02  0.1121520E+00
         22   -1    0    0    0    0  0.00000000000E+00  0.00000000000E+00  0.10840285800E+04  0.10840285800E+04  0.00000000000E+00 0.  1.
         22   -1    0    0    0    0 -0.00000000000E+00 -0.00000000000E+00 -0.17680811070E+03  0.17680811070E+03  0.00000000000E+00 0.  1.
         24    2    1    2    0    0  0.18277728939E+02  0.30736758683E+01 -0.14102745924E+03  0.16431813377E+03  0.82268961134E+02 0.  0.
         25    2    1    2    0    0 -0.14909990539E+02  0.25127131246E+02  0.16505424292E+03  0.20915145960E+03  0.12509096453E+03 0.  0.
        -24    2    1    2    0    0 -0.33677384006E+01 -0.28200807114E+02  0.88319368565E+03  0.88736709735E+03  0.81133543644E+02 0.  0.
        -11    1    3    3    0    0  0.47153656154E+02  0.19317677120E+02 -0.79292725562E+02  0.94254847435E+02  0.00000000000E+00 0.  1.
         12    1    3    3    0    0 -0.28875927214E+02 -0.16244001252E+02 -0.61734733678E+02  0.70063286331E+02  0.00000000000E+00 0. -1.
         11    1    5    5    0    0  0.20113754249E+02 -0.17773702873E+02  0.94049608870E+02  0.97804890228E+02  0.00000000000E+00 0. -1.
        -12    1    5    5    0    0 -0.23481492650E+02 -0.10427104240E+02  0.78914407678E+03  0.78956220712E+03  0.00000000000E+00 0.  1.
          5    1    4    4  501    0 -0.46183048892E+02  0.15490387307E+02  0.16899673028E+03  0.17592667038E+03  0.41800000000E+01 0.  1.
         -5    1    4    4    0  501  0.31273058353E+02  0.96367439383E+01 -0.39424873664E+01  0.33224789226E+02  0.41800000000E+01 0.  1.
</event>
<event>
11    1  0.8037748E-009  0.1544533E+03  0.7561462E-02  0.1092413E+00
         22   -1    0    0    0    0  0.00000000000E+00  0.00000000000E+00  0.13715504703E+03  0.13715504703E+03  0.00000000000E+00 0.  1.
         22   -1    0    0    0    0 -0.00000000000E+00 -0.00000000000E+00 -0.26597998707E+04  0.26597998707E+04  0.00000000000E+00 0. -1.
         24    2    1    2    0    0 -0.35281559051E+02 -0.54298438798E+02 -0.24470316114E+04  0.24490961628E+04  0.76910328232E+02 0.  0.
         25    2    1    2    0    0  0.10110154719E+03  0.99530221184E+02 -0.12275639695E+03  0.22548735341E+03  0.12509047038E+03 0.  0.
        -24    2    1    2    0    0 -0.65819988142E+02 -0.45231782386E+02  0.47143184727E+02  0.12237140148E+03  0.79837929947E+02 0.  0.
        -13    1    3    3    0    0  0.14382978259E+02  0.94026503759E+01 -0.25593619214E+03  0.25651240583E+03  0.00000000000E+00 0.  1.
         14    1    3    3    0    0 -0.49664537309E+02 -0.63701089174E+02 -0.21910954193E+04  0.21925837570E+04  0.00000000000E+00 0. -1.
         11    1    5    5    0    0 -0.46186901583E+02 -0.38067351948E+02 -0.10759724937E+02  0.60812209653E+02  0.00000000000E+00 0. -1.
        -12    1    5    5    0    0 -0.19633086559E+02 -0.71644304381E+01  0.57902909665E+02  0.61559191832E+02  0.00000000000E+00 0.  1.
          5    1    4    4  501    0  0.90395318225E+02  0.11779532940E+03 -0.61908671222E+02  0.16092609844E+03  0.41800000000E+01 0.  1.
         -5    1    4    4    0  501  0.10706228967E+02 -0.18265108214E+02 -0.60847725730E+02  0.64561254970E+02  0.41800000000E+01 0.  1.
</event>
<event>
11    1  0.8037748E-009  0.2652148E+03  0.7561462E-02  0.1016092E+00
         22   -1    0    0    0    0  0.00000000000E+00  0.00000000000E+00  0.26485859970E+03  0.26485859970E+03  0.00000000000E+00 0.  1.
         22   -1    0    0    0    0 -0.00000000000E+00 -0.00000000000E+00 -0.44058028415E+03  0.44058028415E+03  0.00000000000E+00 0.  1.
         24    2    1    2    0    0  0.80154334996E+01 -0.56909800356E+02 -0.14382971800E+03  0.17412909304E+03  0.79567460141E+02 0.  0.
         25    2    1    2    0    0  0.51445828673E+02 -0.19382487115E+03 -0.79311832896E+02  0.24930200927E+03  0.12508545490E+03 0.  0.
        -24    2    1    2    0    0 -0.59461262172E+02  0.25073467150E+03  0.47419866444E+02  0.28200778153E+03  0.10428915533E+03 0.  0.
        -11    1    3    3    0    0  0.24672628167E+02 -0.66054253415E+02 -0.75931044023E+02  0.10362155385E+03  0.00000000000E+00 0.  1.
         12    1    3    3    0    0 -0.16657194667E+02  0.91444530593E+01 -0.67898673975E+02  0.70507539196E+02  0.00000000000E+00 0. -1.
         13    1    5    5    0    0 -0.28438183020E+02  0.15212584130E+03  0.79213004743E+02  0.17385540534E+03  0.00000000000E+00 0. -1.
        -14    1    5    5    0    0 -0.31023079153E+02  0.98608830197E+02 -0.31793138299E+02  0.10815237619E+03  0.00000000000E+00 0.  1.
          5    1    4    4  501    0 -0.42315832843E+01 -0.15516930739E+02  0.28933612766E+02  0.33366267162E+02  0.41800000000E+01 0.  1.
         -5    1    4    4    0  501  0.55677411957E+02 -0.17830794041E+03 -0.10824544566E+03  0.21593574211E+03  0.41800000000E+01 0.  1.
</event>
<event>
11    1  0.8037748E-009  0.1482330E+03  0.7561462E-02  0.1098698E+00
         22   -1    0    0    0    0  0.00000000000E+00  0.00000000000E+00  0.20558849423E+03  0.20558849423E+03  0.00000000000E+00 0. -1.
         22   -1    0    0    0    0 -0.00000000000E+00 -0.00000000000E+00 -0.40474524259E+03  0.40474524259E+03  0.00000000000E+00 0.  1.
        -24    2    1    2    0    0 -0.60969159338E+01  0.39769589854E+02 -0.25169980078E+03  0.26717724116E+03  0.80075563177E+02 0.  0.
         25    2    1    2    0    0 -0.12450026101E+02 -0.11148485749E+03 -0.67075861579E+02  0.18091646645E+03  0.12509084710E+03 0.  0.
         24    2    1    2    0    0  0.18546942035E+02  0.71715267633E+02  0.11961891401E+03  0.16224002921E+03  0.80784118603E+02 0.  0.
        -13    1    5    5    0    0  0.77067119062E+01  0.47754365042E+02  0.98503413336E+01  0.49364987728E+02  0.00000000000E+00 0.  1.
         14    1    5    5    0    0  0.10840230128E+02  0.23960902591E+02  0.10976857267E+03  0.11287504148E+03  0.00000000000E+00 0. -1.
         11    1    3    3    0    0  0.20209681283E+01 -0.93524630256E+00  0.58733093898E+01  0.62813024932E+01  0.00000000000E+00 0. -1.
        -12    1    3    3    0    0 -0.81178840621E+01  0.40704836157E+02 -0.25757311017E+03  0.26089593867E+03  0.00000000000E+00 0.  1.
          5    1    4    4  501    0 -0.37163938227E+02 -0.12347873200E+03 -0.78333003516E+02  0.15093603745E+03  0.41800000000E+01 0.  1.
         -5    1    4    4    0  501  0.24713912127E+02  0.11993874516E+02  0.11257141936E+02  0.29980429001E+02  0.41800000000E+01 0.  1.
</event>
<event>
11    1  0.8037748E-009  0.1581761E+03  0.7561462E-02  0.1088805E+00
         22   -1    0    0    0    0  0.00000000000E+00  0.00000000000E+00  0.26108083372E+04  0.26108083372E+04  0.00000000000E+00 0. -1.
         22   -1    0    0    0    0 -0.00000000000E+00 -0.00000000000E+00 -0.57342856523E+03  0.57342856523E+03  0.00000000000E+00 0. -1.
         24    2    1    2    0    0 -0.21191418232E+02  0.94378880948E+02 -0.53304415202E+03  0.54786723163E+03  0.81645490466E+02 0.  0.
         25    2    1    2    0    0 -0.45146285041E+01 -0.10221935461E+03  0.17044923335E+03  0.23488438205E+03  0.12509417833E+03 0.  0.
        -24    2    1    2    0    0  0.25706046736E+02  0.78404736666E+01  0.23999746906E+04  0.24014852887E+04  0.80813380602E+02 0.  0.
        -13    1    3    3    0    0 -0.15462077542E+02  0.99331235067E+01 -0.17351534135E+02  0.25274859472E+02  0.00000000000E+00 0.  1.
         14    1    3    3    0    0 -0.57293406902E+01  0.84445757441E+02 -0.51569261789E+03  0.52259237216E+03  0.00000000000E+00 0. -1.
         11    1    5    5    0    0  0.54319100350E+02  0.12302578412E+02  0.16991679361E+04  0.17000804667E+04  0.00000000000E+00 0. -1.
        -12    1    5    5    0    0 -0.28613053614E+02 -0.44621047452E+01  0.70080675449E+03  0.70140482202E+03  0.00000000000E+00 0.  1.
          5    1    4    4  501    0  0.48255819653E+02 -0.87966534024E+02  0.13964173723E+03  0.17200006516E+03  0.41800000000E+01 0.  1.
         -5    1    4    4    0  501 -0.52770448157E+02 -0.14252820591E+02  0.30807496126E+02  0.62884316892E+02  0.41800000000E+01 0.  1.
</event>
<event>
11    1  0.8037748E-009  0.1573123E+03  0.7561462E-02  0.1089633E+00
         22   -1    0    0    0    0  0.00000000000E+00  0.00000000000E+00  0.54555628326E+03  0.54555628326E+03  0.00000000000E+00 0.  1.
         22   -1    0    0    0    0 -0.00000000000E+00 -0.00000000000E+00 -0.74279335675E+03  0.74279335675E+03  0.00000000000E+00 0.  1.
        -24    2    1    2    0    0  0.44985270858E+02 -0.76428300792E+02 -0.66582180078E+03  0.67669524979E+03  0.82053829505E+02 0.  0.
         25    2    1    2    0    0 -0.13285578688E+03  0.50185295627E+02  0.83607661703E+02  0.20690128140E+03  0.12509466473E+03 0.  0.
         24    2    1    2    0    0  0.87870516022E+02  0.26243005164E+02  0.38497706559E+03  0.40475310883E+03  0.84898852610E+02 0.  0.
        -11    1    5    5    0    0  0.50026932396E+02  0.18061528357E+02  0.34509048277E+03  0.34916522460E+03  0.00000000000E+00 0.  1.
         12    1    5    5    0    0  0.37843583627E+02  0.81814768076E+01  0.39886582816E+02  0.55587884230E+02  0.00000000000E+00 0. -1.
         13    1    3    3    0    0 -0.14749974839E+01 -0.28821672001E+02 -0.53646433770E+02  0.60916370958E+02  0.00000000000E+00 0. -1.
        -14    1    3    3    0    0  0.46460268342E+02 -0.47606628790E+02 -0.61217536701E+03  0.61577887883E+03  0.00000000000E+00 0.  1.
          5    1    4    4  501    0 -0.53217564402E+01 -0.78455006272E+01 -0.26626604697E+02  0.28571339650E+02  0.41800000000E+01 0. -1.
         -5    1    4    4    0  501 -0.12753403044E+03  0.58030796255E+02  0.11023426640E+03  0.17832994175E+03  0.41800000000E+01 0. -1.
</event>
<event>
11    1  0.8037748E-009  0.1791949E+03  0.7561462E-02  0.1070296E+00
         22   -1    0    0    0    0  0.00000000000E+00  0.00000000000E+00  0.25090143801E+03  0.25090143801E+03  0.00000000000E+00 0. -1.
         22   -1    0    0    0    0 -0.00000000000E+00 -0.00000000000E+00 -0.23421306892E+04  0.23421306892E+04  0.00000000000E+00 0.  1.
        -24    2    1    2    0    0 -0.37892744104E+02 -0.12176678274E+03 -0.22269864433E+04  0.22320846970E+04  0.80439210814E+02 0.  0.
         25    2    1    2    0    0  0.39068611040E+02  0.15547088699E+03  0.34668507614E+01  0.20336448655E+03  0.12509013656E+03 0.  0.
         24    2    1    2    0    0 -0.11758669359E+01 -0.33704104256E+02  0.13229034131E+03  0.15758294366E+03  0.78703878067E+02 0.  0.
        -11    1    5    5    0    0  0.25415370896E+01  0.12748355871E+02 -0.39556312880E+01  0.13587752098E+02  0.00000000000E+00 0.  1.
         12    1    5    5    0    0 -0.37174040255E+01 -0.46452460128E+02  0.13624597260E+03  0.14399519156E+03  0.00000000000E+00 0. -1.
         13    1    3    3    0    0 -0.36138173895E+02 -0.96564842217E+02 -0.11015702625E+04  0.11063850051E+04  0.00000000000E+00 0. -1.
        -14    1    3    3    0    0 -0.17545702090E+01 -0.25201940519E+02 -0.11254161808E+04  0.11256996919E+04  0.00000000000E+00 0.  1.
          5    1    4    4  501    0 -0.32632282131E+01  0.75863269205E+02  0.59994827729E+02  0.96864524089E+02  0.41800000000E+01 0.  1.
         -5    1    4    4    0  501  0.42331839253E+02  0.79607617787E+02 -0.56527976967E+02  0.10649996246E+03  0.41800000000E+01 0.  1.
</event>
<event>
11    1  0.8037748E-009  0.1487558E+03  0.7561462E-02  0.1098157E+00
         22   -1    0    0    0    0  0.00000000000E+00  0.00000000000E+00  0.92342709012E+03  0.92342709012E+03  0.00000000000E+00 0.  1.
         22   -1    0    0    0    0 -0.00000000000E+00 -0.00000000000E+00 -0.41722902340E+03  0.41722902340E+03  0.00000000000E+00 0. -1.
        -24    2    1    2    0    0 -0.10033198500E+02  0.27247976389E+02 -0.35321689820E+03  0.36341593823E+03  0.80410507392E+02 0.  0.
         25    2    1    2    0    0  0.43438134902E+02  0.47512644120E+02  0.35043498352E+02  0.14498168259E+03  0.12508924252E+03 0.  0.
         24    2    1    2    0    0 -0.33404936403E+02 -0.74760620509E+02  0.82437146656E+03  0.83225849270E+03  0.79754897255E+02 0.  0.
        -11    1    5    5    0    0 -0.36453566367E+02 -0.85735947907E+02  0.79941493005E+03  0.80482528890E+03  0.00000000000E+00 0.  1.
         12    1    5    5    0    0  0.30486299646E+01  0.10975327399E+02  0.24956536513E+02  0.27433203803E+02  0.00000000000E+00 0. -1.
         13    1    3    3    0    0  0.29633871956E+02  0.62850113020E+01 -0.23547644367E+03  0.23741698183E+03  0.00000000000E+00 0. -1.
        -14    1    3    3    0    0 -0.39667070456E+02  0.20962965087E+02 -0.11774045452E+03  0.12599895641E+03  0.00000000000E+00 0.  1.
          5    1    4    4  501    0  0.76477348648E+02  0.41033438458E+00  0.41195639349E+02  0.86968421464E+02  0.41800000000E+01 0. -1.
         -5    1    4    4    0  501 -0.33039213746E+02  0.47102309735E+02 -0.61521409972E+01  0.58013261124E+02  0.41800000000E+01 0. -1.
</event>
<event>
11    1  0.8037748E-009  0.2055972E+03  0.7561462E-02  0.1050635E+00
         22   -1    0    0    0    0  0.00000000000E+00  0.00000000000E+00  0.14256390585E+03  0.14256390585E+03  0.00000000000E+00 0. -1.
         22   -1    0    0    0    0 -0.00000000000E+00 -0.00000000000E+00 -0.85171948116E+03  0.85171948116E+03  0.00000000000E+00 0. -1.
        -24    2    1    2    0    0  0.14582841519E+03  0.43228735345E+02 -0.24000593772E+03  0.29268796301E+03  0.70205009185E+02 0.  0.
         25    2    1    2    0    0 -0.17309442647E+03  0.11877826798E+03 -0.45746538473E+03  0.51864455994E+03  0.12509054285E+03 0.  0.
         24    2    1    2    0    0  0.27266011288E+02 -0.16200700333E+03 -0.11684252861E+02  0.18295086407E+03  0.79654205167E+02 0.  0.
        -11    1    5    5    0    0  0.31158148333E+02 -0.76383413928E+02  0.29820697632E+02  0.87718470906E+02  0.00000000000E+00 0.  1.
         12    1    5    5    0    0 -0.38921370454E+01 -0.85623589398E+02 -0.41504950494E+02  0.95232393163E+02  0.00000000000E+00 0. -1.
         13    1    3    3    0    0  0.58477873238E+02  0.48164139569E+02 -0.79054847993E+02  0.10949481718E+03  0.00000000000E+00 0. -1.
        -14    1    3    3    0    0  0.87350541948E+02 -0.49354042237E+01 -0.16095108972E+03  0.18319314582E+03  0.00000000000E+00 0.  1.
          5    1    4    4  501    0 -0.11254593297E+03  0.30107766046E+02 -0.13305415200E+03  0.17690094508E+03  0.41800000000E+01 0.  1.
         -5    1    4    4    0  501 -0.60548493502E+02  0.88670501933E+02 -0.32441123273E+03  0.34174361486E+03  0.41800000000E+01 0.  1.
</event>
<event>
11    1  0.8037748E-009  0.2519642E+03  0.7561462E-02  0.1022858E+00
         22   -1    0    0    0    0  0.00000000000E+00  0.00000000000E+00  0.81336405685E+03  0.81336405685E+03  0.00000000000E+00 0. -1.
         22   -1    0    0    0    0 -0.00000000000E+00 -0.00000000000E+00 -0.85825486056E+03  0.85825486056E+03  0.00000000000E+00 0.  1.
        -24    2    1    2    0    0  0.73487529774E+02 -0.19987830627E+03 -0.59624060028E+03  0.63824969907E+03  0.80672613654E+02 0.  0.
         25    2    1    2    0    0 -0.10050725073E+03  0.21841606678E+03 -0.16136955945E+03  0.31542612001E+03  0.12508483836E+03 0.  0.
         24    2    1    2    0    0  0.27019720960E+02 -0.18537760515E+02  0.71271935602E+03  0.71794309832E+03  0.79998113100E+02 0.  0.
        -11    1    5    5    0    0  0.12143365634E+02 -0.31244725272E+02  0.11208889548E+03  0.11699407967E+03  0.00000000000E+00 0.  1.
         12    1    5    5    0    0  0.14876355325E+02  0.12706964757E+02  0.60063046054E+03  0.60094901866E+03  0.00000000000E+00 0. -1.
         13    1    3    3    0    0 -0.11452198956E+02 -0.15434047597E+02 -0.10414487244E+03  0.10590333867E+03  0.00000000000E+00 0. -1.
        -14    1    3    3    0    0  0.84939728730E+02 -0.18444425867E+03 -0.49209572784E+03  0.53234636040E+03  0.00000000000E+00 0.  1.
          5    1    4    4  501    0 -0.72733926827E+02  0.15600676021E+03 -0.41051414009E+02  0.17700571837E+03  0.41800000000E+01 0.  1.
         -5    1    4    4    0  501 -0.27773323907E+02  0.62409306573E+02 -0.12031814544E+03  0.13842040164E+03  0.41800000000E+01 0.  1.
</event>
<event>
11    1  0.8037748E-009  0.1411215E+03  0.7561462E-02  0.1106313E+00
         22   -1    0    0    0    0  0.00000000000E+00  0.00000000000E+00  0.31439438904E+04  0.31439438904E+04  0.00000000000E+00 0. -1.
         22   -1    0    0    0    0 -0.00000000000E+00 -0.00000000000E+00 -0.45100068282E+03  0.45100068282E+03  0.00000000000E+00 0.  1.
         24    2    1    2    0    0 -0.63182406520E+02 -0.17948869386E+02 -0.43470872234E+03  0.44669340477E+03  0.79051541286E+02 0.  0.
         25    2    1    2    0    0  0.43059745316E+02 -0.10449800787E+02  0.44955881006E+03  0.46873579774E+03  0.12508710713E+03 0.  0.
        -24    2    1    2    0    0  0.20122661204E+02  0.28398670173E+02  0.26780931198E+04  0.26795153707E+04  0.80052840865E+02 0.  0.
        -13    1    3    3    0    0 -0.75386965221E+02 -0.19576969957E+02 -0.42150027889E+03  0.42863613634E+03  0.00000000000E+00 0.  1.
         14    1    3    3    0    0  0.12204558701E+02  0.16281005710E+01 -0.13208443455E+02  0.18057268427E+02  0.00000000000E+00 0. -1.
         11    1    5    5    0    0  0.36659281353E+01 -0.27553981689E+02  0.10821039860E+04  0.10824609450E+04  0.00000000000E+00 0. -1.
        -12    1    5    5    0    0  0.16456733068E+02  0.55952651862E+02  0.15959891338E+04  0.15970544256E+04  0.00000000000E+00 0.  1.
          5    1    4    4  501    0  0.27066399764E+02 -0.59813383449E+02  0.35261280106E+03  0.35869693435E+03  0.41800000000E+01 0.  1.
         -5    1    4    4    0  501  0.15993345552E+02  0.49363582662E+02  0.96946009000E+02  0.11003886339E+03  0.41800000000E+01 0.  1.
</event>
<event>
11    1  0.8037748E-009  0.1404225E+03  0.7561462E-02  0.1107087E+00
         22   -1    0    0    0    0  0.00000000000E+00  0.00000000000E+00  0.16768827002E+04  0.16768827002E+04  0.00000000000E+00 0.  1.
         22   -1    0    0    0    0 -0.00000000000E+00 -0.00000000000E+00 -0.91650364971E+03  0.91650364971E+03  0.00000000000E+00 0. -1.
        -24    2    1    2    0    0 -0.33318842863E+02 -0.54327534158E+02 -0.90294489670E+03  0.90877079960E+03  0.80580726339E+02 0.  0.
         25    2    1    2    0    0 -0.15071308771E+01  0.99595726334E+02  0.80347179541E+03  0.81922892362E+03  0.12509006007E+03 0.  0.
         24    2    1    2    0    0  0.34825973740E+02 -0.45268192176E+02  0.85985215179E+03  0.86538662670E+03  0.79285768365E+02 0.  0.
        -11    1    5    5    0    0 -0.24373098630E+01 -0.52765134903E+02  0.64819073243E+03  0.65033939258E+03  0.00000000000E+00 0.  1.
         12    1    5    5    0    0  0.37263283603E+02  0.74969427270E+01  0.21166141937E+03  0.21504723412E+03  0.00000000000E+00 0. -1.
         11    1    3    3    0    0 -0.33213631222E+02 -0.73798573315E+02 -0.79262641201E+03  0.79674713915E+03  0.00000000000E+00 0. -1.
        -12    1    3    3    0    0 -0.10521164130E+00  0.19471039157E+02 -0.11031848469E+03  0.11202366045E+03  0.00000000000E+00 0.  1.
          5    1    4    4  501    0  0.19611313278E+02  0.10633800103E+03  0.37866640267E+03  0.39382494967E+03  0.41800000000E+01 0. -1.
         -5    1    4    4    0  501 -0.21118444155E+02 -0.67422746933E+01  0.42480539274E+03  0.42540397395E+03  0.41800000000E+01 0. -1.
</event>
<event>
11    1  0.8037748E-009  0.1282386E+03  0.7561462E-02  0.1121452E+00
         22   -1    0    0    0    0  0.00000000000E+00  0.00000000000E+00  0.80644654617E+03  0.80644654617E+03  0.00000000000E+00 0.  1.
         22   -1    0    0    0    0 -0.00000000000E+00 -0.00000000000E+00 -0.84366177003E+03  0.84366177003E+03  0.00000000000E+00 0. -1.
         24    2    1    2    0    0  0.15938077285E+02  0.23321830065E+02 -0.40668086414E+03  0.41542145792E+03  0.79923290579E+02 0.  0.
         25    2    1    2    0    0 -0.41601549626E+02  0.21640984443E+01 -0.42047672530E+03  0.44065382140E+03  0.12505895225E+03 0.  0.
        -24    2    1    2    0    0  0.25663472341E+02 -0.25485928509E+02  0.78994236558E+03  0.79403303688E+03  0.71912282386E+02 0.  0.
        -11    1    3    3    0    0  0.29235282445E+01  0.37751579328E+02 -0.83811929895E+02  0.91968300799E+02  0.00000000000E+00 0.  1.
         12    1    3    3    0    0  0.13014549040E+02 -0.14429749263E+02 -0.32286893425E+03  0.32345315712E+03  0.00000000000E+00 0. -1.
         13    1    5    5    0    0 -0.18587385309E+02 -0.18440393661E+01  0.73503903267E+02  0.75840063089E+02  0.00000000000E+00 0. -1.
        -14    1    5    5    0    0  0.44250857651E+02 -0.23641889143E+02  0.71643846231E+03  0.71819297379E+03  0.00000000000E+00 0.  1.
          5    1    4    4  501    0 -0.27896711059E+02 -0.48795033980E+01 -0.42344742294E+03  0.42441398238E+03  0.41800000000E+01 0. -1.
         -5    1    4    4    0  501 -0.13704838567E+02  0.70436018424E+01  0.29706976360E+01  0.16239839024E+02  0.41800000000E+01 0. -1.
</event>
<event>
11    1  0.8037748E-009  0.1684910E+03  0.7561462E-02  0.1079352E+00
         22   -1    0    0    0    0  0.00000000000E+00  0.00000000000E+00  0.48740611425E+03  0.48740611425E+03  0.00000000000E+00 0. -1.
         22   -1    0    0    0    0 -0.00000000000E+00 -0.00000000000E+00 -0.76780231083E+03  0.76780231083E+03  0.00000000000E+00 0.  1.
        -24    2    1    2    0    0  0.18945182837E+02 -0.11254067522E+03 -0.62074057373E+03  0.63600572226E+03  0.78486274860E+02 0.  0.
         25    2    1    2    0    0 -0.84522804522E+02  0.12478602483E+02 -0.83008506082E+02  0.17273658776E+03  0.12509075371E+03 0.  0.
         24    2    1    2    0    0  0.65577621685E+02  0.10006207274E+03  0.42335288323E+03  0.44646611506E+03  0.76101808730E+02 0.  0.
        -11    1    5    5    0    0  0.11028946965E+02  0.21227967394E+01  0.32930393110E+01  0.11704189210E+02  0.00000000000E+00 0.  1.
         12    1    5    5    0    0  0.54548674720E+02  0.97939275998E+02  0.42005984392E+03  0.43476192585E+03  0.00000000000E+00 0. -1.
         11    1    3    3    0    0  0.91847924956E+01 -0.34294249045E+02 -0.59761133480E+02  0.69511502685E+02  0.00000000000E+00 0. -1.
        -12    1    3    3    0    0  0.97603903415E+01 -0.78246426175E+02 -0.56097944025E+03  0.56649421957E+03  0.00000000000E+00 0.  1.
          5    1    4    4  501    0 -0.10166271827E+03 -0.54139775913E+01 -0.99711574160E+02  0.14256398515E+03  0.41800000000E+01 0.  1.
         -5    1    4    4    0  501  0.17139913750E+02  0.17892580074E+02  0.16703068078E+02  0.30172602610E+02  0.41800000000E+01 0.  1.
</event>
<event>
11    1  0.8037748E-009  0.2319036E+03  0.7561462E-02  0.1034007E+00
         22   -1    0    0    0    0  0.00000000000E+00  0.00000000000E+00  0.90110206809E+03  0.90110206809E+03  0.00000000000E+00 0.  1.
         22   -1    0    0    0    0 -0.00000000000E+00 -0.00000000000E+00 -0.21823494536E+03  0.21823494536E+03  0.00000000000E+00 0.  1.
         24    2    1    2    0    0  0.16317404505E+03  0.11764095161E+03 -0.11238426815E+03  0.24415791196E+03  0.80732272155E+02 0.  0.
         25    2    1    2    0    0 -0.15121467699E+03 -0.76797424898E+02  0.27043503810E+03  0.34285007070E+03  0.12508932066E+03 0.  0.
        -24    2    1    2    0    0 -0.11959368059E+02 -0.40843526716E+02  0.52481635279E+03  0.53232903078E+03  0.78299250992E+02 0.  0.
        -11    1    3    3    0    0  0.14629101163E+03  0.99225766761E+02 -0.12467860373E+03  0.21631358510E+03  0.00000000000E+00 0.  1.
         12    1    3    3    0    0  0.16883033419E+02  0.18415184852E+02  0.12294335574E+02  0.27844326851E+02  0.00000000000E+00 0. -1.
         13    1    5    5    0    0 -0.20443880503E+02  0.19457292008E+02  0.16593224568E+03  0.16831532497E+03  0.00000000000E+00 0. -1.
        -14    1    5    5    0    0  0.84845124443E+01 -0.60300818723E+02  0.35888410710E+03  0.36401370581E+03  0.00000000000E+00 0.  1.
          5    1    4    4  501    0 -0.78082453733E+02 -0.86197947963E+01  0.33225687096E+02  0.85396657582E+02  0.41800000000E+01 0. -1.
         -5    1    4    4    0  501 -0.73132223259E+02 -0.68177630102E+02  0.23720935100E+03  0.25745341312E+03  0.41800000000E+01 0. -1.
</event>
<event>
11    1  0.8037748E-009  0.1313351E+03  0.7561462E-02  0.1117639E+00
         22   -1    0    0    0    0  0.00000000000E+00  0.00000000000E+00  0.24377394977E+04  0.24377394977E+04  0.00000000000E+00 0. -1.
         22   -1    0    0    0    0 -0.00000000000E+00 -0.00000000000E+00 -0.49896881084E+03  0.49896881084E+03  0.00000000000E+00 0.  1.
        -24    2    1    2    0    0  0.36445753989E+02  0.17071177201E+02 -0.48054427527E+03  0.48794498297E+03  0.74483473532E+02 0.  0.
         25    2    1    2    0    0 -0.19724231478E+02 -0.15009584289E+02  0.27873244070E+03  0.30651484968E+03  0.12508096037E+03 0.  0.
         24    2    1    2    0    0 -0.16721522511E+02 -0.20615929125E+01  0.21405825214E+04  0.21422484759E+04  0.82771625214E+02 0.  0.
        -13    1    5    5    0    0  0.87742846932E+01 -0.21637532868E+02  0.19392281700E+03  0.19532339812E+03  0.00000000000E+00 0.  1.
         14    1    5    5    0    0 -0.25495807204E+02  0.19575939956E+02  0.19466597044E+04  0.19469250778E+04  0.00000000000E+00 0. -1.
         11    1    3    3    0    0  0.41413545338E+02  0.21534123039E+01 -0.11826906493E+03  0.12532873031E+03  0.00000000000E+00 0. -1.
        -12    1    3    3    0    0 -0.49677913492E+01  0.14917764897E+02 -0.36227521035E+03  0.36261625266E+03  0.00000000000E+00 0.  1.
          5    1    4    4  501    0  0.10236972508E+02 -0.66664179834E+02  0.14247596195E+03  0.15768887282E+03  0.41800000000E+01 0. -1.
         -5    1    4    4    0  501 -0.29961203985E+02  0.51654595545E+02  0.13625647875E+03  0.14882597686E+03  0.41800000000E+01 0. -1.
</event>
<event>
11    1  0.8037748E-009  0.1516130E+03  0.7561462E-02  0.1095242E+00
         22   -1    0    0    0    0  0.00000000000E+00  0.00000000000E+00  0.35951772412E+03  0.35951772412E+03  0.00000000000E+00 0. -1.
         22   -1    0    0    0    0 -0.00000000000E+00 -0.00000000000E+00 -0.11309321466E+04  0.11309321466E+04  0.00000000000E+00 0.  1.
         24    2    1    2    0    0 -0.53229063094E+02  0.70158875231E+02 -0.71869009040E+03  0.72837409157E+03  0.79106069908E+02 0.  0.
         25    2    1    2    0    0  0.78780619568E+02 -0.35671053880E+02 -0.38677722374E+03  0.41559927262E+03  0.12508926612E+03 0.  0.
        -24    2    1    2    0    0 -0.25551556475E+02 -0.34487821351E+02  0.33405289163E+03  0.34647650656E+03  0.81316316511E+02 0.  0.
        -11    1    3    3    0    0 -0.61406316976E+02  0.23728701874E+02 -0.52087612188E+03  0.52501973430E+03  0.00000000000E+00 0.  1.
         12    1    3    3    0    0  0.81772538826E+01  0.46430173357E+02 -0.19781396852E+03  0.20335435727E+03  0.00000000000E+00 0. -1.
         13    1    5    5    0    0 -0.13585684727E+02 -0.27992345220E+02  0.33108210814E+03  0.33254098176E+03  0.00000000000E+00 0. -1.
        -14    1    5    5    0    0 -0.11965871747E+02 -0.64954761313E+01  0.29707834908E+01  0.13935524798E+02  0.00000000000E+00 0.  1.
          5    1    4    4  501    0  0.19024298652E+02 -0.74429274216E+02 -0.24638597359E+03  0.25811850220E+03  0.41800000000E+01 0.  1.
         -5    1    4    4    0  501  0.59756320916E+02  0.38758220337E+02 -0.14039125015E+03  0.15748077042E+03  0.41800000000E+01 0.  1.
</event>
<event>
11    1  0.8037748E-009  0.1815317E+03  0.7561462E-02  0.1068411E+00
         22   -1    0    0    0    0  0.00000000000E+00  0.00000000000E+00  0.18529763042E+03  0.18529763042E+03  0.00000000000E+00 0. -1.
         22   -1    0    0    0    0 -0.00000000000E+00 -0.00000000000E+00 -0.37491881748E+03  0.37491881748E+03  0.00000000000E+00 0.  1.
        -24    2    1    2    0    0 -0.14315188715E+03  0.53508114469E+02 -0.18523212386E+03  0.25343343883E+03  0.81006092990E+02 0.  0.
         25    2    1    2    0    0  0.74686220370E+02 -0.72866461551E+02 -0.70065846983E+02  0.17732493678E+03  0.12508939826E+03 0.  0.
         24    2    1    2    0    0  0.68465666779E+02  0.19358347082E+02  0.65676783791E+02  0.12945807229E+03  0.85928222500E+02 0.  0.
        -13    1    5    5    0    0  0.42525442799E+02  0.26346568072E+02 -0.83405893465E+01  0.50716076002E+02  0.00000000000E+00 0.  1.
         14    1    5    5    0    0  0.25940223980E+02 -0.69882209905E+01  0.74017373138E+02  0.78741996285E+02  0.00000000000E+00 0. -1.
         13    1    3    3    0    0  0.12745520052E+01 -0.43610941363E+01 -0.41079859532E+02  0.41330357899E+02  0.00000000000E+00 0. -1.
        -14    1    3    3    0    0 -0.14442643915E+03  0.57869208606E+02 -0.14415226433E+03  0.21210308093E+03  0.00000000000E+00 0.  1.
          5    1    4    4  501    0  0.87524831940E+02 -0.37928063660E+02  0.26622486165E+01  0.95518030690E+02  0.41800000000E+01 0. -1.
         -5    1    4    4    0  501 -0.12838611570E+02 -0.34938397891E+02 -0.72728095600E+02  0.81806906089E+02  0.41800000000E+01 0. -1.
</event>
<event>
11    1  0.8037748E-009  0.1606088E+03  0.7561462E-02  0.1086506E+00
         22   -1    0    0    0    0  0.00000000000E+00  0.00000000000E+00  0.11469946619E+04  0.11469946619E+04  0.00000000000E+00 0. -1.
         22   -1    0    0    0    0 -0.00000000000E+00 -0.00000000000E+00 -0.28857402278E+03  0.28857402278E+03  0.00000000000E+00 0.  1.
        -24    2    1    2    0    0  0.57361593200E+02  0.73536416317E+02 -0.11645462193E+03  0.16887058340E+03  0.79105234150E+02 0.  0.
         25    2    1    2    0    0 -0.73633798534E+02 -0.88400664605E+02 -0.94154809001E+02  0.19429120344E+03  0.12508928766E+03 0.  0.
         24    2    1    2    0    0  0.16272205334E+02  0.14864248288E+02  0.10690300700E+04  0.10724068978E+04  0.82131195827E+02 0.  0.
        -13    1    5    5    0    0 -0.25567260500E+00 -0.33707886784E+02  0.41231208167E+03  0.41368773211E+03  0.00000000000E+00 0.  1.
         14    1    5    5    0    0  0.16527877939E+02  0.48572135073E+02  0.65671798834E+03  0.65871916571E+03  0.00000000000E+00 0. -1.
         11    1    3    3    0    0 -0.15942128267E+02  0.16359964239E+02 -0.48837100206E+02  0.53915324724E+02  0.00000000000E+00 0. -1.
        -12    1    3    3    0    0  0.73303721467E+02  0.57176452078E+02 -0.67617521723E+02  0.11495525867E+03  0.00000000000E+00 0.  1.
          5    1    4    4  501    0 -0.73818677091E+01  0.14520670147E+02 -0.66688594004E+02  0.68776324434E+02  0.41800000000E+01 0.  1.
         -5    1    4    4    0  501 -0.66251930825E+02 -0.10292133475E+03 -0.27466214997E+02  0.12551487900E+03  0.41800000000E+01 0.  1.
</event>
<event>
11    1  0.8037748E-009  0.1444538E+03  0.7561462E-02  0.1102685E+00
         22   -1    0    0    0    0  0.00000000000E+00  0.00000000000E+00  0.30526374354E+03  0.30526374354E+03  0.00000000000E+00 0.  1.
         22   -1    0    0    0    0 -0.00000000000E+00 -0.00000000000E+00 -0.41784555926E+03  0.41784555926E+03  0.00000000000E+00 0.  1.
         24    2    1    2    0    0 -0.54911981105E+01  0.71824690813E+02 -0.36642774112E+03  0.38189625238E+03  0.79915697143E+02 0.  0.
         25    2    1    2    0    0 -0.21007215309E+01 -0.77683948841E+02  0.15430176213E+03  0.21329655677E+03  0.12508868211E+03 0.  0.
        -24    2    1    2    0    0  0.75919196414E+01  0.58592580278E+01  0.99544163259E+02  0.12791649366E+03  0.79759769073E+02 0.  0.
        -13    1    3    3    0    0  0.31089127502E+02  0.61140388587E+02 -0.21118790112E+03  0.22204731600E+03  0.00000000000E+00 0.  1.
         14    1    3    3    0    0 -0.36580325613E+02  0.10684302226E+02 -0.15523984000E+03  0.15984893638E+03  0.00000000000E+00 0. -1.
         13    1    5    5    0    0 -0.38706171982E+01  0.12818150577E+02 -0.10526423230E+02  0.17032094637E+02  0.00000000000E+00 0. -1.
        -14    1    5    5    0    0  0.11462536840E+02 -0.69588925488E+01  0.11007058649E+03  0.11088439902E+03  0.00000000000E+00 0.  1.
          5    1    4    4  501    0 -0.34283345263E+02 -0.73302939681E+02  0.32731138662E+02  0.87392611623E+02  0.41800000000E+01 0. -1.
         -5    1    4    4    0  501  0.32182623732E+02 -0.43810091599E+01  0.12157062347E+03  0.12590394514E+03  0.41800000000E+01 0. -1.
</event>
<event>
11    1  0.8037748E-009  0.1784582E+03  0.7561462E-02  0.1070897E+00
         22   -1    0    0    0    0  0.00000000000E+00  0.00000000000E+00  0.14159576764E+03  0.14159576764E+03  0.00000000000E+00 0.  1.
         22   -1    0    0    0    0 -0.00000000000E+00 -0.00000000000E+00 -0.63342920630E+03  0.63342920630E+03  0.00000000000E+00 0. -1.
        -24    2    1    2    0    0  0.83737738801E+02  0.85205110077E+02 -0.30105938574E+03  0.33317461922E+03  0.78081069840E+02 0.  0.
         25    2    1    2    0    0 -0.93380163015E+02 -0.10709553953E+03 -0.26766794425E+03  0.32784376903E+03  0.12508436785E+03 0.  0.
         24    2    1    2    0    0  0.96424242143E+01  0.21890429455E+02  0.76893891336E+02  0.11400658569E+03  0.80701076883E+02 0.  0.
        -13    1    5    5    0    0  0.31122604126E+01  0.50952363393E+02  0.32395764246E+02  0.60459201461E+02  0.00000000000E+00 0.  1.
         14    1    5    5    0    0  0.65301638017E+01 -0.29061933938E+02  0.44498127090E+02  0.53547384231E+02  0.00000000000E+00 0. -1.
         13    1    3    3    0    0  0.99088250398E+02  0.73207766722E+02 -0.26251254628E+03  0.28998395719E+03  0.00000000000E+00 0. -1.
        -14    1    3    3    0    0 -0.15350511597E+02  0.11997343355E+02 -0.38546839461E+02  0.43190662027E+02  0.00000000000E+00 0.  1.
          5    1    4    4  501    0 -0.10260467278E+03 -0.12237578974E+03 -0.19093856166E+03  0.24895493472E+03  0.41800000000E+01 0.  1.
         -5    1    4    4    0  501  0.92245097682E+01  0.15280250203E+02 -0.76729382591E+02  0.78888834315E+02  0.41800000000E+01 0.  1.
</event>
<event>
11    1  0.8037748E-009  0.1337552E+03  0.7561462E-02  0.1114739E+00
         22   -1    0    0    0    0  0.00000000000E+00  0.00000000000E+00  0.88980070668E+03  0.88980070668E+03  0.00000000000E+00 0.  1.
         22   -1    0    0    0    0 -0.00000000000E+00 -0.00000000000E+00 -0.37881312106E+03  0.37881312106E+03  0.00000000000E+00 0. -1.
        -24    2    1    2    0    0  0.41129553733E+02  0.25338841310E+02 -0.33332323831E+03  0.34592277495E+03  0.78895424206E+02 0.  0.
         25    2    1    2    0    0 -0.35545056687E+02  0.74865962070E+00  0.78553618811E+02  0.15192718516E+03  0.12508871658E+03 0.  0.
         24    2    1    2    0    0 -0.55844970467E+01 -0.26087500931E+02  0.76575720512E+03  0.77076386763E+03  0.83552966090E+02 0.  0.
        -11    1    5    5    0    0  0.31132895717E+02 -0.90930450296E+01  0.56719186005E+03  0.56811842671E+03  0.00000000000E+00 0.  1.
         12    1    5    5    0    0 -0.36717392764E+02 -0.16994455901E+02  0.19856534507E+03  0.20264544092E+03  0.00000000000E+00 0. -1.
         13    1    3    3    0    0  0.88911110140E+01 -0.27035444134E+02 -0.14644268816E+03  0.14918253252E+03  0.00000000000E+00 0. -1.
        -14    1    3    3    0    0  0.32238442719E+02  0.52374285444E+02 -0.18688055016E+03  0.19674024243E+03  0.00000000000E+00 0.  1.
          5    1    4    4  501    0 -0.55129627416E+02 -0.37841668060E+02  0.58985220731E+01  0.67257212425E+02  0.41800000000E+01 0. -1.
         -5    1    4    4    0  501  0.19584570730E+02  0.38590327680E+02  0.72655096738E+02  0.84669972736E+02  0.41800000000E+01 0. -1.
</event>
<event>
11    1  0.8037748E-009  0.1356825E+03  0.7561462E-02  0.1112478E+00
         22   -1    0    0    0    0  0.00000000000E+00  0.00000000000E+00  0.11281357758E+04  0.11281357758E+04  0.00000000000E+00 0. -1.
         22   -1    0    0    0    0 -0.00000000000E+00 -0.00000000000E+00 -0.58450167867E+03  0.58450167867E+03  0.00000000000E+00 0. -1.
        -24    2    1    2    0    0 -0.28480708356E+02  0.43993252173E+02 -0.56783077407E+03  0.57623011701E+03  0.82842035085E+02 0.  0.
         25    2    1    2    0    0  0.59986926531E+02 -0.55671649657E+02  0.73452720231E+03  0.74958337870E+03  0.12508903530E+03 0.  0.
         24    2    1    2    0    0 -0.31506218175E+02  0.11678397484E+02  0.37693766886E+03  0.38682395874E+03  0.80135772881E+02 0.  0.
        -13    1    5    5    0    0 -0.10339776969E+02  0.32145706645E+01  0.17787232419E+01  0.10973071980E+02  0.00000000000E+00 0.  1.
         14    1    5    5    0    0 -0.21166441206E+02  0.84638268196E+01  0.37515894562E+03  0.37585088676E+03  0.00000000000E+00 0. -1.
         13    1    3    3    0    0  0.17232177129E+02  0.41734914606E+02 -0.38995639732E+03  0.39256176946E+03  0.00000000000E+00 0. -1.
        -14    1    3    3    0    0 -0.45712885485E+02  0.22583375676E+01 -0.17787437675E+03  0.18366834755E+03  0.00000000000E+00 0.  1.
          5    1    4    4  501    0  0.25731865923E+02 -0.16310032437E+02  0.29491815181E+02  0.42607342614E+02  0.41800000000E+01 0.  1.
         -5    1    4    4    0  501  0.34255060608E+02 -0.39361617220E+02  0.70503538713E+03  0.70697603608E+03  0.41800000000E+01 0.  1.
</event>
<event>
11    1  0.8037748E-009  0.3116671E+03  0.7561462E-02  0.9953709E-01
         22   -1    0    0    0    0  0.00000000000E+00  0.00000000000E+00  0.28270408217E+04  0.28270408217E+04  0.00000000000E+00 0. -1.
         22   -1    0    0    0    0 -0.00000000000E+00 -0.00000000000E+00 -0.40201976411E+02  0.40201976411E+02  0.00000000000E+00 0.  1.
        -24    2    1    2    0    0  0.70854714750E+01 -0.19477785502E+03  0.33855633293E+03  0.39920235537E+03  0.82179761803E+02 0.  0.
         25    2    1    2    0    0  0.10905966575E+02  0.36948957968E+02  0.89560137440E+03  0.90511475633E+03  0.12508690864E+03 0.  0.
         24    2    1    2    0    0 -0.17991438050E+02  0.15782889705E+03  0.15526811380E+04  0.15629256864E+04  0.81757767036E+02 0.  0.
        -13    1    5    5    0    0 -0.24353774702E+01  0.13986695508E+03  0.10003399130E+04  0.10100735804E+04  0.00000000000E+00 0.  1.
         14    1    5    5    0    0 -0.15556060580E+02  0.17961941978E+02  0.55234122495E+03  0.55285210604E+03  0.00000000000E+00 0. -1.
         13    1    3    3    0    0  0.28516621949E+02 -0.96089356267E+02  0.23023740036E+03  0.25110878646E+03  0.00000000000E+00 0. -1.
        -14    1    3    3    0    0 -0.21431150474E+02 -0.98688498754E+02  0.10831893257E+03  0.14809356890E+03  0.00000000000E+00 0.  1.
          5    1    4    4  501    0 -0.14971205280E+00  0.59546396630E+02  0.19231454666E+03  0.20136571958E+03  0.41800000000E+01 0.  1.
         -5    1    4    4    0  501  0.11055678628E+02 -0.22597438662E+02  0.70328682774E+03  0.70374903676E+03  0.41800000000E+01 0.  1.
</event>
<event>
11    1  0.8037748E-009  0.1358564E+03  0.7561462E-02  0.1112276E+00
         22   -1    0    0    0    0  0.00000000000E+00  0.00000000000E+00  0.38902706815E+03  0.38902706815E+03  0.00000000000E+00 0. -1.
         22   -1    0    0    0    0 -0.00000000000E+00 -0.00000000000E+00 -0.38066574887E+03  0.38066574887E+03  0.00000000000E+00 0. -1.
         24    2    1    2    0    0  0.35367757806E+02  0.29375369788E+01 -0.29738526523E+03  0.31030121414E+03  0.81174750407E+02 0.  0.
         25    2    1    2    0    0 -0.52930239553E+02  0.45968557216E+02  0.51569744673E+01  0.14349344030E+03  0.12509618105E+03 0.  0.
        -24    2    1    2    0    0  0.17562481747E+02 -0.48906094195E+02  0.30058961005E+03  0.31589816258E+03  0.82080988255E+02 0.  0.
        -11    1    3    3    0    0 -0.14525459555E+01 -0.28046487750E+01  0.48442282419E+01  0.57829483625E+01  0.00000000000E+00 0.  1.
         12    1    3    3    0    0  0.36820303762E+02  0.57421857538E+01 -0.30222949347E+03  0.30451826578E+03  0.00000000000E+00 0. -1.
         11    1    5    5    0    0 -0.13629638802E+02 -0.49054815035E+02  0.25874649407E+03  0.26370796371E+03  0.00000000000E+00 0. -1.
        -12    1    5    5    0    0  0.31192120549E+02  0.14872084003E+00  0.41843115981E+02  0.52190198862E+02  0.00000000000E+00 0.  1.
          5    1    4    4  501    0 -0.79139857106E+02  0.37277508479E+02  0.42107328666E+02  0.97176278734E+02  0.41800000000E+01 0.  1.
         -5    1    4    4    0  501  0.26209617553E+02  0.86910487368E+01 -0.36950354199E+02  0.46317161569E+02  0.41800000000E+01 0.  1.
</event>
<event>
11    1  0.8037748E-009  0.1544708E+03  0.7561462E-02  0.1092396E+00
         22   -1    0    0    0    0  0.00000000000E+00  0.00000000000E+00  0.58307899832E+03  0.58307899832E+03  0.00000000000E+00 0. -1.
         22   -1    0    0    0    0 -0.00000000000E+00 -0.00000000000E+00 -0.41301101954E+03  0.41301101954E+03  0.00000000000E+00 0.  1.
         24    2    1    2    0    0 -0.65119457822E+02  0.47350051862E+02 -0.12674855545E+03  0.17058575921E+03  0.80942780650E+02 0.  0.
         25    2    1    2    0    0  0.59670252773E+02 -0.86800295452E+02 -0.23503085596E+03  0.28632446260E+03  0.12508942510E+03 0.  0.
        -24    2    1    2    0    0  0.54492050486E+01  0.39450243590E+02  0.53184739020E+03  0.53917979605E+03  0.79165588812E+02 0.  0.
        -11    1    3    3    0    0 -0.54257337472E+02  0.61157328893E+02 -0.12915244596E+03  0.15285428304E+03  0.00000000000E+00 0.  1.
         12    1    3    3    0    0 -0.10862120350E+02 -0.13807277032E+02  0.24038905131E+01  0.17731476169E+02  0.00000000000E+00 0. -1.
         11    1    5    5    0    0 -0.38408011009E+01  0.62817825378E+02  0.40542782296E+03  0.41028350024E+03  0.00000000000E+00 0. -1.
        -12    1    5    5    0    0  0.92900061495E+01 -0.23367581788E+02  0.12641956723E+03  0.12889629580E+03  0.00000000000E+00 0.  1.
          5    1    4    4  501    0  0.45935303219E+02 -0.10759833296E+03 -0.11660509507E+03  0.16523218189E+03  0.41800000000E+01 0. -1.
         -5    1    4    4    0  501  0.13734949554E+02  0.20798037509E+02 -0.11842576089E+03  0.12109228071E+03  0.41800000000E+01 0. -1.
</event>
<event>
11    1  0.8037748E-009  0.1254704E+03  0.7561462E-02  0.1124963E+00
         22   -1    0    0    0    0  0.00000000000E+00  0.00000000000E+00  0.16636423542E+03  0.16636423542E+03  0.00000000000E+00 0. -1.
         22   -1    0    0    0    0 -0.00000000000E+00 -0.00000000000E+00 -0.38895700489E+03  0.38895700489E+03  0.00000000000E+00 0. -1.
        -24    2    1    2    0    0  0.43417705216E+01 -0.75534055391E+01 -0.22005878342E+03  0.23472206154E+03  0.81195277624E+02 0.  0.
         25    2    1    2    0    0 -0.30650852854E+01  0.13787687843E+02 -0.12335651150E+03  0.17624781844E+03  0.12508784709E+03 0.  0.
         24    2    1    2    0    0 -0.12766852362E+01 -0.62342823035E+01  0.12082252544E+03  0.14435136033E+03  0.78732054301E+02 0.  0.
        -13    1    5    5    0    0 -0.61544269354E+01 -0.90639201833E+01 -0.91392155749E+01  0.14267336168E+02  0.00000000000E+00 0.  1.
         14    1    5    5    0    0  0.48777416993E+01  0.28296378798E+01  0.12996174102E+03  0.13008402417E+03  0.00000000000E+00 0. -1.
         11    1    3    3    0    0  0.26950488545E+02  0.20598901144E+02 -0.16785450655E+03  0.17124771219E+03  0.00000000000E+00 0. -1.
        -12    1    3    3    0    0 -0.22608718024E+02 -0.28152306683E+02 -0.52204276865E+02  0.63474349349E+02  0.00000000000E+00 0.  1.
          5    1    4    4  501    0  0.59508031996E+02  0.16648897964E+02 -0.73258397143E+02  0.95930479137E+02  0.41800000000E+01 0. -1.
         -5    1    4    4    0  501 -0.62573117281E+02 -0.28612101218E+01 -0.50098114361E+02  0.80317339300E+02  0.41800000000E+01 0. -1.
</event>
<event>
11    1  0.8037748E-009  0.1387076E+03  0.7561462E-02  0.1109010E+00
         22   -1    0    0    0    0  0.00000000000E+00  0.00000000000E+00  0.60198967016E+03  0.60198967016E+03  0.00000000000E+00 0. -1.
         22   -1    0    0    0    0 -0.00000000000E+00 -0.00000000000E+00 -0.16454188962E+03  0.16454188962E+03  0.00000000000E+00 0. -1.
        -24    2    1    2    0    0  0.29890823001E+02 -0.97110513105E+01 -0.91633079952E+02  0.12603645779E+03  0.80627548235E+02 0.  0.
         25    2    1    2    0    0  0.10821401361E+02  0.55226583698E+02  0.42696371867E+02  0.14365734698E+03  0.12508946756E+03 0.  0.
         24    2    1    2    0    0 -0.40712224361E+02 -0.45515532387E+02  0.48638448862E+03  0.49683775501E+03  0.80924255536E+02 0.  0.
        -11    1    5    5    0    0  0.15948958076E+01  0.11024965948E+02  0.24709335697E+03  0.24734433615E+03  0.00000000000E+00 0.  1.
         12    1    5    5    0    0 -0.42307120169E+02 -0.56540498335E+02  0.23929113165E+03  0.24949341886E+03  0.00000000000E+00 0. -1.
         11    1    3    3    0    0  0.48378534823E+02  0.45627532600E+01 -0.90417556865E+02  0.10264811707E+03  0.00000000000E+00 0. -1.
        -12    1    3    3    0    0 -0.18487711823E+02 -0.14273804571E+02 -0.12155230876E+01  0.23388340722E+02  0.00000000000E+00 0.  1.
          5    1    4    4  501    0  0.58425519429E+02  0.61690519258E+02  0.43249009911E+02  0.95431707232E+02  0.41800000000E+01 0.  1.
         -5    1    4    4    0  501 -0.47604118068E+02 -0.64639355602E+01 -0.55263804442E+00  0.48225639745E+02  0.41800000000E+01 0.  1.
</event>
<event>
11    1  0.8037748E-009  0.1871812E+03  0.7561462E-02  0.1063978E+00
         22   -1    0    0    0    0  0.00000000000E+00  0.00000000000E+00  0.29480669672E+03  0.29480669672E+03  0.00000000000E+00 0.  1.
         22   -1    0    0    0    0 -0.00000000000E+00 -0.00000000000E+00 -0.12053390688E+04  0.12053390688E+04  0.00000000000E+00 0.  1.
        -24    2    1    2    0    0  0.10961782774E+03  0.46544610188E+02 -0.43577144374E+03  0.45859277813E+03  0.78918414074E+02 0.  0.
         25    2    1    2    0    0 -0.24490857208E+03 -0.30158601626E+02 -0.71045378233E+03  0.76241809058E+03  0.12508804135E+03 0.  0.
         24    2    1    2    0    0  0.13529074434E+03 -0.16386008562E+02  0.23569285397E+03  0.27913489682E+03  0.61588005589E+02 0.  0.
        -11    1    5    5    0    0  0.13975951636E+03 -0.14604992275E+02  0.23559986106E+03  0.27432339081E+03  0.00000000000E+00 0.  1.
         12    1    5    5    0    0 -0.44687720260E+01 -0.17810162873E+01  0.92992908223E-01  0.48115060134E+01  0.00000000000E+00 0. -1.
         13    1    3    3    0    0  0.68759030835E+02  0.10485985640E+02 -0.12471710594E+03  0.14280096894E+03  0.00000000000E+00 0. -1.
        -14    1    3    3    0    0  0.40858796905E+02  0.36058624548E+02 -0.31105433780E+03  0.31579180919E+03  0.00000000000E+00 0.  1.
          5    1    4    4  501    0 -0.10774775334E+03  0.48354252040E+02 -0.32382260450E+03  0.34471185593E+03  0.41800000000E+01 0.  1.
         -5    1    4    4    0  501 -0.13716081874E+03 -0.78512853666E+02 -0.38663117783E+03  0.41770623464E+03  0.41800000000E+01 0.  1.
</event>
<event>
11    1  0.8037748E-009  0.2799796E+03  0.7561462E-02  0.1009039E+00
         22   -1    0    0    0    0  0.00000000000E+00  0.00000000000E+00  0.90023733250E+02  0.90023733250E+02  0.00000000000E+00 0.  1.
         22   -1    0    0    0    0 -0.00000000000E+00 -0.00000000000E+00 -0.31405426807E+04  0.31405426807E+04  0.00000000000E+00 0.  1.
         24    2    1    2    0    0 -0.14896857690E+03 -0.17310475993E+03 -0.11276351823E+04  0.11535243389E+04  0.83068653469E+02 0.  0.
         25    2    1    2    0    0  0.37741562594E+03  0.14514637093E+03 -0.16780226509E+04  0.17305831588E+04  0.12509208194E+03 0.  0.
        -24    2    1    2    0    0 -0.22844704904E+03  0.27958388999E+02 -0.24486111417E+03  0.34645891618E+03  0.84303556492E+02 0.  0.
        -11    1    3    3    0    0 -0.15090338178E+03 -0.12893342328E+03 -0.89840183717E+03  0.92006604073E+03  0.00000000000E+00 0.  1.
         12    1    3    3    0    0  0.19348048781E+01 -0.44171336651E+02 -0.22923334516E+03  0.23345829817E+03  0.00000000000E+00 0. -1.
         11    1    5    5    0    0 -0.22978492496E+03  0.18109875666E+02 -0.21582217778E+03  0.31576619793E+03  0.00000000000E+00 0. -1.
        -12    1    5    5    0    0  0.13378759161E+01  0.98485133327E+01 -0.29038936391E+02  0.30692718250E+02  0.00000000000E+00 0.  1.
          5    1    4    4  501    0  0.25435248182E+03  0.81657609747E+02 -0.84842173010E+03  0.88949426909E+03  0.41800000000E+01 0. -1.
         -5    1    4    4    0  501  0.12306314412E+03  0.63488761186E+02 -0.82960092081E+03  0.84108888974E+03  0.41800000000E+01 0. -1.
</event>
<event>
11    1  0.8037748E-009  0.1527276E+03  0.7561462E-02  0.1094124E+00
         22   -1    0    0    0    0  0.00000000000E+00  0.00000000000E+00  0.13173927324E+03  0.13173927324E+03  0.00000000000E+00 0.  1.
         22   -1    0    0    0    0 -0.00000000000E+00 -0.00000000000E+00 -0.21526932665E+04  0.21526932665E+04  0.00000000000E+00 0. -1.
         24    2    1    2    0    0 -0.21227268820E+02  0.71984774153E+01 -0.17690940417E+04  0.17709201396E+04  0.77213970877E+02 0.  0.
         25    2    1    2    0    0  0.17400338993E+02 -0.94189094468E+02 -0.33302970297E+03  0.36841866935E+03  0.12509666484E+03 0.  0.
        -24    2    1    2    0    0  0.38269298272E+01  0.86990617053E+02  0.81169751461E+02  0.14509373078E+03  0.82955706923E+02 0.  0.
        -13    1    3    3    0    0 -0.47894692391E+02  0.79799399852E+01 -0.80920549974E+03  0.81066091666E+03  0.00000000000E+00 0.  1.
         14    1    3    3    0    0  0.26667423571E+02 -0.78146256984E+00 -0.95988854199E+03  0.96025922292E+03  0.00000000000E+00 0. -1.
         11    1    5    5    0    0  0.31692330733E+02  0.62934732263E+02  0.19231078358E+02  0.73041212525E+02  0.00000000000E+00 0. -1.
        -12    1    5    5    0    0 -0.27865400906E+02  0.24055884790E+02  0.61938673103E+02  0.72052518251E+02  0.00000000000E+00 0.  1.
          5    1    4    4  501    0 -0.28694115741E+02 -0.13831934230E+02 -0.12051228719E+02  0.34312959597E+02  0.41800000000E+01 0.  1.
         -5    1    4    4    0  501  0.46094454734E+02 -0.80357160239E+02 -0.32097847425E+03  0.33410570975E+03  0.41800000000E+01 0.  1.
</event>
<event>
11    1  0.8037748E-009  0.1333361E+03  0.7561462E-02  0.1115237E+00
         22   -1    0    0    0    0  0.00000000000E+00  0.00000000000E+00  0.21400339639E+04  0.21400339639E+04  0.00000000000E+00 0. -1.
         22   -1    0    0    0    0 -0.00000000000E+00 -0.00000000000E+00 -0.82255895782E+02  0.82255895782E+02  0.00000000000E+00 0. -1.
         24    2    1    2    0    0 -0.15069406995E+02 -0.40713638974E+02 -0.35450333283E+02  0.98612526319E+02  0.81135792296E+02 0.  0.
         25    2    1    2    0    0  0.58212548852E+02  0.25402054285E+02  0.35658583626E+03  0.38318836084E+03  0.12508355628E+03 0.  0.
        -24    2    1    2    0    0 -0.43143141857E+02  0.15311584689E+02  0.17366425651E+04  0.17404889725E+04  0.10620117290E+03 0.  0.
        -13    1    3    3    0    0  0.12048555144E+02 -0.11652818472E+02  0.22674020653E+02  0.28196933733E+02  0.00000000000E+00 0.  1.
         14    1    3    3    0    0 -0.27117962139E+02 -0.29060820503E+02 -0.58124353936E+02  0.70415592586E+02  0.00000000000E+00 0. -1.
         11    1    5    5    0    0 -0.42514801277E+02  0.58202666788E+02  0.99525426015E+03  0.99786076238E+03  0.00000000000E+00 0. -1.
        -12    1    5    5    0    0 -0.62834058026E+00 -0.42891082099E+02  0.74138830497E+03  0.74262821013E+03  0.00000000000E+00 0.  1.
          5    1    4    4  501    0  0.64849728113E+02  0.38083122280E+01  0.69649328361E+02  0.95333581803E+02  0.41800000000E+01 0.  1.
         -5    1    4    4    0  501 -0.66371792608E+01  0.21593742057E+02  0.28693650790E+03  0.28785477903E+03  0.41800000000E+01 0.  1.
</event>
<event>
11    1  0.8037748E-009  0.1526813E+03  0.7561462E-02  0.1094170E+00
         22   -1    0    0    0    0  0.00000000000E+00  0.00000000000E+00  0.85026643429E+03  0.85026643429E+03  0.00000000000E+00 0.  1.
         22   -1    0    0    0    0 -0.00000000000E+00 -0.00000000000E+00 -0.31715191427E+03  0.31715191427E+03  0.00000000000E+00 0. -1.
        -24    2    1    2    0    0 -0.32573814964E+02 -0.16664307580E+00 -0.28221881364E+03  0.29311450519E+03  0.72163517016E+02 0.  0.
         25    2    1    2    0    0 -0.35368433311E+02 -0.62548955009E+02  0.19997363387E+03  0.24657824943E+03  0.12509228994E+03 0.  0.
         24    2    1    2    0    0  0.67942248276E+02  0.62715598084E+02  0.61535969979E+03  0.62772559394E+03  0.82598219206E+02 0.  0.
        -13    1    5    5    0    0  0.76480014681E+02  0.72959608808E+02  0.58630746647E+03  0.59575896334E+03  0.00000000000E+00 0.  1.
         14    1    5    5    0    0 -0.85377664060E+01 -0.10244010723E+02  0.29052233327E+02  0.31966630605E+02  0.00000000000E+00 0. -1.
         13    1    3    3    0    0 -0.29482843055E+02  0.40556559576E+01 -0.28542847784E+03  0.28697578703E+03  0.00000000000E+00 0. -1.
        -14    1    3    3    0    0 -0.30909719094E+01 -0.42222990334E+01  0.32096641929E+01  0.61387181645E+01  0.00000000000E+00 0.  1.
          5    1    4    4  501    0 -0.19508465563E+02 -0.29439052270E+02  0.20608125434E+03  0.20912721922E+03  0.41800000000E+01 0.  1.
         -5    1    4    4    0  501 -0.15859967748E+02 -0.33109902739E+02 -0.61076204684E+01  0.37451030215E+02  0.41800000000E+01 0.  1.
</event>
<event>
11    1  0.8037748E-009  0.1355569E+03  0.7561462E-02  0.1112624E+00
         22   -1    0    0    0    0  0.00000000000E+00  0.00000000000E+00  0.46735315209E+03  0.46735315209E+03  0.00000000000E+00 0.  1.
         22   -1    0    0    0    0 -0.00000000000E+00 -0.00000000000E+00 -0.19573203548E+03  0.19573203548E+03  0.00000000000E+00 0.  1.
         24    2    1    2    0    0 -0.34556617499E+02  0.17620758444E+02 -0.10843876178E+03  0.14058947369E+03  0.80633641340E+02 0.  0.
         25    2    1    2    0    0  0.81813829776E+02 -0.15711928215E+01  0.20399050293E+02  0.15086184711E+03  0.12508878556E+03 0.  0.
        -24    2    1    2    0    0 -0.47257212277E+02 -0.16049565622E+02  0.35966082810E+03  0.37163386677E+03  0.79151670805E+02 0.  0.
        -13    1    3    3    0    0 -0.51770145903E+02  0.12151608721E+02 -0.11028281215E+03  0.12243409761E+03  0.00000000000E+00 0.  1.
         14    1    3    3    0    0  0.17213528403E+02  0.54691497234E+01  0.18440503772E+01  0.18155376079E+02  0.00000000000E+00 0. -1.
         11    1    5    5    0    0  0.22083158888E+02 -0.76778173885E+01  0.10478095052E+03  0.10735763773E+03  0.00000000000E+00 0. -1.
        -12    1    5    5    0    0 -0.69340371165E+02 -0.83717482339E+01  0.25487987757E+03  0.26427622904E+03  0.00000000000E+00 0.  1.
          5    1    4    4  501    0  0.87615830543E+01  0.37361128478E+02 -0.34231013466E+02  0.51593157895E+02  0.41800000000E+01 0. -1.
         -5    1    4    4    0  501  0.73052246722E+02 -0.38932321299E+02  0.54630063759E+02  0.99268689218E+02  0.41800000000E+01 0. -1.
</event>
<event>
11    1  0.8037748E-009  0.6780800E+03  0.7561462E-02  0.9065245E-01
         22   -1    0    0    0    0  0.00000000000E+00  0.00000000000E+00  0.24078371992E+04  0.24078371992E+04  0.00000000000E+00 0. -1.
         22   -1    0    0    0    0 -0.00000000000E+00 -0.00000000000E+00 -0.39740915910E+03  0.39740915910E+03  0.00000000000E+00 0. -1.
         24    2    1    2    0    0  0.10378987707E+03 -0.11731411154E+03 -0.53520221825E+01  0.17617798989E+03  0.80468009980E+02 0.  0.
         25    2    1    2    0    0 -0.74234355510E+03 -0.31598145741E+01  0.33261809691E+03  0.82302256087E+03  0.12508956424E+03 0.  0.
        -24    2    1    2    0    0  0.63855367803E+03  0.12047392612E+03  0.16831619654E+04  0.18060458075E+04  0.80638022576E+02 0.  0.
        -11    1    3    3    0    0 -0.93089783298E+01 -0.30547924147E+02  0.82499406111E+01  0.32983242220E+02  0.00000000000E+00 0.  1.
         12    1    3    3    0    0  0.11309885540E+03 -0.86766187396E+02 -0.13601962794E+02  0.14319474767E+03  0.00000000000E+00 0. -1.
         13    1    5    5    0    0  0.16261007379E+03  0.61148590675E+02  0.50238588609E+03  0.53157573758E+03  0.00000000000E+00 0. -1.
        -14    1    5    5    0    0  0.47594360424E+03  0.59325335442E+02  0.11807760793E+04  0.12744700700E+04  0.00000000000E+00 0.  1.
          5    1    4    4  501    0 -0.72795399741E+03 -0.12131869887E+02  0.30292025111E+03  0.78856981653E+03  0.41800000000E+01 0.  1.
         -5    1    4    4    0  501 -0.14389557691E+02  0.89720553125E+01  0.29697845806E+02  0.34452744340E+02  0.41800000000E+01 0.  1.
</event>
<event>
11    1  0.8037748E-009  0.1697190E+03  0.7561462E-02  0.1078276E+00
         22   -1    0    0    0    0  0.00000000000E+00  0.00000000000E+00  0.87595520169E+03  0.87595520169E+03  0.00000000000E+00 0.  1.
         22   -1    0    0    0    0 -0.00000000000E+00 -0.00000000000E+00 -0.20231903929E+03  0.20231903929E+03  0.00000000000E+00 0.  1.
         24    2    1    2    0    0 -0.58888456754E+02  0.10477780759E+03 -0.15376512696E+03  0.21147338670E+03  0.81431196176E+02 0.  0.
         25    2    1    2    0    0 -0.17029265363E+02 -0.53695074745E+02  0.38649795040E+03  0.41012310744E+03  0.12508853127E+03 0.  0.
        -24    2    1    2    0    0  0.75917722117E+02 -0.51082732848E+02  0.44090333895E+03  0.45667774685E+03  0.76064867348E+02 0.  0.
        -11    1    3    3    0    0 -0.57572598217E+02  0.11723941659E+03 -0.14880504927E+03  0.19799653420E+03  0.00000000000E+00 0.  1.
         12    1    3    3    0    0 -0.13158585369E+01 -0.12461608997E+02 -0.49600776826E+01  0.13476852492E+02  0.00000000000E+00 0. -1.
         11    1    5    5    0    0  0.82529522360E+02 -0.23399072305E+02  0.37836113903E+03  0.38796364543E+03  0.00000000000E+00 0. -1.
        -12    1    5    5    0    0 -0.66118002428E+01 -0.27683660543E+02  0.62542199923E+02  0.68714101426E+02  0.00000000000E+00 0.  1.
          5    1    4    4  501    0 -0.23348024501E+02 -0.72947350958E+02  0.11744346214E+03  0.14027432217E+03  0.41800000000E+01 0.  1.
         -5    1    4    4    0  501  0.63187591380E+01  0.19252276213E+02  0.26905448826E+03  0.26984878527E+03  0.41800000000E+01 0.  1.
</event>
<event>
11    1  0.8037748E-009  0.1514904E+03  0.7561462E-02  0.1095366E+00
         22   -1    0    0    0    0  0.00000000000E+00  0.00000000000E+00  0.19591055786E+04  0.19591055786E+04  0.00000000000E+00 0.  1.
         22   -1    0    0    0    0 -0.00000000000E+00 -0.00000000000E+00 -0.74316791073E+03  0.74316791073E+03  0.00000000000E+00 0.  1.
        -24    2    1    2    0    0 -0.53437902742E+02  0.13019836247E+02 -0.70308755356E+03  0.70970809031E+03  0.79550863636E+02 0.  0.
         25    2    1    2    0    0  0.12282999566E+03 -0.58038030434E+02  0.20988448971E+03  0.27956246296E+03  0.12509216948E+03 0.  0.
         24    2    1    2    0    0 -0.69392092921E+02  0.45018194186E+02  0.17091407318E+04  0.17130029361E+04  0.79844334180E+02 0.  0.
        -11    1    5    5    0    0 -0.33760626365E+02  0.51667767207E+02  0.14530014975E+04  0.14543117581E+04  0.00000000000E+00 0.  1.
         12    1    5    5    0    0 -0.35631466556E+02 -0.66495730213E+01  0.25613923430E+03  0.25869117800E+03  0.00000000000E+00 0. -1.
         13    1    3    3    0    0  0.19907850993E+02  0.84302513954E+01 -0.22046496782E+03  0.22152244515E+03  0.00000000000E+00 0. -1.
        -14    1    3    3    0    0 -0.73345753734E+02  0.45895848521E+01 -0.48262258574E+03  0.48818564516E+03  0.00000000000E+00 0.  1.
          5    1    4    4  501    0  0.18360714014E+02 -0.50666645424E+02  0.14865222585E+03  0.15817452838E+03  0.41800000000E+01 0.  1.
         -5    1    4    4    0  501  0.10446928165E+03 -0.73713850091E+01  0.61232263856E+02  0.12138793458E+03  0.41800000000E+01 0.  1.
</event>
<event>
11    1  0.8037748E-009  0.2708265E+03  0.7561462E-02  0.1013355E+00
         22   -1    0    0    0    0  0.00000000000E+00  0.00000000000E+00  0.74962702051E+03  0.74962702051E+03  0.00000000000E+00 0.  1.
         22   -1    0    0    0    0 -0.00000000000E+00 -0.00000000000E+00 -0.34704171392E+03  0.34704171392E+03  0.00000000000E+00 0.  1.
        -24    2    1    2    0    0 -0.78016391303E+02 -0.38968252827E+02 -0.81825735766E+01  0.12282551076E+03  0.86104991397E+02 0.  0.
         25    2    1    2    0    0 -0.16866174468E+03  0.15986430169E+02 -0.21194092865E+03  0.29878014232E+03  0.12509302992E+03 0.  0.
         24    2    1    2    0    0  0.24667813598E+03  0.22981822658E+02  0.62270880882E+03  0.67506308135E+03  0.81028613924E+02 0.  0.
        -13    1    5    5    0    0  0.17050525290E+03 -0.11147322727E+01  0.32742227287E+03  0.36915935403E+03  0.00000000000E+00 0.  1.
         14    1    5    5    0    0  0.76172883085E+02  0.24096554930E+02  0.29528653595E+03  0.30590372732E+03  0.00000000000E+00 0. -1.
         11    1    3    3    0    0 -0.37658526003E+02 -0.60019166631E+02 -0.23733210070E+02  0.74724361516E+02  0.00000000000E+00 0. -1.
        -12    1    3    3    0    0 -0.40357865300E+02  0.21050913804E+02  0.15550636493E+02  0.48101149247E+02  0.00000000000E+00 0.  1.
          5    1    4    4  501    0 -0.78638439778E+01  0.45790133151E+02 -0.54464135091E+02  0.71710464699E+02  0.41800000000E+01 0. -1.
         -5    1    4    4    0  501 -0.16079790070E+03 -0.29803702982E+02 -0.15747679356E+03  0.22706967762E+03  0.41800000000E+01 0. -1.
</event>
<event>
11    1  0.8037748E-009  0.1288387E+03  0.7561462E-02  0.1120704E+00
         22   -1    0    0    0    0  0.00000000000E+00  0.00000000000E+00  0.26160469722E+03  0.26160469722E+03  0.00000000000E+00 0. -1.
         22   -1    0    0    0    0 -0.00000000000E+00 -0.00000000000E+00 -0.26124482353E+03  0.26124482353E+03  0.00000000000E+00 0. -1.
        -24    2    1    2    0    0 -0.16126300722E+01  0.48684985717E+01 -0.20269823274E+03  0.21848184659E+03  0.81372236544E+02 0.  0.
         25    2    1    2    0    0 -0.71213763777E+01 -0.33356434017E+02  0.72409056676E+02  0.14850710234E+03  0.12509165545E+03 0.  0.
         24    2    1    2    0    0  0.87340064499E+01  0.28487935445E+02  0.13064904975E+03  0.15586057182E+03  0.79595843558E+02 0.  0.
        -11    1    5    5    0    0 -0.17921658140E+02 -0.69531932959E+01  0.14674610241E+01  0.19279164125E+02  0.00000000000E+00 0.  1.
         12    1    5    5    0    0  0.26655664590E+02  0.35441128741E+02  0.12918158872E+03  0.13658140769E+03  0.00000000000E+00 0. -1.
         11    1    3    3    0    0 -0.26244478457E+02  0.32816849744E+02 -0.13260594988E+03  0.13910447952E+03  0.00000000000E+00 0. -1.
        -12    1    3    3    0    0  0.24631848384E+02 -0.27948351172E+02 -0.70092282858E+02  0.79377367078E+02  0.00000000000E+00 0.  1.
          5    1    4    4  501    0 -0.18280617888E+02  0.37072059170E+02  0.64389301863E+02  0.76628801086E+02  0.41800000000E+01 0.  1.
         -5    1    4    4    0  501  0.11159241510E+02 -0.70428493187E+02  0.80197548137E+01  0.71878301252E+02  0.41800000000E+01 0.  1.
</event>
<event>
11    1  0.8037748E-009  0.2001586E+03  0.7561462E-02  0.1054412E+00
         22   -1    0    0    0    0  0.00000000000E+00  0.00000000000E+00  0.19338720981E+04  0.19338720981E+04  0.00000000000E+00 0. -1.
         22   -1    0    0    0    0 -0.00000000000E+00 -0.00000000000E+00 -0.21278744936E+03  0.21278744936E+03  0.00000000000E+00 0.  1.
         24    2    1    2    0    0 -0.12786946578E+03  0.97041995128E+02 -0.15848543921E+03  0.23972399792E+03  0.81130830397E+02 0.  0.
         25    2    1    2    0    0  0.49290757785E+02 -0.90959275719E+02  0.57535487976E+03  0.59781600259E+03  0.12509023402E+03 0.  0.
        -24    2    1    2    0    0  0.78578707994E+02 -0.60827194089E+01  0.13042152082E+04  0.13091195469E+04  0.81271557993E+02 0.  0.
        -11    1    3    3    0    0 -0.97274368741E+02  0.80404543217E+02 -0.16127665532E+03  0.20478611509E+03  0.00000000000E+00 0.  1.
         12    1    3    3    0    0 -0.30595097038E+02  0.16637451911E+02  0.27912161153E+01  0.34937882824E+02  0.00000000000E+00 0. -1.
         13    1    5    5    0    0 -0.90286473755E+01  0.19270393017E+02  0.31022930356E+03  0.31095833371E+03  0.00000000000E+00 0. -1.
        -14    1    5    5    0    0  0.87607355370E+02 -0.25353112426E+02  0.99398590460E+03  0.99816121322E+03  0.00000000000E+00 0.  1.
          5    1    4    4  501    0  0.46499483514E+02 -0.11423449100E+03  0.34830135240E+03  0.36951728699E+03  0.41800000000E+01 0. -1.
         -5    1    4    4    0  501  0.27912742705E+01  0.23275215278E+02  0.22705352737E+03  0.22829871561E+03  0.41800000000E+01 0. -1.
</event>
<event>
11    1  0.8037748E-009  0.2172146E+03  0.7561462E-02  0.1042976E+00
         22   -1    0    0    0    0  0.00000000000E+00  0.00000000000E+00  0.84224028335E+03  0.84224028335E+03  0.00000000000E+00 0.  1.
         22   -1    0    0    0    0 -0.00000000000E+00 -0.00000000000E+00 -0.73181338751E+03  0.73181338751E+03  0.00000000000E+00 0. -1.
        -24    2    1    2    0    0  0.14495796183E+03  0.93851989760E+02 -0.60438183537E+03  0.63388529053E+03  0.81927723889E+02 0.  0.
         25    2    1    2    0    0 -0.14869229427E+03 -0.22059292086E+03  0.10497326642E+03  0.31215059766E+03  0.12509186164E+03 0.  0.
         24    2    1    2    0    0  0.37343324415E+01  0.12674093110E+03  0.60983546480E+03  0.62801778267E+03  0.80186235552E+02 0.  0.
        -13    1    5    5    0    0 -0.17651711198E+02 -0.27198217548E+01  0.99072234347E+02  0.10066920064E+03  0.00000000000E+00 0.  1.
         14    1    5    5    0    0  0.21386043640E+02  0.12946075286E+03  0.51076323045E+03  0.52734858204E+03  0.00000000000E+00 0. -1.
         13    1    3    3    0    0  0.12141343737E+03  0.75129970527E+02 -0.57256970559E+03  0.59010321386E+03  0.00000000000E+00 0. -1.
        -14    1    3    3    0    0  0.23544524464E+02  0.18722019233E+02 -0.31812129777E+02  0.43782076668E+02  0.00000000000E+00 0.  1.
          5    1    4    4  501    0 -0.79503051773E+02 -0.20567659977E+02  0.26821892966E+02  0.86490752225E+02  0.41800000000E+01 0.  1.
         -5    1    4    4    0  501 -0.69189242498E+02 -0.20002526089E+03  0.78151373450E+02  0.22565984544E+03  0.41800000000E+01 0.  1.
</event>
<event>
11    1  0.8037748E-009  0.1277856E+03  0.7561462E-02  0.1122020E+00
         22   -1    0    0    0    0  0.00000000000E+00  0.00000000000E+00  0.63178291742E+03  0.63178291742E+03  0.00000000000E+00 0. -1.
         22   -1    0    0    0    0 -0.00000000000E+00 -0.00000000000E+00 -0.37564387069E+03  0.37564387069E+03  0.00000000000E+00 0.  1.
        -24    2    1    2    0    0 -0.25890312818E+02  0.20059183706E+02 -0.21882841923E+03  0.23548427668E+03  0.80587147547E+02 0.  0.
         25    2    1    2    0    0  0.32008074190E+02 -0.44722993609E+02 -0.11221362994E+03  0.17681710483E+03  0.12509087434E+03 0.  0.
         24    2    1    2    0    0 -0.61177613718E+01  0.24663809903E+02  0.58718109590E+03  0.59512540660E+03  0.93524754324E+02 0.  0.
        -11    1    5    5    0    0 -0.27392492814E+02 -0.17454900778E+02  0.89488874710E+02  0.95201265331E+02  0.00000000000E+00 0.  1.
         12    1    5    5    0    0  0.21274731442E+02  0.42118710680E+02  0.49769222119E+03  0.49992414127E+03  0.00000000000E+00 0. -1.
         11    1    3    3    0    0 -0.39037902925E+02 -0.16569444305E+02 -0.15527423420E+03  0.16096146171E+03  0.00000000000E+00 0. -1.
        -12    1    3    3    0    0  0.13147590106E+02  0.36628628011E+02 -0.63554185032E+02  0.74522814968E+02  0.00000000000E+00 0.  1.
          5    1    4    4  501    0 -0.43783215446E+02 -0.14213848152E+02 -0.12585378220E+02  0.47904776161E+02  0.41800000000E+01 0.  1.
         -5    1    4    4    0  501  0.75791289636E+02 -0.30509145457E+02 -0.99628251719E+02  0.12891232866E+03  0.41800000000E+01 0.  1.
</event>
<event>
11    1  0.8037748E-009  0.1332220E+03  0.7561462E-02  0.1115372E+00
         22   -1    0    0    0    0  0.00000000000E+00  0.00000000000E+00  0.62019912762E+03  0.62019912762E+03  0.00000000000E+00 0. -1.
         22   -1    0    0    0    0 -0.00000000000E+00 -0.00000000000E+00 -0.84472715036E+03  0.84472715036E+03  0.00000000000E+00 0. -1.
         24    2    1    2    0    0  0.36251155111E+01  0.30729479436E+02 -0.80117068633E+03  0.80603643289E+03  0.82842139808E+02 0.  0.
         25    2    1    2    0    0  0.20896024410E+02  0.11620699578E+02  0.74163648751E+02  0.14737420845E+03  0.12508887251E+03 0.  0.
        -24    2    1    2    0    0 -0.24521139922E+02 -0.42350179014E+02  0.50247901484E+03  0.51151563665E+03  0.82269448891E+02 0.  0.
        -11    1    3    3    0    0  0.11106417272E+02  0.10572800079E+01 -0.12430755470E+02  0.16703114296E+02  0.00000000000E+00 0.  1.
         12    1    3    3    0    0 -0.74813017608E+01  0.29672199429E+02 -0.78873993086E+03  0.78933331859E+03  0.00000000000E+00 0. -1.
         11    1    5    5    0    0  0.84254748504E+01 -0.29199686643E+02  0.42738625708E+03  0.42846542809E+03  0.00000000000E+00 0. -1.
        -12    1    5    5    0    0 -0.32946614772E+02 -0.13150492371E+02  0.75092757754E+02  0.83050208559E+02  0.00000000000E+00 0.  1.
          5    1    4    4  501    0 -0.22575652239E+02 -0.34163007336E+02 -0.97298430593E+01  0.42295548113E+02  0.41800000000E+01 0. -1.
         -5    1    4    4    0  501  0.43471676649E+02  0.45783706914E+02  0.83893491810E+02  0.10507866033E+03  0.41800000000E+01 0. -1.
</event>
<event>
11    1  0.8037748E-009  0.1536989E+03  0.7561462E-02  0.1093158E+00
         22   -1    0    0    0    0  0.00000000000E+00  0.00000000000E+00  0.78589651104E+03  0.78589651104E+03  0.00000000000E+00 0.  1.
         22   -1    0    0    0    0 -0.00000000000E+00 -0.00000000000E+00 -0.80149472972E+03  0.80149472972E+03  0.00000000000E+00 0.  1.
        -24    2    1    2    0    0  0.77673824265E+02 -0.44173615388E+02 -0.74145228873E+03  0.75109782698E+03  0.80074452592E+02 0.  0.
         25    2    1    2    0    0 -0.74656973737E+02  0.47361789246E+02  0.58246620985E+02  0.16387810417E+03  0.12508621572E+03 0.  0.
         24    2    1    2    0    0 -0.30168505285E+01 -0.31881738581E+01  0.66760744906E+03  0.67241530960E+03  0.80145971255E+02 0.  0.
        -13    1    5    5    0    0 -0.31589365454E+02 -0.20466479276E+02  0.50579780251E+03  0.50719639372E+03  0.00000000000E+00 0.  1.
         14    1    5    5    0    0  0.28572514926E+02  0.17278305418E+02  0.16180964655E+03  0.16521891588E+03  0.00000000000E+00 0. -1.
         13    1    3    3    0    0  0.61586562049E+02 -0.12713335505E+02 -0.23046996026E+03  0.23889524086E+03  0.00000000000E+00 0. -1.
        -14    1    3    3    0    0  0.16087262217E+02 -0.31460279883E+02 -0.51098232847E+03  0.51220258612E+03  0.00000000000E+00 0.  1.
          5    1    4    4  501    0  0.50818453767E+01  0.55637450575E+02 -0.11896860795E+02  0.57274416241E+02  0.41800000000E+01 0. -1.
         -5    1    4    4    0  501 -0.79738819114E+02 -0.82756613294E+01  0.70143481780E+02  0.10660368793E+03  0.41800000000E+01 0. -1.
</event>
<event>
11    1  0.8037748E-009  0.2485065E+03  0.7561462E-02  0.1024698E+00
         22   -1    0    0    0    0  0.00000000000E+00  0.00000000000E+00  0.11826513421E+04  0.11826513421E+04  0.00000000000E+00 0. -1.
         22   -1    0    0    0    0 -0.00000000000E+00 -0.00000000000E+00 -0.10504778471E+03  0.10504778471E+03  0.00000000000E+00 0.  1.
        -24    2    1    2    0    0  0.16260711627E+03  0.18274275264E+03  0.33245744953E+03  0.41972407616E+03  0.76186327224E+02 0.  0.
         25    2    1    2    0    0 -0.62157574877E+02  0.28877746436E+02  0.92319334699E+02  0.16990618942E+03  0.12509102801E+03 0.  0.
         24    2    1    2    0    0 -0.10044954140E+03 -0.21162049908E+03  0.65282677313E+03  0.69806886120E+03  0.79018942520E+02 0.  0.
        -13    1    5    5    0    0 -0.68444872411E+02 -0.10950307130E+03  0.25144923258E+03  0.28267001919E+03  0.00000000000E+00 0.  1.
         14    1    5    5    0    0 -0.32004668985E+02 -0.10211742778E+03  0.40137754055E+03  0.41539884202E+03  0.00000000000E+00 0. -1.
         13    1    3    3    0    0  0.11742877988E+03  0.14181164641E+03  0.29629705435E+03  0.34884381293E+03  0.00000000000E+00 0. -1.
        -14    1    3    3    0    0  0.45178336395E+02  0.40931106227E+02  0.36160395182E+02  0.70880263234E+02  0.00000000000E+00 0.  1.
          5    1    4    4  501    0 -0.25055767447E+02 -0.45976222136E+02  0.11874698343E+02  0.53852440474E+02  0.41800000000E+01 0. -1.
         -5    1    4    4    0  501 -0.37101807429E+02  0.74853968572E+02  0.80444636356E+02  0.11605374894E+03  0.41800000000E+01 0. -1.
</event>
<event>
11    1  0.8037748E-009  0.1410153E+03  0.7561462E-02  0.1106430E+00
         22   -1    0    0    0    0  0.00000000000E+00  0.00000000000E+00  0.61158802000E+03  0.61158802000E+03  0.00000000000E+00 0. -1.
         22   -1    0    0    0    0 -0.00000000000E+00 -0.00000000000E+00 -0.20195527946E+03  0.20195527946E+03  0.00000000000E+00 0.  1.
         24    2    1    2    0    0 -0.19131690133E+02 -0.59977136656E+02 -0.14060108326E+03  0.17419467272E+03  0.81313227103E+02 0.  0.
         25    2    1    2    0    0  0.67389232311E+02  0.66170430615E+02  0.11679317202E+03  0.19547038271E+03  0.12509272948E+03 0.  0.
        -24    2    1    2    0    0 -0.48257542178E+02 -0.61932939585E+01  0.43344065178E+03  0.44387824403E+03  0.82401150677E+02 0.  0.
        -13    1    3    3    0    0 -0.13097435595E+02 -0.17583118683E+02 -0.12756150437E+03  0.12943201412E+03  0.00000000000E+00 0.  1.
         14    1    3    3    0    0 -0.60342545378E+01 -0.42394017974E+02 -0.13039578894E+02  0.44762658607E+02  0.00000000000E+00 0. -1.
         11    1    5    5    0    0 -0.58942184685E+02  0.19077897909E+02  0.36362345281E+03  0.36886333886E+03  0.00000000000E+00 0. -1.
        -12    1    5    5    0    0  0.10684642507E+02 -0.25271191867E+02  0.69817198979E+02  0.75014905167E+02  0.00000000000E+00 0.  1.
          5    1    4    4  501    0  0.97032839495E+02  0.77806775539E+02  0.96511359126E+02  0.15748390743E+03  0.41800000000E+01 0. -1.
         -5    1    4    4    0  501 -0.29643607184E+02 -0.11636344924E+02  0.20281812889E+02  0.37986475279E+02  0.41800000000E+01 0. -1.
</event>
<event>
11    1  0.8037748E-009  0.3567289E+03  0.7561462E-02  0.9786834E-01
         22   -1    0    0    0    0  0.00000000000E+00  0.00000000000E+00  0.67260641613E+03  0.67260641613E+03  0.00000000000E+00 0. -1.
         22   -1    0    0    0    0 -0.00000000000E+00 -0.00000000000E+00 -0.40542264268E+03  0.40542264268E+03  0.00000000000E+00 0. -1.
        -24    2    1    2    0    0  0.92570912289E+02  0.10614283056E+03 -0.11179883604E+03  0.19706693331E+03  0.80627056148E+02 0.  0.
         25    2    1    2    0    0 -0.34629223344E+03  0.10676451351E+03  0.16416105133E+02  0.38370969639E+03  0.12508665119E+03 0.  0.
         24    2    1    2    0    0  0.25372132115E+03 -0.21290734406E+03  0.36256650436E+03  0.49725242911E+03  0.78111857027E+02 0.  0.
        -11    1    5    5    0    0  0.13327259328E+03 -0.11899117008E+03  0.25106986588E+03  0.30815022348E+03  0.00000000000E+00 0.  1.
         12    1    5    5    0    0  0.12044872787E+03 -0.93916173989E+02  0.11149663848E+03  0.18910220563E+03  0.00000000000E+00 0. -1.
         11    1    3    3    0    0 -0.84828935984E+01  0.40574551655E+02 -0.22928590166E+02  0.47370602411E+02  0.00000000000E+00 0. -1.
        -12    1    3    3    0    0  0.10105380589E+03  0.65568278904E+02 -0.88870245874E+02  0.14969633090E+03  0.00000000000E+00 0.  1.
          5    1    4    4  501    0 -0.12182444559E+03 -0.21848125411E+02  0.16800912314E+02  0.12497311384E+03  0.41800000000E+01 0.  1.
         -5    1    4    4    0  501 -0.22446778785E+03  0.12861263892E+03 -0.38480718083E+00  0.25873658255E+03  0.41800000000E+01 0.  1.
</event>
<event>
11    1  0.8037748E-009  0.1455105E+03  0.7561462E-02  0.1101556E+00
         22   -1    0    0    0    0  0.00000000000E+00  0.00000000000E+00  0.25861849082E+03  0.25861849082E+03  0.00000000000E+00 0.  1.
         22   -1    0    0    0    0 -0.00000000000E+00 -0.00000000000E+00 -0.30391012788E+03  0.30391012788E+03  0.00000000000E+00 0.  1.
        -24    2    1    2    0    0 -0.57475877485E+02 -0.49634357736E+02 -0.11752385379E+03  0.16529419755E+03  0.87995849746E+02 0.  0.
         25    2    1    2    0    0  0.58541309767E+02  0.42284928856E+02 -0.12009398609E+03  0.18784446295E+03  0.12509147297E+03 0.  0.
         24    2    1    2    0    0 -0.10654322817E+01  0.73494288803E+01  0.19232620282E+03  0.20938995821E+03  0.82459911822E+02 0.  0.
        -11    1    5    5    0    0 -0.26341542665E+02 -0.28215679373E+02  0.78213874545E+02  0.87220476975E+02  0.00000000000E+00 0.  1.
         12    1    5    5    0    0  0.25276110383E+02  0.35565108253E+02  0.11411232827E+03  0.12216948123E+03  0.00000000000E+00 0. -1.
         11    1    3    3    0    0 -0.25557243004E+02  0.64739916968E+01  0.49732654894E+01  0.26829435478E+02  0.00000000000E+00 0. -1.
        -12    1    3    3    0    0 -0.31918634481E+02 -0.56108349433E+02 -0.12249711928E+03  0.13846476207E+03  0.00000000000E+00 0.  1.
          5    1    4    4  501    0  0.21597457799E+02  0.21256413207E+02 -0.13813121036E+03  0.14147787446E+03  0.41800000000E+01 0. -1.
         -5    1    4    4    0  501  0.36943851968E+02  0.21028515649E+02  0.18037224275E+02  0.46366588490E+02  0.41800000000E+01 0. -1.
</event>
<event>
11    1  0.8037748E-009  0.1521963E+03  0.7561462E-02  0.1094655E+00
         22   -1    0    0    0    0  0.00000000000E+00  0.00000000000E+00  0.11914030680E+04  0.11914030680E+04  0.00000000000E+00 0. -1.
         22   -1    0    0    0    0 -0.00000000000E+00 -0.00000000000E+00 -0.54717805211E+02  0.54717805211E+02  0.00000000000E+00 0.  1.
        -24    2    1    2    0    0 -0.51316717772E+02 -0.27938743346E+02  0.11692201244E+03  0.15314971414E+03  0.79812900252E+02 0.  0.
         25    2    1    2    0    0  0.11958171557E+03  0.69928292101E+02  0.23551079086E+03  0.30050504171E+03  0.12509274458E+03 0.  0.
         24    2    1    2    0    0 -0.68264997793E+02 -0.41989548755E+02  0.78425245944E+03  0.79246611731E+03  0.80792294309E+02 0.  0.
        -13    1    5    5    0    0 -0.20790198036E+02  0.24426361126E+02  0.23531054477E+03  0.23748669844E+03  0.00000000000E+00 0.  1.
         14    1    5    5    0    0 -0.47474799757E+02 -0.66415909881E+02  0.54894191467E+03  0.55497941887E+03  0.00000000000E+00 0. -1.
         13    1    3    3    0    0 -0.51669890054E+02 -0.12258088771E+01  0.11533648143E+03  0.12638743645E+03  0.00000000000E+00 0. -1.
        -14    1    3    3    0    0  0.35317228223E+00 -0.26712934469E+02  0.15855310150E+01  0.26762277691E+02  0.00000000000E+00 0.  1.
          5    1    4    4  501    0  0.38453813220E+02  0.91361479913E+02  0.15570952025E+03  0.18463082858E+03  0.41800000000E+01 0.  1.
         -5    1    4    4    0  501  0.81127902345E+02 -0.21433187812E+02  0.79801270611E+02  0.11587421314E+03  0.41800000000E+01 0.  1.
</event>
<event>
11    1  0.8037748E-009  0.2131305E+03  0.7561462E-02  0.1045608E+00
         22   -1    0    0    0    0  0.00000000000E+00  0.00000000000E+00  0.10164808275E+03  0.10164808275E+03  0.00000000000E+00 0. -1.
         22   -1    0    0    0    0 -0.00000000000E+00 -0.00000000000E+00 -0.66877193940E+03  0.66877193940E+03  0.00000000000E+00 0.  1.
        -24    2    1    2    0    0 -0.13461065217E+03  0.10819675730E+03 -0.38320152179E+03  0.42783336253E+03  0.79821136448E+02 0.  0.
         25    2    1    2    0    0  0.14687226475E+03 -0.91596671458E+02 -0.14979404629E+03  0.26085656509E+03  0.12508588598E+03 0.  0.
         24    2    1    2    0    0 -0.12261612579E+02 -0.16600085837E+02 -0.34128288571E+02  0.81730094525E+02  0.71338336660E+02 0.  0.
        -13    1    5    5    0    0 -0.25310854998E+02 -0.25288264770E+02 -0.48630292179E+02  0.60374175217E+02  0.00000000000E+00 0.  1.
         14    1    5    5    0    0  0.13049242418E+02  0.86881789324E+01  0.14502003608E+02  0.21355919308E+02  0.00000000000E+00 0. -1.
         13    1    3    3    0    0  0.30676889866E+01  0.96376126802E+01 -0.14506596260E+01  0.10217568558E+02  0.00000000000E+00 0. -1.
        -14    1    3    3    0    0 -0.13767834116E+03  0.98559144615E+02 -0.38175086216E+03  0.41761579397E+03  0.00000000000E+00 0.  1.
          5    1    4    4  501    0  0.17695017834E+02 -0.28808651976E+01 -0.91929712295E+02  0.93754772908E+02  0.41800000000E+01 0.  1.
         -5    1    4    4    0  501  0.12917724692E+03 -0.88715806260E+02 -0.57864333995E+02  0.16710179218E+03  0.41800000000E+01 0.  1.
</event>
<event>
11    1  0.8037748E-009  0.2848735E+03  0.7561462E-02  0.1006804E+00
         22   -1    0    0    0    0  0.00000000000E+00  0.00000000000E+00  0.36129644591E+03  0.36129644591E+03  0.00000000000E+00 0. -1.
         22   -1    0    0    0    0 -0.00000000000E+00 -0.00000000000E+00 -0.30922595469E+03  0.30922595469E+03  0.00000000000E+00 0. -1.
         24    2    1    2    0    0 -0.23705982996E+02  0.22683191590E+02 -0.43188358583E+02  0.10051359493E+03  0.84624155165E+02 0.  0.
         25    2    1    2    0    0 -0.24103389433E+03 -0.32843614679E+02 -0.10187080263E+02  0.27373062611E+03  0.12509451557E+03 0.  0.
        -24    2    1    2    0    0  0.26473987733E+03  0.10160423088E+02  0.10544593007E+03  0.29627817956E+03  0.80445501250E+02 0.  0.
        -13    1    3    3    0    0 -0.52499066945E+02  0.13055071569E+02 -0.90872300923E+01  0.54855853603E+02  0.00000000000E+00 0.  1.
         14    1    3    3    0    0  0.28793083949E+02  0.96281200218E+01 -0.34101128490E+02  0.45657741324E+02  0.00000000000E+00 0. -1.
         13    1    5    5    0    0  0.26805553517E+03  0.17484969300E+02  0.10033855992E+03  0.28675306571E+03  0.00000000000E+00 0. -1.
        -14    1    5    5    0    0 -0.33156578401E+01 -0.73245462115E+01  0.51073701464E+01  0.95251138539E+01  0.00000000000E+00 0.  1.
          5    1    4    4  501    0 -0.11697227581E+03 -0.78228432797E+02 -0.14233810668E+02  0.14150008753E+03  0.41800000000E+01 0. -1.
         -5    1    4    4    0  501 -0.12406161852E+03  0.45384818118E+02  0.40467304044E+01  0.13223053858E+03  0.41800000000E+01 0. -1.
</event>
<event>
11    1  0.8037748E-009  0.1812802E+03  0.7561462E-02  0.1068612E+00
         22   -1    0    0    0    0  0.00000000000E+00  0.00000000000E+00  0.11367854319E+04  0.11367854319E+04  0.00000000000E+00 0. -1.
         22   -1    0    0    0    0 -0.00000000000E+00 -0.00000000000E+00 -0.31828963976E+03  0.31828963976E+03  0.00000000000E+00 0. -1.
        -24    2    1    2    0    0  0.44894046345E+02  0.12137616871E+03 -0.23993114048E+03  0.28466762322E+03  0.81982033428E+02 0.  0.
         25    2    1    2    0    0 -0.11384801638E+03 -0.11238840180E+03  0.14019830025E+03  0.24677020108E+03  0.12508974799E+03 0.  0.
         24    2    1    2    0    0  0.68953970038E+02 -0.89877669148E+01  0.91822863233E+03  0.92363724732E+03  0.71599675079E+02 0.  0.
        -11    1    5    5    0    0  0.47227768427E+02  0.12722150374E+02  0.25210211831E+03  0.25680302428E+03  0.00000000000E+00 0.  1.
         12    1    5    5    0    0  0.21726201611E+02 -0.21709917288E+02  0.66612651402E+03  0.66683422305E+03  0.00000000000E+00 0. -1.
         11    1    3    3    0    0  0.69010815249E+02  0.85459188085E+02 -0.17642331562E+03  0.20782432905E+03  0.00000000000E+00 0. -1.
        -12    1    3    3    0    0 -0.24116768904E+02  0.35916980628E+02 -0.63507824864E+02  0.76843294169E+02  0.00000000000E+00 0.  1.
          5    1    4    4  501    0 -0.62848836228E+01 -0.83788172247E+01  0.87282761531E+02  0.88008279160E+02  0.41800000000E+01 0. -1.
         -5    1    4    4    0  501 -0.10756313276E+03 -0.10400958457E+03  0.52915538721E+02  0.15876192192E+03  0.41800000000E+01 0. -1.
</event>
<event>
11    1  0.8037748E-009  0.1499682E+03  0.7561462E-02  0.1096911E+00
         22   -1    0    0    0    0  0.00000000000E+00  0.00000000000E+00  0.57152204569E+03  0.57152204569E+03  0.00000000000E+00 0. -1.
         22   -1    0    0    0    0 -0.00000000000E+00 -0.00000000000E+00 -0.68265738924E+03  0.68265738924E+03  0.00000000000E+00 0.  1.
         24    2    1    2    0    0 -0.84810241160E+02 -0.31670938370E+02 -0.50057676785E+03  0.51429684733E+03  0.75685674463E+02 0.  0.
         25    2    1    2    0    0  0.59305172936E+02 -0.21508453198E+02 -0.14175751996E+03  0.19930374759E+03  0.12508825781E+03 0.  0.
        -24    2    1    2    0    0  0.25505068224E+02  0.53179391568E+02  0.53119894426E+03  0.54057884000E+03  0.81083954477E+02 0.  0.
        -13    1    3    3    0    0 -0.84471170872E+02 -0.44785418321E+02 -0.34005888613E+03  0.35324376631E+03  0.00000000000E+00 0.  1.
         14    1    3    3    0    0 -0.33907028774E+00  0.13114479951E+02 -0.16051788173E+03  0.16105308103E+03  0.00000000000E+00 0. -1.
         13    1    5    5    0    0  0.30231309945E+02  0.73378509897E+02  0.43296271151E+03  0.44017615494E+03  0.00000000000E+00 0. -1.
        -14    1    5    5    0    0 -0.47262417208E+01 -0.20199118329E+02  0.98236232750E+02  0.10040268506E+03  0.00000000000E+00 0.  1.
          5    1    4    4  501    0 -0.38138420226E+02 -0.66934947688E+01 -0.24264482258E+02  0.45886593563E+02  0.41800000000E+01 0. -1.
         -5    1    4    4    0  501  0.97443593163E+02 -0.14814958430E+02 -0.11749303771E+03  0.15341715403E+03  0.41800000000E+01 0. -1.
</event>
<event>
11    1  0.8037748E-009  0.1518373E+03  0.7561462E-02  0.1095016E+00
         22   -1    0    0    0    0  0.00000000000E+00  0.00000000000E+00  0.79199669690E+03  0.79199669690E+03  0.00000000000E+00 0. -1.
         22   -1    0    0    0    0 -0.00000000000E+00 -0.00000000000E+00 -0.16880835478E+04  0.16880835478E+04  0.00000000000E+00 0.  1.
         24    2    1    2    0    0  0.77916539562E+02 -0.35399344963E+02 -0.16397565018E+04  0.16439262752E+04  0.79800454289E+02 0.  0.
         25    2    1    2    0    0 -0.11022464498E+03  0.84396886243E+02  0.17163139163E+03  0.25372670961E+03  0.12509037455E+03 0.  0.
        -24    2    1    2    0    0  0.32308105419E+02 -0.48997541280E+02  0.57203825927E+03  0.58242725984E+03  0.92461722957E+02 0.  0.
        -11    1    3    3    0    0  0.38227118537E+02 -0.17111630858E+02 -0.13710440579E+04  0.13716836112E+04  0.00000000000E+00 0.  1.
         12    1    3    3    0    0  0.39689421025E+02 -0.18287714106E+02 -0.26871244384E+03  0.27224266401E+03  0.00000000000E+00 0. -1.
         11    1    5    5    0    0 -0.47453998084E+01 -0.41056286910E+02  0.91546787195E+02  0.10044377412E+03  0.00000000000E+00 0. -1.
        -12    1    5    5    0    0  0.37053505227E+02 -0.79412543696E+01  0.48049147207E+03  0.48198348572E+03  0.00000000000E+00 0.  1.
          5    1    4    4  501    0 -0.56880643321E+02  0.11087381027E+03  0.95925076941E+02  0.15731338841E+03  0.41800000000E+01 0. -1.
         -5    1    4    4    0  501 -0.53344001660E+02 -0.26476924026E+02  0.75706314693E+02  0.96413321192E+02  0.41800000000E+01 0. -1.
</event>
<event>
11    1  0.8037748E-009  0.1294162E+03  0.7561462E-02  0.1119988E+00
         22   -1    0    0    0    0  0.00000000000E+00  0.00000000000E+00  0.76001735302E+03  0.76001735302E+03  0.00000000000E+00 0.  1.
         22   -1    0    0    0    0 -0.00000000000E+00 -0.00000000000E+00 -0.10339295632E+04  0.10339295632E+04  0.00000000000E+00 0. -1.
        -24    2    1    2    0    0  0.32082372658E+02 -0.66407003877E+01 -0.58487846105E+03  0.59125677913E+03  0.80177223227E+02 0.  0.
         25    2    1    2    0    0 -0.24137145406E+02  0.36357421241E+02 -0.43377858675E+03  0.45355849703E+03  0.12508790522E+03 0.  0.
         24    2    1    2    0    0 -0.79452272514E+01 -0.29716720854E+02  0.74474483764E+03  0.74913164005E+03  0.74880777301E+02 0.  0.
        -13    1    5    5    0    0 -0.13809218465E+02 -0.10987561181E+02  0.70058382481E+03  0.70080604778E+03  0.00000000000E+00 0.  1.
         14    1    5    5    0    0  0.58639912131E+01 -0.18729159673E+02  0.44161012821E+02  0.48325592271E+02  0.00000000000E+00 0. -1.
         13    1    3    3    0    0  0.56263396863E+02  0.89199609026E+01 -0.42671081916E+03  0.43049652579E+03  0.00000000000E+00 0. -1.
        -14    1    3    3    0    0 -0.24181024205E+02 -0.15560661290E+02 -0.15816764190E+03  0.16076025334E+03  0.00000000000E+00 0.  1.
          5    1    4    4  501    0 -0.11999582476E+02 -0.36701673737E+01  0.39599270857E+01  0.13806285912E+02  0.41800000000E+01 0. -1.
         -5    1    4    4    0  501 -0.12137562930E+02  0.40027588615E+02 -0.43773851384E+03  0.43975221111E+03  0.41800000000E+01 0. -1.
</event>
<event>
11    1  0.8037748E-009  0.1637728E+03  0.7561462E-02  0.1083582E+00
         22   -1    0    0    0    0  0.00000000000E+00  0.00000000000E+00  0.26158972724E+03  0.26158972724E+03  0.00000000000E+00 0. -1.
         22   -1    0    0    0    0 -0.00000000000E+00 -0.00000000000E+00 -0.85830328760E+03  0.85830328760E+03  0.00000000000E+00 0.  1.
        -24    2    1    2    0    0  0.29145530792E+02  0.10324671016E+03 -0.76698146477E+03  0.77880156410E+03  0.82231160809E+02 0.  0.
         25    2    1    2    0    0  0.34469630788E+02 -0.92865368314E+02  0.24422722701E+02  0.16141833549E+03  0.12508907853E+03 0.  0.
         24    2    1    2    0    0 -0.63615161579E+02 -0.10381341850E+02  0.14584518171E+03  0.17967311526E+03  0.82806704310E+02 0.  0.
        -11    1    5    5    0    0 -0.33602292377E+01  0.84704636258E+01 -0.87806102707E+01  0.12654604351E+02  0.00000000000E+00 0.  1.
         12    1    5    5    0    0 -0.60254932341E+02 -0.18851805476E+02  0.15462579198E+03  0.16701851091E+03  0.00000000000E+00 0. -1.
         13    1    3    3    0    0 -0.80613769304E+01  0.23320294407E+02 -0.43848196660E+02  0.50313877604E+02  0.00000000000E+00 0. -1.
        -14    1    3    3    0    0  0.37206907722E+02  0.79926415757E+02 -0.72313326811E+03  0.72848768649E+03  0.00000000000E+00 0.  1.
          5    1    4    4  501    0  0.29320084863E+02 -0.19891359229E+02  0.67551017101E+02  0.76393362668E+02  0.41800000000E+01 0.  1.
         -5    1    4    4    0  501  0.51495459248E+01 -0.72974009085E+02 -0.43128294399E+02  0.85024972820E+02  0.41800000000E+01 0.  1.
</event>
<event>
11    1  0.8037748E-009  0.1622134E+03  0.7561462E-02  0.1085014E+00
         22   -1    0    0    0    0  0.00000000000E+00  0.00000000000E+00  0.89187717705E+03  0.89187717705E+03  0.00000000000E+00 0. -1.
         22   -1    0    0    0    0 -0.00000000000E+00 -0.00000000000E+00 -0.21949323325E+03  0.21949323325E+03  0.00000000000E+00 0. -1.
        -24    2    1    2    0    0 -0.26919642893E+02  0.10145565502E+03 -0.18257593423E+03  0.21672547306E+03  0.51166803727E+02 0.  0.
         25    2    1    2    0    0  0.23524254795E+02 -0.66037047487E+02  0.32299160852E+03  0.35338989832E+03  0.12508620568E+03 0.  0.
         24    2    1    2    0    0  0.33953880977E+01 -0.35418607537E+02  0.53196826951E+03  0.54125503893E+03  0.93277923311E+02 0.  0.
        -13    1    5    5    0    0  0.40609937787E+02 -0.38115713808E+02  0.21494256195E+03  0.22204116651E+03  0.00000000000E+00 0.  1.
         14    1    5    5    0    0 -0.37214549689E+02  0.26971062713E+01  0.31702570756E+03  0.31921387242E+03  0.00000000000E+00 0. -1.
         13    1    3    3    0    0 -0.33694733868E+02  0.88509377392E+02 -0.12218043575E+03  0.15458752814E+03  0.00000000000E+00 0. -1.
        -14    1    3    3    0    0  0.67750909755E+01  0.12946277632E+02 -0.60395498476E+02  0.62137944916E+02  0.00000000000E+00 0.  1.
          5    1    4    4  501    0  0.66637377770E+02 -0.72410814681E+01  0.19213503248E+03  0.20353455845E+03  0.41800000000E+01 0. -1.
         -5    1    4    4    0  501 -0.43113122975E+02 -0.58795966019E+02  0.13085657604E+03  0.14985533987E+03  0.41800000000E+01 0. -1.
</event>
<event>
11    1  0.8037748E-009  0.1878525E+03  0.7561462E-02  0.1063462E+00
         22   -1    0    0    0    0  0.00000000000E+00  0.00000000000E+00  0.33844557782E+03  0.33844557782E+03  0.00000000000E+00 0. -1.
         22   -1    0    0    0    0 -0.00000000000E+00 -0.00000000000E+00 -0.11515158443E+04  0.11515158443E+04  0.00000000000E+00 0. -1.
        -24    2    1    2    0    0  0.39433308558E+02  0.14149521945E+03 -0.97835251699E+03  0.99259186979E+03  0.80554885177E+02 0.  0.
         25    2    1    2    0    0 -0.81578420660E+02 -0.76464589516E+02 -0.10971361218E+03  0.20046512699E+03  0.12508924125E+03 0.  0.
         24    2    1    2    0    0  0.42145112102E+02 -0.65030629929E+02  0.27499586270E+03  0.29690442532E+03  0.80773262715E+02 0.  0.
        -11    1    5    5    0    0  0.13031618563E+02  0.18534430367E+02  0.42987460556E+02  0.48592900268E+02  0.00000000000E+00 0.  1.
         12    1    5    5    0    0  0.29113493540E+02 -0.83565060296E+02  0.23200840214E+03  0.24831152505E+03  0.00000000000E+00 0. -1.
         13    1    3    3    0    0  0.42651972194E+02  0.13113642461E+03 -0.66975939321E+03  0.68380815832E+03  0.00000000000E+00 0. -1.
        -14    1    3    3    0    0 -0.32186636362E+01  0.10358794835E+02 -0.30859312378E+03  0.30878371147E+03  0.00000000000E+00 0.  1.
          5    1    4    4  501    0 -0.86448544726E+02 -0.93434068650E+02 -0.12370888175E+03  0.17755178370E+03  0.41800000000E+01 0.  1.
         -5    1    4    4    0  501  0.48701240657E+01  0.16969479134E+02  0.13995269576E+02  0.22913343296E+02  0.41800000000E+01 0.  1.
</event>
<event>
11    1  0.8037748E-009  0.1641473E+03  0.7561462E-02  0.1083240E+00
         22   -1    0    0    0    0  0.00000000000E+00  0.00000000000E+00  0.11530307872E+04  0.11530307872E+04  0.00000000000E+00 0.  1.
         22   -1    0    0    0    0 -0.00000000000E+00 -0.00000000000E+00 -0.41610125099E+03  0.41610125099E+03  0.00000000000E+00 0. -1.
        -24    2    1    2    0    0 -0.26960094056E+02 -0.71299587522E+02 -0.37049634818E+03  0.38676445415E+03  0.80676645470E+02 0.  0.
         25    2    1    2    0    0  0.96650367823E+02 -0.15113881338E+02  0.16119948931E+03  0.22627827148E+03  0.12508740057E+03 0.  0.
         24    2    1    2    0    0 -0.69690273768E+02  0.86413468860E+02  0.94622639507E+03  0.95608931255E+03  0.80239397917E+02 0.  0.
        -13    1    5    5    0    0 -0.78942197086E+02  0.47303751324E+02  0.76154861116E+03  0.76708917508E+03  0.00000000000E+00 0.  1.
         14    1    5    5    0    0  0.92519233179E+01  0.39109717537E+02  0.18467778392E+03  0.18900013747E+03  0.00000000000E+00 0. -1.
         11    1    3    3    0    0 -0.30200859509E+02 -0.88487764235E+02 -0.31143671365E+03  0.32516919125E+03  0.00000000000E+00 0. -1.
        -12    1    3    3    0    0  0.32407654529E+01  0.17188176714E+02 -0.59059634535E+02  0.61595262893E+02  0.00000000000E+00 0.  1.
          5    1    4    4  501    0  0.72799416601E+02  0.49387354471E+02  0.10722340529E+03  0.13875588954E+03  0.41800000000E+01 0. -1.
         -5    1    4    4    0  501  0.23850951222E+02 -0.64501235810E+02  0.53976084014E+02  0.87522381941E+02  0.41800000000E+01 0. -1.
</event>
<event>
11    1  0.8037748E-009  0.1344107E+03  0.7561462E-02  0.1113965E+00
         22   -1    0    0    0    0  0.00000000000E+00  0.00000000000E+00  0.15652440954E+03  0.15652440954E+03  0.00000000000E+00 0.  1.
         22   -1    0    0    0    0 -0.00000000000E+00 -0.00000000000E+00 -0.82312002567E+03  0.82312002567E+03  0.00000000000E+00 0.  1.
         24    2    1    2    0    0 -0.12246903207E+02 -0.15280846110E+02 -0.45368363319E+03  0.46116538901E+03  0.80381503483E+02 0.  0.
         25    2    1    2    0    0  0.45594411682E+02 -0.21026950422E+02 -0.33718805313E+03  0.36313144189E+03  0.12509067869E+03 0.  0.
        -24    2    1    2    0    0 -0.33347508475E+02  0.36307796532E+02  0.12427607019E+03  0.15534760431E+03  0.79107674286E+02 0.  0.
        -13    1    3    3    0    0 -0.24695119487E+02  0.10042398506E+02 -0.39653443278E+03  0.39742955989E+03  0.00000000000E+00 0.  1.
         14    1    3    3    0    0  0.12448216279E+02 -0.25323244615E+02 -0.57149200410E+02  0.63735829122E+02  0.00000000000E+00 0. -1.
         13    1    5    5    0    0 -0.26040771624E+02  0.45896580202E+02  0.30806220271E+02  0.61103527463E+02  0.00000000000E+00 0. -1.
        -14    1    5    5    0    0 -0.73067368507E+01 -0.95887836709E+01  0.93469849924E+02  0.94244076845E+02  0.00000000000E+00 0.  1.
          5    1    4    4  501    0 -0.30588635229E+02  0.32972143029E+01 -0.22318125187E+02  0.38237512199E+02  0.41800000000E+01 0. -1.
         -5    1    4    4    0  501  0.76183046911E+02 -0.24324164725E+02 -0.31486992795E+03  0.32489392969E+03  0.41800000000E+01 0. -1.
</event>
<event>
11    1  0.8037748E-009  0.1388506E+03  0.7561462E-02  0.1108849E+00
         22   -1    0    0    0    0  0.00000000000E+00  0.00000000000E+00  0.23981487317E+03  0.23981487317E+03  0.00000000000E+00 0. -1.
         22   -1    0    0    0    0 -0.00000000000E+00 -0.00000000000E+00 -0.33232038810E+03  0.33232038810E+03  0.00000000000E+00 0.  1.
         24    2    1    2    0    0  0.55798037301E+02  0.71552565652E+01 -0.23774491089E+03  0.25769385873E+03  0.81968673945E+02 0.  0.
         25    2    1    2    0    0 -0.92988474788E+02 -0.31421567615E+02  0.20410585727E+02  0.16030913405E+03  0.12509298580E+03 0.  0.
        -24    2    1    2    0    0  0.37190437486E+02  0.24266311050E+02  0.12482881023E+03  0.15413226849E+03  0.78756217758E+02 0.  0.
        -13    1    3    3    0    0  0.59020033247E+02  0.35031780502E+02 -0.19338372916E+03  0.20520198994E+03  0.00000000000E+00 0.  1.
         14    1    3    3    0    0 -0.32219959463E+01 -0.27876523937E+02 -0.44361181727E+02  0.52491868788E+02  0.00000000000E+00 0. -1.
         13    1    5    5    0    0  0.17451872495E+02  0.46386250335E+01  0.12499787612E+03  0.12629550163E+03  0.00000000000E+00 0. -1.
        -14    1    5    5    0    0  0.19738564991E+02  0.19627686017E+02 -0.16906589604E+00  0.27836766866E+02  0.00000000000E+00 0.  1.
          5    1    4    4  501    0 -0.36118359270E+02 -0.46902435952E+02  0.63700227770E+02  0.87060701769E+02  0.41800000000E+01 0.  1.
         -5    1    4    4    0  501 -0.56870115517E+02  0.15480868337E+02 -0.43289642043E+02  0.73248432281E+02  0.41800000000E+01 0.  1.
</event>
<event>
11    1  0.8037748E-009  0.2266593E+03  0.7561462E-02  0.1037124E+00
         22   -1    0    0    0    0  0.00000000000E+00  0.00000000000E+00  0.35849006607E+03  0.35849006607E+03  0.00000000000E+00 0. -1.
         22   -1    0    0    0    0 -0.00000000000E+00 -0.00000000000E+00 -0.41121742576E+03  0.41121742576E+03  0.00000000000E+00 0. -1.
        -24    2    1    2    0    0 -0.33081900622E+02 -0.13090904008E+02 -0.43861040326E+02  0.98432309066E+02  0.80618513340E+02 0.  0.
         25    2    1    2    0    0  0.45272335059E+02  0.20005917829E+03 -0.25634458811E+03  0.35132981523E+03  0.12508729783E+03 0.  0.
         24    2    1    2    0    0 -0.12190434436E+02 -0.18696827428E+03  0.24747826875E+03  0.31994536753E+03  0.77548710001E+02 0.  0.
        -11    1    5    5    0    0 -0.29155370353E+02 -0.25073008164E+02  0.64016031822E+02  0.74677598308E+02  0.00000000000E+00 0.  1.
         12    1    5    5    0    0  0.16964935917E+02 -0.16189526612E+03  0.18346223692E+03  0.24526776922E+03  0.00000000000E+00 0. -1.
         13    1    3    3    0    0 -0.43889293098E+02 -0.25639554923E+02  0.76180203133E+00  0.50835392864E+02  0.00000000000E+00 0. -1.
        -14    1    3    3    0    0  0.10807392476E+02  0.12548650915E+02 -0.44622842358E+02  0.47596916202E+02  0.00000000000E+00 0.  1.
          5    1    4    4  501    0  0.40787540156E+01  0.19794561610E+03 -0.20085475927E+03  0.28206242197E+03  0.41800000000E+01 0.  1.
         -5    1    4    4    0  501  0.41193581043E+02  0.21135621868E+01 -0.55489828839E+02  0.69267393258E+02  0.41800000000E+01 0.  1.
</event>
<event>
11    1  0.8037748E-009  0.2024093E+03  0.7561462E-02  0.1052833E+00
         22   -1    0    0    0    0  0.00000000000E+00  0.00000000000E+00  0.30402817984E+04  0.30402817984E+04  0.00000000000E+00 0. -1.
         22   -1    0    0    0    0 -0.00000000000E+00 -0.00000000000E+00 -0.21499823593E+04  0.21499823593E+04  0.00000000000E+00 0. -1.
        -24    2    1    2    0    0  0.33750423780E+02 -0.12711288418E+03 -0.10487104596E+04  0.10599663368E+04  0.80238585854E+02 0.  0.
         25    2    1    2    0    0 -0.98302232091E+02  0.22613787945E+03 -0.10765335993E+04  0.11114737365E+04  0.12509039518E+03 0.  0.
         24    2    1    2    0    0  0.64551808312E+02 -0.99024995272E+02  0.30155434980E+04  0.30188240844E+04  0.76311064787E+02 0.  0.
        -13    1    5    5    0    0  0.37849028909E+02 -0.24650016810E+02  0.18760974799E+04  0.18766411288E+04  0.00000000000E+00 0.  1.
         14    1    5    5    0    0  0.26702779403E+02 -0.74374978462E+02  0.11394460181E+04  0.11421829556E+04  0.00000000000E+00 0. -1.
         11    1    3    3    0    0  0.26043420051E+02 -0.12285637853E+03 -0.10400896843E+04  0.10476442626E+04  0.00000000000E+00 0. -1.
        -12    1    3    3    0    0  0.77070037286E+01 -0.42565056497E+01 -0.86207752548E+01  0.12322074209E+02  0.00000000000E+00 0.  1.
          5    1    4    4  501    0 -0.14192643132E+02 -0.12315321979E+02 -0.38047388636E+02  0.42640056948E+02  0.41800000000E+01 0.  1.
         -5    1    4    4    0  501 -0.84109588959E+02  0.23845320143E+03 -0.10384862107E+04  0.10688336795E+04  0.41800000000E+01 0.  1.
</event>
<event>
11    1  0.8037748E-009  0.1759669E+03  0.7561462E-02  0.1072953E+00
         22   -1    0    0    0    0  0.00000000000E+00  0.00000000000E+00  0.78041767889E+03  0.78041767889E+03  0.00000000000E+00 0.  1.
         22   -1    0    0    0    0 -0.00000000000E+00 -0.00000000000E+00 -0.17469630503E+03  0.17469630503E+03  0.00000000000E+00 0.  1.
        -24    2    1    2    0    0  0.66972722019E+02 -0.10274718090E+03 -0.10082437552E+03  0.17806238527E+03  0.80612217902E+02 0.  0.
         25    2    1    2    0    0 -0.10235584222E+03  0.89661275780E+02  0.24322824956E+03  0.30548847195E+03  0.12508941722E+03 0.  0.
         24    2    1    2    0    0  0.35383120197E+02  0.13085905115E+02  0.46331749982E+03  0.47156312669E+03  0.79280960580E+02 0.  0.
        -13    1    5    5    0    0 -0.16520620076E+02  0.21864096139E+02  0.26374617382E+03  0.26516601176E+03  0.00000000000E+00 0.  1.
         14    1    5    5    0    0  0.51903740273E+02 -0.87781910238E+01  0.19957132599E+03  0.20639711493E+03  0.00000000000E+00 0. -1.
         11    1    3    3    0    0  0.67934327431E+02 -0.35152953254E+02 -0.70301822035E+02  0.10389008205E+03  0.00000000000E+00 0. -1.
        -12    1    3    3    0    0 -0.96160541193E+00 -0.67594227641E+02 -0.30522553481E+02  0.74172303229E+02  0.00000000000E+00 0.  1.
          5    1    4    4  501    0  0.28188508820E+01  0.78802137972E+02  0.10758036882E+03  0.13344935753E+03  0.41800000000E+01 0.  1.
         -5    1    4    4    0  501 -0.10517469310E+03  0.10859137808E+02  0.13564788074E+03  0.17203911443E+03  0.41800000000E+01 0.  1.
</event>
<event>
11    1  0.8037748E-009  0.1364156E+03  0.7561462E-02  0.1111628E+00
         22   -1    0    0    0    0  0.00000000000E+00  0.00000000000E+00  0.15412997049E+04  0.15412997049E+04  0.00000000000E+00 0. -1.
         22   -1    0    0    0    0 -0.00000000000E+00 -0.00000000000E+00 -0.31124331691E+04  0.31124331691E+04  0.00000000000E+00 0. -1.
        -24    2    1    2    0    0 -0.36587349116E+02 -0.31047335038E+01 -0.30520215631E+04  0.30532580949E+04  0.78747057060E+02 0.  0.
         25    2    1    2    0    0  0.20805597720E+02  0.55395187549E+02  0.24070790015E+02  0.14045650824E+03  0.12508848099E+03 0.  0.
         24    2    1    2    0    0  0.15781751396E+02 -0.52290454045E+02  0.14568173088E+04  0.14600182708E+04  0.79707745019E+02 0.  0.
        -11    1    5    5    0    0  0.33100710332E+02  0.66661589160E+01  0.64197054163E+03  0.64285789334E+03  0.00000000000E+00 0.  1.
         12    1    5    5    0    0 -0.17318958936E+02 -0.58956612961E+02  0.81484676720E+03  0.81716037750E+03  0.00000000000E+00 0. -1.
         13    1    3    3    0    0  0.24885021922E+02 -0.62626542369E+00 -0.74209259922E+03  0.74250998804E+03  0.00000000000E+00 0. -1.
        -14    1    3    3    0    0 -0.61472371039E+02 -0.24784680801E+01 -0.23099289639E+04  0.23107481069E+04  0.00000000000E+00 0.  1.
          5    1    4    4  501    0  0.32164668931E+02  0.75885894230E+02  0.56658166539E+02  0.10010422122E+03  0.41800000000E+01 0. -1.
         -5    1    4    4    0  501 -0.11359071210E+02 -0.20490706681E+02 -0.32587376524E+02  0.40352287021E+02  0.41800000000E+01 0. -1.
</event>
<event>
11    1  0.8037748E-009  0.1367591E+03  0.7561462E-02  0.1111232E+00
         22   -1    0    0    0    0  0.00000000000E+00  0.00000000000E+00  0.46408145944E+03  0.46408145944E+03  0.00000000000E+00 0. -1.
         22   -1    0    0    0    0 -0.00000000000E+00 -0.00000000000E+00 -0.63127569077E+03  0.63127569077E+03  0.00000000000E+00 0.  1.
        -24    2    1    2    0    0  0.35408448111E+02 -0.41765638962E+02 -0.58935007540E+03  0.59817270198E+03  0.86480883596E+02 0.  0.
         25    2    1    2    0    0 -0.76976784240E+02  0.37000058861E+02  0.16287358534E+03  0.22241695229E+03  0.12508823364E+03 0.  0.
         24    2    1    2    0    0  0.41568336129E+02  0.47655801008E+01  0.25928225872E+03  0.27476749593E+03  0.80741871498E+02 0.  0.
        -13    1    5    5    0    0 -0.15692755118E+02  0.16455614608E+02  0.14114602487E+03  0.14296590556E+03  0.00000000000E+00 0.  1.
         14    1    5    5    0    0  0.57261091247E+02 -0.11690034507E+02  0.11813623385E+03  0.13180159038E+03  0.00000000000E+00 0. -1.
         11    1    3    3    0    0  0.62187787311E+02 -0.25445231110E+02 -0.31831924028E+03  0.32533355100E+03  0.00000000000E+00 0. -1.
        -12    1    3    3    0    0 -0.26779339200E+02 -0.16320407852E+02 -0.27103083512E+03  0.27283915098E+03  0.00000000000E+00 0.  1.
          5    1    4    4  501    0  0.17415899169E+02  0.49685924297E+02  0.81289410252E+02  0.96940421065E+02  0.41800000000E+01 0.  1.
         -5    1    4    4    0  501 -0.94392683409E+02 -0.12685865436E+02  0.81584175092E+02  0.12547653123E+03  0.41800000000E+01 0.  1.
</event>
<event>
11    1  0.8037748E-009  0.1436785E+03  0.7561462E-02  0.1103519E+00
         22   -1    0    0    0    0  0.00000000000E+00  0.00000000000E+00  0.76486774676E+03  0.76486774676E+03  0.00000000000E+00 0.  1.
         22   -1    0    0    0    0 -0.00000000000E+00 -0.00000000000E+00 -0.93745043134E+03  0.93745043134E+03  0.00000000000E+00 0. -1.
         24    2    1    2    0    0  0.53819888095E+02 -0.18702098139E+02 -0.82065138795E+03  0.82670786957E+03  0.82041771282E+02 0.  0.
         25    2    1    2    0    0 -0.85826934953E+02  0.80132751285E+02 -0.42990235164E+02  0.17687135245E+03  0.12509114439E+03 0.  0.
        -24    2    1    2    0    0  0.32007046858E+02 -0.61430653146E+02  0.69105893854E+03  0.69873895609E+03  0.76651784245E+02 0.  0.
        -13    1    3    3    0    0  0.73711788771E+02 -0.43959421852E+01 -0.54699821493E+03  0.55195996163E+03  0.00000000000E+00 0.  1.
         14    1    3    3    0    0 -0.19891900676E+02 -0.14306155953E+02 -0.27365317302E+03  0.27474790793E+03  0.00000000000E+00 0. -1.
         13    1    5    5    0    0  0.22960090203E+02 -0.35724994925E+02  0.12485375116E+03  0.13187835373E+03  0.00000000000E+00 0. -1.
        -14    1    5    5    0    0  0.90469566545E+01 -0.25705658222E+02  0.56620518738E+03  0.56686060236E+03  0.00000000000E+00 0.  1.
          5    1    4    4  501    0  0.15250715779E+02  0.62073443862E+02  0.33485013107E+01  0.64143445696E+02  0.41800000000E+01 0.  1.
         -5    1    4    4    0  501 -0.10107765073E+03  0.18059307423E+02 -0.46338736474E+02  0.11272790675E+03  0.41800000000E+01 0.  1.
</event>
<event>
11    1  0.8037748E-009  0.2638011E+03  0.7561462E-02  0.1016794E+00
         22   -1    0    0    0    0  0.00000000000E+00  0.00000000000E+00  0.44631295463E+03  0.44631295463E+03  0.00000000000E+00 0. -1.
         22   -1    0    0    0    0 -0.00000000000E+00 -0.00000000000E+00 -0.45431310345E+03  0.45431310345E+03  0.00000000000E+00 0.  1.
        -24    2    1    2    0    0  0.16536559758E+02  0.33093830169E+02 -0.26853000452E+03  0.28261362190E+03  0.79958967915E+02 0.  0.
         25    2    1    2    0    0 -0.41886686148E+02 -0.25413722530E+03  0.30650085066E+02  0.28796905616E+03  0.12508607369E+03 0.  0.
         24    2    1    2    0    0  0.25350126390E+02  0.22104339513E+03  0.22987977063E+03  0.33004338002E+03  0.81124055080E+02 0.  0.
        -11    1    5    5    0    0  0.22746831017E+02  0.12386215010E+02  0.41492806459E+02  0.48913082416E+02  0.00000000000E+00 0.  1.
         12    1    5    5    0    0  0.26032953729E+01  0.20865718012E+03  0.18838696418E+03  0.28113029761E+03  0.00000000000E+00 0. -1.
         11    1    3    3    0    0 -0.26937934274E+02  0.27086552465E+02 -0.17739624872E+03  0.18146284106E+03  0.00000000000E+00 0. -1.
        -12    1    3    3    0    0  0.43474494032E+02  0.60072777041E+01 -0.91133755806E+02  0.10115078084E+03  0.00000000000E+00 0.  1.
          5    1    4    4  501    0  0.23885688562E+02 -0.18903712411E+03  0.40400217623E+02  0.19482097010E+03  0.41800000000E+01 0. -1.
         -5    1    4    4    0  501 -0.65772374710E+02 -0.65100101192E+02 -0.97501325571E+01  0.93148086052E+02  0.41800000000E+01 0. -1.
</event>
<event>
11    1  0.8037748E-009  0.1278758E+03  0.7561462E-02  0.1121907E+00
         22   -1    0    0    0    0  0.00000000000E+00  0.00000000000E+00  0.24602735157E+02  0.24602735157E+02  0.00000000000E+00 0. -1.
         22   -1    0    0    0    0 -0.00000000000E+00 -0.00000000000E+00 -0.14447187403E+04  0.14447187403E+04  0.00000000000E+00 0. -1.
         24    2    1    2    0    0  0.21792740256E+02 -0.16244489117E+02 -0.87112720181E+03  0.87524264751E+03  0.80301203749E+02 0.  0.
         25    2    1    2    0    0 -0.12275203644E+02  0.22018667713E+02 -0.44117369931E+03  0.45926137660E+03  0.12510506273E+03 0.  0.
        -24    2    1    2    0    0 -0.95175366118E+01 -0.57741785959E+01 -0.10781510400E+03  0.13481745133E+03  0.80173087075E+02 0.  0.
        -13    1    3    3    0    0  0.31819741106E+02 -0.22659360949E+02 -0.18817979299E+03  0.19219151139E+03  0.00000000000E+00 0.  1.
         14    1    3    3    0    0 -0.10027000850E+02  0.64148718316E+01 -0.68294740883E+03  0.68305113612E+03  0.00000000000E+00 0. -1.
         13    1    5    5    0    0  0.19938317236E+02 -0.93911399327E+01  0.96637167273E+00  0.22060459598E+02  0.00000000000E+00 0. -1.
        -14    1    5    5    0    0 -0.29455853848E+02  0.36169613368E+01 -0.10878147567E+03  0.11275699173E+03  0.00000000000E+00 0.  1.
          5    1    4    4  501    0 -0.25167358607E+02 -0.48558373537E+02 -0.21837737176E+03  0.22516096571E+03  0.41800000000E+01 0.  1.
         -5    1    4    4    0  501  0.12892154963E+02  0.70577041250E+02 -0.22279632754E+03  0.23410041089E+03  0.41800000000E+01 0.  1.
</event>
<event>
11    1  0.8037748E-009  0.1440302E+03  0.7561462E-02  0.1103140E+00
         22   -1    0    0    0    0  0.00000000000E+00  0.00000000000E+00  0.45063091609E+03  0.45063091609E+03  0.00000000000E+00 0.  1.
         22   -1    0    0    0    0 -0.00000000000E+00 -0.00000000000E+00 -0.18236407663E+04  0.18236407663E+04  0.00000000000E+00 0.  1.
        -24    2    1    2    0    0 -0.45297851511E+02 -0.53355883174E+02 -0.16272939202E+04  0.16318632410E+04  0.99966939897E+02 0.  0.
         25    2    1    2    0    0 -0.42844604934E+01  0.12814058567E+03 -0.14219747552E+03  0.22871197027E+03  0.12510266585E+03 0.  0.
         24    2    1    2    0    0  0.49582312005E+02 -0.74784702496E+02  0.39648154557E+03  0.41369647104E+03  0.76785394311E+02 0.  0.
        -13    1    5    5    0    0  0.47014138121E+02 -0.90140486728E+02  0.32460110251E+03  0.34014925001E+03  0.00000000000E+00 0.  1.
         14    1    5    5    0    0  0.25681738841E+01  0.15355784232E+02  0.71880443057E+02  0.73547221025E+02  0.00000000000E+00 0. -1.
         13    1    3    3    0    0  0.20952691791E+02  0.59078348706E+01 -0.69511743993E+03  0.69545824684E+03  0.00000000000E+00 0. -1.
        -14    1    3    3    0    0 -0.66250543302E+02 -0.59263718044E+02 -0.93217648028E+03  0.93640499419E+03  0.00000000000E+00 0.  1.
          5    1    4    4  501    0  0.47199068496E+02  0.91810136778E+02 -0.44750177211E+02  0.11259175832E+03  0.41800000000E+01 0.  1.
         -5    1    4    4    0  501 -0.51483528990E+02  0.36330448891E+02 -0.97447298313E+02  0.11612021195E+03  0.41800000000E+01 0.  1.
</event>
<event>
11    1  0.8037748E-009  0.5591255E+03  0.7561462E-02  0.9270317E-01
         22   -1    0    0    0    0  0.00000000000E+00  0.00000000000E+00  0.23901973239E+04  0.23901973239E+04  0.00000000000E+00 0. -1.
         22   -1    0    0    0    0 -0.00000000000E+00 -0.00000000000E+00 -0.94471817270E+03  0.94471817270E+03  0.00000000000E+00 0.  1.
         24    2    1    2    0    0  0.12964435790E+02  0.19520342725E+01 -0.74602744210E+03  0.75075310892E+03  0.83074660103E+02 0.  0.
         25    2    1    2    0    0 -0.43166609531E+03  0.34403239523E+03  0.35719285561E+03  0.66927406571E+03  0.12508849720E+03 0.  0.
        -24    2    1    2    0    0  0.41870165952E+03 -0.34598442950E+03  0.18343137377E+04  0.19148883220E+04  0.84107622762E+02 0.  0.
        -11    1    3    3    0    0  0.77961802669E+01  0.16271222748E+02 -0.72253010781E+03  0.72275534575E+03  0.00000000000E+00 0.  1.
         12    1    3    3    0    0  0.51682555228E+01 -0.14319188476E+02 -0.23497334287E+02  0.27997763167E+02  0.00000000000E+00 0. -1.
         11    1    5    5    0    0  0.20365176689E+03 -0.21156409357E+03  0.10722392950E+04  0.11117241176E+04  0.00000000000E+00 0. -1.
        -12    1    5    5    0    0  0.21504989263E+03 -0.13442033593E+03  0.76207444272E+03  0.80316420443E+03  0.00000000000E+00 0.  1.
          5    1    4    4  501    0  0.24791643802E+01  0.17183272485E+02  0.30067608651E+02  0.34970624805E+02  0.41800000000E+01 0. -1.
         -5    1    4    4    0  501 -0.43414525969E+03  0.32684912274E+03  0.32712524696E+03  0.63430344091E+03  0.41800000000E+01 0. -1.
</event>
<event>
11    1  0.8037748E-009  0.1266876E+03  0.7561462E-02  0.1123407E+00
         22   -1    0    0    0    0  0.00000000000E+00  0.00000000000E+00  0.25620105317E+03  0.25620105317E+03  0.00000000000E+00 0. -1.
         22   -1    0    0    0    0 -0.00000000000E+00 -0.00000000000E+00 -0.87816006200E+03  0.87816006200E+03  0.00000000000E+00 0. -1.
         24    2    1    2    0    0  0.39705387857E+01  0.15542105252E+01 -0.62015206476E+03  0.62521908865E+03  0.79323039792E+02 0.  0.
         25    2    1    2    0    0 -0.23148890108E+02 -0.70391326453E+01 -0.23171435256E+03  0.26443124396E+03  0.12508765366E+03 0.  0.
        -24    2    1    2    0    0  0.19178351323E+02  0.54849221202E+01  0.22990740849E+03  0.24471078256E+03  0.81412880386E+02 0.  0.
        -13    1    3    3    0    0  0.67247712961E+01  0.18264288334E+02 -0.36874817808E+02  0.41696030575E+02  0.00000000000E+00 0.  1.
         14    1    3    3    0    0 -0.27542325104E+01 -0.16710077809E+02 -0.58327724695E+03  0.58352305808E+03  0.00000000000E+00 0. -1.
         11    1    5    5    0    0 -0.17901884738E+02  0.17519410887E+01  0.18706336209E+03  0.18792617755E+03  0.00000000000E+00 0. -1.
        -12    1    5    5    0    0  0.37080236060E+02  0.37329810315E+01  0.42844046405E+02  0.56784605009E+02  0.00000000000E+00 0.  1.
          5    1    4    4  501    0  0.29864202194E+02  0.45188523273E+01 -0.45379939789E+01  0.30827850856E+02  0.41800000000E+01 0. -1.
         -5    1    4    4    0  501 -0.53013092303E+02 -0.11557984973E+02 -0.22717635858E+03  0.23360339310E+03  0.41800000000E+01 0. -1.
</event>
<event>
11    1  0.8037748E-009  0.1324315E+03  0.7561462E-02  0.1116317E+00
         22   -1    0    0    0    0  0.00000000000E+00  0.00000000000E+00  0.77498796976E+02  0.77498796976E+02  0.00000000000E+00 0.  1.
         22   -1    0    0    0    0 -0.00000000000E+00 -0.00000000000E+00 -0.53453987129E+03  0.53453987129E+03  0.00000000000E+00 0.  1.
        -24    2    1    2    0    0  0.42371634195E+02 -0.13056179536E+02 -0.34630752334E+03  0.35917280883E+03  0.84323108770E+02 0.  0.
         25    2    1    2    0    0 -0.37564009307E+02  0.11817234376E+02 -0.11021193707E+03  0.17130502170E+03  0.12509211631E+03 0.  0.
         24    2    1    2    0    0 -0.48076248878E+01  0.12389451598E+01 -0.52161389208E+00  0.81560837724E+02  0.81407922999E+02 0.  0.
        -11    1    5    5    0    0 -0.31670836765E+02  0.28630780628E+02 -0.47741986194E+01  0.42959940331E+02  0.00000000000E+00 0.  1.
         12    1    5    5    0    0  0.26863211877E+02 -0.27391835468E+02  0.42525847273E+01  0.38600897393E+02  0.00000000000E+00 0. -1.
         11    1    3    3    0    0  0.63672679506E+01  0.22828109864E+02 -0.27348301011E+02  0.36188316752E+02  0.00000000000E+00 0. -1.
        -12    1    3    3    0    0  0.36004366244E+02 -0.35884289400E+02 -0.31895922233E+03  0.32298449208E+03  0.00000000000E+00 0.  1.
          5    1    4    4  501    0  0.41352533001E+02  0.23118877525E+02 -0.22216789316E+02  0.52493548281E+02  0.41800000000E+01 0.  1.
         -5    1    4    4    0  501 -0.78916542309E+02 -0.11301643149E+02 -0.87995147759E+02  0.11881147342E+03  0.41800000000E+01 0.  1.
</event>
<event>
11    1  0.8037748E-009  0.1371170E+03  0.7561462E-02  0.1110821E+00
         22   -1    0    0    0    0  0.00000000000E+00  0.00000000000E+00  0.12076392565E+03  0.12076392565E+03  0.00000000000E+00 0.  1.
         22   -1    0    0    0    0 -0.00000000000E+00 -0.00000000000E+00 -0.20981242963E+04  0.20981242963E+04  0.00000000000E+00 0. -1.
        -24    2    1    2    0    0  0.39832859810E+02  0.39346994328E+02 -0.18061603368E+04  0.18087806476E+04  0.79607954388E+02 0.  0.
         25    2    1    2    0    0 -0.48770979356E+01 -0.76602914361E+02 -0.24717742781E+03  0.28746477543E+03  0.12509006245E+03 0.  0.
         24    2    1    2    0    0 -0.34955761874E+02  0.37255920033E+02  0.75977393983E+02  0.12264279884E+03  0.81601365467E+02 0.  0.
        -13    1    5    5    0    0 -0.16245788967E+01  0.32602778597E+02  0.82176145697E+02  0.88422278587E+02  0.00000000000E+00 0.  1.
         14    1    5    5    0    0 -0.33331182978E+02  0.46531414356E+01 -0.61987517136E+01  0.34220520258E+02  0.00000000000E+00 0. -1.
         11    1    3    3    0    0  0.64219013179E+02  0.26349009947E+02 -0.12280344951E+04  0.12299947452E+04  0.00000000000E+00 0. -1.
        -12    1    3    3    0    0 -0.24386153369E+02  0.12997984381E+02 -0.57812584165E+03  0.57878590243E+03  0.00000000000E+00 0.  1.
          5    1    4    4  501    0 -0.13539321614E+02 -0.48946531971E+02 -0.14537693321E+02  0.52989556979E+02  0.41800000000E+01 0.  1.
         -5    1    4    4    0  501  0.86622236785E+01 -0.27656382390E+02 -0.23263973449E+03  0.23447521845E+03  0.41800000000E+01 0.  1.
</event>
<event>
11    1  0.8364216E-009  0.2368096E+03  0.7561462E-02  0.1031170E+00
         22   -1    0    0    0    0  0.00000000000E+00  0.00000000000E+00  0.11598198561E+04  0.11598198561E+04  0.00000000000E+00 0. -1.
         22   -1    0    0    0    0 -0.00000000000E+00 -0.00000000000E+00 -0.46681009999E+03  0.46681009999E+03  0.00000000000E+00 0.  1.
         24    2    1    2    0    0 -0.64134945947E+02 -0.50656236545E+02 -0.29463386413E+03  0.32254830447E+03  0.10270807772E+03 0.  0.
         25    2    1    2    0    0  0.58376595706E+02  0.24813308058E+03 -0.98395949376E+01  0.28411325767E+03  0.12508266448E+03 0.  0.
        -24    2    1    2    0    0  0.57583502411E+01 -0.19747684403E+03  0.99748321517E+03  0.10199683939E+04  0.79576991524E+02 0.  0.
        -13    1    3    3    0    0 -0.10608444116E+02  0.43519727552E+01 -0.20166375848E+03  0.20198948051E+03  0.00000000000E+00 0.  1.
         14    1    3    3    0    0 -0.53526501831E+02 -0.55008209300E+02 -0.92970105649E+02  0.12055882395E+03  0.00000000000E+00 0. -1.
         11    1    5    5    0    0 -0.13840972310E+02 -0.17582239372E+03  0.92776228415E+03  0.94437701293E+03  0.00000000000E+00 0. -1.
        -12    1    5    5    0    0  0.19599322551E+02 -0.21654450310E+02  0.69720931016E+02  0.75591381020E+02  0.00000000000E+00 0.  1.
          5    1    4    4  501    0  0.78899288713E+02  0.17669170506E+03  0.35734363615E+02  0.19682345780E+03  0.41800000000E+01 0. -1.
         -5    1    4    4    0  501 -0.20522693008E+02  0.71441375521E+02 -0.45573958553E+02  0.87289799878E+02  0.41800000000E+01 0. -1.
</event>
<event>
11    1  0.8037748E-009  0.1410039E+03  0.7561462E-02  0.1106443E+00
         22   -1    0    0    0    0  0.00000000000E+00  0.00000000000E+00  0.26135762748E+04  0.26135762748E+04  0.00000000000E+00 0.  1.
         22   -1    0    0    0    0 -0.00000000000E+00 -0.00000000000E+00 -0.17186767011E+03  0.17186767011E+03  0.00000000000E+00 0. -1.
         24    2    1    2    0    0  0.64243566620E+02  0.16339866736E+02 -0.11839688868E+03  0.15768552615E+03  0.80328542940E+02 0.  0.
         25    2    1    2    0    0 -0.47587554721E+02 -0.38513046012E+02  0.11347016087E+03  0.17963226438E+03  0.12507774751E+03 0.  0.
        -24    2    1    2    0    0 -0.16656011898E+02  0.22173179275E+02  0.24466353325E+04  0.24481261544E+04  0.80796936178E+02 0.  0.
        -11    1    3    3    0    0  0.64700066310E+00 -0.26051613753E+02 -0.18756598051E+02  0.32107867562E+02  0.00000000000E+00 0.  1.
         12    1    3    3    0    0  0.63596565956E+02  0.42391480489E+02 -0.99640290628E+02  0.12557765859E+03  0.00000000000E+00 0. -1.
         13    1    5    5    0    0 -0.15220577530E+02  0.40242604837E+02  0.66097571659E+03  0.66237453993E+03  0.00000000000E+00 0. -1.
        -14    1    5    5    0    0 -0.14354343684E+01 -0.18069425562E+02  0.17856596159E+04  0.17857516144E+04  0.00000000000E+00 0.  1.
          5    1    4    4  501    0  0.27191643902E+02  0.24047605713E+02  0.11071657310E+02  0.38180189028E+02  0.41800000000E+01 0. -1.
         -5    1    4    4    0  501 -0.74779198623E+02 -0.62560651724E+02  0.10239850356E+03  0.14145207535E+03  0.41800000000E+01 0. -1.
</event>
<event>
11    1  0.8037748E-009  0.1899338E+03  0.7561462E-02  0.1061879E+00
         22   -1    0    0    0    0  0.00000000000E+00  0.00000000000E+00  0.36770382664E+03  0.36770382664E+03  0.00000000000E+00 0. -1.
         22   -1    0    0    0    0 -0.00000000000E+00 -0.00000000000E+00 -0.19463546135E+04  0.19463546135E+04  0.00000000000E+00 0. -1.
        -24    2    1    2    0    0 -0.18600670029E+01 -0.88065702587E+02 -0.11977000210E+04  0.12036771325E+04  0.81205117984E+02 0.  0.
         25    2    1    2    0    0  0.54687779151E+02  0.21856002648E+03 -0.70353788042E+03  0.74925015952E+03  0.12510401271E+03 0.  0.
         24    2    1    2    0    0 -0.52827712148E+02 -0.13049432389E+03  0.32258711460E+03  0.36113114806E+03  0.80831453369E+02 0.  0.
        -11    1    5    5    0    0 -0.49653261875E+02 -0.53094250081E+02  0.88323377825E+02  0.11439171682E+03  0.00000000000E+00 0.  1.
         12    1    5    5    0    0 -0.31744502727E+01 -0.77400073813E+02  0.23426373678E+03  0.24673943124E+03  0.00000000000E+00 0. -1.
         11    1    3    3    0    0 -0.37850744479E+01 -0.58891551309E+02 -0.11027414675E+04  0.11043193767E+04  0.00000000000E+00 0. -1.
        -12    1    3    3    0    0  0.19250074451E+01 -0.29174151278E+02 -0.94958553548E+02  0.99357755855E+02  0.00000000000E+00 0.  1.
          5    1    4    4  501    0  0.63807528433E+02  0.21220571483E+03 -0.70327625940E+03  0.73737211469E+03  0.41800000000E+01 0. -1.
         -5    1    4    4    0  501 -0.91197492822E+01  0.63543116512E+01 -0.26162102408E+00  0.11878044835E+02  0.41800000000E+01 0. -1.
</event>
<event>
11    1  0.8037748E-009  0.1332205E+03  0.7561462E-02  0.1115374E+00
         22   -1    0    0    0    0  0.00000000000E+00  0.00000000000E+00  0.81758293868E+03  0.81758293868E+03  0.00000000000E+00 0.  1.
         22   -1    0    0    0    0 -0.00000000000E+00 -0.00000000000E+00 -0.50201913599E+03  0.50201913599E+03  0.00000000000E+00 0.  1.
         24    2    1    2    0    0  0.22759032231E+02 -0.39452213781E+02 -0.46900856046E+03  0.47790201401E+03  0.79667148131E+02 0.  0.
         25    2    1    2    0    0 -0.54684335266E+02  0.41936545841E+01  0.17113884829E+03  0.21895939974E+03  0.12508697006E+03 0.  0.
        -24    2    1    2    0    0  0.31925303035E+02  0.35258559197E+02  0.61343351486E+03  0.62274066091E+03  0.96139807716E+02 0.  0.
        -11    1    3    3    0    0 -0.11908182146E+02 -0.30600992900E+02 -0.38746885110E+03  0.38885773252E+03  0.00000000000E+00 0.  1.
         12    1    3    3    0    0  0.34667214377E+02 -0.88512208810E+01 -0.81539709365E+02  0.89044281495E+02  0.00000000000E+00 0. -1.
         13    1    5    5    0    0  0.18575381684E+02 -0.30595901421E+02  0.13728543223E+03  0.14187474719E+03  0.00000000000E+00 0. -1.
        -14    1    5    5    0    0  0.13349921350E+02  0.65854460619E+02  0.47614808263E+03  0.48086591372E+03  0.00000000000E+00 0.  1.
          5    1    4    4  501    0  0.31698939772E+02  0.14513911469E+02  0.10163161638E+03  0.10752643516E+03  0.41800000000E+01 0. -1.
         -5    1    4    4    0  501 -0.86383275038E+02 -0.10320256885E+02  0.69507231912E+02  0.11143296459E+03  0.41800000000E+01 0. -1.
</event>
<event>
11    1  0.8037748E-009  0.1687681E+03  0.7561462E-02  0.1079109E+00
         22   -1    0    0    0    0  0.00000000000E+00  0.00000000000E+00  0.13612107697E+04  0.13612107697E+04  0.00000000000E+00 0. -1.
         22   -1    0    0    0    0 -0.00000000000E+00 -0.00000000000E+00 -0.64440684064E+03  0.64440684064E+03  0.00000000000E+00 0.  1.
         24    2    1    2    0    0 -0.11610986065E+03  0.21389101795E+01 -0.61719682110E+03  0.63301726612E+03  0.79327602690E+02 0.  0.
         25    2    1    2    0    0  0.20869054067E+02 -0.10100356529E+02  0.24146159886E+03  0.27292602505E+03  0.12508947520E+03 0.  0.
        -24    2    1    2    0    0  0.95240806585E+02  0.79614463492E+01  0.10925391513E+04  0.10996743191E+04  0.80669791651E+02 0.  0.
        -11    1    3    3    0    0 -0.98086103021E+02 -0.41059740176E+01 -0.59781923698E+03  0.60582636352E+03  0.00000000000E+00 0.  1.
         12    1    3    3    0    0 -0.18023757631E+02  0.62448841971E+01 -0.19377584114E+02  0.27190902594E+02  0.00000000000E+00 0. -1.
         13    1    5    5    0    0  0.40615249339E+02  0.28816171239E+01  0.85140493083E+03  0.85237800209E+03  0.00000000000E+00 0. -1.
        -14    1    5    5    0    0  0.54625557246E+02  0.50798292253E+01  0.24113422043E+03  0.24729631706E+03  0.00000000000E+00 0.  1.
          5    1    4    4  501    0  0.61821048488E+02  0.28148377008E+02  0.16092379131E+03  0.17472295835E+03  0.41800000000E+01 0.  1.
         -5    1    4    4    0  501 -0.40951994421E+02 -0.38248733536E+02  0.80537807551E+02  0.98203066700E+02  0.41800000000E+01 0.  1.
</event>
<event>
11    1  0.8037748E-009  0.1687055E+03  0.7561462E-02  0.1079164E+00
         22   -1    0    0    0    0  0.00000000000E+00  0.00000000000E+00  0.23080272798E+04  0.23080272798E+04  0.00000000000E+00 0. -1.
         22   -1    0    0    0    0 -0.00000000000E+00 -0.00000000000E+00 -0.26654334784E+03  0.26654334784E+03  0.00000000000E+00 0.  1.
        -24    2    1    2    0    0 -0.11296581857E+03  0.48870977944E+01 -0.13778663071E+03  0.19466658429E+03  0.78260868540E+02 0.  0.
         25    2    1    2    0    0  0.11273571392E+03  0.43374995970E+02 -0.23210411761E+02  0.17543077220E+03  0.12508597505E+03 0.  0.
         24    2    1    2    0    0  0.23010465207E+00 -0.48262093764E+02  0.22024809745E+04  0.22044732712E+04  0.80316112146E+02 0.  0.
        -13    1    5    5    0    0 -0.42136828680E+01 -0.42200600787E+02  0.45410212639E+03  0.45607826852E+03  0.00000000000E+00 0.  1.
         14    1    5    5    0    0  0.44437875201E+01 -0.60614929773E+01  0.17483788481E+04  0.17483950027E+04  0.00000000000E+00 0. -1.
         13    1    3    3    0    0 -0.15306051545E+02 -0.20271343827E+02 -0.19352412220E+01  0.25474452949E+02  0.00000000000E+00 0. -1.
        -14    1    3    3    0    0 -0.97659767022E+02  0.25158441621E+02 -0.13585138949E+03  0.16919213134E+03  0.00000000000E+00 0.  1.
          5    1    4    4  501    0  0.12805871886E+02  0.17638748070E+02  0.46023841236E+02  0.51095813433E+02  0.41800000000E+01 0. -1.
         -5    1    4    4    0  501  0.99929842029E+02  0.25736247900E+02 -0.69234252997E+02  0.12433495877E+03  0.41800000000E+01 0. -1.
</event>
<event>
11    1  0.8037748E-009  0.1311028E+03  0.7561462E-02  0.1117921E+00
         22   -1    0    0    0    0  0.00000000000E+00  0.00000000000E+00  0.76203401552E+03  0.76203401552E+03  0.00000000000E+00 0.  1.
         22   -1    0    0    0    0 -0.00000000000E+00 -0.00000000000E+00 -0.31865191921E+03  0.31865191921E+03  0.00000000000E+00 0.  1.
         24    2    1    2    0    0  0.23719956818E+02  0.32837359747E+02 -0.28557351279E+03  0.30004959711E+03  0.82683740657E+02 0.  0.
         25    2    1    2    0    0  0.11867117202E+01 -0.11869713383E+02  0.15147181945E+03  0.19680816609E+03  0.12508974288E+03 0.  0.
        -24    2    1    2    0    0 -0.24906668538E+02 -0.20967646364E+02  0.57748378966E+03  0.58382817152E+03  0.79421799351E+02 0.  0.
        -11    1    3    3    0    0  0.29584595670E+02  0.55449538680E+02 -0.15252673886E+03  0.16496758987E+03  0.00000000000E+00 0.  1.
         12    1    3    3    0    0 -0.58646388520E+01 -0.22612178933E+02 -0.13304677394E+03  0.13508200724E+03  0.00000000000E+00 0. -1.
         11    1    5    5    0    0  0.15093941796E+02 -0.20791645966E+01  0.23038734463E+02  0.27621247076E+02  0.00000000000E+00 0. -1.
        -12    1    5    5    0    0 -0.40000610334E+02 -0.18888481768E+02  0.55444505519E+03  0.55620692444E+03  0.00000000000E+00 0.  1.
          5    1    4    4  501    0  0.33829111909E+02  0.25014380864E+02  0.54296194713E+01  0.42627235780E+02  0.41800000000E+01 0.  1.
         -5    1    4    4    0  501 -0.32642400189E+02 -0.36884094247E+02  0.14604219998E+03  0.15418093031E+03  0.41800000000E+01 0.  1.
</event>
<event>
11    1  0.8037748E-009  0.1517879E+03  0.7561462E-02  0.1095066E+00
         22   -1    0    0    0    0  0.00000000000E+00  0.00000000000E+00  0.51539614959E+03  0.51539614959E+03  0.00000000000E+00 0.  1.
         22   -1    0    0    0    0 -0.00000000000E+00 -0.00000000000E+00 -0.14842048233E+03  0.14842048233E+03  0.00000000000E+00 0. -1.
        -24    2    1    2    0    0  0.51555410921E+02 -0.65179918511E+02 -0.79937044381E+02  0.13970498366E+03  0.78874388881E+02 0.  0.
         25    2    1    2    0    0 -0.63893132800E+02  0.84924980742E+02  0.17922907301E+03  0.24303419624E+03  0.12509186687E+03 0.  0.
         24    2    1    2    0    0  0.12337721880E+02 -0.19745062231E+02  0.26768363862E+03  0.28107745203E+03  0.82510101122E+02 0.  0.
        -13    1    5    5    0    0  0.83157046371E+01 -0.16469113742E+02  0.27301572619E+03  0.27363839167E+03  0.00000000000E+00 0.  1.
         14    1    5    5    0    0  0.40220172424E+01 -0.32759484893E+01 -0.53320875626E+01  0.74390603559E+01  0.00000000000E+00 0. -1.
         13    1    3    3    0    0 -0.56965628220E+01 -0.42564741052E+02 -0.62307988273E+02  0.75673597850E+02  0.00000000000E+00 0. -1.
        -14    1    3    3    0    0  0.57251973743E+02 -0.22615177459E+02 -0.17629056107E+02  0.64031385806E+02  0.00000000000E+00 0.  1.
          5    1    4    4  501    0  0.72848976759E+01  0.50311962289E+02  0.15020380975E+03  0.15862856032E+03  0.41800000000E+01 0. -1.
         -5    1    4    4    0  501 -0.71178030476E+02  0.34613018454E+02  0.29025263257E+02  0.84405635926E+02  0.41800000000E+01 0. -1.
</event>
<event>
11    1  0.8037748E-009  0.1620434E+03  0.7561462E-02  0.1085171E+00
         22   -1    0    0    0    0  0.00000000000E+00  0.00000000000E+00  0.29698229202E+03  0.29698229202E+03  0.00000000000E+00 0.  1.
         22   -1    0    0    0    0 -0.00000000000E+00 -0.00000000000E+00 -0.12408562848E+04  0.12408562848E+04  0.00000000000E+00 0. -1.
         24    2    1    2    0    0  0.63741996560E+02 -0.74358154929E+02 -0.75601837469E+03  0.76646047814E+03  0.79408465237E+02 0.  0.
         25    2    1    2    0    0 -0.12008475870E+03  0.49542176696E+02 -0.45518360071E+03  0.48960660845E+03  0.12509094347E+03 0.  0.
        -24    2    1    2    0    0  0.56342762136E+02  0.24815978232E+02  0.26732798267E+03  0.28177149018E+03  0.64347359992E+02 0.  0.
        -11    1    3    3    0    0 -0.18501753220E+02 -0.12909052593E+02 -0.17404544323E+03  0.17550149520E+03  0.00000000000E+00 0.  1.
         12    1    3    3    0    0  0.82243749780E+02 -0.61449102336E+02 -0.58197293147E+03  0.59095898294E+03  0.00000000000E+00 0. -1.
         11    1    5    5    0    0  0.25269839566E+02  0.24042177428E+02  0.43316833192E+02  0.55614198951E+02  0.00000000000E+00 0. -1.
        -12    1    5    5    0    0  0.31072922570E+02  0.77380080426E+00  0.22401114948E+03  0.22615729123E+03  0.00000000000E+00 0.  1.
          5    1    4    4  501    0 -0.94901809689E+02  0.74615389589E+02 -0.21362058292E+03  0.24540789656E+03  0.41800000000E+01 0.  1.
         -5    1    4    4    0  501 -0.25182949007E+02 -0.25073212893E+02 -0.24156301779E+03  0.24419871189E+03  0.41800000000E+01 0.  1.
</event>
<event>
11    1  0.8037748E-009  0.1528382E+03  0.7561462E-02  0.1094013E+00
         22   -1    0    0    0    0  0.00000000000E+00  0.00000000000E+00  0.24617861254E+03  0.24617861254E+03  0.00000000000E+00 0.  1.
         22   -1    0    0    0    0 -0.00000000000E+00 -0.00000000000E+00 -0.49856595530E+03  0.49856595530E+03  0.00000000000E+00 0.  1.
         24    2    1    2    0    0  0.20850301092E+02  0.88164250052E+02 -0.36389946190E+03  0.38349636788E+03  0.80243228777E+02 0.  0.
         25    2    1    2    0    0 -0.50186677221E+02 -0.63088556314E+02 -0.65674279831E+02  0.16266325708E+03  0.12508939070E+03 0.  0.
        -24    2    1    2    0    0  0.29336376129E+02 -0.25075693737E+02  0.17718639897E+03  0.19858494288E+03  0.80941622021E+02 0.  0.
        -11    1    3    3    0    0  0.49013398829E+02  0.39533657551E+02 -0.15857286356E+03  0.17061821826E+03  0.00000000000E+00 0.  1.
         12    1    3    3    0    0 -0.28163097737E+02  0.48630592500E+02 -0.20532659834E+03  0.21287814963E+03  0.00000000000E+00 0. -1.
         11    1    5    5    0    0  0.33164365339E+02 -0.27685837723E+02  0.33100261484E+02  0.54424333245E+02  0.00000000000E+00 0. -1.
        -12    1    5    5    0    0 -0.38279892100E+01  0.26101439857E+01  0.14408613749E+03  0.14416060963E+03  0.00000000000E+00 0.  1.
          5    1    4    4  501    0  0.20751702111E+02 -0.73934909888E+02 -0.32424803366E+02  0.83461633784E+02  0.41800000000E+01 0. -1.
         -5    1    4    4    0  501 -0.70938379332E+02  0.10846353574E+02 -0.33249476465E+02  0.79201623299E+02  0.41800000000E+01 0. -1.
</event>
<event>
11    1  0.9521284E-009  0.2453984E+03  0.7561462E-02  0.1026379E+00
         22   -1    0    0    0    0  0.00000000000E+00  0.00000000000E+00  0.12067613626E+04  0.12067613626E+04  0.00000000000E+00 0.  1.
         22   -1    0    0    0    0 -0.00000000000E+00 -0.00000000000E+00 -0.14520032010E+04  0.14520032010E+04  0.00000000000E+00 0. -1.
        -24    2    1    2    0    0  0.77949624833E+02  0.18675800584E+02 -0.67059969595E+03  0.68022639847E+03  0.81111475291E+02 0.  0.
         25    2    1    2    0    0 -0.28638622938E+03  0.75288275081E+01 -0.73386945422E+03  0.79767520793E+03  0.12509039084E+03 0.  0.
         24    2    1    2    0    0  0.20843660455E+03 -0.26204628092E+02  0.11592273117E+04  0.11808629572E+04  0.80603119283E+02 0.  0.
        -13    1    5    5    0    0  0.14308374444E+03 -0.52224600903E+02  0.86784313143E+03  0.88110843126E+03  0.00000000000E+00 0.  1.
         14    1    5    5    0    0  0.65352860105E+02  0.26019972811E+02  0.29138418027E+03  0.29975452594E+03  0.00000000000E+00 0. -1.
         13    1    3    3    0    0  0.46389847996E+02  0.39868461193E+02 -0.55885252553E+03  0.56219005459E+03  0.00000000000E+00 0. -1.
        -14    1    3    3    0    0  0.31559776836E+02 -0.21192660609E+02 -0.11174717043E+03  0.11803634388E+03  0.00000000000E+00 0.  1.
          5    1    4    4  501    0 -0.10228902477E+03 -0.57365385639E+02 -0.27270619830E+03  0.29688377363E+03  0.41800000000E+01 0.  1.
         -5    1    4    4    0  501 -0.18409720461E+03  0.64894213147E+02 -0.46116325593E+03  0.50079143429E+03  0.41800000000E+01 0.  1.
</event>
<event>
11    1  0.8037748E-009  0.2051590E+03  0.7561462E-02  0.1050934E+00
         22   -1    0    0    0    0  0.00000000000E+00  0.00000000000E+00  0.85015859197E+02  0.85015859197E+02  0.00000000000E+00 0. -1.
         22   -1    0    0    0    0 -0.00000000000E+00 -0.00000000000E+00 -0.24618137190E+04  0.24618137190E+04  0.00000000000E+00 0. -1.
        -24    2    1    2    0    0 -0.40920688137E+02  0.29960350420E+02 -0.49531725559E+03  0.50403075906E+03  0.78330690541E+02 0.  0.
         25    2    1    2    0    0 -0.10288609648E+03  0.51624716914E+02 -0.18521984658E+04  0.18599828862E+04  0.12508605087E+03 0.  0.
         24    2    1    2    0    0  0.14380678462E+03 -0.81585067334E+02 -0.29282138437E+02  0.18281593293E+03  0.72302885051E+02 0.  0.
        -11    1    5    5    0    0  0.95681478994E+02 -0.18174746223E+02  0.16668631110E+01  0.97406597596E+02  0.00000000000E+00 0.  1.
         12    1    5    5    0    0  0.48125305622E+02 -0.63410321111E+02 -0.30949001548E+02  0.85409335329E+02  0.00000000000E+00 0. -1.
         11    1    3    3    0    0 -0.55179077248E+02  0.42219882753E+02 -0.30633297151E+03  0.31411325744E+03  0.00000000000E+00 0. -1.
        -12    1    3    3    0    0  0.14258389111E+02 -0.12259532333E+02 -0.18898428407E+03  0.18991750161E+03  0.00000000000E+00 0.  1.
          5    1    4    4  501    0 -0.45542003527E+02  0.10478724482E+02 -0.17162110680E+03  0.17791895473E+03  0.41800000000E+01 0. -1.
         -5    1    4    4    0  501 -0.57344092952E+02  0.41145992432E+02 -0.16805773590E+04  0.16820639315E+04  0.41800000000E+01 0. -1.
</event>
<event>
11    1  0.8037748E-009  0.1255176E+03  0.7561462E-02  0.1124902E+00
         22   -1    0    0    0    0  0.00000000000E+00  0.00000000000E+00  0.20008412917E+04  0.20008412917E+04  0.00000000000E+00 0. -1.
         22   -1    0    0    0    0 -0.00000000000E+00 -0.00000000000E+00 -0.22568840727E+03  0.22568840727E+03  0.00000000000E+00 0. -1.
         24    2    1    2    0    0  0.94228644804E+01 -0.38094921035E+01 -0.21150997258E+03  0.22763621949E+03  0.83537280996E+02 0.  0.
         25    2    1    2    0    0 -0.24715711816E+02  0.22715247051E+02  0.93740124025E+03  0.94630629038E+03  0.12509061169E+03 0.  0.
        -24    2    1    2    0    0  0.15292847336E+02 -0.18905754948E+02  0.10492616168E+04  0.10525871891E+04  0.79990946281E+02 0.  0.
        -13    1    3    3    0    0  0.27224645155E+02  0.12389645967E+02 -0.23358068127E+02  0.37951073472E+02  0.00000000000E+00 0.  1.
         14    1    3    3    0    0 -0.17801780675E+02 -0.16199138071E+02 -0.18815190445E+03  0.18968514601E+03  0.00000000000E+00 0. -1.
         13    1    5    5    0    0  0.15000370117E+02 -0.78493299948E+01  0.10316609110E+04  0.10317998151E+04  0.00000000000E+00 0. -1.
        -14    1    5    5    0    0  0.29247721834E+00 -0.11056424953E+02  0.17600705758E+02  0.20787374025E+02  0.00000000000E+00 0.  1.
          5    1    4    4  501    0 -0.48696403401E+02 -0.39372666706E+02  0.43944372996E+03  0.44390292947E+03  0.41800000000E+01 0. -1.
         -5    1    4    4    0  501  0.23980691585E+02  0.62087913757E+02  0.49795751028E+03  0.50240336091E+03  0.41800000000E+01 0. -1.
</event>
<event>
11    1  0.8037748E-009  0.1590968E+03  0.7561462E-02  0.1087930E+00
         22   -1    0    0    0    0  0.00000000000E+00  0.00000000000E+00  0.57146912935E+03  0.57146912935E+03  0.00000000000E+00 0.  1.
         22   -1    0    0    0    0 -0.00000000000E+00 -0.00000000000E+00 -0.21064535445E+04  0.21064535445E+04  0.00000000000E+00 0.  1.
         24    2    1    2    0    0  0.15983606368E+02  0.25056215378E+02 -0.17553517647E+04  0.17574607394E+04  0.80778358318E+02 0.  0.
         25    2    1    2    0    0 -0.78285283756E+02 -0.10029162336E+03 -0.31949526747E+03  0.36594141187E+03  0.12509554595E+03 0.  0.
        -24    2    1    2    0    0  0.62301677389E+02  0.75235407984E+02  0.53986261699E+03  0.55452052258E+03  0.80619471038E+02 0.  0.
        -11    1    3    3    0    0  0.42894141043E+02  0.34942507792E+02 -0.13254085218E+04  0.13265627146E+04  0.00000000000E+00 0.  1.
         12    1    3    3    0    0 -0.26910534675E+02 -0.98862924140E+01 -0.42994324292E+03  0.43089802481E+03  0.00000000000E+00 0. -1.
         13    1    5    5    0    0  0.13990883964E+02  0.11865588840E+02  0.15150638500E+02  0.23792412227E+02  0.00000000000E+00 0. -1.
        -14    1    5    5    0    0  0.48310793425E+02  0.63369819144E+02  0.52471197850E+03  0.53072811035E+03  0.00000000000E+00 0.  1.
          5    1    4    4  501    0 -0.91068386920E+02 -0.17608520052E+02 -0.19373581281E+03  0.21483609715E+03  0.41800000000E+01 0. -1.
         -5    1    4    4    0  501  0.12783103164E+02 -0.82683103310E+02 -0.12575945466E+03  0.15110531472E+03  0.41800000000E+01 0. -1.
</event>
<event>
11    1  0.8037748E-009  0.1288939E+03  0.7561462E-02  0.1120636E+00
         22   -1    0    0    0    0  0.00000000000E+00  0.00000000000E+00  0.35386780860E+03  0.35386780860E+03  0.00000000000E+00 0.  1.
         22   -1    0    0    0    0 -0.00000000000E+00 -0.00000000000E+00 -0.19269195542E+03  0.19269195542E+03  0.00000000000E+00 0.  1.
         24    2    1    2    0    0 -0.41507895797E+01  0.31122083854E+02 -0.12961884610E+03  0.15577721366E+03  0.80496471181E+02 0.  0.
         25    2    1    2    0    0  0.29981284281E+02 -0.23667395573E+02  0.56184288608E+02  0.14234737805E+03  0.12508828374E+03 0.  0.
        -24    2    1    2    0    0 -0.25830494701E+02 -0.74546882805E+01  0.23461041067E+03  0.24843517232E+03  0.77169963177E+02 0.  0.
        -13    1    3    3    0    0  0.11668797106E+02  0.39250972684E+02 -0.13165403881E+03  0.13787525382E+03  0.00000000000E+00 0.  1.
         14    1    3    3    0    0 -0.15819586686E+02 -0.81288888299E+01  0.20351927072E+01  0.17901959833E+02  0.00000000000E+00 0. -1.
         11    1    5    5    0    0 -0.20046225095E+02 -0.54322794232E+01  0.88245905240E+01  0.22566218075E+02  0.00000000000E+00 0. -1.
        -12    1    5    5    0    0 -0.57842696063E+01 -0.20224088574E+01  0.22578582015E+03  0.22586895425E+03  0.00000000000E+00 0.  1.
          5    1    4    4  501    0  0.19073471026E+02 -0.15698670311E+01 -0.39157274597E+02  0.43783859278E+02  0.41800000000E+01 0.  1.
         -5    1    4    4    0  501  0.10907813255E+02 -0.22097528542E+02  0.95341563205E+02  0.98563518768E+02  0.41800000000E+01 0.  1.
</event>
<event>
11    1  0.8037748E-009  0.1674465E+03  0.7561462E-02  0.1080275E+00
         22   -1    0    0    0    0  0.00000000000E+00  0.00000000000E+00  0.28617031346E+03  0.28617031346E+03  0.00000000000E+00 0.  1.
         22   -1    0    0    0    0 -0.00000000000E+00 -0.00000000000E+00 -0.22367869975E+03  0.22367869975E+03  0.00000000000E+00 0.  1.
        -24    2    1    2    0    0  0.99037239262E+02  0.19667020960E+02 -0.22759777521E+02  0.13221660357E+03  0.82268197454E+02 0.  0.
         25    2    1    2    0    0 -0.89154422401E+02  0.95255572771E+02 -0.44214119494E+02  0.18608154321E+03  0.12509723091E+03 0.  0.
         24    2    1    2    0    0 -0.98828168608E+01 -0.11492259373E+03  0.12946551072E+03  0.19155086644E+03  0.81397440676E+02 0.  0.
        -13    1    5    5    0    0 -0.38696359540E+01 -0.12727885155E+03  0.11887813048E+03  0.17420358791E+03  0.00000000000E+00 0.  1.
         14    1    5    5    0    0 -0.60131809068E+01  0.12356257821E+02  0.10587380237E+02  0.17347278525E+02  0.00000000000E+00 0. -1.
         11    1    3    3    0    0  0.67193398973E+02 -0.27109950678E+02 -0.21638357508E+02  0.75618257101E+02  0.00000000000E+00 0. -1.
        -12    1    3    3    0    0  0.31843840289E+02  0.46776971639E+02 -0.11214200134E+01  0.56598346467E+02  0.00000000000E+00 0.  1.
          5    1    4    4  501    0 -0.32095083727E+02 -0.26971830378E+02 -0.26982863971E+02  0.50031204077E+02  0.41800000000E+01 0.  1.
         -5    1    4    4    0  501 -0.57059338674E+02  0.12222740315E+03 -0.17231255523E+02  0.13605033913E+03  0.41800000000E+01 0.  1.
</event>
<event>
11    1  0.8037748E-009  0.1384011E+03  0.7561462E-02  0.1109357E+00
         22   -1    0    0    0    0  0.00000000000E+00  0.00000000000E+00  0.16025764973E+04  0.16025764973E+04  0.00000000000E+00 0.  1.
         22   -1    0    0    0    0 -0.00000000000E+00 -0.00000000000E+00 -0.17327147405E+03  0.17327147405E+03  0.00000000000E+00 0.  1.
         24    2    1    2    0    0  0.47815781179E+02 -0.40830449011E+02 -0.13298132630E+03  0.16816169291E+03  0.81491394158E+02 0.  0.
         25    2    1    2    0    0  0.83826079809E+01  0.35100168021E+02  0.18126323014E+03  0.22317510178E+03  0.12509387492E+03 0.  0.
        -24    2    1    2    0    0 -0.56198389159E+02  0.57302809901E+01  0.13810231194E+04  0.13845111766E+04  0.80344550927E+02 0.  0.
        -11    1    3    3    0    0  0.24589927993E+02  0.18643987854E+02 -0.78072619592E+02  0.83949965883E+02  0.00000000000E+00 0.  1.
         12    1    3    3    0    0  0.23225853185E+02 -0.59474436865E+02 -0.54908706708E+02  0.84211727027E+02  0.00000000000E+00 0. -1.
         13    1    5    5    0    0  0.10036072564E+02 -0.12787444672E+02  0.78076879339E+02  0.79751116488E+02  0.00000000000E+00 0. -1.
        -14    1    5    5    0    0 -0.66234461723E+02  0.18517725662E+02  0.13029462400E+04  0.13047600601E+04  0.00000000000E+00 0.  1.
          5    1    4    4  501    0 -0.94109314988E+00  0.44374491374E+02  0.19715260907E+03  0.20213016797E+03  0.41800000000E+01 0. -1.
         -5    1    4    4    0  501  0.93237011307E+01 -0.92743233534E+01 -0.15889378928E+02  0.21044933812E+02  0.41800000000E+01 0. -1.
</event>
<event>
11    1  0.8037748E-009  0.1914996E+03  0.7561462E-02  0.1060703E+00
         22   -1    0    0    0    0  0.00000000000E+00  0.00000000000E+00  0.21073676224E+04  0.21073676224E+04  0.00000000000E+00 0. -1.
         22   -1    0    0    0    0 -0.00000000000E+00 -0.00000000000E+00 -0.27193156383E+03  0.27193156383E+03  0.00000000000E+00 0.  1.
         24    2    1    2    0    0  0.20023225782E+02  0.14057623750E+03 -0.20412499842E+03  0.26129057544E+03  0.80269182834E+02 0.  0.
         25    2    1    2    0    0 -0.91869780448E+02 -0.16971911963E+03  0.31600814976E+03  0.39083660661E+03  0.12508983261E+03 0.  0.
        -24    2    1    2    0    0  0.71846554666E+02  0.29142882129E+02  0.17235529072E+04  0.17271720041E+04  0.80481507145E+02 0.  0.
        -11    1    3    3    0    0  0.34090081720E+02  0.47137345906E+02 -0.12564393571E+03  0.13845743617E+03  0.00000000000E+00 0.  1.
         12    1    3    3    0    0 -0.14066855938E+02  0.93438891595E+02 -0.78481062716E+02  0.12283313927E+03  0.00000000000E+00 0. -1.
         13    1    5    5    0    0  0.63835535858E+02  0.32089129950E+02  0.17074721353E+04  0.17089662901E+04  0.00000000000E+00 0. -1.
        -14    1    5    5    0    0  0.80110188082E+01 -0.29462478210E+01  0.16080771859E+02  0.18205713997E+02  0.00000000000E+00 0.  1.
          5    1    4    4  501    0 -0.12231357567E+03 -0.14078308633E+03  0.27235925932E+03  0.33011744384E+03  0.41800000000E+01 0. -1.
         -5    1    4    4    0  501  0.30443795224E+02 -0.28936033296E+02  0.43648890446E+02  0.60719162772E+02  0.41800000000E+01 0. -1.
</event>
<event>
11    1  0.8037748E-009  0.2581101E+03  0.7561462E-02  0.1019665E+00
         22   -1    0    0    0    0  0.00000000000E+00  0.00000000000E+00  0.19572720510E+04  0.19572720510E+04  0.00000000000E+00 0. -1.
         22   -1    0    0    0    0 -0.00000000000E+00 -0.00000000000E+00 -0.75907346280E+03  0.75907346280E+03  0.00000000000E+00 0.  1.
         24    2    1    2    0    0 -0.21666606823E+03 -0.49489225741E+02 -0.67788504649E+03  0.71780010396E+03  0.79470022119E+02 0.  0.
         25    2    1    2    0    0  0.31029859466E+03  0.40014717424E+02  0.42541633824E+03  0.54268731891E+03  0.12507625593E+03 0.  0.
        -24    2    1    2    0    0 -0.93632526436E+02  0.94745083170E+01  0.14506672964E+04  0.14558580909E+04  0.78932627235E+02 0.  0.
        -11    1    3    3    0    0 -0.10659040039E+03 -0.44386482046E+02 -0.45136666935E+03  0.46590078713E+03  0.00000000000E+00 0.  1.
         12    1    3    3    0    0 -0.11007566784E+03 -0.51027436944E+01 -0.22651837713E+03  0.25189931684E+03  0.00000000000E+00 0. -1.
         11    1    5    5    0    0 -0.80535274484E+02  0.33115892477E+02  0.12898113389E+04  0.12927474165E+04  0.00000000000E+00 0. -1.
        -12    1    5    5    0    0 -0.13097251952E+02 -0.23641384160E+02  0.16085595752E+03  0.16311067446E+03  0.00000000000E+00 0.  1.
          5    1    4    4  501    0  0.18288670486E+03  0.46548431352E+02  0.34066271619E+03  0.38946484036E+03  0.41800000000E+01 0. -1.
         -5    1    4    4    0  501  0.12741188980E+03 -0.65337139286E+01  0.84753622055E+02  0.15322247855E+03  0.41800000000E+01 0. -1.
</event>
<event>
11    1  0.8037748E-009  0.1517635E+03  0.7561462E-02  0.1095090E+00
         22   -1    0    0    0    0  0.00000000000E+00  0.00000000000E+00  0.47194743164E+03  0.47194743164E+03  0.00000000000E+00 0.  1.
         22   -1    0    0    0    0 -0.00000000000E+00 -0.00000000000E+00 -0.46404659396E+04  0.46404659396E+04  0.00000000000E+00 0. -1.
         24    2    1    2    0    0 -0.44914696222E+02  0.56760462891E+02 -0.42556290472E+04  0.42570059358E+04  0.80510060258E+02 0.  0.
         25    2    1    2    0    0  0.11777839974E+03 -0.11542596378E+02 -0.35684377194E+03  0.39622063635E+03  0.12509329366E+03 0.  0.
        -24    2    1    2    0    0 -0.72863703522E+02 -0.45217866513E+02  0.44395431120E+03  0.45918679909E+03  0.80020692842E+02 0.  0.
        -11    1    3    3    0    0 -0.17787372198E+02  0.56016826901E+02 -0.13824898086E+04  0.13837385398E+04  0.00000000000E+00 0.  1.
         12    1    3    3    0    0 -0.27127324024E+02  0.74363598945E+00 -0.28731392386E+04  0.28732673960E+04  0.00000000000E+00 0. -1.
         11    1    5    5    0    0 -0.41805695977E+02  0.18455827840E+02  0.19997391457E+03  0.20512898456E+03  0.00000000000E+00 0. -1.
        -12    1    5    5    0    0 -0.31058007545E+02 -0.63673694353E+02  0.24398039662E+03  0.25405781453E+03  0.00000000000E+00 0.  1.
          5    1    4    4  501    0  0.30649620093E+02  0.53524303808E+02 -0.15573690078E+03  0.16755806449E+03  0.41800000000E+01 0. -1.
         -5    1    4    4    0  501  0.87128779652E+02 -0.65066900186E+02 -0.20110687116E+03  0.22866257186E+03  0.41800000000E+01 0. -1.
</event>
<event>
11    1  0.8037748E-009  0.2636844E+03  0.7561462E-02  0.1016852E+00
         22   -1    0    0    0    0  0.00000000000E+00  0.00000000000E+00  0.12768889170E+04  0.12768889170E+04  0.00000000000E+00 0.  1.
         22   -1    0    0    0    0 -0.00000000000E+00 -0.00000000000E+00 -0.28425914406E+03  0.28425914406E+03  0.00000000000E+00 0.  1.
        -24    2    1    2    0    0 -0.30918943763E-01 -0.49660508089E+02 -0.19413435789E+03  0.21742586994E+03  0.84378273197E+02 0.  0.
         25    2    1    2    0    0 -0.32808695607E+02 -0.18977026702E+03  0.14505470723E+03  0.27160439451E+03  0.12505564472E+03 0.  0.
         24    2    1    2    0    0  0.32839614550E+02  0.23943077511E+03  0.10417094236E+04  0.10721177966E+04  0.76632305425E+02 0.  0.
        -13    1    5    5    0    0  0.27934421667E+02  0.22989115845E+03  0.10319497429E+04  0.10576155012E+04  0.00000000000E+00 0.  1.
         14    1    5    5    0    0  0.49051928835E+01  0.95396166615E+01  0.97596807488E+01  0.14502295390E+02  0.00000000000E+00 0. -1.
         13    1    3    3    0    0 -0.16512520028E+02  0.13515320923E+02 -0.13246710431E+02  0.25115782978E+02  0.00000000000E+00 0. -1.
        -14    1    3    3    0    0  0.16481601084E+02 -0.63175829012E+02 -0.18088764746E+03  0.19231008697E+03  0.00000000000E+00 0.  1.
          5    1    4    4  501    0  0.41250106659E+02 -0.61278235200E+02  0.81859525573E+02  0.11034059876E+03  0.41800000000E+01 0.  1.
         -5    1    4    4    0  501 -0.74058802266E+02 -0.12849203182E+03  0.63195181655E+02  0.16126379575E+03  0.41800000000E+01 0.  1.
</event>
<event>
11    1  0.8037748E-009  0.1513068E+03  0.7561462E-02  0.1095551E+00
         22   -1    0    0    0    0  0.00000000000E+00  0.00000000000E+00  0.13390835484E+03  0.13390835484E+03  0.00000000000E+00 0.  1.
         22   -1    0    0    0    0 -0.00000000000E+00 -0.00000000000E+00 -0.16684629755E+04  0.16684629755E+04  0.00000000000E+00 0. -1.
         24    2    1    2    0    0 -0.54261909188E+02 -0.66756404453E+02 -0.14491675847E+04  0.14539411687E+04  0.80358330140E+02 0.  0.
         25    2    1    2    0    0  0.59684637824E+02  0.47952772350E+02 -0.17426088281E+03  0.22776398565E+03  0.12509138064E+03 0.  0.
        -24    2    1    2    0    0 -0.54227286358E+01  0.18803632103E+02  0.88873846917E+02  0.12066617592E+03  0.79238770685E+02 0.  0.
        -13    1    3    3    0    0 -0.58902820194E+02 -0.72873622320E+02 -0.92833163665E+03  0.93304862395E+03  0.00000000000E+00 0.  1.
         14    1    3    3    0    0  0.46409110062E+01  0.61172178668E+01 -0.52083594808E+03  0.52089254479E+03  0.00000000000E+00 0. -1.
         11    1    5    5    0    0  0.29197571892E+02 -0.77181121360E+01  0.12433081481E+02  0.32659592381E+02  0.00000000000E+00 0. -1.
        -12    1    5    5    0    0 -0.34620300528E+02  0.26521744239E+02  0.76440765436E+02  0.88006583541E+02  0.00000000000E+00 0.  1.
          5    1    4    4  501    0 -0.19364259902E+02  0.47104018131E+02 -0.20964232167E+02  0.55233454681E+02  0.41800000000E+01 0.  1.
         -5    1    4    4    0  501  0.79048897726E+02  0.84875421964E+00 -0.15329665065E+03  0.17253053097E+03  0.41800000000E+01 0.  1.
</event>
<event>
11    1  0.8037748E-009  0.1776667E+03  0.7561462E-02  0.1071546E+00
         22   -1    0    0    0    0  0.00000000000E+00  0.00000000000E+00  0.76350404352E+03  0.76350404352E+03  0.00000000000E+00 0. -1.
         22   -1    0    0    0    0 -0.00000000000E+00 -0.00000000000E+00 -0.76914565339E+03  0.76914565339E+03  0.00000000000E+00 0. -1.
        -24    2    1    2    0    0 -0.24038910915E+02 -0.49566004363E+02 -0.65714444595E+03  0.66454486597E+03  0.82136459708E+02 0.  0.
         25    2    1    2    0    0  0.45167861631E+01  0.17059667859E+03  0.12271698319E+02  0.21196272740E+03  0.12511584681E+03 0.  0.
         24    2    1    2    0    0  0.19522124752E+02 -0.12103067423E+03  0.63923113776E+03  0.65614210354E+03  0.82924514431E+02 0.  0.
        -11    1    5    5    0    0 -0.99203610147E+00  0.72195023779E+01  0.52192154574E+01  0.89635684971E+01  0.00000000000E+00 0.  1.
         12    1    5    5    0    0  0.20514160853E+02 -0.12825017661E+03  0.63401192230E+03  0.64717853504E+03  0.00000000000E+00 0. -1.
         13    1    3    3    0    0 -0.30565402205E+02 -0.24345579565E+02 -0.60494550484E+03  0.60620624781E+03  0.00000000000E+00 0. -1.
        -14    1    3    3    0    0  0.65264912901E+01 -0.25220424798E+02 -0.52198941110E+02  0.58338618158E+02  0.00000000000E+00 0.  1.
          5    1    4    4  501    0 -0.44441673678E+02  0.13295232588E+02  0.68457532149E+01  0.47076133081E+02  0.41800000000E+01 0. -1.
         -5    1    4    4    0  501  0.48958459841E+02  0.15730144601E+03  0.54259451042E+01  0.16488659432E+03  0.41800000000E+01 0. -1.
</event>
<event>
11    1  0.8037748E-009  0.1854303E+04  0.7561462E-02  0.8129474E-01
         22   -1    0    0    0    0  0.00000000000E+00  0.00000000000E+00  0.39361487176E+03  0.39361487176E+03  0.00000000000E+00 0.  1.
         22   -1    0    0    0    0 -0.00000000000E+00 -0.00000000000E+00 -0.21838857497E+04  0.21838857497E+04  0.00000000000E+00 0.  1.
        -24    2    1    2    0    0 -0.40279074436E+03 -0.40463606658E+03 -0.10071358314E+04  0.11608605145E+04  0.85462395034E+02 0.  0.
         25    2    1    2    0    0  0.71261896618E+03  0.35053735775E+03 -0.35358415073E+03  0.87827757723E+03  0.12509005105E+03 0.  0.
         24    2    1    2    0    0 -0.30982822182E+03  0.54098708829E+02 -0.42955089581E+03  0.53836252980E+03  0.80000275408E+02 0.  0.
        -11    1    5    5    0    0 -0.26638353458E+03  0.38369499435E+02 -0.31189761416E+03  0.41196180369E+03  0.00000000000E+00 0.  1.
         12    1    5    5    0    0 -0.43444687246E+02  0.15729209393E+02 -0.11765328165E+03  0.12640072611E+03  0.00000000000E+00 0. -1.
         11    1    3    3    0    0 -0.27942627079E+02 -0.59142911435E+01 -0.34041172385E+02  0.44436141430E+02  0.00000000000E+00 0. -1.
        -12    1    3    3    0    0 -0.37484811728E+03 -0.39872177544E+03 -0.97309465905E+03  0.11164243730E+04  0.00000000000E+00 0.  1.
          5    1    4    4  501    0  0.46843370620E+03  0.21577218436E+03 -0.29179727505E+03  0.59257986362E+03  0.41800000000E+01 0.  1.
         -5    1    4    4    0  501  0.24418525998E+03  0.13476517339E+03 -0.61786875685E+02  0.28569771360E+03  0.41800000000E+01 0.  1.
</event>
<event>
11    1  0.8037748E-009  0.1416025E+03  0.7561462E-02  0.1105782E+00
         22   -1    0    0    0    0  0.00000000000E+00  0.00000000000E+00  0.14011722111E+04  0.14011722111E+04  0.00000000000E+00 0. -1.
         22   -1    0    0    0    0 -0.00000000000E+00 -0.00000000000E+00 -0.10949841983E+04  0.10949841983E+04  0.00000000000E+00 0. -1.
         24    2    1    2    0    0 -0.20074309523E+02 -0.20258696299E+01 -0.92620314774E+03  0.92986075724E+03  0.79885386150E+02 0.  0.
         25    2    1    2    0    0  0.43537516574E+02 -0.59957563514E+02 -0.13270512591E+03  0.19685224281E+03  0.12509888202E+03 0.  0.
        -24    2    1    2    0    0 -0.23463207051E+02  0.61983433144E+02  0.13650962865E+04  0.13694434094E+04  0.86573160377E+02 0.  0.
        -11    1    3    3    0    0 -0.23428272193E+02 -0.18432912008E+02 -0.12585014320E+03  0.12933257412E+03  0.00000000000E+00 0.  1.
         12    1    3    3    0    0  0.33539626701E+01  0.16407042378E+02 -0.80035300453E+03  0.80052818312E+03  0.00000000000E+00 0. -1.
         11    1    5    5    0    0 -0.51946736833E+02  0.25588145747E+02  0.95436125204E+03  0.95611642391E+03  0.00000000000E+00 0. -1.
        -12    1    5    5    0    0  0.28483529782E+02  0.36395287397E+02  0.41073503441E+03  0.41332698546E+03  0.00000000000E+00 0.  1.
          5    1    4    4  501    0  0.73127115711E+02 -0.35073458741E+01 -0.10293214735E+03  0.12638186533E+03  0.41800000000E+01 0. -1.
         -5    1    4    4    0  501 -0.29589599137E+02 -0.56450217640E+02 -0.29772978559E+02  0.70470377471E+02  0.41800000000E+01 0. -1.
</event>
<event>
11    1  0.8037748E-009  0.1459035E+03  0.7561462E-02  0.1101140E+00
         22   -1    0    0    0    0  0.00000000000E+00  0.00000000000E+00  0.38429793866E+02  0.38429793866E+02  0.00000000000E+00 0. -1.
         22   -1    0    0    0    0 -0.00000000000E+00 -0.00000000000E+00 -0.27684818799E+04  0.27684818799E+04  0.00000000000E+00 0.  1.
        -24    2    1    2    0    0  0.52348963246E+01  0.73657170629E+02 -0.19745418137E+04  0.19777131999E+04  0.84150723366E+02 0.  0.
         25    2    1    2    0    0  0.60919809870E+02 -0.82954447656E+02 -0.68237456203E+03  0.70133738603E+03  0.12508566072E+03 0.  0.
         24    2    1    2    0    0 -0.66154706195E+02  0.92972770273E+01 -0.73135710307E+02  0.12786108780E+03  0.80850115271E+02 0.  0.
        -11    1    5    5    0    0 -0.15283249426E+02  0.21650010327E+02 -0.70645054880E+02  0.75452133430E+02  0.00000000000E+00 0.  1.
         12    1    5    5    0    0 -0.50871456768E+02 -0.12352733299E+02 -0.24906554274E+01  0.52408954370E+02  0.00000000000E+00 0. -1.
         13    1    3    3    0    0 -0.16528849205E+02  0.36465885593E+01 -0.10920562626E+04  0.10921874295E+04  0.00000000000E+00 0. -1.
        -14    1    3    3    0    0  0.21763745530E+02  0.70010582069E+02 -0.88248555110E+03  0.88552577045E+03  0.00000000000E+00 0.  1.
          5    1    4    4  501    0 -0.41243283574E+01 -0.87866922809E+02 -0.49784097269E+03  0.50556969124E+03  0.41800000000E+01 0.  1.
         -5    1    4    4    0  501  0.65044138227E+02  0.49124751535E+01 -0.18453358934E+03  0.19576769479E+03  0.41800000000E+01 0.  1.
</event>
<event>
11    1  0.8037748E-009  0.1956972E+03  0.7561462E-02  0.1057609E+00
         22   -1    0    0    0    0  0.00000000000E+00  0.00000000000E+00  0.66913193135E+03  0.66913193135E+03  0.00000000000E+00 0.  1.
         22   -1    0    0    0    0 -0.00000000000E+00 -0.00000000000E+00 -0.13455345726E+04  0.13455345726E+04  0.00000000000E+00 0. -1.
        -24    2    1    2    0    0 -0.14896399070E+03  0.15953657891E+02 -0.12766501361E+04  0.12879559062E+04  0.80932421093E+02 0.  0.
         25    2    1    2    0    0  0.16999698271E+03 -0.70920088865E+02  0.15606376063E+03  0.27189780160E+03  0.12507551320E+03 0.  0.
         24    2    1    2    0    0 -0.21032992010E+02  0.54966430974E+02  0.44418373419E+03  0.45481279610E+03  0.78049948710E+02 0.  0.
        -11    1    5    5    0    0 -0.28790276795E+02  0.47722984242E+02  0.43982006869E+03  0.44333740659E+03  0.00000000000E+00 0.  1.
         12    1    5    5    0    0  0.77572847846E+01  0.72434467321E+01  0.43636654988E+01  0.11475389509E+02  0.00000000000E+00 0. -1.
         11    1    3    3    0    0 -0.10686381871E+03  0.48109038195E+02 -0.90030764850E+03  0.90790319817E+03  0.00000000000E+00 0. -1.
        -12    1    3    3    0    0 -0.42100171984E+02 -0.32155380303E+02 -0.37634248757E+03  0.38005270807E+03  0.00000000000E+00 0.  1.
          5    1    4    4  501    0  0.87138969212E+02 -0.10176560182E+03  0.97892872329E+02  0.16598169936E+03  0.41800000000E+01 0. -1.
         -5    1    4    4    0  501  0.82858013495E+02  0.30845512953E+02  0.58170888297E+02  0.10591610225E+03  0.41800000000E+01 0. -1.
</event>
<event>
11    1  0.8037748E-009  0.1648893E+03  0.7561462E-02  0.1082567E+00
         22   -1    0    0    0    0  0.00000000000E+00  0.00000000000E+00  0.13006165200E+04  0.13006165200E+04  0.00000000000E+00 0.  1.
         22   -1    0    0    0    0 -0.00000000000E+00 -0.00000000000E+00 -0.53180457866E+03  0.53180457866E+03  0.00000000000E+00 0.  1.
         24    2    1    2    0    0 -0.79926410061E+02 -0.69867016860E+02 -0.44102736859E+03  0.46094843201E+03  0.81845501104E+02 0.  0.
         25    2    1    2    0    0  0.64327671953E+02  0.10789981179E+03  0.20204995374E+02  0.17842741376E+03  0.12509069263E+03 0.  0.
        -24    2    1    2    0    0  0.15598738108E+02 -0.38032794927E+02  0.11896343146E+04  0.11930452529E+04  0.80233153573E+02 0.  0.
        -11    1    3    3    0    0 -0.84868154272E+02 -0.81041398447E+02 -0.42433677335E+03  0.44026356775E+03  0.00000000000E+00 0.  1.
         12    1    3    3    0    0  0.49417442113E+01  0.11174381588E+02 -0.16690595246E+02  0.20684864259E+02  0.00000000000E+00 0. -1.
         11    1    5    5    0    0  0.81161693503E+01 -0.81267374593E+01  0.20450142014E+02  0.23454730334E+02  0.00000000000E+00 0. -1.
        -12    1    5    5    0    0  0.74825687577E+01 -0.29906057467E+02  0.11691841726E+04  0.11695905226E+04  0.00000000000E+00 0.  1.
          5    1    4    4  501    0  0.99544087086E+02  0.63884967197E+02  0.27292878141E+02  0.12146064344E+03  0.41800000000E+01 0.  1.
         -5    1    4    4    0  501 -0.35216415133E+02  0.44014844590E+02 -0.70878827668E+01  0.56966770325E+02  0.41800000000E+01 0.  1.
</event>
<event>
11    1  0.8037748E-009  0.1494114E+03  0.7561462E-02  0.1097482E+00
         22   -1    0    0    0    0  0.00000000000E+00  0.00000000000E+00  0.74403419104E+03  0.74403419104E+03  0.00000000000E+00 0.  1.
         22   -1    0    0    0    0 -0.00000000000E+00 -0.00000000000E+00 -0.36776962954E+03  0.36776962954E+03  0.00000000000E+00 0. -1.
        -24    2    1    2    0    0 -0.16010288190E+02  0.86777727307E+02 -0.30070102089E+03  0.32531981051E+03  0.87322230051E+02 0.  0.
         25    2    1    2    0    0  0.67384334836E+02 -0.11599485890E+02  0.55591835746E+02  0.15301617985E+03  0.12509317503E+03 0.  0.
         24    2    1    2    0    0 -0.51374046646E+02 -0.75178241418E+02  0.62137374665E+03  0.63346783022E+03  0.82976492111E+02 0.  0.
        -11    1    5    5    0    0 -0.47636699308E+02 -0.59692103726E+01  0.35469772402E+03  0.35793206341E+03  0.00000000000E+00 0.  1.
         12    1    5    5    0    0 -0.37373473388E+01 -0.69209031045E+02  0.26667602263E+03  0.27553576681E+03  0.00000000000E+00 0. -1.
         13    1    3    3    0    0 -0.49997345010E+02  0.63022725496E+02 -0.22586590548E+03  0.23976447964E+03  0.00000000000E+00 0. -1.
        -14    1    3    3    0    0  0.33987056820E+02  0.23755001812E+02 -0.74835115411E+02  0.85555330874E+02  0.00000000000E+00 0.  1.
          5    1    4    4  501    0 -0.35155155234E+02 -0.26666635091E+01  0.30944329540E+02  0.47095859313E+02  0.41800000000E+01 0. -1.
         -5    1    4    4    0  501  0.10253949007E+03 -0.89328223806E+01  0.24647506206E+02  0.10592032053E+03  0.41800000000E+01 0. -1.
</event>
<event>
11    1  0.8037748E-009  0.1768513E+03  0.7561462E-02  0.1072219E+00
         22   -1    0    0    0    0  0.00000000000E+00  0.00000000000E+00  0.11134314581E+04  0.11134314581E+04  0.00000000000E+00 0.  1.
         22   -1    0    0    0    0 -0.00000000000E+00 -0.00000000000E+00 -0.13032863861E+04  0.13032863861E+04  0.00000000000E+00 0. -1.
         24    2    1    2    0    0 -0.15783944303E+02 -0.11574027120E+02 -0.12708090308E+04  0.12734331535E+04  0.79330402794E+02 0.  0.
         25    2    1    2    0    0  0.61759061997E+02  0.12375171673E+03  0.33587555206E+03  0.38417328117E+03  0.12509218344E+03 0.  0.
        -24    2    1    2    0    0 -0.45975117694E+02 -0.11217768961E+03  0.74507855082E+03  0.75911140950E+03  0.80065845659E+02 0.  0.
        -13    1    3    3    0    0 -0.14410616997E+02 -0.44585563291E+02 -0.60901520612E+03  0.61081507809E+03  0.00000000000E+00 0.  1.
         14    1    3    3    0    0 -0.13733273066E+01  0.33011536171E+02 -0.66179382467E+03  0.66261807545E+03  0.00000000000E+00 0. -1.
         11    1    5    5    0    0  0.11066967004E+02 -0.59986337434E+02  0.21727711218E+03  0.22567716303E+03  0.00000000000E+00 0. -1.
        -12    1    5    5    0    0 -0.57042084698E+02 -0.52191352180E+02  0.52780143864E+03  0.53343424646E+03  0.00000000000E+00 0.  1.
          5    1    4    4  501    0 -0.30750806328E+01 -0.12666419086E+02  0.11938750867E+03  0.12016964642E+03  0.41800000000E+01 0. -1.
         -5    1    4    4    0  501  0.64834142630E+02  0.13641813582E+03  0.21648804338E+03  0.26400363474E+03  0.41800000000E+01 0. -1.
</event>
<event>
11    1  0.8037748E-009  0.2218543E+03  0.7561462E-02  0.1040062E+00
         22   -1    0    0    0    0  0.00000000000E+00  0.00000000000E+00  0.28432695191E+03  0.28432695191E+03  0.00000000000E+00 0. -1.
         22   -1    0    0    0    0 -0.00000000000E+00 -0.00000000000E+00 -0.35189652204E+03  0.35189652204E+03  0.00000000000E+00 0. -1.
        -24    2    1    2    0    0  0.19891811951E+02 -0.10413504104E+03 -0.12446230692E+03  0.18185885372E+03  0.79636586311E+02 0.  0.
         25    2    1    2    0    0  0.14832717676E+03 -0.18203004477E+02 -0.58100794086E+02  0.20336122477E+03  0.12509110572E+03 0.  0.
         24    2    1    2    0    0 -0.16821898871E+03  0.12233804552E+03  0.11499353087E+03  0.25100339546E+03  0.80715344541E+02 0.  0.
        -11    1    5    5    0    0 -0.37133928483E+02  0.12704797438E+02  0.59599643394E+02  0.71361460293E+02  0.00000000000E+00 0.  1.
         12    1    5    5    0    0 -0.13108506023E+03  0.10963324808E+03  0.55393887480E+02  0.17964193516E+03  0.00000000000E+00 0. -1.
         11    1    3    3    0    0  0.49895367360E+02 -0.66708716388E+02 -0.66296162368E+02  0.10646493165E+03  0.00000000000E+00 0. -1.
        -12    1    3    3    0    0 -0.30003555409E+02 -0.37426324652E+02 -0.58166144552E+02  0.75393922077E+02  0.00000000000E+00 0.  1.
          5    1    4    4  501    0 -0.20621766601E+00 -0.43049532840E+02 -0.46351359584E+01  0.43500134354E+02  0.41800000000E+01 0.  1.
         -5    1    4    4    0  501  0.14853339443E+03  0.24846528363E+02 -0.53465658128E+02  0.15986109042E+03  0.41800000000E+01 0.  1.
</event>
<event>
11    1  0.1014970E-008  0.2081032E+03  0.7561462E-02  0.1048937E+00
         22   -1    0    0    0    0  0.00000000000E+00  0.00000000000E+00  0.67463175966E+03  0.67463175966E+03  0.00000000000E+00 0.  1.
         22   -1    0    0    0    0 -0.00000000000E+00 -0.00000000000E+00 -0.11993026311E+04  0.11993026311E+04  0.00000000000E+00 0.  1.
        -24    2    1    2    0    0  0.58997664415E+02 -0.91930789080E+02 -0.90754594892E+03  0.91775470684E+03  0.81866098829E+02 0.  0.
         25    2    1    2    0    0 -0.22020872372E+03  0.11487675213E+03 -0.20203084148E+03  0.34373311006E+03  0.12508972723E+03 0.  0.
         24    2    1    2    0    0  0.16121105931E+03 -0.22945963046E+02  0.58490591890E+03  0.61244657391E+03  0.80376296638E+02 0.  0.
        -11    1    5    5    0    0  0.74127844962E+02 -0.31942575774E+02  0.16718890112E+03  0.18565396361E+03  0.00000000000E+00 0.  1.
         12    1    5    5    0    0  0.87083214344E+02  0.89966127286E+01  0.41771701778E+03  0.42679261030E+03  0.00000000000E+00 0. -1.
         13    1    3    3    0    0  0.28135048861E+02  0.38304052087E+01 -0.35420047460E+03  0.35533678276E+03  0.00000000000E+00 0. -1.
        -14    1    3    3    0    0  0.30862615554E+02 -0.95761194289E+02 -0.55334547432E+03  0.56241792407E+03  0.00000000000E+00 0.  1.
          5    1    4    4  501    0 -0.33352632805E+02  0.33796183702E+02 -0.11058259738E+03  0.12041828512E+03  0.41800000000E+01 0.  1.
         -5    1    4    4    0  501 -0.18685609092E+03  0.81080568424E+02 -0.91448244103E+02  0.22331482494E+03  0.41800000000E+01 0.  1.
</event>
<event>
11    1  0.8037748E-009  0.2784404E+03  0.7561462E-02  0.1009752E+00
         22   -1    0    0    0    0  0.00000000000E+00  0.00000000000E+00  0.12904634801E+03  0.12904634801E+03  0.00000000000E+00 0.  1.
         22   -1    0    0    0    0 -0.00000000000E+00 -0.00000000000E+00 -0.13077245182E+04  0.13077245182E+04  0.00000000000E+00 0.  1.
        -24    2    1    2    0    0  0.15181928886E+01  0.14884199112E+02 -0.66966402491E+03  0.67456174773E+03  0.79748360237E+02 0.  0.
         25    2    1    2    0    0  0.70070429179E+02 -0.24845264701E+03 -0.38155942221E+03  0.47735512673E+03  0.12506694804E+03 0.  0.
         24    2    1    2    0    0 -0.71588622068E+02  0.23356844790E+03 -0.12745472312E+03  0.28485399178E+03  0.72235306637E+02 0.  0.
        -13    1    5    5    0    0 -0.63198758981E+02  0.21310733889E+03 -0.13662650567E+03  0.26091305655E+03  0.00000000000E+00 0.  1.
         14    1    5    5    0    0 -0.83898630863E+01  0.20461109011E+02  0.91717825557E+01  0.23940935232E+02  0.00000000000E+00 0. -1.
         13    1    3    3    0    0  0.38493933974E+01  0.47521857641E+02 -0.44069819566E+03  0.44326971974E+03  0.00000000000E+00 0. -1.
        -14    1    3    3    0    0 -0.23312005087E+01 -0.32637658529E+02 -0.22896582925E+03  0.23129202799E+03  0.00000000000E+00 0.  1.
          5    1    4    4  501    0  0.64693683934E+02 -0.41071515661E+02 -0.76023967148E+02  0.10802434041E+03  0.41800000000E+01 0. -1.
         -5    1    4    4    0  501  0.53767452448E+01 -0.20738113135E+03 -0.30553545506E+03  0.36933078633E+03  0.41800000000E+01 0. -1.
</event>
<event>
11    1  0.8037748E-009  0.1470503E+03  0.7561462E-02  0.1099931E+00
         22   -1    0    0    0    0  0.00000000000E+00  0.00000000000E+00  0.51677280629E+03  0.51677280629E+03  0.00000000000E+00 0.  1.
         22   -1    0    0    0    0 -0.00000000000E+00 -0.00000000000E+00 -0.14193698053E+04  0.14193698053E+04  0.00000000000E+00 0.  1.
         24    2    1    2    0    0 -0.76942190302E+02 -0.15280586828E+02 -0.13494635332E+04  0.13541249932E+04  0.80306119941E+02 0.  0.
         25    2    1    2    0    0  0.28792829099E+02  0.53540006186E+02  0.16357778242E+02  0.14003845053E+03  0.12509049304E+03 0.  0.
        -24    2    1    2    0    0  0.48149361203E+02 -0.38259419358E+02  0.43050875593E+03  0.44197916784E+03  0.78902799212E+02 0.  0.
        -11    1    3    3    0    0 -0.87727903453E+02 -0.23986247204E+01 -0.12629276210E+04  0.12659731886E+04  0.00000000000E+00 0.  1.
         12    1    3    3    0    0  0.10785713151E+02 -0.12881962107E+02 -0.86535912213E+02  0.88151804624E+02  0.00000000000E+00 0. -1.
         13    1    5    5    0    0  0.22867835331E+02 -0.22780271932E+02  0.45256157551E+02  0.55587754752E+02  0.00000000000E+00 0. -1.
        -14    1    5    5    0    0  0.25281525871E+02 -0.15479147426E+02  0.38525259838E+03  0.38639141309E+03  0.00000000000E+00 0.  1.
          5    1    4    4  501    0  0.54730536346E+01  0.92837045799E+02  0.13468623279E+02  0.94061403359E+02  0.41800000000E+01 0. -1.
         -5    1    4    4    0  501  0.23319775465E+02 -0.39297039614E+02  0.28891549626E+01  0.45977047170E+02  0.41800000000E+01 0. -1.
</event>
<event>
11    1  0.8037748E-009  0.2622181E+03  0.7561462E-02  0.1017585E+00
         22   -1    0    0    0    0  0.00000000000E+00  0.00000000000E+00  0.70981342091E+03  0.70981342091E+03  0.00000000000E+00 0. -1.
         22   -1    0    0    0    0 -0.00000000000E+00 -0.00000000000E+00 -0.17720043351E+03  0.17720043351E+03  0.00000000000E+00 0. -1.
        -24    2    1    2    0    0  0.49916445445E+02  0.29070466052E+02 -0.46827132295E+02  0.10944037510E+03  0.80297396352E+02 0.  0.
         25    2    1    2    0    0  0.10361270248E+02  0.20913232725E+03  0.18633587563E+03  0.30693994470E+03  0.12508950748E+03 0.  0.
         24    2    1    2    0    0 -0.60277715692E+02 -0.23820279330E+03  0.39310424407E+03  0.47063353463E+03  0.81184995318E+02 0.  0.
        -13    1    5    5    0    0  0.16946947096E+02 -0.32905483117E+02  0.82151883207E+02  0.90104948530E+02  0.00000000000E+00 0.  1.
         14    1    5    5    0    0 -0.77224662788E+02 -0.20529731019E+03  0.31095236086E+03  0.38052858610E+03  0.00000000000E+00 0. -1.
         11    1    3    3    0    0  0.48878769056E+02  0.39220103638E+01 -0.62764866301E+02  0.79648883680E+02  0.00000000000E+00 0. -1.
        -12    1    3    3    0    0  0.10376763887E+01  0.25148455688E+02  0.15937734006E+02  0.29791491420E+02  0.00000000000E+00 0.  1.
          5    1    4    4  501    0  0.15612948339E+02 -0.12741480032E+02  0.75644848864E+01  0.21927227386E+02  0.41800000000E+01 0.  1.
         -5    1    4    4    0  501 -0.52516780918E+01  0.22187380728E+03  0.17877139075E+03  0.28501271731E+03  0.41800000000E+01 0.  1.
</event>
<event>
11    1  0.8037748E-009  0.2346688E+03  0.7561462E-02  0.1032399E+00
         22   -1    0    0    0    0  0.00000000000E+00  0.00000000000E+00  0.31674039976E+03  0.31674039976E+03  0.00000000000E+00 0.  1.
         22   -1    0    0    0    0 -0.00000000000E+00 -0.00000000000E+00 -0.30729591925E+04  0.30729591925E+04  0.00000000000E+00 0. -1.
         24    2    1    2    0    0 -0.16596506905E+03  0.11978440912E+03 -0.28624684195E+04  0.28709297440E+04  0.81359899047E+02 0.  0.
         25    2    1    2    0    0  0.83741982894E+02 -0.11100965569E+03 -0.14880822925E+03  0.23901259973E+03  0.12508904981E+03 0.  0.
        -24    2    1    2    0    0  0.82223086152E+02 -0.87747534321E+01  0.25505785604E+03  0.27975724856E+03  0.79824657846E+02 0.  0.
        -13    1    3    3    0    0 -0.87049176122E+01 -0.11996884052E+02 -0.16088677374E+03  0.16156811189E+03  0.00000000000E+00 0.  1.
         14    1    3    3    0    0 -0.15726015143E+03  0.13178129317E+03 -0.27015816458E+04  0.27093616321E+04  0.00000000000E+00 0. -1.
         11    1    5    5    0    0  0.54248106154E+02  0.79703916924E+01  0.57215605954E+02  0.79246512414E+02  0.00000000000E+00 0. -1.
        -12    1    5    5    0    0  0.27974979998E+02 -0.16745145125E+02  0.19784225008E+03  0.20051073614E+03  0.00000000000E+00 0.  1.
          5    1    4    4  501    0 -0.16691447346E+02 -0.12081239493E+02 -0.78800445200E+02  0.81556994341E+02  0.41800000000E+01 0.  1.
         -5    1    4    4    0  501  0.10043343024E+03 -0.98928416196E+02 -0.70007784048E+02  0.15745560539E+03  0.41800000000E+01 0.  1.
</event>
<event>
11    1  0.8037748E-009  0.1952207E+03  0.7561462E-02  0.1057956E+00
         22   -1    0    0    0    0  0.00000000000E+00  0.00000000000E+00  0.53168441782E+03  0.53168441782E+03  0.00000000000E+00 0.  1.
         22   -1    0    0    0    0 -0.00000000000E+00 -0.00000000000E+00 -0.48431648554E+03  0.48431648554E+03  0.00000000000E+00 0. -1.
        -24    2    1    2    0    0 -0.11934112223E+03 -0.10927485846E+03 -0.38407442379E+03  0.42459652316E+03  0.81152611309E+02 0.  0.
         25    2    1    2    0    0  0.49847203716E+02  0.88791193179E+02  0.16222202861E+02  0.16211017222E+03  0.12509167985E+03 0.  0.
         24    2    1    2    0    0  0.69493918512E+02  0.20483665283E+02  0.41522015321E+03  0.42929420797E+03  0.81466288229E+02 0.  0.
        -13    1    5    5    0    0  0.41039776181E+02  0.56341221242E+01  0.37750351042E+03  0.37976954451E+03  0.00000000000E+00 0.  1.
         14    1    5    5    0    0  0.28454142331E+02  0.14849543159E+02  0.37716642789E+02  0.49524663462E+02  0.00000000000E+00 0. -1.
         13    1    3    3    0    0 -0.62681882930E+02 -0.10718650245E+03 -0.25539131957E+03  0.28397656746E+03  0.00000000000E+00 0. -1.
        -14    1    3    3    0    0 -0.56659239298E+02 -0.20883560108E+01 -0.12868310422E+03  0.14061995569E+03  0.00000000000E+00 0.  1.
          5    1    4    4  501    0  0.26943562280E+02 -0.55777682712E+01  0.51638244878E+02  0.58660444776E+02  0.41800000000E+01 0.  1.
         -5    1    4    4    0  501  0.22903641435E+02  0.94368961450E+02 -0.35416042017E+02  0.10344972744E+03  0.41800000000E+01 0.  1.
</event>
<event>
11    1  0.8037748E-009  0.1255772E+03  0.7561462E-02  0.1124826E+00
         22   -1    0    0    0    0  0.00000000000E+00  0.00000000000E+00  0.18344203946E+03  0.18344203946E+03  0.00000000000E+00 0. -1.
         22   -1    0    0    0    0 -0.00000000000E+00 -0.00000000000E+00 -0.78836864831E+03  0.78836864831E+03  0.00000000000E+00 0. -1.
         24    2    1    2    0    0 -0.12172034321E+02  0.59210095938E+01 -0.66690810151E+03  0.67363064351E+03  0.93960689884E+02 0.  0.
         25    2    1    2    0    0 -0.29070078813E+02 -0.12970190481E+02 -0.63848258277E+02  0.14400369313E+03  0.12508864148E+03 0.  0.
        -24    2    1    2    0    0  0.41242113134E+02  0.70491808873E+01  0.12582975094E+03  0.15417635113E+03  0.78655058193E+02 0.  0.
        -13    1    3    3    0    0 -0.49950907480E+01 -0.15796804277E+02 -0.18559116252E+02  0.24878318935E+02  0.00000000000E+00 0.  1.
         14    1    3    3    0    0 -0.71769435730E+01  0.21717813871E+02 -0.64834898526E+03  0.64875232458E+03  0.00000000000E+00 0. -1.
         11    1    5    5    0    0  0.35721418407E+02 -0.28333805627E+02  0.10036067986E+03  0.11023198418E+03  0.00000000000E+00 0. -1.
        -12    1    5    5    0    0  0.55206947265E+01  0.35382986515E+02  0.25469071079E+02  0.43944366949E+02  0.00000000000E+00 0.  1.
          5    1    4    4  501    0  0.33201657423E+02  0.30234416633E+02 -0.49115014985E+02  0.66680035256E+02  0.41800000000E+01 0.  1.
         -5    1    4    4    0  501 -0.62271736236E+02 -0.43204607114E+02 -0.14733243292E+02  0.77323657878E+02  0.41800000000E+01 0.  1.
</event>
<event>
11    1  0.8037748E-009  0.1701451E+03  0.7561462E-02  0.1077905E+00
         22   -1    0    0    0    0  0.00000000000E+00  0.00000000000E+00  0.24075232117E+03  0.24075232117E+03  0.00000000000E+00 0. -1.
         22   -1    0    0    0    0 -0.00000000000E+00 -0.00000000000E+00 -0.19704103209E+04  0.19704103209E+04  0.00000000000E+00 0. -1.
        -24    2    1    2    0    0 -0.29185302332E+00  0.17111847677E+02 -0.82364217101E+03  0.82776528007E+03  0.80721945713E+02 0.  0.
         25    2    1    2    0    0 -0.10401947824E+03 -0.66004741138E+02 -0.11165154225E+04  0.11302350249E+04  0.12509134678E+03 0.  0.
         24    2    1    2    0    0  0.10431133126E+03  0.48892893461E+02  0.21049959378E+03  0.25316233712E+03  0.80682842619E+02 0.  0.
        -13    1    5    5    0    0  0.80252677426E+00  0.11767319473E+02  0.87019070502E+02  0.87814762357E+02  0.00000000000E+00 0.  1.
         14    1    5    5    0    0  0.10350880449E+03  0.37125573988E+02  0.12348052328E+03  0.16534757477E+03  0.00000000000E+00 0. -1.
         11    1    3    3    0    0  0.35252926064E+02 -0.54190114160E+01 -0.51983595640E+03  0.52105811197E+03  0.00000000000E+00 0. -1.
        -12    1    3    3    0    0 -0.35544779087E+02  0.22530859093E+02 -0.30380621461E+03  0.30670716810E+03  0.00000000000E+00 0.  1.
          5    1    4    4  501    0  0.13186375910E+01  0.24068780534E+02 -0.37960380342E+03  0.38039133136E+03  0.41800000000E+01 0.  1.
         -5    1    4    4    0  501 -0.10533811583E+03 -0.90073521672E+02 -0.73691161913E+03  0.74984369355E+03  0.41800000000E+01 0.  1.
</event>
<event>
11    1  0.8037748E-009  0.1444628E+03  0.7561462E-02  0.1102675E+00
         22   -1    0    0    0    0  0.00000000000E+00  0.00000000000E+00  0.70000780245E+03  0.70000780245E+03  0.00000000000E+00 0. -1.
         22   -1    0    0    0    0 -0.00000000000E+00 -0.00000000000E+00 -0.31475679182E+03  0.31475679182E+03  0.00000000000E+00 0. -1.
         24    2    1    2    0    0  0.27576053393E+02  0.66546345227E+01 -0.26262459115E+03  0.27610799361E+03  0.80369306190E+02 0.  0.
         25    2    1    2    0    0  0.38298415769E+02 -0.41754880457E+02  0.76928780904E+02  0.15740205769E+03  0.12508849564E+03 0.  0.
        -24    2    1    2    0    0 -0.65874469162E+02  0.35100245935E+02  0.57094682087E+03  0.58125454296E+03  0.79404650383E+02 0.  0.
        -11    1    3    3    0    0 -0.20621708468E+02  0.22312914390E+02 -0.60154121356E+02  0.67391685873E+02  0.00000000000E+00 0.  1.
         12    1    3    3    0    0  0.48197761861E+02 -0.15658279868E+02 -0.20247046980E+03  0.20871630774E+03  0.00000000000E+00 0. -1.
         13    1    5    5    0    0 -0.47628367557E+02  0.64336930514E+01  0.50293607344E+03  0.50522722390E+03  0.00000000000E+00 0. -1.
        -14    1    5    5    0    0 -0.18246101605E+02  0.28666552883E+02  0.68010747427E+02  0.76027319060E+02  0.00000000000E+00 0.  1.
          5    1    4    4  501    0  0.81968224707E+02 -0.10669205363E+02  0.38299224405E+02  0.91197175366E+02  0.41800000000E+01 0. -1.
         -5    1    4    4    0  501 -0.43669808938E+02 -0.31085675095E+02  0.38629556499E+02  0.66204882328E+02  0.41800000000E+01 0. -1.
</event>
<event>
11    1  0.8037748E-009  0.1568774E+03  0.7561462E-02  0.1090051E+00
         22   -1    0    0    0    0  0.00000000000E+00  0.00000000000E+00  0.39013787350E+03  0.39013787350E+03  0.00000000000E+00 0.  1.
         22   -1    0    0    0    0 -0.00000000000E+00 -0.00000000000E+00 -0.29538260017E+04  0.29538260017E+04  0.00000000000E+00 0.  1.
         24    2    1    2    0    0  0.84416980827E+01 -0.91776713636E+01 -0.25481203901E+04  0.25494245212E+04  0.80575274791E+02 0.  0.
         25    2    1    2    0    0 -0.82318853946E+02  0.67882944587E+02 -0.37752949645E+03  0.41177614827E+03  0.12508632104E+03 0.  0.
        -24    2    1    2    0    0  0.73877155863E+02 -0.58705273223E+02  0.36196175832E+03  0.38276320576E+03  0.81161653107E+02 0.  0.
        -11    1    3    3    0    0 -0.70248887774E+01 -0.78370011255E+01 -0.24547308560E+04  0.24547534180E+04  0.00000000000E+00 0.  1.
         12    1    3    3    0    0  0.15466586860E+02 -0.13406702381E+01 -0.93389534049E+02  0.94671103171E+02  0.00000000000E+00 0. -1.
         13    1    5    5    0    0  0.33636180169E+02 -0.17706372315E+01  0.35487409605E+02  0.48927334007E+02  0.00000000000E+00 0. -1.
        -14    1    5    5    0    0  0.40240975695E+02 -0.56934635992E+02  0.32647434872E+03  0.33383587175E+03  0.00000000000E+00 0.  1.
          5    1    4    4  501    0  0.21254309753E+02  0.11317640462E+02 -0.17991631935E+03  0.18156868959E+03  0.41800000000E+01 0.  1.
         -5    1    4    4    0  501 -0.10357316370E+03  0.56565304124E+02 -0.19761317710E+03  0.23020745868E+03  0.41800000000E+01 0.  1.
</event>
<event>
11    1  0.8037748E-009  0.1359712E+03  0.7561462E-02  0.1112143E+00
         22   -1    0    0    0    0  0.00000000000E+00  0.00000000000E+00  0.31480215569E+03  0.31480215569E+03  0.00000000000E+00 0.  1.
         22   -1    0    0    0    0 -0.00000000000E+00 -0.00000000000E+00 -0.46266590747E+03  0.46266590747E+03  0.00000000000E+00 0. -1.
         24    2    1    2    0    0 -0.16751934766E+02  0.13546197479E+02 -0.41194001278E+03  0.42034822578E+03  0.80832728562E+02 0.  0.
         25    2    1    2    0    0 -0.22007533437E+02  0.32043775921E+02  0.10151727745E+03  0.16572558404E+03  0.12509227186E+03 0.  0.
        -24    2    1    2    0    0  0.38759468203E+02 -0.45589973400E+02  0.16255898354E+03  0.19139425335E+03  0.81397758164E+02 0.  0.
        -13    1    3    3    0    0 -0.27082046684E+02  0.42969324438E+02 -0.29400669913E+03  0.29836175899E+03  0.00000000000E+00 0.  1.
         14    1    3    3    0    0  0.10330111918E+02 -0.29423126959E+02 -0.11793331365E+03  0.12198646679E+03  0.00000000000E+00 0. -1.
         11    1    5    5    0    0  0.53015246970E+02 -0.10177450387E+02  0.54156141253E+02  0.76466231391E+02  0.00000000000E+00 0. -1.
        -12    1    5    5    0    0 -0.14255778767E+02 -0.35412523013E+02  0.10840284229E+03  0.11492802196E+03  0.00000000000E+00 0.  1.
          5    1    4    4  501    0 -0.68398280335E+02  0.36977245096E+02  0.86847030534E+02  0.11664270453E+03  0.41800000000E+01 0. -1.
         -5    1    4    4    0  501  0.46390746898E+02 -0.49334691749E+01  0.14670246920E+02  0.49082879505E+02  0.41800000000E+01 0. -1.
</event>
<event>
11    1  0.8037748E-009  0.1731622E+03  0.7561462E-02  0.1075312E+00
         22   -1    0    0    0    0  0.00000000000E+00  0.00000000000E+00  0.71977909653E+03  0.71977909653E+03  0.00000000000E+00 0.  1.
         22   -1    0    0    0    0 -0.00000000000E+00 -0.00000000000E+00 -0.17475956100E+03  0.17475956100E+03  0.00000000000E+00 0.  1.
         24    2    1    2    0    0 -0.53703701291E+02 -0.50452877195E+02 -0.91242508933E+02  0.14157888709E+03  0.79308293917E+02 0.  0.
         25    2    1    2    0    0  0.16377106344E+03  0.33563564458E+02  0.17832415858E+03  0.27457759458E+03  0.12508347546E+03 0.  0.
        -24    2    1    2    0    0 -0.11006736215E+03  0.16889312737E+02  0.45793788587E+03  0.47838217585E+03  0.82111666409E+02 0.  0.
        -11    1    3    3    0    0 -0.97554132021E+01  0.65282037492E+01 -0.63307498410E+02  0.64386527208E+02  0.00000000000E+00 0.  1.
         12    1    3    3    0    0 -0.43948288089E+02 -0.56981080944E+02 -0.27935010523E+02  0.77192359883E+02  0.00000000000E+00 0. -1.
         13    1    5    5    0    0  0.64896598344E+01  0.20421515212E+02  0.83566826531E+02  0.86270322039E+02  0.00000000000E+00 0. -1.
        -14    1    5    5    0    0 -0.11655702199E+03 -0.35322024750E+01  0.37437105934E+03  0.39211185382E+03  0.00000000000E+00 0.  1.
          5    1    4    4  501    0  0.19493008660E+02  0.46041708036E+02  0.95033988364E+02  0.10746509950E+03  0.41800000000E+01 0.  1.
         -5    1    4    4    0  501  0.14427805478E+03 -0.12478143578E+02  0.83290170217E+02  0.16711249508E+03  0.41800000000E+01 0.  1.
</event>
<event>
11    1  0.8037748E-009  0.1734236E+03  0.7561462E-02  0.1075090E+00
         22   -1    0    0    0    0  0.00000000000E+00  0.00000000000E+00  0.63630928749E+03  0.63630928749E+03  0.00000000000E+00 0.  1.
         22   -1    0    0    0    0 -0.00000000000E+00 -0.00000000000E+00 -0.47856483500E+03  0.47856483500E+03  0.00000000000E+00 0. -1.
        -24    2    1    2    0    0 -0.96843244877E+02 -0.76268405623E+02 -0.35974057314E+03  0.38895136797E+03  0.81697018953E+02 0.  0.
         25    2    1    2    0    0  0.70551603001E+02  0.80668550189E+02 -0.33939963972E+02  0.16818007869E+03  0.12509066328E+03 0.  0.
         24    2    1    2    0    0  0.26291641876E+02 -0.44001445657E+01  0.55142498960E+03  0.55774267583E+03  0.79352136600E+02 0.  0.
        -11    1    5    5    0    0  0.50187996329E+02  0.14079191101E+02  0.29810328046E+03  0.30262621237E+03  0.00000000000E+00 0.  1.
         12    1    5    5    0    0 -0.23896354453E+02 -0.18479335667E+02  0.25332170914E+03  0.25511646346E+03  0.00000000000E+00 0. -1.
         13    1    3    3    0    0 -0.69402238494E+02 -0.17535788858E+02 -0.11241974498E+03  0.13327555537E+03  0.00000000000E+00 0. -1.
        -14    1    3    3    0    0 -0.27441006383E+02 -0.58732616765E+02 -0.24732082816E+03  0.25567581259E+03  0.00000000000E+00 0.  1.
          5    1    4    4  501    0  0.22546960456E+01  0.66912549555E+02  0.30038626724E+02  0.73499417941E+02  0.41800000000E+01 0. -1.
         -5    1    4    4    0  501  0.68296906955E+02  0.13756000634E+02 -0.63978590696E+02  0.94680660752E+02  0.41800000000E+01 0. -1.
</event>
<event>
11    1  0.8037748E-009  0.1518405E+03  0.7561462E-02  0.1095013E+00
         22   -1    0    0    0    0  0.00000000000E+00  0.00000000000E+00  0.51588388180E+03  0.51588388180E+03  0.00000000000E+00 0.  1.
         22   -1    0    0    0    0 -0.00000000000E+00 -0.00000000000E+00 -0.13695708809E+03  0.13695708809E+03  0.00000000000E+00 0.  1.
        -24    2    1    2    0    0  0.18582815276E+02 -0.23387047993E+02 -0.50447016544E+02  0.98379568999E+02  0.79002297946E+02 0.  0.
         25    2    1    2    0    0 -0.10138904231E+03  0.98150324698E+01  0.67741335683E+02  0.17496390196E+03  0.12508959056E+03 0.  0.
         24    2    1    2    0    0  0.82806227031E+02  0.13572015523E+02  0.36163247458E+03  0.37949749893E+03  0.78735215654E+02 0.  0.
        -11    1    5    5    0    0  0.82237231603E+02  0.41179496036E+01  0.36070182682E+03  0.36998071253E+03  0.00000000000E+00 0.  1.
         12    1    5    5    0    0  0.56899542754E+00  0.94540659196E+01  0.93064775947E+00  0.95167864041E+01  0.00000000000E+00 0. -1.
         13    1    3    3    0    0 -0.27408704967E+02  0.37091845533E+01 -0.31055346632E+02  0.41586412594E+02  0.00000000000E+00 0. -1.
        -14    1    3    3    0    0  0.45991520243E+02 -0.27096232546E+02 -0.19391669912E+02  0.56793156405E+02  0.00000000000E+00 0.  1.
          5    1    4    4  501    0 -0.55304534812E+02 -0.47719378145E+02  0.69773871952E+02  0.10110191011E+03  0.41800000000E+01 0. -1.
         -5    1    4    4    0  501 -0.46084507495E+02  0.57534410615E+02 -0.20325362685E+01  0.73861991846E+02  0.41800000000E+01 0. -1.
</event>
<event>
11    1  0.8037748E-009  0.1830055E+03  0.7561462E-02  0.1067237E+00
         22   -1    0    0    0    0  0.00000000000E+00  0.00000000000E+00  0.81140870522E+02  0.81140870522E+02  0.00000000000E+00 0.  1.
         22   -1    0    0    0    0 -0.00000000000E+00 -0.00000000000E+00 -0.70282915025E+03  0.70282915025E+03  0.00000000000E+00 0. -1.
        -24    2    1    2    0    0 -0.13368443954E+03 -0.33984501213E+02 -0.26870676496E+03  0.31263440999E+03  0.80687502614E+02 0.  0.
         25    2    1    2    0    0  0.96076262613E+02  0.10265952571E+03 -0.27728930469E+03  0.33512198866E+03  0.12509101618E+03 0.  0.
         24    2    1    2    0    0  0.37608176922E+02 -0.68675024494E+02 -0.75692210078E+02  0.13621362212E+03  0.81818128951E+02 0.  0.
        -13    1    5    5    0    0  0.37031004830E+02 -0.62082832456E+02 -0.13336870965E+02  0.73508132418E+02  0.00000000000E+00 0.  1.
         14    1    5    5    0    0  0.57717209227E+00 -0.65921920383E+01 -0.62355339112E+02  0.62705489706E+02  0.00000000000E+00 0. -1.
         13    1    3    3    0    0 -0.64831257903E+02 -0.40184969719E+02 -0.20459270914E+03  0.21834857551E+03  0.00000000000E+00 0. -1.
        -14    1    3    3    0    0 -0.68853181633E+02  0.62004685056E+01 -0.64114055823E+02  0.94285834486E+02  0.00000000000E+00 0.  1.
          5    1    4    4  501    0  0.54117369041E+01 -0.17287150403E+02 -0.10403960265E+03  0.10568748169E+03  0.41800000000E+01 0. -1.
         -5    1    4    4    0  501  0.90664525709E+02  0.11994667611E+03 -0.17324970204E+03  0.22943450697E+03  0.41800000000E+01 0. -1.
</event>
<event>
11    1  0.8037748E-009  0.1286742E+03  0.7561462E-02  0.1120909E+00
         22   -1    0    0    0    0  0.00000000000E+00  0.00000000000E+00  0.26716487523E+02  0.26716487523E+02  0.00000000000E+00 0. -1.
         22   -1    0    0    0    0 -0.00000000000E+00 -0.00000000000E+00 -0.25581870479E+04  0.25581870479E+04  0.00000000000E+00 0. -1.
         24    2    1    2    0    0 -0.31617756837E+02 -0.94112415706E+01 -0.13814462067E+04  0.13840715829E+04  0.78563798786E+02 0.  0.
         25    2    1    2    0    0  0.24925634891E+02 -0.10961611146E+02 -0.10940333902E+04  0.11014980927E+04  0.12509014776E+03 0.  0.
        -24    2    1    2    0    0  0.66921219461E+01  0.20372852717E+02 -0.55990963445E+02  0.99333859863E+02  0.79198422357E+02 0.  0.
        -11    1    3    3    0    0 -0.46503443402E+01  0.86483134111E+01 -0.20417797543E+02  0.22656246023E+02  0.00000000000E+00 0.  1.
         12    1    3    3    0    0 -0.26967412497E+02 -0.18059554982E+02 -0.13610284092E+04  0.13614153369E+04  0.00000000000E+00 0. -1.
         11    1    5    5    0    0  0.30383041036E+02 -0.73287657098E+01  0.14675491825E+01  0.31288874860E+02  0.00000000000E+00 0. -1.
        -12    1    5    5    0    0 -0.23690919090E+02  0.27701618426E+02 -0.57458512627E+02  0.68044985003E+02  0.00000000000E+00 0.  1.
          5    1    4    4  501    0  0.42839755943E+02  0.44643837526E+02 -0.37598202622E+03  0.38106203347E+03  0.41800000000E+01 0.  1.
         -5    1    4    4    0  501 -0.17914121052E+02 -0.55605448671E+02 -0.71805136402E+03  0.72043605923E+03  0.41800000000E+01 0.  1.
</event>
<event>
11    1  0.8037748E-009  0.1347566E+03  0.7561462E-02  0.1113559E+00
         22   -1    0    0    0    0  0.00000000000E+00  0.00000000000E+00  0.29801766697E+04  0.29801766697E+04  0.00000000000E+00 0.  1.
         22   -1    0    0    0    0 -0.00000000000E+00 -0.00000000000E+00 -0.47556290374E+02  0.47556290374E+02  0.00000000000E+00 0. -1.
        -24    2    1    2    0    0 -0.47895658755E+02 -0.40124707763E+01  0.62689480701E+02  0.11896142986E+03  0.88948056495E+02 0.  0.
         25    2    1    2    0    0  0.56188258846E+02 -0.19449623152E+02  0.23670143768E+03  0.27424566331E+03  0.12509078693E+03 0.  0.
         24    2    1    2    0    0 -0.82926000919E+01  0.23462093928E+02  0.26332294609E+04  0.26345258669E+04  0.78802996876E+02 0.  0.
        -13    1    5    5    0    0 -0.19895980488E+02  0.76817610074E+01  0.24745718364E+04  0.24746637414E+04  0.00000000000E+00 0.  1.
         14    1    5    5    0    0  0.11603380396E+02  0.15780332921E+02  0.15865762448E+03  0.15986212544E+03  0.00000000000E+00 0. -1.
         11    1    3    3    0    0 -0.37076307802E+02  0.30510533072E+02  0.16969220000E+01  0.48046069276E+02  0.00000000000E+00 0. -1.
        -12    1    3    3    0    0 -0.10819350952E+02 -0.34523003848E+02  0.60992558701E+02  0.70915360583E+02  0.00000000000E+00 0.  1.
          5    1    4    4  501    0 -0.14577817087E+02 -0.21689767309E+02 -0.70117366851E+00  0.26474946675E+02  0.41800000000E+01 0. -1.
         -5    1    4    4    0  501  0.70766075933E+02  0.22401441574E+01  0.23740261135E+03  0.24777071664E+03  0.41800000000E+01 0. -1.
</event>
<event>
11    1  0.8037748E-009  0.2035343E+03  0.7561462E-02  0.1052052E+00
         22   -1    0    0    0    0  0.00000000000E+00  0.00000000000E+00  0.15160214071E+04  0.15160214071E+04  0.00000000000E+00 0. -1.
         22   -1    0    0    0    0 -0.00000000000E+00 -0.00000000000E+00 -0.32012240685E+03  0.32012240685E+03  0.00000000000E+00 0.  1.
         24    2    1    2    0    0  0.44080695941E+02 -0.15025758054E+03 -0.24065603536E+03  0.29824910330E+03  0.80726402144E+02 0.  0.
         25    2    1    2    0    0 -0.81538678888E+02  0.18562235444E+03  0.24719411997E+03  0.34330169505E+03  0.12508759433E+03 0.  0.
        -24    2    1    2    0    0  0.37457982947E+02 -0.35364773899E+02  0.11893609157E+04  0.11945930156E+04  0.99092469668E+02 0.  0.
        -11    1    3    3    0    0  0.41885699387E+02 -0.14899735288E+03 -0.17938291091E+03  0.23692372550E+03  0.00000000000E+00 0.  1.
         12    1    3    3    0    0  0.21949965544E+01 -0.12602276651E+01 -0.61273124443E+02  0.61325377803E+02  0.00000000000E+00 0. -1.
         13    1    5    5    0    0  0.62045604598E+02 -0.42943975990E+02  0.10609402639E+04  0.10636202732E+04  0.00000000000E+00 0. -1.
        -14    1    5    5    0    0 -0.24587621650E+02  0.75792020917E+01  0.12842065180E+03  0.13097274240E+03  0.00000000000E+00 0.  1.
          5    1    4    4  501    0 -0.34201056346E+02  0.56607937016E+01  0.10025378879E+03  0.10616049834E+03  0.41800000000E+01 0. -1.
         -5    1    4    4    0  501 -0.47337622543E+02  0.17996156074E+03  0.14694033118E+03  0.23714119672E+03  0.41800000000E+01 0. -1.
</event>
<event>
11    1  0.9719926E-009  0.1715867E+03  0.7561462E-02  0.1076659E+00
         22   -1    0    0    0    0  0.00000000000E+00  0.00000000000E+00  0.21324407359E+04  0.21324407359E+04  0.00000000000E+00 0.  1.
         22   -1    0    0    0    0 -0.00000000000E+00 -0.00000000000E+00 -0.28393189402E+03  0.28393189402E+03  0.00000000000E+00 0.  1.
         24    2    1    2    0    0 -0.89891338972E+02  0.69083778816E+01 -0.17561257945E+03  0.21329506116E+03  0.80788777357E+02 0.  0.
         25    2    1    2    0    0  0.19974654983E+03 -0.40632416741E+02  0.77649258462E+02  0.25144832820E+03  0.12508867636E+03 0.  0.
        -24    2    1    2    0    0 -0.10985521086E+03  0.33724038860E+02  0.19464721629E+04  0.19516292406E+04  0.83050187876E+02 0.  0.
        -13    1    3    3    0    0 -0.90555051886E+02 -0.11556359937E+02 -0.17162397272E+03  0.19439278507E+03  0.00000000000E+00 0.  1.
         14    1    3    3    0    0  0.66371291430E+00  0.18464737818E+02 -0.39886067298E+01  0.18902276084E+02  0.00000000000E+00 0. -1.
         11    1    5    5    0    0 -0.10076371911E+02  0.18292547538E+02  0.89095755132E+02  0.91510677786E+02  0.00000000000E+00 0. -1.
        -12    1    5    5    0    0 -0.99778838951E+02  0.15431491322E+02  0.18573764078E+04  0.18601185628E+04  0.00000000000E+00 0.  1.
          5    1    4    4  501    0  0.14523612809E+03 -0.35446245084E+02 -0.79267637324E+01  0.14976740359E+03  0.41800000000E+01 0. -1.
         -5    1    4    4    0  501  0.54510421741E+02 -0.51861716573E+01  0.85576022194E+02  0.10168092461E+03  0.41800000000E+01 0. -1.
</event>
<event>
11    1  0.8037748E-009  0.1837926E+03  0.7561462E-02  0.1066616E+00
         22   -1    0    0    0    0  0.00000000000E+00  0.00000000000E+00  0.16237035399E+03  0.16237035399E+03  0.00000000000E+00 0.  1.
         22   -1    0    0    0    0 -0.00000000000E+00 -0.00000000000E+00 -0.11489924933E+04  0.11489924933E+04  0.00000000000E+00 0.  1.
        -24    2    1    2    0    0  0.78365253105E+02 -0.85544858621E+02 -0.63114075799E+03  0.64684782666E+03  0.81329076730E+02 0.  0.
         25    2    1    2    0    0 -0.11030292763E+03  0.18527399594E+03 -0.44065223044E+03  0.50627803400E+03  0.12509944087E+03 0.  0.
         24    2    1    2    0    0  0.31937674530E+02 -0.99729137318E+02  0.85170849165E+02  0.15823698658E+03  0.82576961015E+02 0.  0.
        -11    1    5    5    0    0  0.59167340549E+02 -0.54593406863E+02  0.55004249139E+02  0.97502213738E+02  0.00000000000E+00 0.  1.
         12    1    5    5    0    0 -0.27229666019E+02 -0.45135730455E+02  0.30166600026E+02  0.60734772844E+02  0.00000000000E+00 0. -1.
         11    1    3    3    0    0  0.20503012129E+02  0.66766044445E+01 -0.23600407059E+03  0.23698707114E+03  0.00000000000E+00 0. -1.
        -12    1    3    3    0    0  0.57862240975E+02 -0.92221463066E+02 -0.39513668740E+03  0.40986075552E+03  0.00000000000E+00 0.  1.
          5    1    4    4  501    0 -0.78014035338E+02  0.13949662599E+03 -0.18494969505E+03  0.24447773001E+03  0.41800000000E+01 0. -1.
         -5    1    4    4    0  501 -0.32288892297E+02  0.45777369952E+02 -0.25570253539E+03  0.26180030399E+03  0.41800000000E+01 0. -1.
</event>
<event>
11    1  0.8037748E-009  0.1446581E+03  0.7561462E-02  0.1102466E+00
         22   -1    0    0    0    0  0.00000000000E+00  0.00000000000E+00  0.75791873327E+03  0.75791873327E+03  0.00000000000E+00 0.  1.
         22   -1    0    0    0    0 -0.00000000000E+00 -0.00000000000E+00 -0.10690940918E+03  0.10690940918E+03  0.00000000000E+00 0.  1.
        -24    2    1    2    0    0 -0.12718378904E+02  0.49458095131E+02 -0.41326306676E+02  0.10395616308E+03  0.80567734749E+02 0.  0.
         25    2    1    2    0    0  0.18089450018E+02 -0.11358905738E+03  0.22353300390E+03  0.28079200878E+03  0.12508975259E+03 0.  0.
         24    2    1    2    0    0 -0.53710711144E+01  0.64130962250E+02  0.46880262687E+03  0.48007997059E+03  0.80989175053E+02 0.  0.
        -13    1    5    5    0    0 -0.20250125735E+01  0.79463683117E+02  0.44141113528E+03  0.44851127964E+03  0.00000000000E+00 0.  1.
         14    1    5    5    0    0 -0.33460585409E+01 -0.15332720867E+02  0.27391491584E+02  0.31568690947E+02  0.00000000000E+00 0. -1.
         11    1    3    3    0    0 -0.15349441709E+02 -0.87960483667E+01  0.14766080810E+02  0.23043718670E+02  0.00000000000E+00 0. -1.
        -12    1    3    3    0    0  0.26310628055E+01  0.58254143498E+02 -0.56092387486E+02  0.80912444408E+02  0.00000000000E+00 0.  1.
          5    1    4    4  501    0 -0.47091559726E+02 -0.82819584449E+02  0.10364244150E+03  0.14084007471E+03  0.41800000000E+01 0.  1.
         -5    1    4    4    0  501  0.65181009745E+02 -0.30769472932E+02  0.11989056241E+03  0.13995193407E+03  0.41800000000E+01 0.  1.
</event>
<event>
11    1  0.8037748E-009  0.1445715E+03  0.7561462E-02  0.1102558E+00
         22   -1    0    0    0    0  0.00000000000E+00  0.00000000000E+00  0.94605375587E+03  0.94605375587E+03  0.00000000000E+00 0.  1.
         22   -1    0    0    0    0 -0.00000000000E+00 -0.00000000000E+00 -0.50573106627E+03  0.50573106627E+03  0.00000000000E+00 0. -1.
         24    2    1    2    0    0  0.18955536300E+02 -0.65824997410E+02 -0.33164189334E+03  0.34489673716E+03  0.65384793708E+02 0.  0.
         25    2    1    2    0    0 -0.31589765619E+02  0.89410764387E+02 -0.12839892570E+03  0.20280248170E+03  0.12510141639E+03 0.  0.
        -24    2    1    2    0    0  0.12634229319E+02 -0.23585766977E+02  0.90036350864E+03  0.90408560328E+03  0.77462366520E+02 0.  0.
        -13    1    3    3    0    0  0.21202092538E+02 -0.22980220902E+02 -0.43460110911E+02  0.53538775865E+02  0.00000000000E+00 0.  1.
         14    1    3    3    0    0 -0.22465562386E+01 -0.42844776508E+02 -0.28818178242E+03  0.29135796129E+03  0.00000000000E+00 0. -1.
         11    1    5    5    0    0  0.13645611785E+02 -0.30826153366E+02  0.15229946109E+03  0.15598583366E+03  0.00000000000E+00 0. -1.
        -12    1    5    5    0    0 -0.10113824654E+01  0.72403863888E+01  0.74806404754E+03  0.74809976963E+03  0.00000000000E+00 0.  1.
          5    1    4    4  501    0  0.33437335397E+00 -0.23203452074E+02  0.61967595187E+01  0.24379996354E+02  0.41800000000E+01 0.  1.
         -5    1    4    4    0  501 -0.31924138973E+02  0.11261421646E+03 -0.13459568522E+03  0.17842248535E+03  0.41800000000E+01 0.  1.
</event>
<event>
11    1  0.8037748E-009  0.1777215E+03  0.7561462E-02  0.1071501E+00
         22   -1    0    0    0    0  0.00000000000E+00  0.00000000000E+00  0.15326994599E+03  0.15326994599E+03  0.00000000000E+00 0.  1.
         22   -1    0    0    0    0 -0.00000000000E+00 -0.00000000000E+00 -0.86329457896E+03  0.86329457896E+03  0.00000000000E+00 0. -1.
        -24    2    1    2    0    0  0.88738579293E+02  0.92977419213E+02 -0.66029937045E+03  0.67758240797E+03  0.81260845666E+02 0.  0.
         25    2    1    2    0    0 -0.69476575130E+02 -0.93076050024E+02 -0.13720826480E+03  0.21900606580E+03  0.12508958130E+03 0.  0.
         24    2    1    2    0    0 -0.19262004163E+02  0.98630811566E-01  0.87483002277E+02  0.11997605117E+03  0.79811920386E+02 0.  0.
        -11    1    5    5    0    0  0.30433762993E+02  0.82884435953E+01  0.29713349287E+02  0.43333536124E+02  0.00000000000E+00 0.  1.
         12    1    5    5    0    0 -0.49695767156E+02 -0.81898127837E+01  0.57769652990E+02  0.76642515051E+02  0.00000000000E+00 0. -1.
         13    1    3    3    0    0  0.10090333175E+03  0.71052341006E+02 -0.59435778090E+03  0.60703466889E+03  0.00000000000E+00 0. -1.
        -14    1    3    3    0    0 -0.12164752462E+02  0.21925078207E+02 -0.65941589552E+02  0.70547739081E+02  0.00000000000E+00 0.  1.
          5    1    4    4  501    0  0.22543072366E+02 -0.25754593688E+02 -0.88445315204E+02  0.94929107177E+02  0.41800000000E+01 0.  1.
         -5    1    4    4    0  501 -0.92019647496E+02 -0.67321456336E+02 -0.48762949598E+02  0.12407695863E+03  0.41800000000E+01 0.  1.
</event>
<event>
11    1  0.8037748E-009  0.1345639E+03  0.7561462E-02  0.1113785E+00
         22   -1    0    0    0    0  0.00000000000E+00  0.00000000000E+00  0.91123224966E+03  0.91123224966E+03  0.00000000000E+00 0.  1.
         22   -1    0    0    0    0 -0.00000000000E+00 -0.00000000000E+00 -0.73765446586E+03  0.73765446586E+03  0.00000000000E+00 0.  1.
         24    2    1    2    0    0 -0.41096302648E+02  0.27401120178E+02 -0.69679087616E+03  0.70302271850E+03  0.79269730333E+02 0.  0.
         25    2    1    2    0    0  0.56035097918E+02 -0.21500478212E+02  0.99802315201E+02  0.17090914838E+03  0.12508889686E+03 0.  0.
        -24    2    1    2    0    0 -0.14938795270E+02 -0.59006419655E+01  0.77056634476E+03  0.77495484864E+03  0.80774628338E+02 0.  0.
        -13    1    3    3    0    0 -0.29858808167E+02  0.27893727688E+02 -0.68669053049E+03  0.68790514836E+03  0.00000000000E+00 0.  1.
         14    1    3    3    0    0 -0.11237494481E+02 -0.49260750997E+00 -0.10100345668E+02  0.15117570141E+02  0.00000000000E+00 0. -1.
         13    1    5    5    0    0 -0.16256745817E+02 -0.27468966555E+02  0.12447776908E+03  0.12850502287E+03  0.00000000000E+00 0. -1.
        -14    1    5    5    0    0  0.13179505463E+01  0.21568324589E+02  0.64608857567E+03  0.64644982577E+03  0.00000000000E+00 0.  1.
          5    1    4    4  501    0  0.84009718244E+02  0.17665592532E+02  0.42264002956E+02  0.95777994680E+02  0.41800000000E+01 0.  1.
         -5    1    4    4    0  501 -0.27974620326E+02 -0.39166070744E+02  0.57538312245E+02  0.75131153698E+02  0.41800000000E+01 0.  1.
</event>
<event>
11    1  0.8037748E-009  0.1429262E+03  0.7561462E-02  0.1104334E+00
         22   -1    0    0    0    0  0.00000000000E+00  0.00000000000E+00  0.10371680326E+03  0.10371680326E+03  0.00000000000E+00 0. -1.
         22   -1    0    0    0    0 -0.00000000000E+00 -0.00000000000E+00 -0.17623732060E+04  0.17623732060E+04  0.00000000000E+00 0.  1.
        -24    2    1    2    0    0  0.38555800691E+02 -0.22574449987E+01 -0.15273984241E+04  0.15299909520E+04  0.80216715537E+02 0.  0.
         25    2    1    2    0    0 -0.93382747017E+02  0.34481904847E+02 -0.16383265467E+03  0.22890541393E+03  0.12508881080E+03 0.  0.
         24    2    1    2    0    0  0.54826946326E+02 -0.32224459848E+02  0.32574676021E+02  0.10719364333E+03  0.79905930919E+02 0.  0.
        -11    1    5    5    0    0 -0.14969918126E+02 -0.16331264629E+02 -0.95615329916E+01  0.24129475051E+02  0.00000000000E+00 0.  1.
         12    1    5    5    0    0  0.69796864452E+02 -0.15893195219E+02  0.42136209013E+02  0.83064168277E+02  0.00000000000E+00 0. -1.
         13    1    3    3    0    0  0.16446060318E+02 -0.15760830740E+02 -0.10894209154E+03  0.11129805027E+03  0.00000000000E+00 0. -1.
        -14    1    3    3    0    0  0.22109740373E+02  0.13503385741E+02 -0.14184563326E+04  0.14186929017E+04  0.00000000000E+00 0.  1.
          5    1    4    4  501    0 -0.69971018523E+01  0.10579640609E+02 -0.13353244762E+03  0.13419864082E+03  0.41800000000E+01 0. -1.
         -5    1    4    4    0  501 -0.86385645165E+02  0.23902264238E+02 -0.30300207050E+02  0.94706773113E+02  0.41800000000E+01 0. -1.
</event>
<event>
11    1  0.8037748E-009  0.1486407E+03  0.7561462E-02  0.1098276E+00
         22   -1    0    0    0    0  0.00000000000E+00  0.00000000000E+00  0.16017481804E+04  0.16017481804E+04  0.00000000000E+00 0. -1.
         22   -1    0    0    0    0 -0.00000000000E+00 -0.00000000000E+00 -0.47087650637E+03  0.47087650637E+03  0.00000000000E+00 0. -1.
        -24    2    1    2    0    0  0.21842834900E+01  0.80578700504E+02 -0.40231864671E+03  0.41816543650E+03  0.80649493015E+02 0.  0.
         25    2    1    2    0    0  0.43130526571E+02 -0.76558114440E+02  0.39393407777E+02  0.15786403508E+03  0.12509126982E+03 0.  0.
         24    2    1    2    0    0 -0.45314810061E+02 -0.40205860646E+01  0.14937969130E+04  0.14965952152E+04  0.79362609946E+02 0.  0.
        -13    1    5    5    0    0 -0.16312982734E+02 -0.16471181732E+02  0.10896529624E+03  0.11140399014E+03  0.00000000000E+00 0.  1.
         14    1    5    5    0    0 -0.29001827327E+02  0.12450595667E+02  0.13848316167E+04  0.13851912251E+04  0.00000000000E+00 0. -1.
         11    1    3    3    0    0 -0.36955331378E+02  0.37556846372E+02 -0.24071358962E+03  0.24641275424E+03  0.00000000000E+00 0. -1.
        -12    1    3    3    0    0  0.39139614868E+02  0.43021854132E+02 -0.16160505709E+03  0.17175268225E+03  0.00000000000E+00 0.  1.
          5    1    4    4  501    0  0.52017805064E+02 -0.10799055539E+03  0.31011179156E+02  0.12388291944E+03  0.41800000000E+01 0. -1.
         -5    1    4    4    0  501 -0.88872784926E+01  0.31432440951E+02  0.83822286207E+01  0.33981115635E+02  0.41800000000E+01 0. -1.
</event>
<event>
11    1  0.8037748E-009  0.2056771E+03  0.7561462E-02  0.1050580E+00
         22   -1    0    0    0    0  0.00000000000E+00  0.00000000000E+00  0.11335985164E+04  0.11335985164E+04  0.00000000000E+00 0. -1.
         22   -1    0    0    0    0 -0.00000000000E+00 -0.00000000000E+00 -0.91991508447E+03  0.91991508447E+03  0.00000000000E+00 0.  1.
         24    2    1    2    0    0 -0.15864241629E+02  0.15936680781E+01 -0.84609984575E+03  0.84994706500E+03  0.79188701185E+02 0.  0.
         25    2    1    2    0    0  0.15784512531E+03 -0.78465886474E+02  0.12217595116E+03  0.24828709549E+03  0.12509012679E+03 0.  0.
        -24    2    1    2    0    0 -0.14198088368E+03  0.76872218396E+02  0.93760732654E+03  0.95527944039E+03  0.85926719768E+02 0.  0.
        -11    1    3    3    0    0 -0.45951302751E+02 -0.10375540049E+02 -0.57330882244E+03  0.57524097555E+03  0.00000000000E+00 0.  1.
         12    1    3    3    0    0  0.30087061123E+02  0.11969208127E+02 -0.27279102330E+03  0.27470608946E+03  0.00000000000E+00 0. -1.
         11    1    5    5    0    0 -0.10203959885E+03  0.92818127814E+02  0.76901085249E+03  0.78128418379E+03  0.00000000000E+00 0. -1.
        -12    1    5    5    0    0 -0.39941284836E+02 -0.15945909417E+02  0.16859647405E+03  0.17399525661E+03  0.00000000000E+00 0.  1.
          5    1    4    4  501    0  0.10028134040E+03 -0.91729177039E+02  0.30826242367E+02  0.13942137128E+03  0.41800000000E+01 0. -1.
         -5    1    4    4    0  501  0.57563784917E+02  0.13263290564E+02  0.91349708798E+02  0.10886572421E+03  0.41800000000E+01 0. -1.
</event>
<event>
11    1  0.8037748E-009  0.4107782E+03  0.7561462E-02  0.9618481E-01
         22   -1    0    0    0    0  0.00000000000E+00  0.00000000000E+00  0.12385169021E+04  0.12385169021E+04  0.00000000000E+00 0.  1.
         22   -1    0    0    0    0 -0.00000000000E+00 -0.00000000000E+00 -0.26966340987E+03  0.26966340987E+03  0.00000000000E+00 0. -1.
         24    2    1    2    0    0  0.17983497037E+03  0.34563089790E+03 -0.25306406079E+01  0.40003881413E+03  0.90682492901E+02 0.  0.
         25    2    1    2    0    0 -0.24502078725E+03 -0.32032575020E+03  0.80778664291E+03  0.91148787761E+03  0.12508844129E+03 0.  0.
        -24    2    1    2    0    0  0.65185816880E+02 -0.25305147697E+02  0.16359748990E+03  0.19665362021E+03  0.83779271987E+02 0.  0.
        -11    1    3    3    0    0  0.72719420780E+02  0.57760519091E+02 -0.17814379164E+01  0.92884687895E+02  0.00000000000E+00 0.  1.
         12    1    3    3    0    0  0.10711554959E+03  0.28787037881E+03 -0.74920269153E+00  0.30715412623E+03  0.00000000000E+00 0. -1.
         11    1    5    5    0    0  0.61471915653E+02 -0.37642666112E+02  0.64513734663E+02  0.96735663983E+02  0.00000000000E+00 0. -1.
        -12    1    5    5    0    0  0.37139012275E+01  0.12337518415E+02  0.99083755241E+02  0.99917956223E+02  0.00000000000E+00 0.  1.
          5    1    4    4  501    0 -0.69871941134E+02 -0.17024353132E+03  0.44497062036E+03  0.48154052114E+03  0.41800000000E+01 0. -1.
         -5    1    4    4    0  501 -0.17514884611E+03 -0.15008221888E+03  0.36281602254E+03  0.42994735647E+03  0.41800000000E+01 0. -1.
</event>
<event>
11    1  0.8037748E-009  0.1549210E+03  0.7561462E-02  0.1091954E+00
         22   -1    0    0    0    0  0.00000000000E+00  0.00000000000E+00  0.52181406202E+03  0.52181406202E+03  0.00000000000E+00 0.  1.
         22   -1    0    0    0    0 -0.00000000000E+00 -0.00000000000E+00 -0.16156234229E+04  0.16156234229E+04  0.00000000000E+00 0.  1.
        -24    2    1    2    0    0 -0.24675487901E+02  0.44635654034E+02 -0.15296142149E+04  0.15322895680E+04  0.74769327947E+02 0.  0.
         25    2    1    2    0    0 -0.59300094809E+02 -0.81524376913E+02  0.88406004817E+01  0.16089900166E+03  0.12509039629E+03 0.  0.
         24    2    1    2    0    0  0.83975582711E+02  0.36888722879E+02  0.42696425351E+03  0.44424891530E+03  0.81522687653E+02 0.  0.
        -13    1    5    5    0    0 -0.46604952596E+01  0.12430464304E+02  0.18383239764E+03  0.18431111491E+03  0.00000000000E+00 0.  1.
         14    1    5    5    0    0  0.88636077970E+02  0.24458258576E+02  0.24313185588E+03  0.25993780039E+03  0.00000000000E+00 0. -1.
         11    1    3    3    0    0  0.25814435551E+02  0.50890970121E+01 -0.47131036340E+03  0.47204421682E+03  0.00000000000E+00 0. -1.
        -12    1    3    3    0    0 -0.50489923452E+02  0.39546557022E+02 -0.10583038515E+04  0.10602453511E+04  0.00000000000E+00 0.  1.
          5    1    4    4  501    0 -0.16069135213E+02 -0.39107483356E+02  0.65358609244E+02  0.77954041353E+02  0.41800000000E+01 0.  1.
         -5    1    4    4    0  501 -0.43230959596E+02 -0.42416893558E+02 -0.56518008762E+02  0.82944960312E+02  0.41800000000E+01 0.  1.
</event>
<event>
11    1  0.8037748E-009  0.2861643E+03  0.7561462E-02  0.1006223E+00
         22   -1    0    0    0    0  0.00000000000E+00  0.00000000000E+00  0.11876579496E+04  0.11876579496E+04  0.00000000000E+00 0. -1.
         22   -1    0    0    0    0 -0.00000000000E+00 -0.00000000000E+00 -0.12699784192E+03  0.12699784192E+03  0.00000000000E+00 0.  1.
        -24    2    1    2    0    0  0.46023486039E+00 -0.20148972461E+02  0.97658685718E+02  0.12740780458E+03  0.79305339441E+02 0.  0.
         25    2    1    2    0    0 -0.14756215257E+03 -0.19483393948E+03  0.11708816741E+03  0.29848391420E+03  0.12509258668E+03 0.  0.
         24    2    1    2    0    0  0.14710191771E+03  0.21498291194E+03  0.84591325451E+03  0.88876407270E+03  0.80471834482E+02 0.  0.
        -11    1    5    5    0    0 -0.51338786408E+01  0.30026916873E+02  0.14120480664E+03  0.14445334840E+03  0.00000000000E+00 0.  1.
         12    1    5    5    0    0  0.15223579636E+03  0.18495599507E+03  0.70470844788E+03  0.74431072430E+03  0.00000000000E+00 0. -1.
         13    1    3    3    0    0 -0.32644325956E+02  0.99921739904E+00  0.75605058652E+02  0.82357606487E+02  0.00000000000E+00 0. -1.
        -14    1    3    3    0    0  0.33104560817E+02 -0.21148189860E+02  0.22053627066E+02  0.45050198091E+02  0.00000000000E+00 0.  1.
          5    1    4    4  501    0 -0.14380139378E+03 -0.21080875022E+03  0.99115391188E+02  0.27378915828E+03  0.41800000000E+01 0.  1.
         -5    1    4    4    0  501 -0.37607587988E+01  0.15974810737E+02  0.17972776222E+02  0.24694755920E+02  0.41800000000E+01 0.  1.
</event>
<event>
11    1  0.8037748E-009  0.4979468E+03  0.7561462E-02  0.9398121E-01
         22   -1    0    0    0    0  0.00000000000E+00  0.00000000000E+00  0.11437596470E+04  0.11437596470E+04  0.00000000000E+00 0.  1.
         22   -1    0    0    0    0 -0.00000000000E+00 -0.00000000000E+00 -0.13604696218E+04  0.13604696218E+04  0.00000000000E+00 0.  1.
         24    2    1    2    0    0  0.38590973115E+03  0.57851083103E+02 -0.92089835992E+03  0.10034647889E+04  0.81330958164E+02 0.  0.
         25    2    1    2    0    0 -0.73320120646E+03 -0.28688464507E+03  0.16353367348E+03  0.81380467357E+03  0.12509186878E+03 0.  0.
        -24    2    1    2    0    0  0.34729147530E+03  0.22903356196E+03  0.54065471156E+03  0.68695980636E+03  0.80861097540E+02 0.  0.
        -13    1    3    3    0    0  0.24786580628E+03  0.27091064190E+02 -0.48735464808E+03  0.54743578316E+03  0.00000000000E+00 0.  1.
         14    1    3    3    0    0  0.13804392487E+03  0.30760018913E+02 -0.43354371184E+03  0.45602900569E+03  0.00000000000E+00 0. -1.
         13    1    5    5    0    0  0.27795760652E+03  0.20049339570E+03  0.39364166190E+03  0.52193082945E+03  0.00000000000E+00 0. -1.
        -14    1    5    5    0    0  0.69333868787E+02  0.28540166263E+02  0.14701304966E+03  0.16502897691E+03  0.00000000000E+00 0.  1.
          5    1    4    4  501    0 -0.54981493632E+03 -0.15909947686E+03  0.13806913027E+03  0.58880358768E+03  0.41800000000E+01 0. -1.
         -5    1    4    4    0  501 -0.18338627014E+03 -0.12778516820E+03  0.25464543214E+02  0.22500108588E+03  0.41800000000E+01 0. -1.
</event>
<event>
11    1  0.8037748E-009  0.1622572E+03  0.7561462E-02  0.1084973E+00
         22   -1    0    0    0    0  0.00000000000E+00  0.00000000000E+00  0.61827062547E+03  0.61827062547E+03  0.00000000000E+00 0. -1.
         22   -1    0    0    0    0 -0.00000000000E+00 -0.00000000000E+00 -0.45247426896E+03  0.45247426896E+03  0.00000000000E+00 0. -1.
         24    2    1    2    0    0 -0.73595033095E+02 -0.10443783532E+01 -0.40153399415E+03  0.41597382545E+03  0.79920932047E+02 0.  0.
         25    2    1    2    0    0 -0.23181914994E+02  0.67324874864E+02  0.12276138618E+03  0.18917618449E+03  0.12508889192E+03 0.  0.
        -24    2    1    2    0    0  0.96776948089E+02 -0.66280496511E+02  0.44456896448E+03  0.46559488449E+03  0.73335873791E+02 0.  0.
        -11    1    3    3    0    0 -0.13440307890E+02 -0.33409337702E+02 -0.87966482783E+02  0.95052237296E+02  0.00000000000E+00 0.  1.
         12    1    3    3    0    0 -0.60154725206E+02  0.32364959349E+02 -0.31356751137E+03  0.32092158816E+03  0.00000000000E+00 0. -1.
         13    1    5    5    0    0  0.62705561162E+02 -0.53803344865E+02  0.39838288726E+03  0.40686080197E+03  0.00000000000E+00 0. -1.
        -14    1    5    5    0    0  0.34071386927E+02 -0.12477151646E+02  0.46186077223E+02  0.58734082521E+02  0.00000000000E+00 0.  1.
          5    1    4    4  501    0 -0.60560278586E+02  0.18933609194E+02  0.15201775183E+02  0.65380389019E+02  0.41800000000E+01 0.  1.
         -5    1    4    4    0  501  0.37378363592E+02  0.48391265670E+02  0.10755961100E+03  0.12379579547E+03  0.41800000000E+01 0.  1.
</event>
<event>
11    1  0.8037748E-009  0.1573322E+03  0.7561462E-02  0.1089614E+00
         22   -1    0    0    0    0  0.00000000000E+00  0.00000000000E+00  0.68511838142E+02  0.68511838142E+02  0.00000000000E+00 0. -1.
         22   -1    0    0    0    0 -0.00000000000E+00 -0.00000000000E+00 -0.29063724880E+04  0.29063724880E+04  0.00000000000E+00 0. -1.
         24    2    1    2    0    0 -0.23889600920E+02  0.37741836591E+02 -0.23427192107E+04  0.23446347134E+04  0.83567218338E+02 0.  0.
         25    2    1    2    0    0  0.57182069495E+02 -0.12159309880E+03 -0.47897680380E+03  0.51295237609E+03  0.12508673315E+03 0.  0.
        -24    2    1    2    0    0 -0.33292468575E+02  0.83851262208E+02 -0.16164635343E+02  0.11729723661E+03  0.73197839053E+02 0.  0.
        -13    1    3    3    0    0 -0.42701033802E+02  0.23618567689E+02 -0.67980901933E+03  0.68155815437E+03  0.00000000000E+00 0.  1.
         14    1    3    3    0    0  0.18811432881E+02  0.14123268902E+02 -0.16629101914E+04  0.16630765591E+04  0.00000000000E+00 0. -1.
         13    1    5    5    0    0 -0.42758875530E+02  0.92823529013E+02 -0.94690157677E+01  0.10263620821E+03  0.00000000000E+00 0. -1.
        -14    1    5    5    0    0  0.94664069554E+01 -0.89722668055E+01 -0.66956195758E+01  0.14661028401E+02  0.00000000000E+00 0.  1.
          5    1    4    4  501    0  0.19758571465E+02 -0.13303729865E+03 -0.42735277415E+03  0.44803704083E+03  0.41800000000E+01 0. -1.
         -5    1    4    4    0  501  0.37423498030E+02  0.11444199849E+02 -0.51624029644E+02  0.64915335259E+02  0.41800000000E+01 0. -1.
</event>
<event>
11    1  0.8037748E-009  0.1508432E+03  0.7561462E-02  0.1096020E+00
         22   -1    0    0    0    0  0.00000000000E+00  0.00000000000E+00  0.54652176507E+03  0.54652176507E+03  0.00000000000E+00 0. -1.
         22   -1    0    0    0    0 -0.00000000000E+00 -0.00000000000E+00 -0.84205277544E+03  0.84205277544E+03  0.00000000000E+00 0.  1.
         24    2    1    2    0    0  0.20809882553E+02  0.52786899869E+02 -0.65002943365E+03  0.65746444159E+03  0.80633239632E+02 0.  0.
         25    2    1    2    0    0 -0.15020865109E+02  0.33178633240E+02 -0.15844122999E+03  0.20513130481E+03  0.12509508688E+03 0.  0.
        -24    2    1    2    0    0 -0.57890174448E+01 -0.85965533109E+02  0.51293965326E+03  0.52597879411E+03  0.78249717931E+02 0.  0.
        -11    1    3    3    0    0  0.36074071233E+02  0.36919056694E+02 -0.60641148820E+03  0.60860434470E+03  0.00000000000E+00 0.  1.
         12    1    3    3    0    0 -0.15264188680E+02  0.15867843175E+02 -0.43617945446E+02  0.48860096889E+02  0.00000000000E+00 0. -1.
         13    1    5    5    0    0  0.22952245322E+02 -0.73939990289E+02  0.26464270875E+03  0.27573482012E+03  0.00000000000E+00 0. -1.
        -14    1    5    5    0    0 -0.28741262766E+02 -0.12025542820E+02  0.24829694451E+03  0.25024397399E+03  0.00000000000E+00 0.  1.
          5    1    4    4  501    0 -0.20745249108E+02  0.20860379518E+02  0.13475642697E+02  0.32627996265E+02  0.41800000000E+01 0.  1.
         -5    1    4    4    0  501  0.57243839989E+01  0.12318253722E+02 -0.17191687268E+03  0.17250330855E+03  0.41800000000E+01 0.  1.
</event>
<event>
11    1  0.8037748E-009  0.1259964E+03  0.7561462E-02  0.1124288E+00
         22   -1    0    0    0    0  0.00000000000E+00  0.00000000000E+00  0.55774179832E+03  0.55774179832E+03  0.00000000000E+00 0.  1.
         22   -1    0    0    0    0 -0.00000000000E+00 -0.00000000000E+00 -0.14024966858E+04  0.14024966858E+04  0.00000000000E+00 0.  1.
         24    2    1    2    0    0  0.23938307016E+02  0.14352801852E+02 -0.13672539523E+04  0.13692196821E+04  0.67824202385E+02 0.  0.
         25    2    1    2    0    0 -0.84576512780E+01 -0.20702397618E+02  0.10286303686E+03  0.16349331408E+03  0.12509651580E+03 0.  0.
        -24    2    1    2    0    0 -0.15480655738E+02  0.63495957654E+01  0.41963602797E+03  0.42752548789E+03  0.80022988912E+02 0.  0.
        -13    1    3    3    0    0  0.24154458510E+02 -0.20927157300E+02 -0.92838032858E+03  0.92893025479E+03  0.00000000000E+00 0.  1.
         14    1    3    3    0    0 -0.21615149405E+00  0.35279959152E+02 -0.43887362371E+03  0.44028942734E+03  0.00000000000E+00 0. -1.
         11    1    5    5    0    0 -0.44864485046E+02 -0.12744701250E+02  0.23072850583E+03  0.23539518439E+03  0.00000000000E+00 0. -1.
        -12    1    5    5    0    0  0.29383829308E+02  0.19094297016E+02  0.18890752214E+03  0.19213030350E+03  0.00000000000E+00 0.  1.
          5    1    4    4  501    0 -0.81268133667E+01  0.28529154405E+02 -0.16576278841E+02  0.34237452691E+02  0.41800000000E+01 0. -1.
         -5    1    4    4    0  501 -0.33083791133E+00 -0.49231552023E+02  0.11943931570E+03  0.12925586138E+03  0.41800000000E+01 0. -1.
</event>
<event>
11    1  0.8037748E-009  0.1484575E+03  0.7561462E-02  0.1098465E+00
         22   -1    0    0    0    0  0.00000000000E+00  0.00000000000E+00  0.73535742885E+03  0.73535742885E+03  0.00000000000E+00 0.  1.
         22   -1    0    0    0    0 -0.00000000000E+00 -0.00000000000E+00 -0.70660013433E+03  0.70660013433E+03  0.00000000000E+00 0.  1.
         24    2    1    2    0    0 -0.39690807444E+01  0.47852745226E+02 -0.66793163403E+03  0.67441272705E+03  0.79963865847E+02 0.  0.
         25    2    1    2    0    0 -0.14230982110E+02 -0.11775498557E+03  0.22300878079E+03  0.28186767280E+03  0.12509081174E+03 0.  0.
        -24    2    1    2    0    0  0.18200062855E+02  0.69902240345E+02  0.47368014775E+03  0.48567716334E+03  0.79321239999E+02 0.  0.
        -13    1    3    3    0    0  0.31373311392E+02  0.80829815071E+01 -0.39613544903E+03  0.39745806475E+03  0.00000000000E+00 0.  1.
         14    1    3    3    0    0 -0.35342392137E+02  0.39769763719E+02 -0.27179618500E+03  0.27695466229E+03  0.00000000000E+00 0. -1.
         13    1    5    5    0    0  0.20889822955E+02 -0.12557135529E+02  0.12671928234E+03  0.12904201980E+03  0.00000000000E+00 0. -1.
        -14    1    5    5    0    0 -0.26897601007E+01  0.82459375874E+02  0.34696086541E+03  0.35663514354E+03  0.00000000000E+00 0.  1.
          5    1    4    4  501    0 -0.77058329744E+01 -0.45752779632E+02  0.20078201110E+03  0.20611546542E+03  0.41800000000E+01 0. -1.
         -5    1    4    4    0  501 -0.65251491358E+01 -0.72002205939E+02  0.22226769689E+02  0.75752207375E+02  0.41800000000E+01 0. -1.
</event>
<event>
11    1  0.8037748E-009  0.1284542E+03  0.7561462E-02  0.1121183E+00
         22   -1    0    0    0    0  0.00000000000E+00  0.00000000000E+00  0.18213724801E+03  0.18213724801E+03  0.00000000000E+00 0. -1.
         22   -1    0    0    0    0 -0.00000000000E+00 -0.00000000000E+00 -0.22733818776E+04  0.22733818776E+04  0.00000000000E+00 0. -1.
         24    2    1    2    0    0 -0.18101180390E+02 -0.67035515548E+00 -0.19636187294E+04  0.19652530114E+04  0.78056274367E+02 0.  0.
         25    2    1    2    0    0  0.23857809409E+02  0.29121303186E+02 -0.28372917419E+03  0.31235918872E+03  0.12509505635E+03 0.  0.
        -24    2    1    2    0    0 -0.57566290189E+01 -0.28450948030E+02  0.15610327399E+03  0.17790692558E+03  0.80249902154E+02 0.  0.
        -11    1    3    3    0    0 -0.32143815384E+01  0.15704610356E+02 -0.84678239099E+02  0.86182197768E+02  0.00000000000E+00 0.  1.
         12    1    3    3    0    0 -0.14886798852E+02 -0.16374965511E+02 -0.18789404903E+04  0.18790708136E+04  0.00000000000E+00 0. -1.
         13    1    5    5    0    0 -0.52557613887E+01 -0.56189997825E+02  0.11770025028E+03  0.13053079254E+03  0.00000000000E+00 0. -1.
        -14    1    5    5    0    0 -0.50086763013E+00  0.27739049795E+02  0.38403023708E+02  0.47376133040E+02  0.00000000000E+00 0.  1.
          5    1    4    4  501    0  0.63980078874E+02  0.34295256105E+02 -0.96859281290E+02  0.12111485399E+03  0.41800000000E+01 0. -1.
         -5    1    4    4    0  501 -0.40122269465E+02 -0.51739529189E+01 -0.18686989290E+03  0.19124433473E+03  0.41800000000E+01 0. -1.
</event>
<event>
11    1  0.8037748E-009  0.1570380E+03  0.7561462E-02  0.1089897E+00
         22   -1    0    0    0    0  0.00000000000E+00  0.00000000000E+00  0.16770189473E+04  0.16770189473E+04  0.00000000000E+00 0. -1.
         22   -1    0    0    0    0 -0.00000000000E+00 -0.00000000000E+00 -0.22959252350E+03  0.22959252350E+03  0.00000000000E+00 0.  1.
        -24    2    1    2    0    0 -0.89032739148E+02  0.18906593233E+02 -0.16059328786E+03  0.20170920014E+03  0.81314878142E+02 0.  0.
         25    2    1    2    0    0  0.65171890375E+02  0.75130178479E+02  0.93565733070E+02  0.18518772130E+03  0.12509207289E+03 0.  0.
         24    2    1    2    0    0  0.23860848773E+02 -0.94036771712E+02  0.15144539786E+04  0.15197145494E+04  0.80927150803E+02 0.  0.
        -13    1    5    5    0    0  0.26988534178E+02 -0.71483965942E+02  0.58342818156E+03  0.58841038519E+03  0.00000000000E+00 0.  1.
         14    1    5    5    0    0 -0.31276854054E+01 -0.22552805771E+02  0.93102579706E+03  0.93130416420E+03  0.00000000000E+00 0. -1.
         13    1    3    3    0    0 -0.61820377884E+02  0.31774459075E+02 -0.46296106514E+02  0.83514698404E+02  0.00000000000E+00 0. -1.
        -14    1    3    3    0    0 -0.27212361264E+02 -0.12867865842E+02 -0.11429718134E+03  0.11819450173E+03  0.00000000000E+00 0.  1.
          5    1    4    4  501    0  0.90291303152E+02  0.34312398626E+02  0.22328084831E+02  0.99226387099E+02  0.41800000000E+01 0.  1.
         -5    1    4    4    0  501 -0.25119412777E+02  0.40817779853E+02  0.71237648239E+02  0.85961334197E+02  0.41800000000E+01 0.  1.
</event>
<event>
11    1  0.8037748E-009  0.2350239E+03  0.7561462E-02  0.1032194E+00
         22   -1    0    0    0    0  0.00000000000E+00  0.00000000000E+00  0.39048986920E+03  0.39048986920E+03  0.00000000000E+00 0.  1.
         22   -1    0    0    0    0 -0.00000000000E+00 -0.00000000000E+00 -0.44068559190E+03  0.44068559190E+03  0.00000000000E+00 0.  1.
         24    2    1    2    0    0 -0.14800653310E+03  0.11802893407E+03 -0.24294793302E+03  0.31925329631E+03  0.84036931927E+02 0.  0.
         25    2    1    2    0    0  0.12449955577E+03 -0.21016302740E+03 -0.91261345505E+01  0.27458774408E+03  0.12508599199E+03 0.  0.
        -24    2    1    2    0    0  0.23506977324E+02  0.92134093323E+02  0.20187834487E+03  0.23733442072E+03  0.80817646563E+02 0.  0.
        -13    1    3    3    0    0 -0.13762154370E+03  0.11615891085E+03 -0.17715385576E+03  0.25261842860E+03  0.00000000000E+00 0.  1.
         14    1    3    3    0    0 -0.10384989397E+02  0.18700232269E+01 -0.65794077260E+02  0.66634867706E+02  0.00000000000E+00 0. -1.
         11    1    5    5    0    0  0.54696754520E+01 -0.13338567040E+02  0.46437646007E+02  0.48623962065E+02  0.00000000000E+00 0. -1.
        -12    1    5    5    0    0  0.18037301872E+02  0.10547266036E+03  0.15544069886E+03  0.18871045865E+03  0.00000000000E+00 0.  1.
          5    1    4    4  501    0  0.47646232458E+02 -0.12203589686E+03 -0.63406160752E+02  0.14560472936E+03  0.41800000000E+01 0. -1.
         -5    1    4    4    0  501  0.76853323317E+02 -0.88127130539E+02  0.54280026201E+02  0.12898301472E+03  0.41800000000E+01 0. -1.
</event>
<event>
11    1  0.8037748E-009  0.1435955E+03  0.7561462E-02  0.1103609E+00
         22   -1    0    0    0    0  0.00000000000E+00  0.00000000000E+00  0.13945078047E+03  0.13945078047E+03  0.00000000000E+00 0.  1.
         22   -1    0    0    0    0 -0.00000000000E+00 -0.00000000000E+00 -0.41082121199E+03  0.41082121199E+03  0.00000000000E+00 0. -1.
         24    2    1    2    0    0 -0.12542992621E+02  0.26814076053E+02 -0.26787065069E+03  0.28138457703E+03  0.80909043688E+02 0.  0.
         25    2    1    2    0    0 -0.54518836339E+02 -0.49873083847E+02 -0.46287207372E+02  0.15247703071E+03  0.12508841401E+03 0.  0.
        -24    2    1    2    0    0  0.67061828960E+02  0.23059007794E+02  0.42787426538E+02  0.11641038472E+03  0.81802243592E+02 0.  0.
        -11    1    3    3    0    0 -0.24718896672E+02  0.28418809246E+02 -0.47263492190E+02  0.60435835939E+02  0.00000000000E+00 0.  1.
         12    1    3    3    0    0  0.12175904051E+02 -0.16047331934E+01 -0.22060715850E+03  0.22094874109E+03  0.00000000000E+00 0. -1.
         11    1    5    5    0    0 -0.16424093353E+02  0.89720660485E+01 -0.47546364664E+01  0.19309463472E+02  0.00000000000E+00 0. -1.
        -12    1    5    5    0    0  0.83485922313E+02  0.14086941746E+02  0.47542063004E+02  0.97100921246E+02  0.00000000000E+00 0.  1.
          5    1    4    4  501    0 -0.26629039995E+02  0.13985645574E+02  0.34331313701E+02  0.45834654505E+02  0.41800000000E+01 0. -1.
         -5    1    4    4    0  501 -0.27889796344E+02 -0.63858729420E+02 -0.80618521073E+02  0.10664237621E+03  0.41800000000E+01 0. -1.
</event>
<event>
11    1  0.8037748E-009  0.1597208E+03  0.7561462E-02  0.1087340E+00
         22   -1    0    0    0    0  0.00000000000E+00  0.00000000000E+00  0.88503318409E+03  0.88503318409E+03  0.00000000000E+00 0. -1.
         22   -1    0    0    0    0 -0.00000000000E+00 -0.00000000000E+00 -0.94535339164E+03  0.94535339164E+03  0.00000000000E+00 0.  1.
        -24    2    1    2    0    0 -0.19414211242E+01 -0.44917783799E+02 -0.60288692388E+03  0.60997756422E+03  0.81108627456E+02 0.  0.
         25    2    1    2    0    0 -0.56188619398E+02  0.12483790434E+03 -0.30852398210E+03  0.35996779188E+03  0.12509236729E+03 0.  0.
         24    2    1    2    0    0  0.58130040522E+02 -0.79920120545E+02  0.85109069843E+03  0.86044121963E+03  0.78977137165E+02 0.  0.
        -11    1    5    5    0    0 -0.17157606137E+02 -0.32864107422E+02  0.21277217310E+03  0.21597784759E+03  0.00000000000E+00 0.  1.
         12    1    5    5    0    0  0.75287646659E+02 -0.47056013123E+02  0.63831852533E+03  0.64446337203E+03  0.00000000000E+00 0. -1.
         11    1    3    3    0    0 -0.20488637638E+01  0.21190201405E+02 -0.74855521511E+02  0.77823978175E+02  0.00000000000E+00 0. -1.
        -12    1    3    3    0    0  0.10744263964E+00 -0.66107985205E+02 -0.52803140237E+03  0.53215358604E+03  0.00000000000E+00 0.  1.
          5    1    4    4  501    0 -0.19736377916E+02 -0.19964390408E+02 -0.18927209097E+02  0.34114705653E+02  0.41800000000E+01 0. -1.
         -5    1    4    4    0  501 -0.36452241481E+02  0.14480229475E+03 -0.28959677300E+03  0.32585308623E+03  0.41800000000E+01 0. -1.
</event>
<event>
11    1  0.8037748E-009  0.1305503E+03  0.7561462E-02  0.1118595E+00
         22   -1    0    0    0    0  0.00000000000E+00  0.00000000000E+00  0.21187475859E+03  0.21187475859E+03  0.00000000000E+00 0. -1.
         22   -1    0    0    0    0 -0.00000000000E+00 -0.00000000000E+00 -0.17814418791E+03  0.17814418791E+03  0.00000000000E+00 0. -1.
         24    2    1    2    0    0 -0.13365797238E+02  0.41295448848E+01 -0.10121728628E+03  0.13003320351E+03  0.80423860240E+02 0.  0.
         25    2    1    2    0    0  0.31676213919E+02 -0.32364313220E+02  0.64718291963E+02  0.14794136494E+03  0.12508940341E+03 0.  0.
        -24    2    1    2    0    0 -0.18310416681E+02  0.28234768336E+02  0.70229564996E+02  0.11204437805E+03  0.80556050988E+02 0.  0.
        -11    1    3    3    0    0  0.28591712111E+02  0.77091208250E+01 -0.13119981999E+02  0.32389048659E+02  0.00000000000E+00 0.  1.
         12    1    3    3    0    0 -0.41957509349E+02 -0.35795759402E+01 -0.88097304280E+02  0.97644154849E+02  0.00000000000E+00 0. -1.
         11    1    5    5    0    0 -0.59505242727E+01  0.32049643334E+02  0.85810730684E+02  0.91793626562E+02  0.00000000000E+00 0. -1.
        -12    1    5    5    0    0 -0.12359892409E+02 -0.38148749984E+01 -0.15581165687E+02  0.20250751487E+02  0.00000000000E+00 0.  1.
          5    1    4    4  501    0  0.75821582326E+02 -0.36468197863E+02  0.23979973270E+02  0.87586262164E+02  0.41800000000E+01 0.  1.
         -5    1    4    4    0  501 -0.44145368406E+02  0.41038846430E+01  0.40738318693E+02  0.60355102773E+02  0.41800000000E+01 0.  1.
</event>
<event>
11    1  0.8037748E-009  0.1428054E+03  0.7561462E-02  0.1104466E+00
         22   -1    0    0    0    0  0.00000000000E+00  0.00000000000E+00  0.25594048744E+04  0.25594048744E+04  0.00000000000E+00 0.  1.
         22   -1    0    0    0    0 -0.00000000000E+00 -0.00000000000E+00 -0.69962636886E+02  0.69962636886E+02  0.00000000000E+00 0. -1.
         24    2    1    2    0    0  0.79390034813E+00  0.68134535944E+02 -0.17897160098E+02  0.10640389716E+03  0.79740427166E+02 0.  0.
         25    2    1    2    0    0  0.39724674496E+02 -0.84889174370E+02  0.93726871466E+03  0.95021264179E+03  0.12508876628E+03 0.  0.
        -24    2    1    2    0    0 -0.40518574844E+02  0.16754638426E+02  0.15700706829E+04  0.15727509723E+04  0.80630011222E+02 0.  0.
        -11    1    3    3    0    0  0.11476199947E+02  0.75935755280E+02  0.81110317040E+01  0.77225196215E+02  0.00000000000E+00 0.  1.
         12    1    3    3    0    0 -0.10682299599E+02 -0.78012193364E+01 -0.26008191802E+02  0.29178700942E+02  0.00000000000E+00 0. -1.
         13    1    5    5    0    0  0.14486292345E+02  0.66096888381E+01  0.76807416428E+02  0.78440549914E+02  0.00000000000E+00 0. -1.
        -14    1    5    5    0    0 -0.55004867189E+02  0.10144949588E+02  0.14932632665E+04  0.14943104224E+04  0.00000000000E+00 0.  1.
          5    1    4    4  501    0 -0.35223731665E+02 -0.89731530471E+01  0.10644818819E+03  0.11256072990E+03  0.41800000000E+01 0. -1.
         -5    1    4    4    0  501  0.74948406161E+02 -0.75916021323E+02  0.83082052648E+03  0.83765191189E+03  0.41800000000E+01 0. -1.
</event>
<event>
11    1  0.8037748E-009  0.2418323E+03  0.7561462E-02  0.1028342E+00
         22   -1    0    0    0    0  0.00000000000E+00  0.00000000000E+00  0.13369911832E+04  0.13369911832E+04  0.00000000000E+00 0.  1.
         22   -1    0    0    0    0 -0.00000000000E+00 -0.00000000000E+00 -0.21279956901E+03  0.21279956901E+03  0.00000000000E+00 0.  1.
        -24    2    1    2    0    0 -0.23088424026E+02 -0.91221243558E+01 -0.12701035806E+03  0.15079134234E+03  0.77395797010E+02 0.  0.
         25    2    1    2    0    0 -0.18668676220E+02 -0.19567076972E+03  0.15401863651E+03  0.27929417672E+03  0.12509167503E+03 0.  0.
         24    2    1    2    0    0  0.41757100245E+02  0.20479289408E+03  0.10971833357E+04  0.11197052331E+04  0.79023743541E+02 0.  0.
        -13    1    5    5    0    0  0.61462601523E+02  0.15243475648E+03  0.89285349915E+03  0.90785537247E+03  0.00000000000E+00 0.  1.
         14    1    5    5    0    0 -0.19705501277E+02  0.52358137595E+02  0.20432983655E+03  0.21184986065E+03  0.00000000000E+00 0. -1.
         13    1    3    3    0    0  0.26123046560E+02  0.34052199227E+01 -0.22692254836E+02  0.34769922546E+02  0.00000000000E+00 0. -1.
        -14    1    3    3    0    0 -0.49211470586E+02 -0.12527344279E+02 -0.10431810322E+03  0.11602141980E+03  0.00000000000E+00 0.  1.
          5    1    4    4  501    0 -0.43819458684E+02 -0.56482543693E+02  0.10971571252E+03  0.13101691751E+03  0.41800000000E+01 0. -1.
         -5    1    4    4    0  501  0.25150782464E+02 -0.13918822603E+03  0.44302923993E+02  0.14827725921E+03  0.41800000000E+01 0. -1.
</event>
<event>
11    1  0.8037748E-009  0.1422445E+03  0.7561462E-02  0.1105078E+00
         22   -1    0    0    0    0  0.00000000000E+00  0.00000000000E+00  0.14263388579E+04  0.14263388579E+04  0.00000000000E+00 0.  1.
         22   -1    0    0    0    0 -0.00000000000E+00 -0.00000000000E+00 -0.13627088624E+03  0.13627088624E+03  0.00000000000E+00 0. -1.
        -24    2    1    2    0    0 -0.17285663431E+02 -0.51775892272E+01 -0.11071297341E+03  0.13772010031E+03  0.79899073569E+02 0.  0.
         25    2    1    2    0    0 -0.37183919469E+01  0.69491449680E+02  0.58446211563E+03  0.60173564039E+03  0.12508768241E+03 0.  0.
         24    2    1    2    0    0  0.21004055378E+02 -0.64313860452E+02  0.81631882945E+03  0.82315400345E+03  0.81416454772E+02 0.  0.
        -13    1    5    5    0    0  0.47797189272E+02 -0.56289697932E+02  0.47673341160E+03  0.48241874666E+03  0.00000000000E+00 0.  1.
         14    1    5    5    0    0 -0.26793133893E+02 -0.80241625202E+01  0.33958541785E+03  0.34073525680E+03  0.00000000000E+00 0. -1.
         11    1    3    3    0    0 -0.27342200539E+02 -0.43440562646E+01 -0.12051381824E+03  0.12365293018E+03  0.00000000000E+00 0. -1.
        -12    1    3    3    0    0  0.10056537108E+02 -0.83353296268E+00  0.98008448359E+01  0.14067170124E+02  0.00000000000E+00 0.  1.
          5    1    4    4  501    0  0.75056610993E+01  0.12397070011E+01 -0.37503064207E+01  0.94556343116E+01  0.41800000000E+01 0. -1.
         -5    1    4    4    0  501 -0.11224053046E+02  0.68251742678E+02  0.58821242205E+03  0.59228000608E+03  0.41800000000E+01 0. -1.
</event>
<event>
11    1  0.8037748E-009  0.1291169E+03  0.7561462E-02  0.1120359E+00
         22   -1    0    0    0    0  0.00000000000E+00  0.00000000000E+00  0.89880449017E+03  0.89880449017E+03  0.00000000000E+00 0. -1.
         22   -1    0    0    0    0 -0.00000000000E+00 -0.00000000000E+00 -0.55849629543E+03  0.55849629543E+03  0.00000000000E+00 0.  1.
         24    2    1    2    0    0 -0.27628008844E+02 -0.13016163376E+02 -0.52436811609E+03  0.53615812228E+03  0.10756804140E+03 0.  0.
         25    2    1    2    0    0  0.83503189245E+02  0.56346222480E+02  0.24910056920E+03  0.29638790875E+03  0.12508804691E+03 0.  0.
        -24    2    1    2    0    0 -0.55875180401E+02 -0.43330059105E+02  0.61557574165E+03  0.62475475457E+03  0.79909197486E+02 0.  0.
        -13    1    3    3    0    0 -0.10854266937E+02 -0.52306661989E+02 -0.42001686133E+03  0.42340047921E+03  0.00000000000E+00 0.  1.
         14    1    3    3    0    0 -0.16773741907E+02  0.39290498613E+02 -0.10435125477E+03  0.11275764307E+03  0.00000000000E+00 0. -1.
         13    1    5    5    0    0 -0.69945314393E+02 -0.14993378045E+02  0.34517555864E+03  0.35251002067E+03  0.00000000000E+00 0. -1.
        -14    1    5    5    0    0  0.14070133992E+02 -0.28336681060E+02  0.27040018301E+03  0.27224473390E+03  0.00000000000E+00 0.  1.
          5    1    4    4  501    0  0.23881791867E+02  0.13459475811E+02 -0.80879955230E+01  0.28885732525E+02  0.41800000000E+01 0. -1.
         -5    1    4    4    0  501  0.59621397377E+02  0.42886746669E+02  0.25718856472E+03  0.26750217623E+03  0.41800000000E+01 0. -1.
</event>
<event>
11    1  0.8037748E-009  0.1432795E+03  0.7561462E-02  0.1103951E+00
         22   -1    0    0    0    0  0.00000000000E+00  0.00000000000E+00  0.35383758397E+03  0.35383758397E+03  0.00000000000E+00 0.  1.
         22   -1    0    0    0    0 -0.00000000000E+00 -0.00000000000E+00 -0.47030526495E+03  0.47030526495E+03  0.00000000000E+00 0. -1.
         24    2    1    2    0    0  0.15354433516E+02  0.95454078019E+01 -0.38841705493E+03  0.39648119442E+03  0.77476806378E+02 0.  0.
         25    2    1    2    0    0 -0.13364604597E+02  0.61592819207E+02  0.51726954398E+01  0.14016603195E+03  0.12508985451E+03 0.  0.
        -24    2    1    2    0    0 -0.19898289189E+01 -0.71138227009E+02  0.26677667850E+03  0.28749562255E+03  0.80120721617E+02 0.  0.
        -13    1    3    3    0    0 -0.80294619854E+01  0.93070874719E+00 -0.86568975497E+00  0.81294463095E+01  0.00000000000E+00 0.  1.
         14    1    3    3    0    0  0.23383895502E+02  0.86146990547E+01 -0.38755136517E+03  0.38835174811E+03  0.00000000000E+00 0. -1.
         11    1    5    5    0    0  0.10370680392E+02  0.15199670213E+02  0.30324128751E+02  0.35470181433E+02  0.00000000000E+00 0. -1.
        -12    1    5    5    0    0 -0.12360509311E+02 -0.86337897222E+02  0.23645254975E+03  0.25202544112E+03  0.00000000000E+00 0.  1.
          5    1    4    4  501    0 -0.58561402516E+01  0.99931395897E+02 -0.20833547674E+01  0.10021173101E+03  0.41800000000E+01 0. -1.
         -5    1    4    4    0  501 -0.75084643459E+01 -0.38338576690E+02  0.72560502071E+01  0.39954300945E+02  0.41800000000E+01 0. -1.
</event>
<event>
11    1  0.8037748E-009  0.2509946E+03  0.7561462E-02  0.1023371E+00
         22   -1    0    0    0    0  0.00000000000E+00  0.00000000000E+00  0.11084266139E+04  0.11084266139E+04  0.00000000000E+00 0.  1.
         22   -1    0    0    0    0 -0.00000000000E+00 -0.00000000000E+00 -0.13315536329E+04  0.13315536329E+04  0.00000000000E+00 0. -1.
        -24    2    1    2    0    0 -0.21719656647E+03  0.39423910291E+02 -0.11911271988E+04  0.12140101627E+04  0.79423410844E+02 0.  0.
         25    2    1    2    0    0  0.19191712089E+03 -0.45002772896E+00 -0.23239274368E+02  0.23025989185E+03  0.12508864899E+03 0.  0.
         24    2    1    2    0    0  0.25279445588E+02 -0.38973882562E+02  0.99123945412E+03  0.99571019223E+03  0.82006814417E+02 0.  0.
        -11    1    5    5    0    0  0.36376977912E+02 -0.59298372134E+02  0.65804899638E+03  0.66171599882E+03  0.00000000000E+00 0.  1.
         12    1    5    5    0    0 -0.11097532324E+02  0.20324489572E+02  0.33319045774E+03  0.33399419341E+03  0.00000000000E+00 0. -1.
         13    1    3    3    0    0 -0.16239131723E+03  0.74937142102E+01 -0.69035509266E+03  0.70923708985E+03  0.00000000000E+00 0. -1.
        -14    1    3    3    0    0 -0.54805249247E+02  0.31930196081E+02 -0.50077210614E+03  0.50477307283E+03  0.00000000000E+00 0.  1.
          5    1    4    4  501    0  0.18952890625E+03 -0.62598765049E+01 -0.55098902970E+02  0.19751899622E+03  0.41800000000E+01 0. -1.
         -5    1    4    4    0  501  0.23882146369E+01  0.58098487759E+01  0.31859628602E+02  0.32740895630E+02  0.41800000000E+01 0. -1.
</event>
<event>
11    1  0.8037748E-009  0.1264225E+03  0.7561462E-02  0.1123744E+00
         22   -1    0    0    0    0  0.00000000000E+00  0.00000000000E+00  0.20174642404E+03  0.20174642404E+03  0.00000000000E+00 0. -1.
         22   -1    0    0    0    0 -0.00000000000E+00 -0.00000000000E+00 -0.13861881561E+04  0.13861881561E+04  0.00000000000E+00 0.  1.
         24    2    1    2    0    0  0.22540190595E+02 -0.98532288855E+01 -0.13215131636E+04  0.13241808682E+04  0.80329221335E+02 0.  0.
         25    2    1    2    0    0 -0.10010899097E+01 -0.11499289325E+01  0.33000363611E+02  0.12937741373E+03  0.12508863524E+03 0.  0.
        -24    2    1    2    0    0 -0.21539100685E+02  0.11003157818E+02  0.10407106793E+03  0.13437629822E+03  0.81493558045E+02 0.  0.
        -13    1    3    3    0    0  0.47219831768E+02 -0.52013321567E+01 -0.11338436317E+04  0.11348383795E+04  0.00000000000E+00 0.  1.
         14    1    3    3    0    0 -0.24679641174E+02 -0.46518967288E+01 -0.18766953193E+03  0.18934248875E+03  0.00000000000E+00 0. -1.
         13    1    5    5    0    0 -0.26499623662E+02 -0.23921640590E+02  0.89229237366E+02  0.96105836158E+02  0.00000000000E+00 0. -1.
        -14    1    5    5    0    0  0.49605229772E+01  0.34924798408E+02  0.14841830568E+02  0.38270462065E+02  0.00000000000E+00 0.  1.
          5    1    4    4  501    0 -0.62759823822E+02  0.14159703192E+01  0.20546964692E+02  0.66184972737E+02  0.41800000000E+01 0. -1.
         -5    1    4    4    0  501  0.61758733913E+02 -0.25658992517E+01  0.12453398920E+02  0.63192440989E+02  0.41800000000E+01 0. -1.
</event>
<event>
11    1  0.8037748E-009  0.1341068E+03  0.7561462E-02  0.1114324E+00
         22   -1    0    0    0    0  0.00000000000E+00  0.00000000000E+00  0.25362055161E+04  0.25362055161E+04  0.00000000000E+00 0.  1.
         22   -1    0    0    0    0 -0.00000000000E+00 -0.00000000000E+00 -0.12019730717E+03  0.12019730717E+03  0.00000000000E+00 0.  1.
        -24    2    1    2    0    0  0.12292241806E+02  0.29319491226E+02 -0.80963583337E+02  0.11827760261E+03  0.80148347945E+02 0.  0.
         25    2    1    2    0    0  0.34286836083E+02 -0.13030344964E+02  0.19734886639E+03  0.23651758172E+03  0.12509442186E+03 0.  0.
         24    2    1    2    0    0 -0.46579077889E+02 -0.16289146262E+02  0.22996229259E+04  0.23016076389E+04  0.81836272978E+02 0.  0.
        -11    1    5    5    0    0  0.20818330701E+02  0.98687220304E+01  0.62658858568E+03  0.62701200169E+03  0.00000000000E+00 0.  1.
         12    1    5    5    0    0 -0.67397408591E+02 -0.26157868292E+02  0.16730343402E+04  0.16745956372E+04  0.00000000000E+00 0. -1.
         11    1    3    3    0    0  0.28104131591E+02 -0.19956103274E+02 -0.32958179227E+02  0.47689934455E+02  0.00000000000E+00 0. -1.
        -12    1    3    3    0    0 -0.15811889785E+02  0.49275594501E+02 -0.48005404111E+02  0.70587668157E+02  0.00000000000E+00 0.  1.
          5    1    4    4  501    0  0.53277010070E+01  0.33350031596E+02  0.17334847889E+03  0.17665722895E+03  0.41800000000E+01 0. -1.
         -5    1    4    4    0  501  0.28959135076E+02 -0.46380376561E+02  0.24000387497E+02  0.59860352774E+02  0.41800000000E+01 0. -1.
</event>
<event>
11    1  0.8037748E-009  0.1949753E+03  0.7561462E-02  0.1058135E+00
         22   -1    0    0    0    0  0.00000000000E+00  0.00000000000E+00  0.18946345126E+03  0.18946345126E+03  0.00000000000E+00 0. -1.
         22   -1    0    0    0    0 -0.00000000000E+00 -0.00000000000E+00 -0.93238103875E+03  0.93238103875E+03  0.00000000000E+00 0.  1.
         24    2    1    2    0    0  0.77737896704E+02  0.12554043165E+03 -0.74139122989E+03  0.75999582069E+03  0.78288640017E+02 0.  0.
         25    2    1    2    0    0 -0.56251128078E+02 -0.15720141484E+03 -0.87060306220E+02  0.22606043098E+03  0.12508935725E+03 0.  0.
        -24    2    1    2    0    0 -0.21486768626E+02  0.31660983197E+02  0.85533948619E+02  0.13578823833E+03  0.98276600573E+02 0.  0.
        -13    1    3    3    0    0  0.49658695039E+02  0.98462739208E+02 -0.35734797367E+03  0.37397656516E+03  0.00000000000E+00 0.  1.
         14    1    3    3    0    0  0.28079201665E+02  0.27077692438E+02 -0.38404325622E+03  0.38601925553E+03  0.00000000000E+00 0. -1.
         11    1    5    5    0    0 -0.21587437574E+02 -0.24028478296E+02  0.71349368282E+02  0.78320607662E+02  0.00000000000E+00 0. -1.
        -12    1    5    5    0    0  0.10066894853E+00  0.55689461493E+02  0.14184580337E+02  0.57467630671E+02  0.00000000000E+00 0.  1.
          5    1    4    4  501    0 -0.57542229738E+02 -0.79950501755E+02 -0.10766651949E+03  0.14598884462E+03  0.41800000000E+01 0.  1.
         -5    1    4    4    0  501  0.12911016599E+01 -0.77250913088E+02  0.20606213274E+02  0.80071586358E+02  0.41800000000E+01 0.  1.
</event>
<event>
11    1  0.8037748E-009  0.1431652E+03  0.7561462E-02  0.1104075E+00
         22   -1    0    0    0    0  0.00000000000E+00  0.00000000000E+00  0.94692590653E+02  0.94692590653E+02  0.00000000000E+00 0. -1.
         22   -1    0    0    0    0 -0.00000000000E+00 -0.00000000000E+00 -0.18717208038E+04  0.18717208038E+04  0.00000000000E+00 0. -1.
        -24    2    1    2    0    0  0.23720695211E+01  0.72238912985E+02 -0.16355800249E+04  0.16391344913E+04  0.80098534701E+02 0.  0.
         25    2    1    2    0    0 -0.25752004417E+02 -0.36478643008E+02 -0.18346128267E+03  0.22649323679E+03  0.12508911602E+03 0.  0.
         24    2    1    2    0    0  0.23379934896E+02 -0.35760269976E+02  0.42013094444E+02  0.10078566640E+03  0.81038461131E+02 0.  0.
        -11    1    5    5    0    0  0.10131401766E+02  0.13077454392E+02 -0.16542202055E+02  0.23394648190E+02  0.00000000000E+00 0.  1.
         12    1    5    5    0    0  0.13248533130E+02 -0.48837724368E+02  0.58555296498E+02  0.77391018210E+02  0.00000000000E+00 0. -1.
         13    1    3    3    0    0  0.34258957735E+02  0.67254358911E+02 -0.11826537276E+04  0.11850597725E+04  0.00000000000E+00 0. -1.
        -14    1    3    3    0    0 -0.31886888214E+02  0.49845540735E+01 -0.45292629731E+03  0.45407471876E+03  0.00000000000E+00 0.  1.
          5    1    4    4  501    0 -0.33788760200E+02  0.18391247674E+02 -0.43416288343E+01  0.38938932289E+02  0.41800000000E+01 0.  1.
         -5    1    4    4    0  501  0.80367557828E+01 -0.54869890682E+02 -0.17911965383E+03  0.18755430450E+03  0.41800000000E+01 0.  1.
</event>
<event>
11    1  0.8037748E-009  0.1351869E+03  0.7561462E-02  0.1113055E+00
         22   -1    0    0    0    0  0.00000000000E+00  0.00000000000E+00  0.18829011797E+03  0.18829011797E+03  0.00000000000E+00 0. -1.
         22   -1    0    0    0    0 -0.00000000000E+00 -0.00000000000E+00 -0.27672925106E+03  0.27672925106E+03  0.00000000000E+00 0. -1.
         24    2    1    2    0    0  0.54423620617E+02  0.79988592912E+01 -0.17758247373E+03  0.20289661230E+03  0.81274768999E+02 0.  0.
         25    2    1    2    0    0 -0.18959587080E+02 -0.50885310501E+02  0.10961212010E+02  0.13680825146E+03  0.12509024236E+03 0.  0.
        -24    2    1    2    0    0 -0.35464033537E+02  0.42886451210E+02  0.78182128626E+02  0.12531450527E+03  0.80587434636E+02 0.  0.
        -11    1    3    3    0    0  0.42797181042E+02 -0.33853754883E+02 -0.10412558643E+03  0.11755770147E+03  0.00000000000E+00 0.  1.
         12    1    3    3    0    0  0.11626439575E+02  0.41852614174E+02 -0.73456887294E+02  0.85338910828E+02  0.00000000000E+00 0. -1.
         13    1    5    5    0    0 -0.35493593135E+02  0.65660430916E+02  0.65160093167E+02  0.99080397068E+02  0.00000000000E+00 0. -1.
        -14    1    5    5    0    0  0.29559597412E-01 -0.22773979706E+02  0.13022035459E+02  0.26234108197E+02  0.00000000000E+00 0.  1.
          5    1    4    4  501    0  0.45705199011E+02 -0.13151164064E+02  0.33713706988E+02  0.58446597606E+02  0.41800000000E+01 0.  1.
         -5    1    4    4    0  501 -0.64664786091E+02 -0.37734146437E+02 -0.22752494978E+02  0.78361653857E+02  0.41800000000E+01 0.  1.
</event>
<event>
11    1  0.9557260E-009  0.1619302E+03  0.7561462E-02  0.1085276E+00
         22   -1    0    0    0    0  0.00000000000E+00  0.00000000000E+00  0.55342265517E+03  0.55342265517E+03  0.00000000000E+00 0.  1.
         22   -1    0    0    0    0 -0.00000000000E+00 -0.00000000000E+00 -0.54676531242E+03  0.54676531242E+03  0.00000000000E+00 0.  1.
         24    2    1    2    0    0 -0.96642866222E+01 -0.88824641091E+01 -0.41122289280E+03  0.41922619164E+03  0.80461391922E+02 0.  0.
         25    2    1    2    0    0 -0.35822509121E+02 -0.84233287492E+02 -0.73987888803E+02  0.17175770978E+03  0.12509198335E+03 0.  0.
        -24    2    1    2    0    0  0.45486795743E+02  0.93115751601E+02  0.49186812437E+03  0.50920406616E+03  0.81332265717E+02 0.  0.
        -11    1    3    3    0    0 -0.34697770531E+02  0.18430263461E+02 -0.13735479322E+03  0.14286339318E+03  0.00000000000E+00 0.  1.
         12    1    3    3    0    0  0.25033483909E+02 -0.27312727570E+02 -0.27386809958E+03  0.27636279846E+03  0.00000000000E+00 0. -1.
         11    1    5    5    0    0 -0.20018619060E+02  0.11839793219E+02  0.14878314339E+03  0.15059000488E+03  0.00000000000E+00 0. -1.
        -12    1    5    5    0    0  0.65505414803E+02  0.81275958382E+02  0.34308498098E+03  0.35861406129E+03  0.00000000000E+00 0.  1.
          5    1    4    4  501    0  0.12278719960E+02 -0.76172416423E+02 -0.91506925162E+02  0.11976641324E+03  0.41800000000E+01 0. -1.
         -5    1    4    4    0  501 -0.48101229081E+02 -0.80608710691E+01  0.17519036359E+02  0.51991296545E+02  0.41800000000E+01 0. -1.
</event>
<event>
11    1  0.8037748E-009  0.1682203E+03  0.7561462E-02  0.1079591E+00
         22   -1    0    0    0    0  0.00000000000E+00  0.00000000000E+00  0.90867306574E+03  0.90867306574E+03  0.00000000000E+00 0. -1.
         22   -1    0    0    0    0 -0.00000000000E+00 -0.00000000000E+00 -0.33940914303E+03  0.33940914303E+03  0.00000000000E+00 0. -1.
        -24    2    1    2    0    0 -0.27747152411E+02 -0.10559520492E+03 -0.28025243047E+03  0.31118470426E+03  0.79838860310E+02 0.  0.
         25    2    1    2    0    0  0.14440448666E+02  0.18522074386E+03  0.29313729742E+03  0.36890634501E+03  0.12508863151E+03 0.  0.
         24    2    1    2    0    0  0.13306703744E+02 -0.79625538946E+02  0.55637905575E+03  0.56799115950E+03  0.80864137802E+02 0.  0.
        -11    1    5    5    0    0 -0.92261573502E+01  0.18193143623E+01  0.24985935258E+03  0.25003625328E+03  0.00000000000E+00 0.  1.
         12    1    5    5    0    0  0.22532861095E+02 -0.81444853309E+02  0.30651970316E+03  0.31795490622E+03  0.00000000000E+00 0. -1.
         13    1    3    3    0    0 -0.24926709739E+02 -0.10300424848E+03 -0.28558774168E+03  0.30461709450E+03  0.00000000000E+00 0. -1.
        -14    1    3    3    0    0 -0.28204426722E+01 -0.25909564329E+01  0.53353112188E+01  0.65676097559E+01  0.00000000000E+00 0.  1.
          5    1    4    4  501    0 -0.15048851184E+02  0.17992273591E+03  0.19309186798E+03  0.26438721736E+03  0.41800000000E+01 0. -1.
         -5    1    4    4    0  501  0.29489299850E+02  0.52980079512E+01  0.10004542944E+03  0.10451912765E+03  0.41800000000E+01 0. -1.
</event>
<event>
11    1  0.8037748E-009  0.1428168E+03  0.7561462E-02  0.1104453E+00
         22   -1    0    0    0    0  0.00000000000E+00  0.00000000000E+00  0.14611147779E+04  0.14611147779E+04  0.00000000000E+00 0.  1.
         22   -1    0    0    0    0 -0.00000000000E+00 -0.00000000000E+00 -0.16805730877E+03  0.16805730877E+03  0.00000000000E+00 0.  1.
        -24    2    1    2    0    0 -0.68232718037E+02  0.19664995367E+02 -0.10258284040E+03  0.14718440286E+03  0.78087088870E+02 0.  0.
         25    2    1    2    0    0  0.59340095205E+02 -0.26061307400E+01  0.73031311647E+02  0.15656494183E+03  0.12510383572E+03 0.  0.
         24    2    1    2    0    0  0.88926228316E+01 -0.17058864627E+02  0.13226089978E+04  0.13254227419E+04  0.84147490078E+02 0.  0.
        -11    1    5    5    0    0 -0.19033248459E+02 -0.17017382119E+02  0.11700724242E+04  0.11703509447E+04  0.00000000000E+00 0.  1.
         12    1    5    5    0    0  0.27925871291E+02 -0.41482508171E-01  0.15253657365E+03  0.15507179727E+03  0.00000000000E+00 0. -1.
         11    1    3    3    0    0 -0.52218764964E+01 -0.10366833337E+02  0.95968234587E+01  0.15061150291E+02  0.00000000000E+00 0. -1.
        -12    1    3    3    0    0 -0.63010841541E+02  0.30031828704E+02 -0.11217966386E+03  0.13212325257E+03  0.00000000000E+00 0.  1.
          5    1    4    4  501    0  0.75547234509E+02  0.17609153123E+02 -0.13423042503E+01  0.77696467721E+02  0.41800000000E+01 0.  1.
         -5    1    4    4    0  501 -0.16207139303E+02 -0.20215283863E+02  0.74373615897E+02  0.78868474105E+02  0.41800000000E+01 0.  1.
</event>
<event>
11    1  0.8037748E-009  0.1570592E+03  0.7561462E-02  0.1089876E+00
         22   -1    0    0    0    0  0.00000000000E+00  0.00000000000E+00  0.53409794288E+03  0.53409794288E+03  0.00000000000E+00 0.  1.
         22   -1    0    0    0    0 -0.00000000000E+00 -0.00000000000E+00 -0.62409004821E+03  0.62409004821E+03  0.00000000000E+00 0.  1.
        -24    2    1    2    0    0 -0.27493080163E+02 -0.11934238171E+02 -0.55330438464E+03  0.56012361276E+03  0.81819459820E+02 0.  0.
         25    2    1    2    0    0  0.10586974171E+03 -0.37505588221E+02  0.62592332605E+02  0.17938870583E+03  0.12508971309E+03 0.  0.
         24    2    1    2    0    0 -0.78376661543E+02  0.49439826392E+02  0.40071994671E+03  0.41867567250E+03  0.78266503335E+02 0.  0.
        -11    1    5    5    0    0 -0.87193253911E+01  0.36680542024E+02  0.24139371901E+03  0.24432031511E+03  0.00000000000E+00 0.  1.
         12    1    5    5    0    0 -0.69657336151E+02  0.12759284368E+02  0.15932622770E+03  0.17435535739E+03  0.00000000000E+00 0. -1.
         13    1    3    3    0    0  0.13379921074E+02  0.23833877435E+02 -0.10335781605E+03  0.10691077654E+03  0.00000000000E+00 0. -1.
        -14    1    3    3    0    0 -0.40873001237E+02 -0.35768115606E+02 -0.44994656859E+03  0.45321283622E+03  0.00000000000E+00 0.  1.
          5    1    4    4  501    0  0.14179354474E+02 -0.57204624410E+02  0.61814426475E+02  0.85509758903E+02  0.41800000000E+01 0. -1.
         -5    1    4    4    0  501  0.91690387231E+02  0.19699036189E+02  0.77790613029E+00  0.93878946923E+02  0.41800000000E+01 0. -1.
</event>
<event>
11    1  0.8037748E-009  0.1318247E+03  0.7561462E-02  0.1117047E+00
         22   -1    0    0    0    0  0.00000000000E+00  0.00000000000E+00  0.15685521138E+04  0.15685521138E+04  0.00000000000E+00 0.  1.
         22   -1    0    0    0    0 -0.00000000000E+00 -0.00000000000E+00 -0.12781395235E+04  0.12781395235E+04  0.00000000000E+00 0. -1.
        -24    2    1    2    0    0  0.32231966113E+02  0.27162405057E+02 -0.11454291295E+04  0.11489874450E+04  0.79922227050E+02 0.  0.
         25    2    1    2    0    0 -0.19023967302E+01 -0.55697176771E+02 -0.93303742253E+02  0.16570823333E+03  0.12509130930E+03 0.  0.
         24    2    1    2    0    0 -0.30329569383E+02  0.28534771713E+02  0.15291454620E+04  0.15319959589E+04  0.83616135993E+02 0.  0.
        -11    1    5    5    0    0 -0.20887096068E+02  0.37227927590E+02  0.14935049590E+04  0.14941148724E+04  0.00000000000E+00 0.  1.
         12    1    5    5    0    0 -0.94424733152E+01 -0.86931558768E+01  0.35640503034E+02  0.37881086546E+02  0.00000000000E+00 0. -1.
         13    1    3    3    0    0 -0.73083734631E+00  0.72108844425E+01 -0.93692644423E+03  0.93695447749E+03  0.00000000000E+00 0. -1.
        -14    1    3    3    0    0  0.32962803459E+02  0.19951520615E+02 -0.20850268523E+03  0.21203296756E+03  0.00000000000E+00 0.  1.
          5    1    4    4  501    0  0.19104807462E+02 -0.86384350381E+02 -0.92798245536E+02  0.12828186323E+03  0.41800000000E+01 0.  1.
         -5    1    4    4    0  501 -0.21007204193E+02  0.30687173610E+02 -0.50549671711E+00  0.37426370103E+02  0.41800000000E+01 0.  1.
</event>
<event>
11    1  0.8037748E-009  0.1287315E+03  0.7561462E-02  0.1120837E+00
         22   -1    0    0    0    0  0.00000000000E+00  0.00000000000E+00  0.25641236338E+03  0.25641236338E+03  0.00000000000E+00 0.  1.
         22   -1    0    0    0    0 -0.00000000000E+00 -0.00000000000E+00 -0.25994056209E+03  0.25994056209E+03  0.00000000000E+00 0.  1.
        -24    2    1    2    0    0  0.30919334168E+01 -0.28255994009E+02 -0.19333618377E+03  0.21181467997E+03  0.81722808615E+02 0.  0.
         25    2    1    2    0    0  0.30896647637E+00  0.52570605604E+02  0.56953375557E+02  0.14715572327E+03  0.12508939151E+03 0.  0.
         24    2    1    2    0    0 -0.34008998932E+01 -0.24314611596E+02  0.13285460951E+03  0.15738252223E+03  0.80722639822E+02 0.  0.
        -11    1    5    5    0    0 -0.66552990583E+01 -0.37829856457E+02  0.13746956351E+03  0.14273497097E+03  0.00000000000E+00 0.  1.
         12    1    5    5    0    0  0.32543991651E+01  0.13515244861E+02 -0.46149540046E+01  0.14647551265E+02  0.00000000000E+00 0. -1.
         11    1    3    3    0    0 -0.85538819037E+01  0.41511467317E+00  0.57645536705E+01  0.10323337388E+02  0.00000000000E+00 0. -1.
        -12    1    3    3    0    0  0.11645815321E+02 -0.28671108682E+02 -0.19910073744E+03  0.20149134258E+03  0.00000000000E+00 0.  1.
          5    1    4    4  501    0  0.51629389533E+02  0.28418985825E+02  0.67078711687E+02  0.89388246322E+02  0.41800000000E+01 0.  1.
         -5    1    4    4    0  501 -0.51320423056E+02  0.24151619779E+02 -0.10125336130E+02  0.57767476943E+02  0.41800000000E+01 0.  1.
</event>
<event>
11    1  0.8037748E-009  0.1467563E+03  0.7561462E-02  0.1100240E+00
         22   -1    0    0    0    0  0.00000000000E+00  0.00000000000E+00  0.14312959208E+04  0.14312959208E+04  0.00000000000E+00 0.  1.
         22   -1    0    0    0    0 -0.00000000000E+00 -0.00000000000E+00 -0.98180571673E+02  0.98180571673E+02  0.00000000000E+00 0.  1.
        -24    2    1    2    0    0 -0.60373658448E+02 -0.30316142092E+02 -0.33064866161E+02  0.11079978370E+03  0.81358832274E+02 0.  0.
         25    2    1    2    0    0  0.26014848876E+02 -0.44198906578E+02  0.17048928769E+03  0.21758737780E+03  0.12508938426E+03 0.  0.
         24    2    1    2    0    0  0.34358809572E+02  0.74515048670E+02  0.11956909275E+04  0.12010893309E+04  0.78776686693E+02 0.  0.
        -11    1    5    5    0    0  0.36776343706E+02  0.75835475445E+02  0.11953454822E+04  0.11983131230E+04  0.00000000000E+00 0.  1.
         12    1    5    5    0    0 -0.24175341336E+01 -0.13204267749E+01  0.34544532043E+00  0.27762079577E+01  0.00000000000E+00 0. -1.
         11    1    3    3    0    0 -0.24703035517E+02  0.27032488015E+02 -0.26066579708E+01  0.36712260047E+02  0.00000000000E+00 0. -1.
        -12    1    3    3    0    0 -0.35670622931E+02 -0.57348630107E+02 -0.30458208190E+02  0.74087523657E+02  0.00000000000E+00 0.  1.
          5    1    4    4  501    0 -0.35212334058E+02 -0.14979156212E+02  0.13604768127E+03  0.14138856944E+03  0.41800000000E+01 0.  1.
         -5    1    4    4    0  501  0.61227182935E+02 -0.29219750365E+02  0.34441606424E+02  0.76198808354E+02  0.41800000000E+01 0.  1.
</event>
<event>
11    1  0.8037748E-009  0.2027813E+03  0.7561462E-02  0.1052574E+00
         22   -1    0    0    0    0  0.00000000000E+00  0.00000000000E+00  0.14768270709E+04  0.14768270709E+04  0.00000000000E+00 0.  1.
         22   -1    0    0    0    0 -0.00000000000E+00 -0.00000000000E+00 -0.30926008940E+03  0.30926008940E+03  0.00000000000E+00 0. -1.
         24    2    1    2    0    0 -0.11960743456E+03  0.10244078787E+03 -0.25553850769E+03  0.31118438047E+03  0.82071531673E+02 0.  0.
         25    2    1    2    0    0  0.16876888793E+03 -0.17125784036E+03  0.10320227424E+04  0.10670195542E+04  0.12509037867E+03 0.  0.
        -24    2    1    2    0    0 -0.49161453369E+02  0.68817052485E+02  0.39108274685E+03  0.40788322569E+03  0.79185703898E+02 0.  0.
        -11    1    3    3    0    0 -0.17627075773E+02  0.31383323433E+02 -0.12317370440E+02  0.38043979873E+02  0.00000000000E+00 0.  1.
         12    1    3    3    0    0 -0.10198035879E+03  0.71057464442E+02 -0.24322113725E+03  0.27314040059E+03  0.00000000000E+00 0. -1.
         11    1    5    5    0    0  0.13423259514E+02  0.17330629367E+02  0.18728172571E+03  0.18856028054E+03  0.00000000000E+00 0. -1.
        -12    1    5    5    0    0 -0.62584712883E+02  0.51486423118E+02  0.20380102114E+03  0.21932294515E+03  0.00000000000E+00 0.  1.
          5    1    4    4  501    0  0.18780391653E+03 -0.15573128352E+03  0.96898830503E+03  0.99923888606E+03  0.41800000000E+01 0.  1.
         -5    1    4    4    0  501 -0.19035028603E+02 -0.15526556840E+02  0.63034437346E+02  0.67780668134E+02  0.41800000000E+01 0.  1.
</event>
<event>
11    1  0.8037748E-009  0.1744818E+03  0.7561462E-02  0.1074196E+00
         22   -1    0    0    0    0  0.00000000000E+00  0.00000000000E+00  0.14503081181E+04  0.14503081181E+04  0.00000000000E+00 0.  1.
         22   -1    0    0    0    0 -0.00000000000E+00 -0.00000000000E+00 -0.48450419239E+03  0.48450419239E+03  0.00000000000E+00 0.  1.
         24    2    1    2    0    0  0.73334573663E+02 -0.98456889679E+02 -0.45266543864E+03  0.47608322804E+03  0.81716105287E+02 0.  0.
         25    2    1    2    0    0 -0.92858332989E+02  0.38372412131E+02  0.34684442779E+03  0.38215648869E+03  0.12508961882E+03 0.  0.
        -24    2    1    2    0    0  0.19523759326E+02  0.60084477548E+02  0.10716249366E+04  0.10765725938E+04  0.81469155843E+02 0.  0.
        -11    1    3    3    0    0  0.89689851094E+02 -0.70638202024E+02 -0.37459416088E+03  0.39160542686E+03  0.00000000000E+00 0.  1.
         12    1    3    3    0    0 -0.16355277431E+02 -0.27818687655E+02 -0.78071277758E+02  0.84477801188E+02  0.00000000000E+00 0. -1.
         11    1    5    5    0    0 -0.31754580434E+01 -0.14463226282E+02  0.54781669683E+02  0.56747685253E+02  0.00000000000E+00 0. -1.
        -12    1    5    5    0    0  0.22699217370E+02  0.74547703830E+02  0.10168432669E+04  0.10198249085E+04  0.00000000000E+00 0.  1.
          5    1    4    4  501    0 -0.38612079363E+02  0.81097247642E+02  0.17112476590E+03  0.19331015016E+03  0.41800000000E+01 0.  1.
         -5    1    4    4    0  501 -0.54246253626E+02 -0.42724835511E+02  0.17571966189E+03  0.18884633853E+03  0.41800000000E+01 0.  1.
</event>
<event>
11    1  0.8037748E-009  0.1843925E+03  0.7561462E-02  0.1066144E+00
         22   -1    0    0    0    0  0.00000000000E+00  0.00000000000E+00  0.63947210238E+03  0.63947210238E+03  0.00000000000E+00 0. -1.
         22   -1    0    0    0    0 -0.00000000000E+00 -0.00000000000E+00 -0.24532411039E+03  0.24532411039E+03  0.00000000000E+00 0.  1.
         24    2    1    2    0    0  0.97655849380E+01 -0.84655435931E+01 -0.14550898629E+03  0.16429323601E+03  0.75182246774E+02 0.  0.
         25    2    1    2    0    0 -0.96532924505E+02  0.11033261659E+03  0.39387890729E+02  0.19669923703E+03  0.12508913668E+03 0.  0.
        -24    2    1    2    0    0  0.86767339567E+02 -0.10186707300E+03  0.50026908755E+03  0.52380373973E+03  0.78712934250E+02 0.  0.
        -11    1    3    3    0    0  0.21394513500E+02 -0.38062021461E+02 -0.95835144897E+02  0.10531295116E+03  0.00000000000E+00 0.  1.
         12    1    3    3    0    0 -0.11628928562E+02  0.29596477868E+02 -0.49673841396E+02  0.58980284848E+02  0.00000000000E+00 0. -1.
         13    1    5    5    0    0  0.51293326187E+02 -0.15604141491E+02  0.27164557478E+03  0.27688592027E+03  0.00000000000E+00 0. -1.
        -14    1    5    5    0    0  0.35474013380E+02 -0.86262931507E+02  0.22862351277E+03  0.24691781946E+03  0.00000000000E+00 0.  1.
          5    1    4    4  501    0 -0.85849642080E+02  0.55078132457E+01  0.28344748204E+02  0.90671904153E+02  0.41800000000E+01 0.  1.
         -5    1    4    4    0  501 -0.10683282425E+02  0.10482480335E+03  0.11043142525E+02  0.10602733288E+03  0.41800000000E+01 0.  1.
</event>
<event>
11    1  0.8037748E-009  0.1393744E+03  0.7561462E-02  0.1108259E+00
         22   -1    0    0    0    0  0.00000000000E+00  0.00000000000E+00  0.53701470822E+03  0.53701470822E+03  0.00000000000E+00 0.  1.
         22   -1    0    0    0    0 -0.00000000000E+00 -0.00000000000E+00 -0.18104336553E+04  0.18104336553E+04  0.00000000000E+00 0. -1.
         24    2    1    2    0    0 -0.60455002319E+01 -0.60663817079E+02 -0.17227195610E+04  0.17256810220E+04  0.80595639402E+02 0.  0.
         25    2    1    2    0    0  0.18137157811E+02  0.82069734666E+02 -0.13106957718E+02  0.15128432093E+03  0.12510297988E+03 0.  0.
        -24    2    1    2    0    0 -0.12091657579E+02 -0.21405917587E+02  0.46240757164E+03  0.47048302058E+03  0.83241148758E+02 0.  0.
        -13    1    3    3    0    0  0.34621134239E+02 -0.10071818760E+02 -0.58086384181E+03  0.58198184438E+03  0.00000000000E+00 0.  1.
         14    1    3    3    0    0 -0.40666634471E+02 -0.50591998319E+02 -0.11418557192E+04  0.11436991776E+04  0.00000000000E+00 0. -1.
         11    1    5    5    0    0 -0.39776757401E+02 -0.29255983225E+01  0.11985386437E+03  0.12631586741E+03  0.00000000000E+00 0. -1.
        -12    1    5    5    0    0  0.27685099822E+02 -0.18480319264E+02  0.34255370728E+03  0.34416715317E+03  0.00000000000E+00 0.  1.
          5    1    4    4  501    0 -0.26062490347E+02  0.67172292767E+02 -0.53180266207E+02  0.89649224384E+02  0.41800000000E+01 0. -1.
         -5    1    4    4    0  501  0.44199648158E+02  0.14897441899E+02  0.40073308489E+02  0.61635096541E+02  0.41800000000E+01 0. -1.
</event>
<event>
11    1  0.8037748E-009  0.1528134E+03  0.7561462E-02  0.1094038E+00
         22   -1    0    0    0    0  0.00000000000E+00  0.00000000000E+00  0.27173699018E+03  0.27173699018E+03  0.00000000000E+00 0. -1.
         22   -1    0    0    0    0 -0.00000000000E+00 -0.00000000000E+00 -0.46803864498E+03  0.46803864498E+03  0.00000000000E+00 0. -1.
         24    2    1    2    0    0 -0.38993476855E+02 -0.77692338757E+02 -0.39681938765E+03  0.41457160303E+03  0.82748999324E+02 0.  0.
         25    2    1    2    0    0  0.16074294483E+02  0.10679281382E+03  0.11794845604E+03  0.20303497930E+03  0.12509307140E+03 0.  0.
        -24    2    1    2    0    0  0.22919182372E+02 -0.29100475066E+02  0.82569276818E+02  0.12216905282E+03  0.82069881345E+02 0.  0.
        -11    1    3    3    0    0 -0.26566709708E+02 -0.86425812920E+02 -0.23110675802E+03  0.24816435039E+03  0.00000000000E+00 0.  1.
         12    1    3    3    0    0 -0.12426767147E+02  0.87334741636E+01 -0.16571262963E+03  0.16640725264E+03  0.00000000000E+00 0. -1.
         13    1    5    5    0    0  0.36533019169E+02 -0.46968651749E+02  0.79789365437E+02  0.99534208058E+02  0.00000000000E+00 0. -1.
        -14    1    5    5    0    0 -0.13613836797E+02  0.17868176684E+02  0.27799113807E+01  0.22634844767E+02  0.00000000000E+00 0.  1.
          5    1    4    4  501    0  0.67712903013E+02  0.40825438955E+02  0.73836379024E+02  0.10826373801E+03  0.41800000000E+01 0. -1.
         -5    1    4    4    0  501 -0.51638608530E+02  0.65967374868E+02  0.44112077016E+02  0.94771241294E+02  0.41800000000E+01 0. -1.
</event>
<event>
11    1  0.8037748E-009  0.2028350E+03  0.7561462E-02  0.1052537E+00
         22   -1    0    0    0    0  0.00000000000E+00  0.00000000000E+00  0.12357820271E+04  0.12357820271E+04  0.00000000000E+00 0.  1.
         22   -1    0    0    0    0 -0.00000000000E+00 -0.00000000000E+00 -0.10263663069E+04  0.10263663069E+04  0.00000000000E+00 0.  1.
         24    2    1    2    0    0  0.87975385591E+02 -0.12935364310E+03 -0.75951175005E+03  0.77943139901E+03  0.78633159937E+02 0.  0.
         25    2    1    2    0    0 -0.19573856664E+03  0.75394668144E+02 -0.19332699125E+03  0.31147936355E+03  0.12508447514E+03 0.  0.
        -24    2    1    2    0    0  0.10776318105E+03  0.53958974954E+02  0.11622544615E+04  0.11712375715E+04  0.80234291497E+02 0.  0.
        -11    1    3    3    0    0  0.84003530389E+02 -0.72247180609E+02 -0.38705718083E+03  0.40260341461E+03  0.00000000000E+00 0.  1.
         12    1    3    3    0    0  0.39718552017E+01 -0.57106462489E+02 -0.37245456922E+03  0.37682798440E+03  0.00000000000E+00 0. -1.
         13    1    5    5    0    0  0.48267610479E+02 -0.17728933284E+02  0.38424670849E+03  0.38767203959E+03  0.00000000000E+00 0. -1.
        -14    1    5    5    0    0  0.59495570570E+02  0.71687908238E+02  0.77800775297E+03  0.78356553190E+03  0.00000000000E+00 0.  1.
          5    1    4    4  501    0 -0.17922919989E+03  0.14389563887E+02 -0.15513956285E+03  0.23752036124E+03  0.41800000000E+01 0. -1.
         -5    1    4    4    0  501 -0.16509366750E+02  0.61005104257E+02 -0.38187428401E+02  0.73959002318E+02  0.41800000000E+01 0. -1.
</event>
<event>
11    1  0.8037748E-009  0.1324516E+03  0.7561462E-02  0.1116293E+00
         22   -1    0    0    0    0  0.00000000000E+00  0.00000000000E+00  0.36763201733E+03  0.36763201733E+03  0.00000000000E+00 0. -1.
         22   -1    0    0    0    0 -0.00000000000E+00 -0.00000000000E+00 -0.22508222281E+03  0.22508222281E+03  0.00000000000E+00 0.  1.
        -24    2    1    2    0    0 -0.22653001131E+02 -0.32673823361E+02 -0.13134772830E+03  0.15944695237E+03  0.81181079677E+02 0.  0.
         25    2    1    2    0    0  0.36121741966E+02 -0.10946297819E+02 -0.13373387733E+02  0.13135895549E+03  0.12510685836E+03 0.  0.
         24    2    1    2    0    0 -0.13468740835E+02  0.43620121180E+02  0.28727091055E+03  0.30190833229E+03  0.80869914739E+02 0.  0.
        -11    1    5    5    0    0  0.29307391201E+02  0.42191238593E+01  0.54960849549E+02  0.62429313374E+02  0.00000000000E+00 0.  1.
         12    1    5    5    0    0 -0.42776132036E+02  0.39400997321E+02  0.23231006100E+03  0.23947901892E+03  0.00000000000E+00 0. -1.
         13    1    3    3    0    0 -0.46687556847E+02 -0.42192806177E+02 -0.78447673046E+02  0.10056837606E+03  0.00000000000E+00 0. -1.
        -14    1    3    3    0    0  0.24034555716E+02  0.95189828161E+01 -0.52900055251E+02  0.58878576307E+02  0.00000000000E+00 0.  1.
          5    1    4    4  501    0 -0.49236526341E+01 -0.27282029360E+02  0.48021664946E+02  0.55606691913E+02  0.41800000000E+01 0. -1.
         -5    1    4    4    0  501  0.41045394600E+02  0.16335731541E+02 -0.61395052679E+02  0.75752263572E+02  0.41800000000E+01 0. -1.
</event>
<event>
11    1  0.8037748E-009  0.1508714E+03  0.7561462E-02  0.1095992E+00
         22   -1    0    0    0    0  0.00000000000E+00  0.00000000000E+00  0.33222766345E+04  0.33222766345E+04  0.00000000000E+00 0. -1.
         22   -1    0    0    0    0 -0.00000000000E+00 -0.00000000000E+00 -0.26498646947E+03  0.26498646947E+03  0.00000000000E+00 0. -1.
         24    2    1    2    0    0  0.72192835226E+02  0.18754214910E+02 -0.23048629889E+03  0.25543377325E+03  0.80987360131E+02 0.  0.
         25    2    1    2    0    0 -0.92940412048E+02  0.62938297110E+02  0.31706638595E+03  0.35885529175E+03  0.12508748093E+03 0.  0.
        -24    2    1    2    0    0  0.20747576822E+02 -0.81692512020E+02  0.29707100780E+04  0.29729740390E+04  0.79700316895E+02 0.  0.
        -13    1    3    3    0    0  0.29250108219E+02 -0.81524293833E+01 -0.18456623176E+03  0.18704738662E+03  0.00000000000E+00 0.  1.
         14    1    3    3    0    0  0.42942727007E+02  0.26906644294E+02 -0.45920067138E+02  0.68386386627E+02  0.00000000000E+00 0. -1.
         13    1    5    5    0    0  0.17750120699E+02 -0.96208757809E+02  0.22700133403E+04  0.22721205419E+04  0.00000000000E+00 0. -1.
        -14    1    5    5    0    0  0.29974561229E+01  0.14516245789E+02  0.70069673776E+03  0.70085349713E+03  0.00000000000E+00 0.  1.
          5    1    4    4  501    0 -0.46867236450E+02  0.47073640221E+01  0.17866371777E+02  0.50550734604E+02  0.41800000000E+01 0. -1.
         -5    1    4    4    0  501 -0.46073175598E+02  0.58230933088E+02  0.29920001417E+03  0.30830455715E+03  0.41800000000E+01 0. -1.
</event>
<event>
11    1  0.8037748E-009  0.1367450E+03  0.7561462E-02  0.1111249E+00
         22   -1    0    0    0    0  0.00000000000E+00  0.00000000000E+00  0.11437333567E+04  0.11437333567E+04  0.00000000000E+00 0. -1.
         22   -1    0    0    0    0 -0.00000000000E+00 -0.00000000000E+00 -0.25916008606E+03  0.25916008606E+03  0.00000000000E+00 0.  1.
        -24    2    1    2    0    0 -0.16405084684E+02  0.12130702044E+02 -0.21618960677E+03  0.23280405380E+03  0.83925566144E+02 0.  0.
         25    2    1    2    0    0  0.69597273596E+02 -0.10655734537E+01  0.12599680718E+03  0.19070178143E+03  0.12508820121E+03 0.  0.
         24    2    1    2    0    0 -0.53192188912E+02 -0.11065128590E+02  0.97476607022E+03  0.97938760751E+03  0.77970174152E+02 0.  0.
        -13    1    5    5    0    0 -0.27855411016E+02 -0.36924633408E+02  0.29001690844E+03  0.29368207242E+03  0.00000000000E+00 0.  1.
         14    1    5    5    0    0 -0.25336777895E+02  0.25859504818E+02  0.68474916178E+03  0.68570553509E+03  0.00000000000E+00 0. -1.
         11    1    3    3    0    0 -0.21020836905E+02 -0.17189249467E+01 -0.57528134632E+01  0.21861499260E+02  0.00000000000E+00 0. -1.
        -12    1    3    3    0    0  0.46157522212E+01  0.13849626991E+02 -0.21043679331E+03  0.21094255454E+03  0.00000000000E+00 0.  1.
          5    1    4    4  501    0  0.18925277359E+02 -0.16971907969E+02  0.13433156929E+03  0.13677958433E+03  0.41800000000E+01 0.  1.
         -5    1    4    4    0  501  0.50671996237E+02  0.15906334515E+02 -0.83347621071E+01  0.53922197096E+02  0.41800000000E+01 0.  1.
</event>
<event>
11    1  0.8037748E-009  0.3189981E+03  0.7561462E-02  0.9924567E-01
         22   -1    0    0    0    0  0.00000000000E+00  0.00000000000E+00  0.53007499286E+03  0.53007499286E+03  0.00000000000E+00 0. -1.
         22   -1    0    0    0    0 -0.00000000000E+00 -0.00000000000E+00 -0.92425920134E+03  0.92425920134E+03  0.00000000000E+00 0. -1.
        -24    2    1    2    0    0  0.17959518910E+03 -0.24218943444E+03 -0.43936914267E+03  0.53890112158E+03  0.80368035951E+02 0.  0.
         25    2    1    2    0    0 -0.21506710335E+03  0.19085056225E+03 -0.37259055333E+03  0.48698069386E+03  0.12509468296E+03 0.  0.
         24    2    1    2    0    0  0.35471914251E+02  0.51338872193E+02  0.41777548752E+03  0.42845237876E+03  0.71701787957E+02 0.  0.
        -11    1    5    5    0    0  0.12973730128E+02 -0.17847495235E+02  0.11053272255E+03  0.11271350192E+03  0.00000000000E+00 0.  1.
         12    1    5    5    0    0  0.22498184122E+02  0.69186367428E+02  0.30724276497E+03  0.31573887684E+03  0.00000000000E+00 0. -1.
         13    1    3    3    0    0  0.18644138340E+03 -0.21949259458E+03 -0.39880599254E+03  0.49191829424E+03  0.00000000000E+00 0. -1.
        -14    1    3    3    0    0 -0.68461943040E+01 -0.22696839870E+02 -0.40563150127E+02  0.46982827339E+02  0.00000000000E+00 0.  1.
          5    1    4    4  501    0 -0.70463370188E+02  0.66336942707E+02 -0.42718466645E+02  0.10586791912E+03  0.41800000000E+01 0.  1.
         -5    1    4    4    0  501 -0.14460373316E+03  0.12451361955E+03 -0.32987208668E+03  0.38111277474E+03  0.41800000000E+01 0.  1.
</event>
<event>
11    1  0.8037748E-009  0.2971221E+03  0.7561462E-02  0.1001417E+00
         22   -1    0    0    0    0  0.00000000000E+00  0.00000000000E+00  0.50125682180E+03  0.50125682180E+03  0.00000000000E+00 0. -1.
         22   -1    0    0    0    0 -0.00000000000E+00 -0.00000000000E+00 -0.50344771361E+03  0.50344771361E+03  0.00000000000E+00 0. -1.
        -24    2    1    2    0    0  0.24437153483E+03  0.66407860131E+02 -0.28658253481E+03  0.39106732274E+03  0.81710774864E+02 0.  0.
         25    2    1    2    0    0 -0.31490459766E+03 -0.14137830843E+03  0.87655836163E+02  0.37747055720E+03  0.12509094378E+03 0.  0.
         24    2    1    2    0    0  0.70533062827E+02  0.74970448303E+02  0.19673580685E+03  0.23616665547E+03  0.80462602442E+02 0.  0.
        -13    1    5    5    0    0  0.25842508530E+02  0.21969185976E+02  0.76482679351E+01  0.34770337675E+02  0.00000000000E+00 0.  1.
         14    1    5    5    0    0  0.44690554297E+02  0.53001262326E+02  0.18908753891E+03  0.20139631780E+03  0.00000000000E+00 0. -1.
         13    1    3    3    0    0  0.10628531857E+03 -0.11840610352E+01 -0.15913833614E+03  0.19137131701E+03  0.00000000000E+00 0. -1.
        -14    1    3    3    0    0  0.13808621626E+03  0.67591921166E+02 -0.12744419867E+03  0.19969600573E+03  0.00000000000E+00 0.  1.
          5    1    4    4  501    0 -0.11639110512E+03 -0.13610674213E+02  0.78635233041E+02  0.14118467367E+03  0.41800000000E+01 0. -1.
         -5    1    4    4    0  501 -0.19851349254E+03 -0.12776763422E+03  0.90206031221E+01  0.23628588353E+03  0.41800000000E+01 0. -1.
</event>
<event>
11    1  0.8037748E-009  0.1424349E+03  0.7561462E-02  0.1104869E+00
         22   -1    0    0    0    0  0.00000000000E+00  0.00000000000E+00  0.24726672156E+04  0.24726672156E+04  0.00000000000E+00 0. -1.
         22   -1    0    0    0    0 -0.00000000000E+00 -0.00000000000E+00 -0.13838768157E+03  0.13838768157E+03  0.00000000000E+00 0.  1.
         24    2    1    2    0    0 -0.37149886784E+02 -0.56547452740E+02 -0.10366017465E+03  0.14716153277E+03  0.79582387607E+02 0.  0.
         25    2    1    2    0    0  0.32412858714E+02  0.71551749904E+02  0.43737989397E+03  0.46164791722E+03  0.12508949394E+03 0.  0.
        -24    2    1    2    0    0  0.47370280702E+01 -0.15004297164E+02  0.20005598147E+04  0.20022454472E+04  0.80620655899E+02 0.  0.
        -13    1    3    3    0    0 -0.41072603712E+02  0.58454565476E+01 -0.34731498086E+02  0.54105499695E+02  0.00000000000E+00 0.  1.
         14    1    3    3    0    0  0.39227169282E+01 -0.62392909287E+02 -0.68928676568E+02  0.93056033071E+02  0.00000000000E+00 0. -1.
         13    1    5    5    0    0 -0.28021074593E+02 -0.27392762703E+02  0.14747732244E+04  0.14752937360E+04  0.00000000000E+00 0. -1.
        -14    1    5    5    0    0  0.32758102664E+02  0.12388465538E+02  0.52578659032E+03  0.52695171119E+03  0.00000000000E+00 0.  1.
          5    1    4    4  501    0 -0.47095100599E+02  0.22709017322E+02  0.12381290966E+03  0.13446470528E+03  0.41800000000E+01 0. -1.
         -5    1    4    4    0  501  0.79507959313E+02  0.48842732582E+02  0.31356698432E+03  0.32718321194E+03  0.41800000000E+01 0. -1.
</event>
<event>
11    1  0.8037748E-009  0.1956423E+03  0.7561462E-02  0.1057649E+00
         22   -1    0    0    0    0  0.00000000000E+00  0.00000000000E+00  0.16188615326E+03  0.16188615326E+03  0.00000000000E+00 0. -1.
         22   -1    0    0    0    0 -0.00000000000E+00 -0.00000000000E+00 -0.45712005194E+03  0.45712005194E+03  0.00000000000E+00 0.  1.
        -24    2    1    2    0    0  0.32208934863E+02 -0.10780835793E+03 -0.16257327068E+03  0.21373733924E+03  0.81200519212E+02 0.  0.
         25    2    1    2    0    0 -0.36843065577E+02 -0.89888437389E+02 -0.10561815499E+03  0.19036755879E+03  0.12508904875E+03 0.  0.
         24    2    1    2    0    0  0.46341307139E+01  0.19769679532E+03 -0.27042473011E+02  0.21490130718E+03  0.79660394377E+02 0.  0.
        -11    1    5    5    0    0  0.14346123918E+02  0.14872343953E+03 -0.53118224255E+02  0.15857496172E+03  0.00000000000E+00 0.  1.
         12    1    5    5    0    0 -0.97119932044E+01  0.48973355792E+02  0.26075751244E+02  0.56326345456E+02  0.00000000000E+00 0. -1.
         13    1    3    3    0    0  0.43023025354E+02 -0.10959626917E+03 -0.11379438052E+03  0.16374212642E+03  0.00000000000E+00 0. -1.
        -14    1    3    3    0    0 -0.10814090491E+02  0.17879112376E+01 -0.48778890152E+02  0.49995212813E+02  0.00000000000E+00 0.  1.
          5    1    4    4  501    0  0.20743058167E+01 -0.31025629013E+02  0.26145051356E+02  0.40840280493E+02  0.41800000000E+01 0. -1.
         -5    1    4    4    0  501 -0.38917371393E+02 -0.58862808376E+02 -0.13176320635E+03  0.14952727829E+03  0.41800000000E+01 0. -1.
</event>
<event>
11    1  0.8037748E-009  0.1788171E+03  0.7561462E-02  0.1070604E+00
         22   -1    0    0    0    0  0.00000000000E+00  0.00000000000E+00  0.19147451568E+03  0.19147451568E+03  0.00000000000E+00 0. -1.
         22   -1    0    0    0    0 -0.00000000000E+00 -0.00000000000E+00 -0.73700013476E+03  0.73700013476E+03  0.00000000000E+00 0.  1.
         24    2    1    2    0    0  0.38120211609E+02  0.12973393240E+03 -0.54715145561E+03  0.56934388139E+03  0.80583473196E+02 0.  0.
         25    2    1    2    0    0 -0.10207537940E+03 -0.63399270629E+02 -0.99761650221E+02  0.20009618267E+03  0.12508894782E+03 0.  0.
        -24    2    1    2    0    0  0.63955167790E+02 -0.66334661773E+02  0.10138748675E+03  0.15903458639E+03  0.80759063636E+02 0.  0.
        -13    1    3    3    0    0  0.33574629991E+02  0.79967709605E+02 -0.46628353211E+03  0.47428095331E+03  0.00000000000E+00 0.  1.
         14    1    3    3    0    0  0.45455816182E+01  0.49766222797E+02 -0.80867923502E+02  0.95062928081E+02  0.00000000000E+00 0. -1.
         11    1    5    5    0    0  0.41013758706E+02  0.84222177181E+01  0.51101215130E+02  0.66063578031E+02  0.00000000000E+00 0. -1.
        -12    1    5    5    0    0  0.22941409084E+02 -0.74756879491E+02  0.50286271622E+02  0.92971008361E+02  0.00000000000E+00 0.  1.
          5    1    4    4  501    0 -0.72526248095E+02 -0.82865479634E+02 -0.19003833001E+02  0.11182737789E+03  0.41800000000E+01 0.  1.
         -5    1    4    4    0  501 -0.29549131305E+02  0.19466209005E+02 -0.80757817220E+02  0.88268804773E+02  0.41800000000E+01 0.  1.
</event>
<event>
11    1  0.8037748E-009  0.1444191E+03  0.7561462E-02  0.1102722E+00
         22   -1    0    0    0    0  0.00000000000E+00  0.00000000000E+00  0.72011161791E+02  0.72011161791E+02  0.00000000000E+00 0.  1.
         22   -1    0    0    0    0 -0.00000000000E+00 -0.00000000000E+00 -0.11657179565E+04  0.11657179565E+04  0.00000000000E+00 0. -1.
        -24    2    1    2    0    0 -0.36657926857E+02 -0.88205781346E+01 -0.70072914857E+03  0.70677363747E+03  0.84178552900E+02 0.  0.
         25    2    1    2    0    0 -0.47836531859E+01  0.69649576943E+02 -0.39660741703E+03  0.42168329284E+03  0.12508161061E+03 0.  0.
         24    2    1    2    0    0  0.41441580043E+02 -0.60828998808E+02  0.36297709141E+01  0.10927218795E+03  0.80682489867E+02 0.  0.
        -13    1    5    5    0    0  0.24628596060E+02 -0.54982581288E+01  0.35258905463E+02  0.43358839938E+02  0.00000000000E+00 0.  1.
         14    1    5    5    0    0  0.16812983983E+02 -0.55330740679E+02 -0.31629134548E+02  0.65913348017E+02  0.00000000000E+00 0. -1.
         13    1    3    3    0    0 -0.17773149602E+02 -0.46664799317E+02 -0.37487620018E+03  0.37818732634E+03  0.00000000000E+00 0. -1.
        -14    1    3    3    0    0 -0.18884777255E+02  0.37844221182E+02 -0.32585294839E+03  0.32858631113E+03  0.00000000000E+00 0.  1.
          5    1    4    4  501    0  0.31424084208E+01  0.35835651934E+02 -0.38210137360E+03  0.38381375795E+03  0.41800000000E+01 0.  1.
         -5    1    4    4    0  501 -0.79260616067E+01  0.33813925009E+02 -0.14506043425E+02  0.37869534892E+02  0.41800000000E+01 0.  1.
</event>
<event>
11    1  0.8037748E-009  0.2358861E+03  0.7561462E-02  0.1031699E+00
         22   -1    0    0    0    0  0.00000000000E+00  0.00000000000E+00  0.12392687287E+04  0.12392687287E+04  0.00000000000E+00 0.  1.
         22   -1    0    0    0    0 -0.00000000000E+00 -0.00000000000E+00 -0.37998981420E+03  0.37998981420E+03  0.00000000000E+00 0. -1.
        -24    2    1    2    0    0  0.42997099513E+01 -0.46739557946E+01 -0.33002388873E+03  0.34157068103E+03  0.87831825883E+02 0.  0.
         25    2    1    2    0    0 -0.19828602924E+03  0.45088025066E+02  0.47095198300E+03  0.52800953345E+03  0.12509203702E+03 0.  0.
         24    2    1    2    0    0  0.19398631929E+03 -0.40414069272E+02  0.71835082027E+03  0.74967832846E+03  0.82010402429E+02 0.  0.
        -11    1    5    5    0    0  0.16582250675E+03 -0.39428653382E+02  0.68561196084E+03  0.70648105658E+03  0.00000000000E+00 0.  1.
         12    1    5    5    0    0  0.28163812536E+02 -0.98541589004E+00  0.32738859429E+02  0.43197271879E+02  0.00000000000E+00 0. -1.
         11    1    3    3    0    0 -0.66370499474E+01 -0.35109473464E+02 -0.27818762779E+03  0.28047296093E+03  0.00000000000E+00 0. -1.
        -12    1    3    3    0    0  0.10936759899E+02  0.30435517669E+02 -0.51836260946E+02  0.61097720102E+02  0.00000000000E+00 0.  1.
          5    1    4    4  501    0 -0.15560054820E+03  0.69422732011E+02  0.43436608854E+03  0.46660734842E+03  0.41800000000E+01 0. -1.
         -5    1    4    4    0  501 -0.42685481041E+02 -0.24334706945E+02  0.36585894460E+02  0.61402185036E+02  0.41800000000E+01 0. -1.
</event>
<event>
11    1  0.8037748E-009  0.1439499E+03  0.7561462E-02  0.1103226E+00
         22   -1    0    0    0    0  0.00000000000E+00  0.00000000000E+00  0.12331851187E+04  0.12331851187E+04  0.00000000000E+00 0. -1.
         22   -1    0    0    0    0 -0.00000000000E+00 -0.00000000000E+00 -0.34218959049E+03  0.34218959049E+03  0.00000000000E+00 0. -1.
        -24    2    1    2    0    0  0.24946598541E+01  0.36737749445E+02 -0.26559857447E+03  0.28012504897E+03  0.81065126519E+02 0.  0.
         25    2    1    2    0    0 -0.49010429602E+02 -0.89320507097E+02  0.30429920913E+02  0.16417130444E+03  0.12508421930E+03 0.  0.
         24    2    1    2    0    0  0.46515769748E+02  0.52582757652E+02  0.11261641818E+04  0.11310783558E+04  0.78509995433E+02 0.  0.
        -11    1    5    5    0    0  0.25890838663E+01 -0.12365301275E+02  0.37035335229E+02  0.39130807383E+02  0.00000000000E+00 0.  1.
         12    1    5    5    0    0  0.43926685881E+02  0.64948058927E+02  0.10891288466E+04  0.10919475484E+04  0.00000000000E+00 0. -1.
         13    1    3    3    0    0 -0.24375856381E+02  0.48326933565E+02 -0.21466373058E+03  0.22138245664E+03  0.00000000000E+00 0. -1.
        -14    1    3    3    0    0  0.26870516235E+02 -0.11589184120E+02 -0.50934843891E+02  0.58742592329E+02  0.00000000000E+00 0.  1.
          5    1    4    4  501    0 -0.47364082745E+02  0.17511130978E+02 -0.64161903279E+01  0.51074807300E+02  0.41800000000E+01 0. -1.
         -5    1    4    4    0  501 -0.16463468563E+01 -0.10683163808E+03  0.36846111240E+02  0.11309649714E+03  0.41800000000E+01 0. -1.
</event>
<event>
11    1  0.8037748E-009  0.1305251E+03  0.7561462E-02  0.1118625E+00
         22   -1    0    0    0    0  0.00000000000E+00  0.00000000000E+00  0.86146530259E+03  0.86146530259E+03  0.00000000000E+00 0. -1.
         22   -1    0    0    0    0 -0.00000000000E+00 -0.00000000000E+00 -0.18773700146E+03  0.18773700146E+03  0.00000000000E+00 0. -1.
         24    2    1    2    0    0 -0.50301063445E+01 -0.37226675520E+02 -0.12479900652E+03  0.15341999884E+03  0.80943045885E+02 0.  0.
         25    2    1    2    0    0  0.52864736896E+01  0.35513297925E+02  0.44756493405E+02  0.13760402458E+03  0.12507031120E+03 0.  0.
        -24    2    1    2    0    0 -0.25636734504E+00  0.17133775955E+01  0.75377081424E+03  0.75817828063E+03  0.81614112949E+02 0.  0.
        -13    1    3    3    0    0  0.20770431546E+01 -0.10576694088E+01  0.11752234373E+02  0.11981142917E+02  0.00000000000E+00 0.  1.
         14    1    3    3    0    0 -0.71071494992E+01 -0.36169006112E+02 -0.13655124089E+03  0.14143885592E+03  0.00000000000E+00 0. -1.
         11    1    5    5    0    0  0.35784661900E+02  0.18849267414E+02  0.44619001668E+03  0.44801938339E+03  0.00000000000E+00 0. -1.
        -12    1    5    5    0    0 -0.36041029245E+02 -0.17135889819E+02  0.30758079756E+03  0.31015889724E+03  0.00000000000E+00 0.  1.
          5    1    4    4  501    0 -0.35526238859E+02  0.41822593084E+02  0.69983827908E+02  0.89030621184E+02  0.41800000000E+01 0.  1.
         -5    1    4    4    0  501  0.40812712548E+02 -0.63092951594E+01 -0.25227334504E+02  0.48573403393E+02  0.41800000000E+01 0.  1.
</event>
<event>
11    1  0.8037748E-009  0.2496799E+03  0.7561462E-02  0.1024070E+00
         22   -1    0    0    0    0  0.00000000000E+00  0.00000000000E+00  0.37120710157E+03  0.37120710157E+03  0.00000000000E+00 0.  1.
         22   -1    0    0    0    0 -0.00000000000E+00 -0.00000000000E+00 -0.13243414198E+04  0.13243414198E+04  0.00000000000E+00 0.  1.
         24    2    1    2    0    0 -0.13734239012E+03  0.17232273525E+03 -0.12061320103E+04  0.12288864344E+04  0.82761012153E+02 0.  0.
         25    2    1    2    0    0  0.85799390446E+02 -0.15091052046E+03  0.21251971537E+02  0.21502800153E+03  0.12509945868E+03 0.  0.
        -24    2    1    2    0    0  0.51542999677E+02 -0.21412214792E+02  0.23174572048E+03  0.25163408552E+03  0.80613089989E+02 0.  0.
        -11    1    3    3    0    0 -0.87393706687E+02  0.45840167822E+02 -0.55499514345E+03  0.56370079848E+03  0.00000000000E+00 0.  1.
         12    1    3    3    0    0 -0.49948683435E+02  0.12648256743E+03 -0.65113686682E+03  0.66518563587E+03  0.00000000000E+00 0. -1.
         13    1    5    5    0    0  0.10393071222E+02 -0.79516244009E+01 -0.25835750971E+01  0.13338632625E+02  0.00000000000E+00 0. -1.
        -14    1    5    5    0    0  0.41149928455E+02 -0.13460590391E+02  0.23432929557E+03  0.23829545289E+03  0.00000000000E+00 0.  1.
          5    1    4    4  501    0  0.45899124003E+00 -0.81418246594E+02 -0.38020596684E+02  0.89956543528E+02  0.41800000000E+01 0. -1.
         -5    1    4    4    0  501  0.85340399206E+02 -0.69492273865E+02  0.59272568221E+02  0.12507145800E+03  0.41800000000E+01 0. -1.
</event>
<event>
11    1  0.8037748E-009  0.2610877E+03  0.7561462E-02  0.1018153E+00
         22   -1    0    0    0    0  0.00000000000E+00  0.00000000000E+00  0.77404957507E+03  0.77404957507E+03  0.00000000000E+00 0. -1.
         22   -1    0    0    0    0 -0.00000000000E+00 -0.00000000000E+00 -0.29242253726E+03  0.29242253726E+03  0.00000000000E+00 0.  1.
         24    2    1    2    0    0 -0.21102674214E+03  0.53855980057E+02 -0.14065334195E+03  0.27175428273E+03  0.81451059501E+02 0.  0.
         25    2    1    2    0    0  0.31840075454E+03  0.10774267370E+02  0.38983215361E+03  0.51876003363E+03  0.12509092363E+03 0.  0.
        -24    2    1    2    0    0 -0.10737401240E+03 -0.64630247428E+02  0.23244822614E+03  0.27595779596E+03  0.80089199603E+02 0.  0.
        -13    1    3    3    0    0 -0.11335562771E+03 -0.11643664555E+02 -0.56826468185E+02  0.12733546539E+03  0.00000000000E+00 0.  1.
         14    1    3    3    0    0 -0.97671114425E+02  0.65499644612E+02 -0.83826873769E+02  0.14441881734E+03  0.00000000000E+00 0. -1.
         11    1    5    5    0    0 -0.98645342981E+02 -0.39116211596E+02  0.22372461883E+03  0.24761600670E+03  0.00000000000E+00 0. -1.
        -12    1    5    5    0    0 -0.87286694233E+01 -0.25514035832E+02  0.87236073152E+01  0.28341789268E+02  0.00000000000E+00 0.  1.
          5    1    4    4  501    0  0.21304180840E+03 -0.15835067944E+02  0.33404902538E+03  0.39653976504E+03  0.41800000000E+01 0. -1.
         -5    1    4    4    0  501  0.10535894615E+03  0.26609335314E+02  0.55783128230E+02  0.12222026859E+03  0.41800000000E+01 0. -1.
</event>
<event>
11    1  0.8037748E-009  0.1328747E+03  0.7561462E-02  0.1115787E+00
         22   -1    0    0    0    0  0.00000000000E+00  0.00000000000E+00  0.55453633294E+02  0.55453633294E+02  0.00000000000E+00 0.  1.
         22   -1    0    0    0    0 -0.00000000000E+00 -0.00000000000E+00 -0.21916261174E+04  0.21916261174E+04  0.00000000000E+00 0. -1.
        -24    2    1    2    0    0 -0.37887948798E+02  0.64673014186E+01 -0.15813908292E+04  0.15838786354E+04  0.79982838178E+02 0.  0.
         25    2    1    2    0    0 -0.77516603382E+01 -0.22030450968E+02 -0.53940345032E+03  0.55421041692E+03  0.12509066714E+03 0.  0.
         24    2    1    2    0    0  0.45639609136E+02  0.15563149550E+02 -0.15378204641E+02  0.10899069840E+03  0.96526149900E+02 0.  0.
        -11    1    5    5    0    0  0.73048930511E+02  0.22448522216E+02  0.80411460971E+00  0.76424662242E+02  0.00000000000E+00 0.  1.
         12    1    5    5    0    0 -0.27409321375E+02 -0.68853726663E+01 -0.16182319251E+02  0.32566036162E+02  0.00000000000E+00 0. -1.
         13    1    3    3    0    0  0.70005659795E+01  0.12868264076E+02 -0.11533305449E+04  0.11534235762E+04  0.00000000000E+00 0. -1.
        -14    1    3    3    0    0 -0.44888514778E+02 -0.64009626573E+01 -0.42806028425E+03  0.43045505925E+03  0.00000000000E+00 0.  1.
          5    1    4    4  501    0 -0.30662064835E+02 -0.46273979459E+02 -0.49695254492E+03  0.50006074401E+03  0.41800000000E+01 0.  1.
         -5    1    4    4    0  501  0.22910404497E+02  0.24243528490E+02 -0.42450905393E+02  0.54149672913E+02  0.41800000000E+01 0.  1.
</event>
<event>
11    1  0.8037748E-009  0.1787982E+03  0.7561462E-02  0.1070619E+00
         22   -1    0    0    0    0  0.00000000000E+00  0.00000000000E+00  0.92266060557E+03  0.92266060557E+03  0.00000000000E+00 0.  1.
         22   -1    0    0    0    0 -0.00000000000E+00 -0.00000000000E+00 -0.64913030558E+03  0.64913030558E+03  0.00000000000E+00 0. -1.
         24    2    1    2    0    0 -0.10497137671E+03  0.74474674433E+02 -0.38353014621E+03  0.41236045689E+03  0.79876819499E+02 0.  0.
         25    2    1    2    0    0  0.71394712928E+02 -0.11132927674E+03 -0.21538618234E+03  0.28201116218E+03  0.12509066774E+03 0.  0.
        -24    2    1    2    0    0  0.33576663781E+02  0.36854602308E+02  0.87244662854E+03  0.87741929208E+03  0.78840601214E+02 0.  0.
        -11    1    3    3    0    0 -0.10862581928E+02  0.31626939726E+01 -0.26228705479E+00  0.11316674149E+02  0.00000000000E+00 0.  1.
         12    1    3    3    0    0 -0.94108794781E+02  0.71311980460E+02 -0.38326785916E+03  0.40104378274E+03  0.00000000000E+00 0. -1.
         13    1    5    5    0    0 -0.10480409925E+02 -0.78242882610E+01  0.31128716330E+02  0.33764707304E+02  0.00000000000E+00 0. -1.
        -14    1    5    5    0    0  0.44057073706E+02  0.44678890569E+02  0.84131791221E+03  0.84365458477E+03  0.00000000000E+00 0.  1.
          5    1    4    4  501    0  0.54502271951E+01 -0.10502066769E+03 -0.83435534248E+02  0.13430564543E+03  0.41800000000E+01 0.  1.
         -5    1    4    4    0  501  0.65944485733E+02 -0.63086090529E+01 -0.13195064810E+03  0.14770551676E+03  0.41800000000E+01 0.  1.
</event>
<event>
11    1  0.8037748E-009  0.1403577E+03  0.7561462E-02  0.1107160E+00
         22   -1    0    0    0    0  0.00000000000E+00  0.00000000000E+00  0.23631187590E+03  0.23631187590E+03  0.00000000000E+00 0. -1.
         22   -1    0    0    0    0 -0.00000000000E+00 -0.00000000000E+00 -0.66550500010E+03  0.66550500010E+03  0.00000000000E+00 0.  1.
        -24    2    1    2    0    0 -0.30954862417E+02  0.55956672663E+02 -0.31107123060E+03  0.32739004937E+03  0.79558665153E+02 0.  0.
         25    2    1    2    0    0 -0.33137422026E+02 -0.44577497800E+02 -0.31962573715E+03  0.34769860322E+03  0.12509382391E+03 0.  0.
         24    2    1    2    0    0  0.64092284443E+02 -0.11379174863E+02  0.20150384355E+03  0.22672822341E+03  0.81022106734E+02 0.  0.
        -13    1    5    5    0    0  0.38847591360E+02  0.16849530224E+01  0.21377902393E+02  0.44373293002E+02  0.00000000000E+00 0.  1.
         14    1    5    5    0    0  0.25244693083E+02 -0.13064127886E+02  0.18012594116E+03  0.18235493041E+03  0.00000000000E+00 0. -1.
         11    1    3    3    0    0 -0.41434672821E+02  0.16629693916E+02 -0.70841308909E+02  0.83736908705E+02  0.00000000000E+00 0. -1.
        -12    1    3    3    0    0  0.10479810404E+02  0.39326978746E+02 -0.24022992169E+03  0.24365314067E+03  0.00000000000E+00 0.  1.
          5    1    4    4  501    0 -0.17876085977E+02  0.38052116510E+02 -0.51110629003E+02  0.66312041273E+02  0.41800000000E+01 0. -1.
         -5    1    4    4    0  501 -0.15261336049E+02 -0.82629614309E+02 -0.26851510815E+03  0.28138656195E+03  0.41800000000E+01 0. -1.
</event>
<event>
11    1  0.8037748E-009  0.2119050E+03  0.7561462E-02  0.1046410E+00
         22   -1    0    0    0    0  0.00000000000E+00  0.00000000000E+00  0.17488744737E+03  0.17488744737E+03  0.00000000000E+00 0. -1.
         22   -1    0    0    0    0 -0.00000000000E+00 -0.00000000000E+00 -0.12168657391E+04  0.12168657391E+04  0.00000000000E+00 0. -1.
        -24    2    1    2    0    0 -0.40823268079E+02  0.13888017683E+02 -0.95403159695E+03  0.95854117544E+03  0.82252542770E+02 0.  0.
         25    2    1    2    0    0  0.19502690386E+03  0.24360852586E+02 -0.96531894578E+02  0.25217284827E+03  0.12507515486E+03 0.  0.
         24    2    1    2    0    0 -0.15420363578E+03 -0.38248870269E+02  0.85851998175E+01  0.18103916274E+03  0.86369759888E+02 0.  0.
        -11    1    5    5    0    0 -0.54589828492E+02 -0.54620691778E+02  0.19077680290E+02  0.79545127006E+02  0.00000000000E+00 0.  1.
         12    1    5    5    0    0 -0.99613807292E+02  0.16371821509E+02 -0.10492480473E+02  0.10149403573E+03  0.00000000000E+00 0. -1.
         13    1    3    3    0    0 -0.57405424199E+02 -0.14970013983E+02 -0.57585959595E+03  0.57890738317E+03  0.00000000000E+00 0. -1.
        -14    1    3    3    0    0  0.16582156120E+02  0.28858031666E+02 -0.37817200100E+03  0.37963379227E+03  0.00000000000E+00 0.  1.
          5    1    4    4  501    0  0.11879220596E+02  0.13321693494E+02 -0.62992472595E+02  0.65605696423E+02  0.41800000000E+01 0.  1.
         -5    1    4    4    0  501  0.18314768327E+03  0.11039159092E+02 -0.33539421983E+02  0.18656715184E+03  0.41800000000E+01 0.  1.
</event>
<event>
11    1  0.8037748E-009  0.1324837E+03  0.7561462E-02  0.1116254E+00
         22   -1    0    0    0    0  0.00000000000E+00  0.00000000000E+00  0.17880621817E+04  0.17880621817E+04  0.00000000000E+00 0. -1.
         22   -1    0    0    0    0 -0.00000000000E+00 -0.00000000000E+00 -0.75609761808E+03  0.75609761808E+03  0.00000000000E+00 0.  1.
        -24    2    1    2    0    0  0.18778645915E+02  0.45866845805E+01 -0.43966589771E+03  0.44736030408E+03  0.80321011216E+02 0.  0.
         25    2    1    2    0    0 -0.14150340209E+02  0.38831893682E+02 -0.29748121322E+03  0.32534703624E+03  0.12508986240E+03 0.  0.
         24    2    1    2    0    0 -0.46283057057E+01 -0.43418578263E+02  0.17691116746E+04  0.17714524595E+04  0.79881818934E+02 0.  0.
        -13    1    5    5    0    0  0.40908001416E+01 -0.50022254894E+02  0.54841724683E+03  0.55070903139E+03  0.00000000000E+00 0.  1.
         14    1    5    5    0    0 -0.87191058473E+01  0.66036766312E+01  0.12206944277E+04  0.12207434281E+04  0.00000000000E+00 0. -1.
         11    1    3    3    0    0  0.37184477081E+02  0.28987449127E+02 -0.18698596821E+03  0.19283855904E+03  0.00000000000E+00 0. -1.
        -12    1    3    3    0    0 -0.18405831166E+02 -0.24400764547E+02 -0.25267992949E+03  0.25452174504E+03  0.00000000000E+00 0.  1.
          5    1    4    4  501    0  0.27351467164E+02 -0.35042302414E+02 -0.75603023073E+02  0.87802933962E+02  0.41800000000E+01 0.  1.
         -5    1    4    4    0  501 -0.41501807374E+02  0.73874196096E+02 -0.22187819014E+03  0.23754410227E+03  0.41800000000E+01 0.  1.
</event>
<event>
11    1  0.8037748E-009  0.1278490E+03  0.7561462E-02  0.1121940E+00
         22   -1    0    0    0    0  0.00000000000E+00  0.00000000000E+00  0.12786226779E+03  0.12786226779E+03  0.00000000000E+00 0. -1.
         22   -1    0    0    0    0 -0.00000000000E+00 -0.00000000000E+00 -0.15667109829E+04  0.15667109829E+04  0.00000000000E+00 0.  1.
        -24    2    1    2    0    0 -0.57895875710E+01  0.37568015977E+02 -0.12232959868E+04  0.12274142572E+04  0.92993614944E+02 0.  0.
         25    2    1    2    0    0 -0.46456906465E+01 -0.59250888826E+02 -0.30138088149E+03  0.33168008284E+03  0.12509592861E+03 0.  0.
         24    2    1    2    0    0  0.10435278217E+02  0.21682872850E+02  0.85828153138E+02  0.13547891065E+03  0.10202461151E+03 0.  0.
        -11    1    5    5    0    0 -0.36254099101E+02 -0.19981392169E+02  0.25873549451E+02  0.48816557599E+02  0.00000000000E+00 0.  1.
         12    1    5    5    0    0  0.46689377318E+02  0.41664265019E+02  0.59954603687E+02  0.86662353055E+02  0.00000000000E+00 0. -1.
         13    1    3    3    0    0  0.12228101091E+02  0.35643485815E+02 -0.17724973007E+03  0.18121106850E+03  0.00000000000E+00 0. -1.
        -14    1    3    3    0    0 -0.18017688662E+02  0.19245301616E+01 -0.10460462567E+04  0.10462031887E+04  0.00000000000E+00 0.  1.
          5    1    4    4  501    0 -0.25784599294E+02  0.26960661908E+02 -0.16267210074E+03  0.16694731986E+03  0.41800000000E+01 0.  1.
         -5    1    4    4    0  501  0.21138908648E+02 -0.86211550734E+02 -0.13870878076E+03  0.16473276298E+03  0.41800000000E+01 0.  1.
</event>
<event>
11    1  0.8037748E-009  0.1374452E+03  0.7561462E-02  0.1110445E+00
         22   -1    0    0    0    0  0.00000000000E+00  0.00000000000E+00  0.18947940407E+04  0.18947940407E+04  0.00000000000E+00 0. -1.
         22   -1    0    0    0    0 -0.00000000000E+00 -0.00000000000E+00 -0.17210126416E+03  0.17210126416E+03  0.00000000000E+00 0. -1.
         24    2    1    2    0    0  0.33384882093E+02 -0.83646230249E+01 -0.13935835606E+03  0.16467386265E+03  0.80698279816E+02 0.  0.
         25    2    1    2    0    0 -0.60360948166E+02 -0.40956063676E+02  0.26414456132E+03  0.30123468197E+03  0.12509652725E+03 0.  0.
        -24    2    1    2    0    0  0.26976066073E+02  0.49320686701E+02  0.15979065713E+04  0.16009867603E+04  0.81810498358E+02 0.  0.
        -11    1    3    3    0    0  0.19741805583E+02  0.10389016261E+02  0.10789302447E+01  0.22334606265E+02  0.00000000000E+00 0.  1.
         12    1    3    3    0    0  0.13643076510E+02 -0.18753639286E+02 -0.14043728631E+03  0.14233925639E+03  0.00000000000E+00 0. -1.
         11    1    5    5    0    0  0.50589958988E+02  0.54766653296E+02  0.12693199533E+04  0.12715077169E+04  0.00000000000E+00 0. -1.
        -12    1    5    5    0    0 -0.23613892915E+02 -0.54459665946E+01  0.32858661801E+03  0.32947904338E+03  0.00000000000E+00 0.  1.
          5    1    4    4  501    0  0.19281334368E+02  0.30353837059E+02  0.48614636201E+02  0.60613369253E+02  0.41800000000E+01 0.  1.
         -5    1    4    4    0  501 -0.79642282534E+02 -0.71309900735E+02  0.21552992512E+03  0.24062131272E+03  0.41800000000E+01 0.  1.
</event>
<event>
11    1  0.8037748E-009  0.1367049E+03  0.7561462E-02  0.1111295E+00
         22   -1    0    0    0    0  0.00000000000E+00  0.00000000000E+00  0.50718098085E+03  0.50718098085E+03  0.00000000000E+00 0. -1.
         22   -1    0    0    0    0 -0.00000000000E+00 -0.00000000000E+00 -0.11007935007E+04  0.11007935007E+04  0.00000000000E+00 0. -1.
         24    2    1    2    0    0  0.46721443215E+02 -0.29235804349E+02 -0.10479252312E+04  0.10528191966E+04  0.85107844279E+02 0.  0.
         25    2    1    2    0    0 -0.36423275354E+02  0.47821605427E+02  0.57944620596E+02  0.15039494356E+03  0.12508996387E+03 0.  0.
        -24    2    1    2    0    0 -0.10298167862E+02 -0.18585801078E+02  0.39636809072E+03  0.40476034137E+03  0.79194610521E+02 0.  0.
        -11    1    3    3    0    0  0.68913572809E+02 -0.98769100204E+01 -0.62378849775E+03  0.62766131297E+03  0.00000000000E+00 0.  1.
         12    1    3    3    0    0 -0.22192129594E+02 -0.19358894329E+02 -0.42413673342E+03  0.42515788366E+03  0.00000000000E+00 0. -1.
         11    1    5    5    0    0 -0.10317615883E+02  0.10895690936E+02  0.34653403787E+03  0.34685877340E+03  0.00000000000E+00 0. -1.
        -12    1    5    5    0    0  0.19448021675E-01 -0.29481492014E+02  0.49834052850E+02  0.57901567967E+02  0.00000000000E+00 0.  1.
          5    1    4    4  501    0 -0.41369307747E+02  0.15094963862E+02  0.92395330498E+02  0.10243850377E+03  0.41800000000E+01 0. -1.
         -5    1    4    4    0  501  0.49460323933E+01  0.32726641565E+02 -0.34450709901E+02  0.47956439789E+02  0.41800000000E+01 0. -1.
</event>
<event>
11    1  0.8037748E-009  0.2076219E+03  0.7561462E-02  0.1049261E+00
         22   -1    0    0    0    0  0.00000000000E+00  0.00000000000E+00  0.16266144033E+04  0.16266144033E+04  0.00000000000E+00 0.  1.
         22   -1    0    0    0    0 -0.00000000000E+00 -0.00000000000E+00 -0.31920226115E+03  0.31920226115E+03  0.00000000000E+00 0.  1.
        -24    2    1    2    0    0  0.16381488899E+03  0.11312127895E+00 -0.25925035198E+03  0.31683041643E+03  0.79595459171E+02 0.  0.
         25    2    1    2    0    0 -0.19651670472E+03 -0.29037584609E+02  0.44186664845E+03  0.50035577071E+03  0.12509102969E+03 0.  0.
         24    2    1    2    0    0  0.32701815726E+02  0.28924463330E+02  0.11247958456E+04  0.11286304773E+04  0.82067207457E+02 0.  0.
        -13    1    5    5    0    0  0.21740746407E+02  0.30955958255E+02  0.11069022476E+04  0.11075484265E+04  0.00000000000E+00 0.  1.
         14    1    5    5    0    0  0.10961069319E+02 -0.20314949251E+01  0.17893598051E+02  0.21082050741E+02  0.00000000000E+00 0. -1.
         13    1    3    3    0    0  0.10240430798E+02 -0.24342322801E+02 -0.43216536947E+02  0.50646659988E+02  0.00000000000E+00 0. -1.
        -14    1    3    3    0    0  0.15357445820E+03  0.24455444080E+02 -0.21603381503E+03  0.26618375644E+03  0.00000000000E+00 0.  1.
          5    1    4    4  501    0  0.12495618435E+02  0.13016549711E+02  0.17775809749E+02  0.25671440526E+02  0.41800000000E+01 0. -1.
         -5    1    4    4    0  501 -0.20901232316E+03 -0.42054134320E+02  0.42409083870E+03  0.47468433018E+03  0.41800000000E+01 0. -1.
</event>
<event>
11    1  0.8037748E-009  0.1465091E+03  0.7561462E-02  0.1100500E+00
         22   -1    0    0    0    0  0.00000000000E+00  0.00000000000E+00  0.93323548738E+03  0.93323548738E+03  0.00000000000E+00 0. -1.
         22   -1    0    0    0    0 -0.00000000000E+00 -0.00000000000E+00 -0.88441423154E+03  0.88441423154E+03  0.00000000000E+00 0.  1.
        -24    2    1    2    0    0 -0.58996442243E+02  0.16492858094E+02 -0.66112618522E+03  0.66894652603E+03  0.81541568120E+02 0.  0.
         25    2    1    2    0    0  0.95115483575E+02 -0.82917923811E+02 -0.17939037269E+03  0.25248602557E+03  0.12508377188E+03 0.  0.
         24    2    1    2    0    0 -0.36119041332E+02  0.66425065717E+02  0.88933781375E+03  0.89621716733E+03  0.81034496037E+02 0.  0.
        -11    1    5    5    0    0 -0.44989632253E+00  0.29801748901E+02  0.81767057803E+02  0.87029870653E+02  0.00000000000E+00 0.  1.
         12    1    5    5    0    0 -0.35669145010E+02  0.36623316817E+02  0.80757075595E+03  0.80918729668E+03  0.00000000000E+00 0. -1.
         13    1    3    3    0    0  0.18964321299E+02  0.68067195201E+01 -0.78359933657E+02  0.80908937181E+02  0.00000000000E+00 0. -1.
        -14    1    3    3    0    0 -0.77960763543E+02  0.96861385738E+01 -0.58276625156E+03  0.58803758885E+03  0.00000000000E+00 0.  1.
          5    1    4    4  501    0  0.93484193064E+02 -0.54817686775E+02 -0.48965843800E+02  0.11899327458E+03  0.41800000000E+01 0.  1.
         -5    1    4    4    0  501  0.16312905116E+01 -0.28100237037E+02 -0.13042452889E+03  0.13349275099E+03  0.41800000000E+01 0.  1.
</event>
<event>
11    1  0.8037748E-009  0.1929209E+03  0.7561462E-02  0.1059646E+00
         22   -1    0    0    0    0  0.00000000000E+00  0.00000000000E+00  0.15824583864E+04  0.15824583864E+04  0.00000000000E+00 0. -1.
         22   -1    0    0    0    0 -0.00000000000E+00 -0.00000000000E+00 -0.36930698839E+03  0.36930698839E+03  0.00000000000E+00 0.  1.
        -24    2    1    2    0    0 -0.74365917999E+02  0.31443306851E+02 -0.32838784950E+03  0.34740007691E+03  0.79556661792E+02 0.  0.
         25    2    1    2    0    0  0.65952238183E+02  0.12131390435E+03  0.31601185192E+03  0.36684847241E+03  0.12509016764E+03 0.  0.
         24    2    1    2    0    0  0.84136798161E+01 -0.15275721120E+03  0.12255273956E+04  0.12375168255E+04  0.78261998713E+02 0.  0.
        -11    1    5    5    0    0 -0.43697056670E+01  0.85796199185E+01  0.52250560466E+02  0.53130267029E+02  0.00000000000E+00 0.  1.
         12    1    5    5    0    0  0.12783385483E+02 -0.16133683112E+03  0.11732768351E+04  0.11843865584E+04  0.00000000000E+00 0. -1.
         13    1    3    3    0    0 -0.15496382647E+01 -0.22600618710E+02 -0.67990305342E+02  0.71664991212E+02  0.00000000000E+00 0. -1.
        -14    1    3    3    0    0 -0.72816279734E+02  0.54043925561E+02 -0.26039754415E+03  0.27573508570E+03  0.00000000000E+00 0.  1.
          5    1    4    4  501    0  0.10154114895E+03  0.69833664060E+02  0.21891705208E+03  0.25125583308E+03  0.41800000000E+01 0. -1.
         -5    1    4    4    0  501 -0.35588910764E+02  0.51480240288E+02  0.97094799840E+02  0.11559263932E+03  0.41800000000E+01 0. -1.
</event>
<event>
11    1  0.8037748E-009  0.2322980E+03  0.7561462E-02  0.1033776E+00
         22   -1    0    0    0    0  0.00000000000E+00  0.00000000000E+00  0.23181888246E+04  0.23181888246E+04  0.00000000000E+00 0. -1.
         22   -1    0    0    0    0 -0.00000000000E+00 -0.00000000000E+00 -0.21027436505E+03  0.21027436505E+03  0.00000000000E+00 0. -1.
        -24    2    1    2    0    0  0.12833411737E+03  0.14067785174E+03 -0.81409215162E+02  0.22171984424E+03  0.79198013664E+02 0.  0.
         25    2    1    2    0    0 -0.21753203749E+03 -0.93276889805E+02  0.26253983671E+03  0.37495899183E+03  0.12508522771E+03 0.  0.
         24    2    1    2    0    0  0.89197920122E+02 -0.47400961932E+02  0.19267838380E+04  0.19317843536E+04  0.95350459711E+02 0.  0.
        -13    1    5    5    0    0  0.90985404733E+02 -0.14956932938E+02  0.95098640722E+03  0.95544607406E+03  0.00000000000E+00 0.  1.
         14    1    5    5    0    0 -0.17874846111E+01 -0.32444028993E+02  0.97579743077E+03  0.97633827950E+03  0.00000000000E+00 0. -1.
         11    1    3    3    0    0  0.11950742051E+03  0.10053521841E+03 -0.89253401940E+02  0.17987641162E+03  0.00000000000E+00 0. -1.
        -12    1    3    3    0    0  0.88266968555E+01  0.40142633327E+02  0.78441867782E+01  0.41843432627E+02  0.00000000000E+00 0.  1.
          5    1    4    4  501    0 -0.96923083254E+02  0.23420107723E+02  0.95111967500E+02  0.13786349870E+03  0.41800000000E+01 0. -1.
         -5    1    4    4    0  501 -0.12060895423E+03 -0.11669699753E+03  0.16742786921E+03  0.23709549313E+03  0.41800000000E+01 0. -1.
</event>
<event>
11    1  0.8037748E-009  0.1374145E+03  0.7561462E-02  0.1110480E+00
         22   -1    0    0    0    0  0.00000000000E+00  0.00000000000E+00  0.21259631040E+04  0.21259631040E+04  0.00000000000E+00 0. -1.
         22   -1    0    0    0    0 -0.00000000000E+00 -0.00000000000E+00 -0.29208936262E+03  0.29208936262E+03  0.00000000000E+00 0. -1.
        -24    2    1    2    0    0  0.22651019121E+02 -0.34372203591E+02 -0.91825943933E+02  0.14534603713E+03  0.10487587656E+03 0.  0.
         25    2    1    2    0    0 -0.23261995246E+02  0.72584649939E+02 -0.14146336998E+03  0.20363996616E+03  0.12509076281E+03 0.  0.
         24    2    1    2    0    0  0.61097612500E+00 -0.38212446347E+02  0.20671630553E+04  0.20690664633E+04  0.80077263772E+02 0.  0.
        -11    1    5    5    0    0  0.38228483520E+02 -0.17534544541E+02  0.72650952373E+03  0.72772588608E+03  0.00000000000E+00 0.  1.
         12    1    5    5    0    0 -0.37617507395E+02 -0.20677901806E+02  0.13406535316E+04  0.13413405773E+04  0.00000000000E+00 0. -1.
         13    1    3    3    0    0  0.17714346157E+01 -0.32363799528E+02 -0.11178652073E+03  0.11639063415E+03  0.00000000000E+00 0. -1.
        -14    1    3    3    0    0  0.20879584506E+02 -0.20084040633E+01  0.19960576795E+02  0.28955402984E+02  0.00000000000E+00 0.  1.
          5    1    4    4  501    0 -0.43902954883E+02 -0.13683867234E+02 -0.13921595202E+02  0.48228631360E+02  0.41800000000E+01 0.  1.
         -5    1    4    4    0  501  0.20640959636E+02  0.86268517173E+02 -0.12754177478E+03  0.15541133480E+03  0.41800000000E+01 0.  1.
</event>
<event>
11    1  0.8037748E-009  0.2285001E+03  0.7561462E-02  0.1036020E+00
         22   -1    0    0    0    0  0.00000000000E+00  0.00000000000E+00  0.26979642893E+04  0.26979642893E+04  0.00000000000E+00 0. -1.
         22   -1    0    0    0    0 -0.00000000000E+00 -0.00000000000E+00 -0.13076357789E+03  0.13076357789E+03  0.00000000000E+00 0.  1.
         24    2    1    2    0    0  0.10495518294E+03 -0.36981623110E+02 -0.46959478900E+02  0.14231430778E+03  0.75265786828E+02 0.  0.
         25    2    1    2    0    0 -0.27668811182E+03 -0.11226506538E+02  0.71085272336E+03  0.77307187032E+03  0.12508467809E+03 0.  0.
        -24    2    1    2    0    0  0.17173292889E+03  0.48208129648E+02  0.19033074670E+04  0.19133416891E+04  0.80503930696E+02 0.  0.
        -11    1    3    3    0    0  0.49687085326E+02 -0.54935802671E+02 -0.13606894798E+02  0.75311994060E+02  0.00000000000E+00 0.  1.
         12    1    3    3    0    0  0.55268097611E+02  0.17954179562E+02 -0.33352584102E+02  0.67002313718E+02  0.00000000000E+00 0. -1.
         11    1    5    5    0    0  0.17710723605E+03  0.48794578676E+02  0.18909604135E+04  0.18998629344E+04  0.00000000000E+00 0. -1.
        -12    1    5    5    0    0 -0.53743071686E+01 -0.58644902777E+00  0.12347053427E+02  0.13478754703E+02  0.00000000000E+00 0.  1.
          5    1    4    4  501    0 -0.39915000837E+02  0.10598055186E+02  0.28200620494E+02  0.50182401914E+02  0.41800000000E+01 0. -1.
         -5    1    4    4    0  501 -0.23677311099E+03 -0.21824561724E+02  0.68265210287E+03  0.72288946840E+03  0.41800000000E+01 0. -1.
</event>
<event>
11    1  0.8037748E-009  0.1722740E+03  0.7561462E-02  0.1076070E+00
         22   -1    0    0    0    0  0.00000000000E+00  0.00000000000E+00  0.51693336670E+03  0.51693336670E+03  0.00000000000E+00 0.  1.
         22   -1    0    0    0    0 -0.00000000000E+00 -0.00000000000E+00 -0.35982406794E+03  0.35982406794E+03  0.00000000000E+00 0.  1.
         24    2    1    2    0    0  0.61327123291E+02  0.24863754078E+02 -0.25589906038E+03  0.27663735545E+03  0.81637460837E+02 0.  0.
         25    2    1    2    0    0  0.26503867407E+02 -0.10932792920E+03  0.68638561402E+01  0.16837267323E+03  0.12508874242E+03 0.  0.
        -24    2    1    2    0    0 -0.87830990698E+02  0.84464175123E+02  0.40614450300E+03  0.43174740596E+03  0.81264908935E+02 0.  0.
        -11    1    3    3    0    0  0.70725388223E+02  0.65093667094E+01 -0.24086438038E+03  0.25111770573E+03  0.00000000000E+00 0.  1.
         12    1    3    3    0    0 -0.93982649315E+01  0.18354387368E+02 -0.15034679994E+02  0.25519649721E+02  0.00000000000E+00 0. -1.
         13    1    5    5    0    0 -0.92880514237E+02  0.39354908297E+02  0.29036644771E+03  0.30738944791E+03  0.00000000000E+00 0. -1.
        -14    1    5    5    0    0  0.50495235386E+01  0.45109266826E+02  0.11577805529E+03  0.12435795804E+03  0.00000000000E+00 0.  1.
          5    1    4    4  501    0  0.62152646540E+02 -0.86332785677E+02 -0.31501444458E+02  0.11102303706E+03  0.41800000000E+01 0.  1.
         -5    1    4    4    0  501 -0.35648779134E+02 -0.22995143523E+02  0.38365300598E+02  0.57349636175E+02  0.41800000000E+01 0.  1.
</event>
<event>
11    1  0.8037748E-009  0.2352619E+03  0.7561462E-02  0.1032057E+00
         22   -1    0    0    0    0  0.00000000000E+00  0.00000000000E+00  0.20315926460E+04  0.20315926460E+04  0.00000000000E+00 0. -1.
         22   -1    0    0    0    0 -0.00000000000E+00 -0.00000000000E+00 -0.17677377502E+03  0.17677377502E+03  0.00000000000E+00 0.  1.
         24    2    1    2    0    0 -0.18151297329E+03  0.86788768090E+02 -0.86527617548E+02  0.23321677623E+03  0.80148526975E+02 0.  0.
         25    2    1    2    0    0  0.18998139835E+03  0.23883328728E+02  0.13795655547E+04  0.13983961187E+04  0.12508892833E+03 0.  0.
        -24    2    1    2    0    0 -0.84684250577E+01 -0.11067209682E+03  0.56178093390E+03  0.57675352617E+03  0.68751618242E+02 0.  0.
        -11    1    3    3    0    0 -0.17675222664E+03  0.64725773616E+02 -0.92697314243E+02  0.20981793884E+03  0.00000000000E+00 0.  1.
         12    1    3    3    0    0 -0.47607466555E+01  0.22062994474E+02  0.61696966945E+01  0.23398837390E+02  0.00000000000E+00 0. -1.
         11    1    5    5    0    0 -0.68444244534E+01 -0.29620687584E+02  0.32621432983E+03  0.32762786857E+03  0.00000000000E+00 0. -1.
        -12    1    5    5    0    0 -0.16240006043E+01 -0.81051409234E+02  0.23556660408E+03  0.24912565760E+03  0.00000000000E+00 0.  1.
          5    1    4    4  501    0  0.63254982716E+02  0.64245575556E+02  0.41542799614E+03  0.42511948814E+03  0.41800000000E+01 0. -1.
         -5    1    4    4    0  501  0.12672641563E+03 -0.40362246828E+02  0.96413755853E+03  0.97327663054E+03  0.41800000000E+01 0. -1.
</event>
<event>
11    1  0.8037748E-009  0.1515814E+03  0.7561462E-02  0.1095274E+00
         22   -1    0    0    0    0  0.00000000000E+00  0.00000000000E+00  0.10084512868E+03  0.10084512868E+03  0.00000000000E+00 0.  1.
         22   -1    0    0    0    0 -0.00000000000E+00 -0.00000000000E+00 -0.11794226866E+04  0.11794226866E+04  0.00000000000E+00 0.  1.
         24    2    1    2    0    0  0.36637879878E+02  0.60539351196E+01 -0.93349260791E+03  0.93747953413E+03  0.77977198699E+02 0.  0.
         25    2    1    2    0    0  0.46358706495E+02 -0.45448442095E+02 -0.16720382392E+03  0.21867737338E+03  0.12509190358E+03 0.  0.
        -24    2    1    2    0    0 -0.82996586372E+02  0.39394506975E+02  0.22118873866E+02  0.12411090781E+03  0.80460625943E+02 0.  0.
        -13    1    3    3    0    0  0.46000749311E+02  0.20042232936E+02 -0.33375839428E+03  0.33750914919E+03  0.00000000000E+00 0.  1.
         14    1    3    3    0    0 -0.93628694330E+01 -0.13988297816E+02 -0.59973421363E+03  0.59997038494E+03  0.00000000000E+00 0. -1.
         13    1    5    5    0    0 -0.38155858209E+02 -0.35388614043E+01 -0.25363943166E+02  0.45953483748E+02  0.00000000000E+00 0. -1.
        -14    1    5    5    0    0 -0.44840728164E+02  0.42933368379E+02  0.47482817032E+02  0.78157424062E+02  0.00000000000E+00 0.  1.
          5    1    4    4  501    0 -0.38356063163E+02  0.92028404719E+01 -0.40247517639E+02  0.56508538561E+02  0.41800000000E+01 0.  1.
         -5    1    4    4    0  501  0.84714769658E+02 -0.54651282566E+02 -0.12695630628E+03  0.16216883482E+03  0.41800000000E+01 0.  1.
</event>
<event>
11    1  0.8037748E-009  0.1282103E+03  0.7561462E-02  0.1121488E+00
         22   -1    0    0    0    0  0.00000000000E+00  0.00000000000E+00  0.25427286866E+03  0.25427286866E+03  0.00000000000E+00 0.  1.
         22   -1    0    0    0    0 -0.00000000000E+00 -0.00000000000E+00 -0.22319589322E+03  0.22319589322E+03  0.00000000000E+00 0.  1.
        -24    2    1    2    0    0 -0.28912508884E+02 -0.10570034048E+02 -0.15866849908E+03  0.18067880963E+03  0.80755686250E+02 0.  0.
         25    2    1    2    0    0  0.15311732841E+01 -0.11400465187E+02  0.56913643776E+02  0.13790975886E+03  0.12509046184E+03 0.  0.
         24    2    1    2    0    0  0.27381335600E+02  0.21970499234E+02  0.13283183074E+03  0.15888019339E+03  0.79788346381E+02 0.  0.
        -11    1    5    5    0    0  0.13070848363E+02  0.20090466191E+02  0.14050446204E+03  0.14253412841E+03  0.00000000000E+00 0.  1.
         12    1    5    5    0    0  0.14310487236E+02  0.18800330433E+01 -0.76726313012E+01  0.16346064978E+02  0.00000000000E+00 0. -1.
         13    1    3    3    0    0 -0.19096114345E+02  0.15279332119E+02 -0.55428957261E+01  0.25076747519E+02  0.00000000000E+00 0. -1.
        -14    1    3    3    0    0 -0.98163945387E+01 -0.25849366167E+02 -0.15312560335E+03  0.15560206212E+03  0.00000000000E+00 0.  1.
          5    1    4    4  501    0 -0.52633673346E+02 -0.37071240085E+02  0.38209593566E+02  0.74980169724E+02  0.41800000000E+01 0.  1.
         -5    1    4    4    0  501  0.54164846630E+02  0.25670774898E+02  0.18704050211E+02  0.62929589135E+02  0.41800000000E+01 0.  1.
</event>
<event>
11    1  0.8037748E-009  0.1738826E+03  0.7561462E-02  0.1074701E+00
         22   -1    0    0    0    0  0.00000000000E+00  0.00000000000E+00  0.34324347605E+04  0.34324347605E+04  0.00000000000E+00 0. -1.
         22   -1    0    0    0    0 -0.00000000000E+00 -0.00000000000E+00 -0.26980173830E+04  0.26980173830E+04  0.00000000000E+00 0.  1.
         24    2    1    2    0    0 -0.40920622007E+02  0.11364892227E+03 -0.26804544161E+04  0.26843449999E+04  0.79256716971E+02 0.  0.
         25    2    1    2    0    0  0.40542836977E+02 -0.11040927176E+03  0.47342863674E+03  0.50360326221E+03  0.12509053805E+03 0.  0.
        -24    2    1    2    0    0  0.37778503041E+00 -0.32396505094E+01  0.29414431568E+04  0.29425038814E+04  0.78934209706E+02 0.  0.
        -13    1    3    3    0    0 -0.61928295102E+02  0.84556920143E+02 -0.22309231753E+04  0.22333838006E+04  0.00000000000E+00 0.  1.
         14    1    3    3    0    0  0.21007673095E+02  0.29092002127E+02 -0.44953124074E+03  0.45096119935E+03  0.00000000000E+00 0. -1.
         11    1    5    5    0    0 -0.45925770340E+01 -0.22169104360E+02  0.27439438879E+04  0.27440372849E+04  0.00000000000E+00 0. -1.
        -12    1    5    5    0    0  0.49703620645E+01  0.18929453851E+02  0.19749926884E+03  0.19846659647E+03  0.00000000000E+00 0.  1.
          5    1    4    4  501    0 -0.11918601669E+02  0.17964706876E+02  0.21023247223E+02  0.30401201993E+02  0.41800000000E+01 0.  1.
         -5    1    4    4    0  501  0.52461438646E+02 -0.12837397864E+03  0.45240538951E+03  0.47320206022E+03  0.41800000000E+01 0.  1.
</event>
<event>
11    1  0.8037748E-009  0.1453604E+03  0.7561462E-02  0.1101716E+00
         22   -1    0    0    0    0  0.00000000000E+00  0.00000000000E+00  0.30067128546E+03  0.30067128546E+03  0.00000000000E+00 0. -1.
         22   -1    0    0    0    0 -0.00000000000E+00 -0.00000000000E+00 -0.30386217070E+03  0.30386217070E+03  0.00000000000E+00 0.  1.
        -24    2    1    2    0    0 -0.67001176744E+02 -0.27911107922E+02 -0.21835682213E+03  0.24324395088E+03  0.78865266368E+02 0.  0.
         25    2    1    2    0    0  0.77112458636E+02  0.34147548866E+02  0.22556555076E+02  0.15254024851E+03  0.12508933955E+03 0.  0.
         24    2    1    2    0    0 -0.10111281892E+02 -0.62364409430E+01  0.19260938181E+03  0.20874925677E+03  0.79603687254E+02 0.  0.
        -13    1    5    5    0    0  0.11943453215E+02  0.22406408926E+02  0.19797518684E+02  0.32196816329E+02  0.00000000000E+00 0.  1.
         14    1    5    5    0    0 -0.22054735107E+02 -0.28642849869E+02  0.17281186312E+03  0.17655244044E+03  0.00000000000E+00 0. -1.
         11    1    3    3    0    0 -0.44030588759E+01 -0.16892541313E+00  0.66905335868E+01  0.80111611478E+01  0.00000000000E+00 0. -1.
        -12    1    3    3    0    0 -0.62598117868E+02 -0.27742182509E+02 -0.22504735571E+03  0.23523278973E+03  0.00000000000E+00 0.  1.
          5    1    4    4  501    0  0.82172070578E+02  0.49955359596E+02  0.58563774325E+02  0.11267198054E+03  0.41800000000E+01 0.  1.
         -5    1    4    4    0  501 -0.50596119422E+01 -0.15807810730E+02 -0.36007219249E+02  0.39868267973E+02  0.41800000000E+01 0.  1.
</event>
<event>
11    1  0.8037748E-009  0.2254481E+03  0.7561462E-02  0.1037857E+00
         22   -1    0    0    0    0  0.00000000000E+00  0.00000000000E+00  0.59030392312E+03  0.59030392312E+03  0.00000000000E+00 0.  1.
         22   -1    0    0    0    0 -0.00000000000E+00 -0.00000000000E+00 -0.19627127697E+04  0.19627127697E+04  0.00000000000E+00 0. -1.
         24    2    1    2    0    0 -0.11022028153E+03  0.51231726917E+01 -0.18258398180E+04  0.18308761916E+04  0.79005257547E+02 0.  0.
         25    2    1    2    0    0  0.22029277108E+03  0.13184550972E+03  0.72183963947E+02  0.29456750681E+03  0.12508936004E+03 0.  0.
        -24    2    1    2    0    0 -0.11007248955E+03 -0.13696868242E+03  0.38124700750E+03  0.42757299436E+03  0.81197363657E+02 0.  0.
        -11    1    3    3    0    0  0.99945744386E+01  0.11518238970E+02 -0.22502162720E+03  0.22553778853E+03  0.00000000000E+00 0.  1.
         12    1    3    3    0    0 -0.12021485597E+03 -0.63950662779E+01 -0.16008181908E+04  0.16053384031E+04  0.00000000000E+00 0. -1.
         11    1    5    5    0    0  0.87851196883E+01 -0.31206063385E+02  0.90660489167E+02  0.96282506282E+02  0.00000000000E+00 0. -1.
        -12    1    5    5    0    0 -0.11885760924E+03 -0.10576261903E+03  0.29058651833E+03  0.33129048808E+03  0.00000000000E+00 0.  1.
          5    1    4    4  501    0  0.15297283135E+03  0.14793054594E+03  0.34410407128E+02  0.21560538507E+03  0.41800000000E+01 0.  1.
         -5    1    4    4    0  501  0.67319939729E+02 -0.16085036214E+02  0.37773556820E+02  0.78962121742E+02  0.41800000000E+01 0.  1.
</event>
<event>
11    1  0.8037748E-009  0.2048879E+03  0.7561462E-02  0.1051120E+00
         22   -1    0    0    0    0  0.00000000000E+00  0.00000000000E+00  0.11915556311E+04  0.11915556311E+04  0.00000000000E+00 0.  1.
         22   -1    0    0    0    0 -0.00000000000E+00 -0.00000000000E+00 -0.83877483889E+03  0.83877483889E+03  0.00000000000E+00 0. -1.
        -24    2    1    2    0    0 -0.12888628901E+03  0.85194857328E+02 -0.67575062558E+03  0.69786576796E+03  0.80671450345E+02 0.  0.
         25    2    1    2    0    0  0.20306092509E+03 -0.18099389497E+03  0.57238382379E+01  0.29945382281E+03  0.12508916962E+03 0.  0.
         24    2    1    2    0    0 -0.74174636083E+02  0.95799037643E+02  0.10228075795E+04  0.10330108792E+04  0.79352375692E+02 0.  0.
        -13    1    5    5    0    0 -0.22673509336E+02  0.30093440897E+02  0.64453654758E+03  0.64563694472E+03  0.00000000000E+00 0.  1.
         14    1    5    5    0    0 -0.51501126747E+02  0.65705596746E+02  0.37827103196E+03  0.38737393449E+03  0.00000000000E+00 0. -1.
         11    1    3    3    0    0 -0.11151611429E+03  0.30891192599E+02 -0.49454293762E+03  0.50790041019E+03  0.00000000000E+00 0. -1.
        -12    1    3    3    0    0 -0.17370174718E+02  0.54303664728E+02 -0.18120768797E+03  0.18996535777E+03  0.00000000000E+00 0.  1.
          5    1    4    4  501    0  0.12101603235E+03 -0.10051298877E+03 -0.58308956783E+02  0.16782475336E+03  0.41800000000E+01 0. -1.
         -5    1    4    4    0  501  0.82044892737E+02 -0.80480906196E+02  0.64032795021E+02  0.13162906945E+03  0.41800000000E+01 0. -1.
</event>
<event>
11    1  0.8037748E-009  0.1774030E+03  0.7561462E-02  0.1071763E+00
         22   -1    0    0    0    0  0.00000000000E+00  0.00000000000E+00  0.17942109393E+03  0.17942109393E+03  0.00000000000E+00 0.  1.
         22   -1    0    0    0    0 -0.00000000000E+00 -0.00000000000E+00 -0.21245962539E+04  0.21245962539E+04  0.00000000000E+00 0. -1.
        -24    2    1    2    0    0  0.10004245493E+03  0.81771321396E+02 -0.19575291337E+04  0.19632879305E+04  0.76708195954E+02 0.  0.
         25    2    1    2    0    0 -0.71608329083E+02 -0.39294166506E+02 -0.10735283704E+03  0.18396691333E+03  0.12508960494E+03 0.  0.
         24    2    1    2    0    0 -0.28434125848E+02 -0.42477154889E+02  0.11970681069E+03  0.15676250398E+03  0.87361054986E+02 0.  0.
        -13    1    5    5    0    0 -0.34143586401E+02 -0.32585154637E+02  0.13187940911E+03  0.14007053702E+03  0.00000000000E+00 0.  1.
         14    1    5    5    0    0  0.57094605528E+01 -0.98920002523E+01 -0.12172598416E+02  0.16691966960E+02  0.00000000000E+00 0. -1.
         13    1    3    3    0    0  0.88321239556E+02  0.95173792164E+02 -0.15742388315E+04  0.15795843095E+04  0.00000000000E+00 0. -1.
        -14    1    3    3    0    0  0.11721215376E+02 -0.13402470768E+02 -0.38329030215E+03  0.38370362109E+03  0.00000000000E+00 0.  1.
          5    1    4    4  501    0  0.10947090689E+02 -0.28403385947E+01 -0.91442756451E+02  0.92234247572E+02  0.41800000000E+01 0. -1.
         -5    1    4    4    0  501 -0.82555419772E+02 -0.36453827912E+02 -0.15910080589E+02  0.91732665760E+02  0.41800000000E+01 0. -1.
</event>
<event>
11    1  0.8037748E-009  0.1484961E+03  0.7561462E-02  0.1098425E+00
         22   -1    0    0    0    0  0.00000000000E+00  0.00000000000E+00  0.15540713240E+03  0.15540713240E+03  0.00000000000E+00 0.  1.
         22   -1    0    0    0    0 -0.00000000000E+00 -0.00000000000E+00 -0.21231571067E+04  0.21231571067E+04  0.00000000000E+00 0. -1.
         24    2    1    2    0    0  0.64429003011E+02 -0.74664534503E+01 -0.18537141964E+04  0.18566027741E+04  0.80688874355E+02 0.  0.
         25    2    1    2    0    0 -0.13799962004E+03 -0.23543186934E+01 -0.20770081914E+03  0.27899270029E+03  0.12509140097E+03 0.  0.
        -24    2    1    2    0    0  0.73570617031E+02  0.98207721436E+01  0.93665041263E+02  0.14296876470E+03  0.78471934284E+02 0.  0.
        -11    1    3    3    0    0  0.59854287150E+02 -0.43347653537E+01 -0.62464558616E+03  0.62752166033E+03  0.00000000000E+00 0.  1.
         12    1    3    3    0    0  0.45747158605E+01 -0.31316880966E+01 -0.12290686103E+04  0.12290811138E+04  0.00000000000E+00 0. -1.
         11    1    5    5    0    0 -0.16985179116E+02  0.74815926910E+00  0.15117365075E+02  0.22750621502E+02  0.00000000000E+00 0. -1.
        -12    1    5    5    0    0  0.90555796148E+02  0.90726128745E+01  0.78547676188E+02  0.12021814320E+03  0.00000000000E+00 0.  1.
          5    1    4    4  501    0  0.23469664062E+02  0.25808198459E+01 -0.35524122523E+02  0.42859321544E+02  0.41800000000E+01 0. -1.
         -5    1    4    4    0  501 -0.16146928410E+03 -0.49351385392E+01 -0.17217669662E+03  0.23613337875E+03  0.41800000000E+01 0. -1.
</event>
<event>
11    1  0.8037748E-009  0.1347882E+03  0.7561462E-02  0.1113522E+00
         22   -1    0    0    0    0  0.00000000000E+00  0.00000000000E+00  0.31722286260E+03  0.31722286260E+03  0.00000000000E+00 0. -1.
         22   -1    0    0    0    0 -0.00000000000E+00 -0.00000000000E+00 -0.28363227575E+04  0.28363227575E+04  0.00000000000E+00 0.  1.
        -24    2    1    2    0    0  0.38700803258E+02 -0.12869259223E+02 -0.15883633766E+04  0.15909553466E+04  0.81100733514E+02 0.  0.
         25    2    1    2    0    0 -0.11925062454E+02 -0.29811933934E+02 -0.12358304296E+04  0.12425602507E+04  0.12509263546E+03 0.  0.
         24    2    1    2    0    0 -0.26775740803E+02  0.42681193157E+02  0.30509391129E+03  0.32003002270E+03  0.82451780938E+02 0.  0.
        -11    1    5    5    0    0  0.16298543874E+02  0.43440811423E+02  0.97027509308E+02  0.10755037979E+03  0.00000000000E+00 0.  1.
         12    1    5    5    0    0 -0.43074284677E+02 -0.75961826669E+00  0.20806640198E+03  0.21247964292E+03  0.00000000000E+00 0. -1.
         11    1    3    3    0    0 -0.21325029624E+02 -0.20036849306E+02 -0.41043205959E+03  0.41147382390E+03  0.00000000000E+00 0. -1.
        -12    1    3    3    0    0  0.60025832881E+02  0.71675900833E+01 -0.11779313170E+04  0.11794815227E+04  0.00000000000E+00 0.  1.
          5    1    4    4  501    0 -0.54246910478E+02 -0.51683283777E+00 -0.98327288863E+03  0.98477715263E+03  0.41800000000E+01 0. -1.
         -5    1    4    4    0  501  0.42321848024E+02 -0.29295101096E+02 -0.25255754098E+03  0.25778309812E+03  0.41800000000E+01 0. -1.
</event>
<event>
11    1  0.8037748E-009  0.1406621E+03  0.7561462E-02  0.1106821E+00
         22   -1    0    0    0    0  0.00000000000E+00  0.00000000000E+00  0.56744021482E+03  0.56744021482E+03  0.00000000000E+00 0.  1.
         22   -1    0    0    0    0 -0.00000000000E+00 -0.00000000000E+00 -0.87151805999E+03  0.87151805999E+03  0.00000000000E+00 0. -1.
         24    2    1    2    0    0 -0.28575083991E+02 -0.14704134118E+01 -0.70946786562E+03  0.71427968459E+03  0.77666710647E+02 0.  0.
         25    2    1    2    0    0  0.80808102896E+02 -0.34856600619E+02 -0.11706653416E+03  0.19261368342E+03  0.12510206041E+03 0.  0.
        -24    2    1    2    0    0 -0.52233018905E+02  0.36327014030E+02  0.52245655461E+03  0.53206490680E+03  0.78001752392E+02 0.  0.
        -11    1    3    3    0    0 -0.26859311921E+01  0.80561396248E+01 -0.63072303456E+01  0.10578126803E+02  0.00000000000E+00 0.  1.
         12    1    3    3    0    0 -0.25889152799E+02 -0.95265530366E+01 -0.70316063527E+03  0.70370155779E+03  0.00000000000E+00 0. -1.
         11    1    5    5    0    0 -0.53342963733E+02  0.25009568150E+02  0.17952588237E+03  0.18894574014E+03  0.00000000000E+00 0. -1.
        -12    1    5    5    0    0  0.11099448273E+01  0.11317445880E+02  0.34293067225E+03  0.34311916666E+03  0.00000000000E+00 0.  1.
          5    1    4    4  501    0  0.50141155553E+02 -0.18250166280E+02 -0.14052732349E+03  0.15037488187E+03  0.41800000000E+01 0.  1.
         -5    1    4    4    0  501  0.30666947344E+02 -0.16606434339E+02  0.23460789328E+02  0.42238801554E+02  0.41800000000E+01 0.  1.
</event>
<event>
11    1  0.8037748E-009  0.1317616E+03  0.7561462E-02  0.1117123E+00
         22   -1    0    0    0    0  0.00000000000E+00  0.00000000000E+00  0.12505109075E+04  0.12505109075E+04  0.00000000000E+00 0.  1.
         22   -1    0    0    0    0 -0.00000000000E+00 -0.00000000000E+00 -0.85521915953E+03  0.85521915953E+03  0.00000000000E+00 0.  1.
        -24    2    1    2    0    0  0.62185597967E+01  0.40783519064E+02 -0.81044197047E+03  0.81694543617E+03  0.94242730586E+02 0.  0.
         25    2    1    2    0    0  0.47730972598E+02 -0.54426520542E+02  0.93438038243E+02  0.17209877283E+03  0.12508728446E+03 0.  0.
         24    2    1    2    0    0 -0.53949532395E+02  0.13643001477E+02  0.11122956802E+04  0.11166858580E+04  0.81785951419E+02 0.  0.
        -11    1    5    5    0    0 -0.68555058921E+01  0.40066649281E+02  0.64516720856E+03  0.64644648762E+03  0.00000000000E+00 0.  1.
         12    1    5    5    0    0 -0.47094026503E+02 -0.26423647803E+02  0.46712847160E+03  0.47023937040E+03  0.00000000000E+00 0. -1.
         13    1    3    3    0    0  0.48213116132E+02  0.74990378316E+01 -0.34631006224E+03  0.34973046671E+03  0.00000000000E+00 0. -1.
        -14    1    3    3    0    0 -0.41994556335E+02  0.33284481233E+02 -0.46413190823E+03  0.46721496946E+03  0.00000000000E+00 0.  1.
          5    1    4    4  501    0 -0.29285268188E+02 -0.14830425526E+02 -0.12350856463E+02  0.35321162346E+02  0.41800000000E+01 0.  1.
         -5    1    4    4    0  501  0.77016240786E+02 -0.39596095016E+02  0.10578889471E+03  0.13677761048E+03  0.41800000000E+01 0.  1.
</event>
<event>
11    1  0.8037748E-009  0.1714654E+03  0.7561462E-02  0.1076763E+00
         22   -1    0    0    0    0  0.00000000000E+00  0.00000000000E+00  0.23124645687E+03  0.23124645687E+03  0.00000000000E+00 0. -1.
         22   -1    0    0    0    0 -0.00000000000E+00 -0.00000000000E+00 -0.11465044094E+04  0.11465044094E+04  0.00000000000E+00 0.  1.
        -24    2    1    2    0    0  0.71549465657E+02 -0.10091092948E+03 -0.76007762251E+03  0.77444347363E+03  0.82111874228E+02 0.  0.
         25    2    1    2    0    0 -0.40939187480E+02  0.94579160443E+02 -0.35271801074E+03  0.38817462428E+03  0.12509320197E+03 0.  0.
         24    2    1    2    0    0 -0.30610278177E+02  0.63317690389E+01  0.19753768075E+03  0.21513276831E+03  0.79271005147E+02 0.  0.
        -11    1    5    5    0    0 -0.68092783915E+01 -0.93593572984E+01 -0.34937432252E+01  0.12090082009E+02  0.00000000000E+00 0.  1.
         12    1    5    5    0    0 -0.23800999785E+02  0.15691126337E+02  0.20103142397E+03  0.20304268630E+03  0.00000000000E+00 0. -1.
         11    1    3    3    0    0  0.34007171613E+02 -0.55716018500E+01 -0.86411237665E+02  0.93029202206E+02  0.00000000000E+00 0. -1.
        -12    1    3    3    0    0  0.37542294043E+02 -0.95339327632E+02 -0.67366638484E+03  0.68141427143E+03  0.00000000000E+00 0.  1.
          5    1    4    4  501    0 -0.32741487173E+01  0.70927894124E+01  0.98687449683E+01  0.13262437134E+02  0.41800000000E+01 0. -1.
         -5    1    4    4    0  501 -0.37665038763E+02  0.87486371031E+02 -0.36258675570E+03  0.37491218715E+03  0.41800000000E+01 0. -1.
</event>
<event>
11    1  0.8037748E-009  0.2255268E+03  0.7561462E-02  0.1037810E+00
         22   -1    0    0    0    0  0.00000000000E+00  0.00000000000E+00  0.19899371669E+04  0.19899371669E+04  0.00000000000E+00 0.  1.
         22   -1    0    0    0    0 -0.00000000000E+00 -0.00000000000E+00 -0.14995003462E+03  0.14995003462E+03  0.00000000000E+00 0.  1.
        -24    2    1    2    0    0  0.57101185044E+02 -0.95184222709E+02 -0.76602258430E+02  0.15697914109E+03  0.80336561760E+02 0.  0.
         25    2    1    2    0    0 -0.16323078961E+03 -0.71626251524E+02  0.43926670820E+03  0.49028316684E+03  0.12509089564E+03 0.  0.
         24    2    1    2    0    0  0.10612960457E+03  0.16681047423E+03  0.14773226825E+04  0.14926248935E+04  0.79734166974E+02 0.  0.
        -11    1    5    5    0    0  0.59330846281E+02  0.12795833208E+03  0.12241294633E+04  0.12322282366E+04  0.00000000000E+00 0.  1.
         12    1    5    5    0    0  0.46798758290E+02  0.38852142156E+02  0.25319321912E+03  0.26039665692E+03  0.00000000000E+00 0. -1.
         13    1    3    3    0    0 -0.18057008302E+02 -0.74613673712E+01 -0.21312193865E+02  0.28912577872E+02  0.00000000000E+00 0. -1.
        -14    1    3    3    0    0  0.75158193346E+02 -0.87722855338E+02 -0.55290064564E+02  0.12806656322E+03  0.00000000000E+00 0.  1.
          5    1    4    4  501    0 -0.10295289582E+03 -0.67266149932E+01  0.11703929518E+03  0.15607759328E+03  0.41800000000E+01 0.  1.
         -5    1    4    4    0  501 -0.60277893797E+02 -0.64899636530E+02  0.32222741301E+03  0.33420557356E+03  0.41800000000E+01 0.  1.
</event>
<event>
11    1  0.8037748E-009  0.1472402E+03  0.7561462E-02  0.1099733E+00
         22   -1    0    0    0    0  0.00000000000E+00  0.00000000000E+00  0.10556577385E+03  0.10556577385E+03  0.00000000000E+00 0. -1.
         22   -1    0    0    0    0 -0.00000000000E+00 -0.00000000000E+00 -0.22741134314E+04  0.22741134314E+04  0.00000000000E+00 0.  1.
        -24    2    1    2    0    0  0.82259617883E+02  0.12013490164E+02 -0.18126890585E+04  0.18164076054E+04  0.81141835367E+02 0.  0.
         25    2    1    2    0    0 -0.46696287026E+02  0.56279702261E+02 -0.41329406070E+03  0.43795931628E+03  0.12509370088E+03 0.  0.
         24    2    1    2    0    0 -0.35563330856E+02 -0.68293192424E+02  0.57435461571E+02  0.12531228365E+03  0.80471271613E+02 0.  0.
        -13    1    5    5    0    0  0.58113185752E+01  0.14233060566E+02 -0.20203640684E+01  0.15505912021E+02  0.00000000000E+00 0.  1.
         14    1    5    5    0    0 -0.41374649431E+02 -0.82526252990E+02  0.59455825639E+02  0.10980637163E+03  0.00000000000E+00 0. -1.
         11    1    3    3    0    0 -0.32709280388E+01  0.29456797044E+01 -0.49519898333E+01  0.66255718595E+01  0.00000000000E+00 0. -1.
        -12    1    3    3    0    0  0.85530545922E+02  0.90678104596E+01 -0.18077370686E+04  0.18097820335E+04  0.00000000000E+00 0.  1.
          5    1    4    4  501    0  0.20105209454E+01  0.23257061787E+02 -0.35372081309E+01  0.23977434367E+02  0.41800000000E+01 0. -1.
         -5    1    4    4    0  501 -0.48706807972E+02  0.33022640473E+02 -0.40975685257E+03  0.41398188191E+03  0.41800000000E+01 0. -1.
</event>
<event>
11    1  0.8037748E-009  0.2528864E+03  0.7561462E-02  0.1022373E+00
         22   -1    0    0    0    0  0.00000000000E+00  0.00000000000E+00  0.24662975461E+04  0.24662975461E+04  0.00000000000E+00 0.  1.
         22   -1    0    0    0    0 -0.00000000000E+00 -0.00000000000E+00 -0.87409485421E+03  0.87409485421E+03  0.00000000000E+00 0. -1.
         24    2    1    2    0    0  0.20329294981E+03 -0.87113332659E+02 -0.75984707837E+03  0.79549290837E+03  0.80775173108E+02 0.  0.
         25    2    1    2    0    0 -0.18427621607E+03  0.97249313449E+02  0.58552314189E+02  0.24998235104E+03  0.12509056543E+03 0.  0.
        -24    2    1    2    0    0 -0.19016733734E+02 -0.10135980790E+02  0.22934974561E+04  0.22949171409E+04  0.77779999399E+02 0.  0.
        -13    1    3    3    0    0  0.29426925450E+02 -0.19823125528E+02 -0.48325672478E+02  0.59952238220E+02  0.00000000000E+00 0.  1.
         14    1    3    3    0    0  0.17386602436E+03 -0.67290207132E+02 -0.71152140590E+03  0.73554067015E+03  0.00000000000E+00 0. -1.
         11    1    5    5    0    0  0.23225399097E+02  0.18463890672E+02  0.87186366248E+03  0.87236837424E+03  0.00000000000E+00 0. -1.
        -12    1    5    5    0    0 -0.42242132831E+02 -0.28599871462E+02  0.14216337936E+04  0.14225487667E+04  0.00000000000E+00 0.  1.
          5    1    4    4  501    0 -0.15588249380E+03  0.22016648258E+02  0.62333965743E+02  0.16937260806E+03  0.41800000000E+01 0. -1.
         -5    1    4    4    0  501 -0.28393722268E+02  0.75232665191E+02 -0.37816515537E+01  0.80609742987E+02  0.41800000000E+01 0. -1.
</event>
<event>
11    1  0.8037748E-009  0.1624634E+03  0.7561462E-02  0.1084783E+00
         22   -1    0    0    0    0  0.00000000000E+00  0.00000000000E+00  0.13738385079E+04  0.13738385079E+04  0.00000000000E+00 0.  1.
         22   -1    0    0    0    0 -0.00000000000E+00 -0.00000000000E+00 -0.96773814780E+03  0.96773814780E+03  0.00000000000E+00 0.  1.
        -24    2    1    2    0    0  0.10265095650E+03  0.17150669918E+02 -0.80614394210E+03  0.81660677368E+03  0.78404101242E+02 0.  0.
         25    2    1    2    0    0 -0.10540903692E+03  0.29897144242E+02 -0.11000996529E+03  0.19938775228E+03  0.12509348104E+03 0.  0.
         24    2    1    2    0    0  0.27580804127E+01 -0.47047814160E+02  0.13222542675E+04  0.13255821297E+04  0.81182085159E+02 0.  0.
        -13    1    5    5    0    0  0.14459041151E+02 -0.54985902531E+02  0.12747733829E+04  0.12760406306E+04  0.00000000000E+00 0.  1.
         14    1    5    5    0    0 -0.11700960738E+02  0.79380883711E+01  0.47480884645E+02  0.49541499128E+02  0.00000000000E+00 0. -1.
         11    1    3    3    0    0 -0.72841982311E+01  0.42173827917E+01 -0.11290652083E+02  0.14082779766E+02  0.00000000000E+00 0. -1.
        -12    1    3    3    0    0  0.10993515473E+03  0.12933287126E+02 -0.79485329002E+03  0.80252399392E+03  0.00000000000E+00 0.  1.
          5    1    4    4  501    0  0.14656368741E+02 -0.49655581361E+01  0.15418578801E+02  0.22241197911E+02  0.41800000000E+01 0.  1.
         -5    1    4    4    0  501 -0.12006540566E+03  0.34862702378E+02 -0.12542854409E+03  0.17714655437E+03  0.41800000000E+01 0.  1.
</event>
<event>
11    1  0.8037748E-009  0.1884439E+03  0.7561462E-02  0.1063010E+00
         22   -1    0    0    0    0  0.00000000000E+00  0.00000000000E+00  0.96021518608E+03  0.96021518608E+03  0.00000000000E+00 0.  1.
         22   -1    0    0    0    0 -0.00000000000E+00 -0.00000000000E+00 -0.76585615689E+02  0.76585615689E+02  0.00000000000E+00 0.  1.
        -24    2    1    2    0    0 -0.28200489395E+02  0.15337265364E+03  0.10942292269E+03  0.20689521575E+03  0.80708213987E+02 0.  0.
         25    2    1    2    0    0 -0.11046232702E+02 -0.11375205654E+03  0.29222200401E+03  0.33779090748E+03  0.12508975947E+03 0.  0.
         24    2    1    2    0    0  0.39246722098E+02 -0.39620597099E+02  0.48198464369E+03  0.49211467854E+03  0.82204398701E+02 0.  0.
        -13    1    5    5    0    0 -0.85579156173E+01 -0.45782313216E+02  0.31092210210E+03  0.31439117624E+03  0.00000000000E+00 0.  1.
         14    1    5    5    0    0  0.47804637715E+02  0.61617161167E+01  0.17106254159E+03  0.17772350230E+03  0.00000000000E+00 0. -1.
         13    1    3    3    0    0 -0.27979383153E+02  0.80252871852E+02  0.10293509209E+03  0.13348783654E+03  0.00000000000E+00 0. -1.
        -14    1    3    3    0    0 -0.22110624236E+00  0.73119781786E+02  0.64878306030E+01  0.73407379209E+02  0.00000000000E+00 0.  1.
          5    1    4    4  501    0  0.40555064042E+02 -0.86702658591E+02  0.24369316367E+03  0.26185090155E+03  0.41800000000E+01 0. -1.
         -5    1    4    4    0  501 -0.51601296744E+02 -0.27049397948E+02  0.48528840343E+02  0.75940005926E+02  0.41800000000E+01 0. -1.
</event>
<event>
11    1  0.8037748E-009  0.2654775E+03  0.7561462E-02  0.1015963E+00
         22   -1    0    0    0    0  0.00000000000E+00  0.00000000000E+00  0.20584198718E+04  0.20584198718E+04  0.00000000000E+00 0.  1.
         22   -1    0    0    0    0 -0.00000000000E+00 -0.00000000000E+00 -0.35851175029E+04  0.35851175029E+04  0.00000000000E+00 0.  1.
        -24    2    1    2    0    0  0.22584719995E+03 -0.60912802868E+02 -0.35402381085E+04  0.35488759269E+04  0.80728883857E+02 0.  0.
         25    2    1    2    0    0 -0.27332217445E+03  0.11295035269E+02  0.54587624685E+03  0.62326657865E+03  0.12509101618E+03 0.  0.
         24    2    1    2    0    0  0.47474974499E+02  0.49617767599E+02  0.14676642306E+04  0.14713948691E+04  0.79049169210E+02 0.  0.
        -13    1    5    5    0    0  0.21780582857E+02 -0.66753340750E+01  0.91392288901E+03  0.91420676049E+03  0.00000000000E+00 0.  1.
         14    1    5    5    0    0  0.25694391642E+02  0.56293101674E+02  0.55374134157E+03  0.55718810866E+03  0.00000000000E+00 0. -1.
         13    1    3    3    0    0  0.24710688363E+02 -0.49540791897E+01 -0.91583083580E+03  0.91617753782E+03  0.00000000000E+00 0. -1.
        -14    1    3    3    0    0  0.20113651159E+03 -0.55958723678E+02 -0.26244072727E+04  0.26326983891E+04  0.00000000000E+00 0.  1.
          5    1    4    4  501    0 -0.78097462929E+02 -0.18430198933E+02  0.64815687481E+02  0.10323483759E+03  0.41800000000E+01 0.  1.
         -5    1    4    4    0  501 -0.19522471152E+03  0.29725234202E+02  0.48106055937E+03  0.52003174106E+03  0.41800000000E+01 0.  1.
</event>
<event>
11    1  0.8037748E-009  0.2540654E+03  0.7561462E-02  0.1021756E+00
         22   -1    0    0    0    0  0.00000000000E+00  0.00000000000E+00  0.18915637733E+04  0.18915637733E+04  0.00000000000E+00 0.  1.
         22   -1    0    0    0    0 -0.00000000000E+00 -0.00000000000E+00 -0.10743853444E+03  0.10743853444E+03  0.00000000000E+00 0.  1.
        -24    2    1    2    0    0 -0.94792714751E+01 -0.27694541071E+02 -0.40918854633E+02  0.93879688961E+02  0.79260325145E+02 0.  0.
         25    2    1    2    0    0 -0.20691077556E+03  0.76527039174E+02  0.51478407585E+03  0.57386291221E+03  0.12509012946E+03 0.  0.
         24    2    1    2    0    0  0.21639004704E+03 -0.48832498102E+02  0.13102600177E+04  0.13312597066E+04  0.79131707828E+02 0.  0.
        -13    1    5    5    0    0  0.48898133181E+02 -0.61434679704E+01  0.51934441063E+03  0.52167747362E+03  0.00000000000E+00 0.  1.
         14    1    5    5    0    0  0.16749191386E+03 -0.42689030132E+02  0.79091560703E+03  0.80958223297E+03  0.00000000000E+00 0. -1.
         11    1    3    3    0    0 -0.25475763245E+01  0.14399338928E+02  0.16693214165E+02  0.22192217236E+02  0.00000000000E+00 0. -1.
        -12    1    3    3    0    0 -0.69316951506E+01 -0.42093880000E+02 -0.57612068798E+02  0.71687471725E+02  0.00000000000E+00 0.  1.
          5    1    4    4  501    0 -0.18193325736E+03  0.10754943441E+03  0.40216447637E+03  0.45433504095E+03  0.41800000000E+01 0. -1.
         -5    1    4    4    0  501 -0.24977518205E+02 -0.31022395234E+02  0.11261959948E+03  0.11952787126E+03  0.41800000000E+01 0. -1.
</event>
<event>
11    1  0.8037748E-009  0.1703561E+03  0.7561462E-02  0.1077722E+00
         22   -1    0    0    0    0  0.00000000000E+00  0.00000000000E+00  0.28030471493E+03  0.28030471493E+03  0.00000000000E+00 0. -1.
         22   -1    0    0    0    0 -0.00000000000E+00 -0.00000000000E+00 -0.17522395575E+04  0.17522395575E+04  0.00000000000E+00 0.  1.
        -24    2    1    2    0    0 -0.10241205069E+03 -0.65776823576E+02 -0.15271712156E+04  0.15340979983E+04  0.79937025254E+02 0.  0.
         25    2    1    2    0    0  0.90956337691E+02 -0.32564231173E+02 -0.17159170647E+03  0.23329440573E+03  0.12509628890E+03 0.  0.
         24    2    1    2    0    0  0.11455713001E+02  0.98341054749E+02  0.22682807958E+03  0.26515186832E+03  0.95143781618E+02 0.  0.
        -13    1    5    5    0    0  0.33277790883E+02  0.78496346255E+02  0.85375799211E+02  0.12065701319E+03  0.00000000000E+00 0.  1.
         14    1    5    5    0    0 -0.21822077882E+02  0.19844708494E+02  0.14145228037E+03  0.14449485513E+03  0.00000000000E+00 0. -1.
         13    1    3    3    0    0  0.11826013691E+02 -0.10900194861E+02 -0.29183053732E+03  0.29227338463E+03  0.00000000000E+00 0. -1.
        -14    1    3    3    0    0 -0.11423806438E+03 -0.54876628715E+02 -0.12353406783E+04  0.12418246137E+04  0.00000000000E+00 0.  1.
          5    1    4    4  501    0  0.66999969618E+02 -0.16002931278E+02 -0.10822054328E+02  0.69854699185E+02  0.41800000000E+01 0.  1.
         -5    1    4    4    0  501  0.23956368073E+02 -0.16561299895E+02 -0.16076965214E+03  0.16343970655E+03  0.41800000000E+01 0.  1.
</event>
<event>
11    1  0.1476681E-008  0.1811464E+03  0.7561462E-02  0.1068719E+00
         22   -1    0    0    0    0  0.00000000000E+00  0.00000000000E+00  0.71770239950E+03  0.71770239950E+03  0.00000000000E+00 0.  1.
         22   -1    0    0    0    0 -0.00000000000E+00 -0.00000000000E+00 -0.11734800589E+04  0.11734800589E+04  0.00000000000E+00 0. -1.
        -24    2    1    2    0    0  0.38996791249E+02  0.48770048396E+02 -0.84047546973E+03  0.84669216973E+03  0.81174797335E+02 0.  0.
         25    2    1    2    0    0  0.84608252454E+02 -0.93783363779E+02 -0.29664688056E+03  0.34582939051E+03  0.12507885469E+03 0.  0.
         24    2    1    2    0    0 -0.12360504370E+03  0.45013315383E+02  0.68134469088E+03  0.69866089818E+03  0.81191486414E+02 0.  0.
        -13    1    5    5    0    0 -0.68490315559E+02  0.65214636539E+02  0.46323899395E+03  0.47279407532E+03  0.00000000000E+00 0.  1.
         14    1    5    5    0    0 -0.55114728144E+02 -0.20201321156E+02  0.21810569693E+03  0.22586682286E+03  0.00000000000E+00 0. -1.
         11    1    3    3    0    0  0.19867656557E+00  0.54150562358E+02 -0.64877370118E+03  0.65102967537E+03  0.00000000000E+00 0. -1.
        -12    1    3    3    0    0  0.38798114684E+02 -0.53805139617E+01 -0.19170176855E+03  0.19566249436E+03  0.00000000000E+00 0.  1.
          5    1    4    4  501    0 -0.17581697470E+02  0.18493230540E+02 -0.41065019985E+02  0.48527558440E+02  0.41800000000E+01 0.  1.
         -5    1    4    4    0  501  0.10218994992E+03 -0.11227659432E+03 -0.25558186058E+03  0.29730183207E+03  0.41800000000E+01 0.  1.
</event>
<event>
11    1  0.8037748E-009  0.1357782E+03  0.7561462E-02  0.1112366E+00
         22   -1    0    0    0    0  0.00000000000E+00  0.00000000000E+00  0.87723089208E+03  0.87723089208E+03  0.00000000000E+00 0. -1.
         22   -1    0    0    0    0 -0.00000000000E+00 -0.00000000000E+00 -0.32080288852E+03  0.32080288852E+03  0.00000000000E+00 0.  1.
        -24    2    1    2    0    0 -0.14665168433E+02  0.48152789121E+02 -0.29620904830E+03  0.31097819220E+03  0.80211454694E+02 0.  0.
         25    2    1    2    0    0  0.21204561018E+02  0.17294325667E+02  0.32097034114E+03  0.34556862541E+03  0.12508792055E+03 0.  0.
         24    2    1    2    0    0 -0.65393925851E+01 -0.65447114787E+02  0.53166671073E+03  0.54148696298E+03  0.78819739226E+02 0.  0.
        -11    1    5    5    0    0  0.53905838569E+01  0.32044845997E+01  0.11033037865E+01  0.63674480849E+01  0.00000000000E+00 0.  1.
         12    1    5    5    0    0 -0.11929976442E+02 -0.68651599387E+02  0.53056340694E+03  0.53511951490E+03  0.00000000000E+00 0. -1.
         13    1    3    3    0    0 -0.42987720218E+02  0.15897438854E+02 -0.20654090101E+03  0.21156515885E+03  0.00000000000E+00 0. -1.
        -14    1    3    3    0    0  0.28322551785E+02  0.32255350266E+02 -0.89668147295E+02  0.99413033350E+02  0.00000000000E+00 0.  1.
          5    1    4    4  501    0  0.48272071258E+02  0.43093368026E+02  0.86541146564E+02  0.10813914037E+03  0.41800000000E+01 0.  1.
         -5    1    4    4    0  501 -0.27067510240E+02 -0.25799042359E+02  0.23442919458E+03  0.23742948504E+03  0.41800000000E+01 0.  1.
</event>
<event>
11    1  0.8037748E-009  0.1602280E+03  0.7561462E-02  0.1086863E+00
         22   -1    0    0    0    0  0.00000000000E+00  0.00000000000E+00  0.13877345574E+03  0.13877345574E+03  0.00000000000E+00 0.  1.
         22   -1    0    0    0    0 -0.00000000000E+00 -0.00000000000E+00 -0.34190826622E+04  0.34190826622E+04  0.00000000000E+00 0.  1.
         24    2    1    2    0    0  0.91915940897E+02 -0.43605558790E+02 -0.31298793560E+04  0.31326903835E+04  0.85172007227E+02 0.  0.
         25    2    1    2    0    0 -0.97630087945E+02 -0.47557793978E+02 -0.22682477888E+03  0.28086767771E+03  0.12507515432E+03 0.  0.
        -24    2    1    2    0    0  0.57141470486E+01  0.91163352768E+02  0.76394928433E+02  0.14429805673E+03  0.81500525888E+02 0.  0.
        -13    1    3    3    0    0  0.41731678228E+01 -0.17486192750E+02 -0.15843732054E+04  0.15844751927E+04  0.00000000000E+00 0.  1.
         14    1    3    3    0    0  0.87742773074E+02 -0.26119366040E+02 -0.15455061506E+04  0.15482151908E+04  0.00000000000E+00 0. -1.
         13    1    5    5    0    0 -0.36932649975E+01  0.91556107625E+02  0.29196489391E+02  0.96169621204E+02  0.00000000000E+00 0. -1.
        -14    1    5    5    0    0  0.94074120461E+01 -0.39275485672E+00  0.47198439041E+02  0.48128435521E+02  0.00000000000E+00 0.  1.
          5    1    4    4  501    0 -0.31956456319E+02 -0.82673492980E+02 -0.99630485160E+02  0.13341599423E+03  0.41800000000E+01 0.  1.
         -5    1    4    4    0  501 -0.65673631626E+02  0.35115699002E+02 -0.12719429372E+03  0.14745168348E+03  0.41800000000E+01 0.  1.
</event>
<event>
11    1  0.8037748E-009  0.1442889E+03  0.7561462E-02  0.1102862E+00
         22   -1    0    0    0    0  0.00000000000E+00  0.00000000000E+00  0.43557314729E+03  0.43557314729E+03  0.00000000000E+00 0. -1.
         22   -1    0    0    0    0 -0.00000000000E+00 -0.00000000000E+00 -0.12746758854E+03  0.12746758854E+03  0.00000000000E+00 0. -1.
         24    2    1    2    0    0  0.11170219752E+02  0.68172130820E+02 -0.61212608549E+02  0.12168480255E+03  0.79296875710E+02 0.  0.
         25    2    1    2    0    0 -0.11528242473E+02 -0.94214183570E+02  0.21965829424E+03  0.27001236302E+03  0.12509075583E+03 0.  0.
        -24    2    1    2    0    0  0.35802272077E+00  0.26042052750E+02  0.14965987306E+03  0.17134357025E+03  0.79260486823E+02 0.  0.
        -11    1    3    3    0    0 -0.13633231274E+02  0.25751240718E+02 -0.66164253286E+02  0.72295918325E+02  0.00000000000E+00 0.  1.
         12    1    3    3    0    0  0.24803451026E+02  0.42420890102E+02  0.49516447370E+01  0.49388884229E+02  0.00000000000E+00 0. -1.
         11    1    5    5    0    0 -0.18753179212E+01  0.27202887727E+02  0.15917885491E+03  0.16149743580E+03  0.00000000000E+00 0. -1.
        -12    1    5    5    0    0  0.22333406419E+01 -0.11608349772E+01 -0.95189818514E+01  0.98461344575E+01  0.00000000000E+00 0.  1.
          5    1    4    4  501    0  0.26983052853E+02 -0.11092460438E+03  0.14954109393E+03  0.18818173177E+03  0.41800000000E+01 0.  1.
         -5    1    4    4    0  501 -0.38511295326E+02  0.16710420810E+02  0.70117200303E+02  0.81830631243E+02  0.41800000000E+01 0.  1.
</event>
<event>
11    1  0.8037748E-009  0.1601954E+03  0.7561462E-02  0.1086894E+00
         22   -1    0    0    0    0  0.00000000000E+00  0.00000000000E+00  0.48006011778E+02  0.48006011778E+02  0.00000000000E+00 0.  1.
         22   -1    0    0    0    0 -0.00000000000E+00 -0.00000000000E+00 -0.13658035874E+04  0.13658035874E+04  0.00000000000E+00 0. -1.
         24    2    1    2    0    0  0.21146066198E+02 -0.60620790357E+02 -0.74309210002E+03  0.75037203283E+03  0.82160101049E+02 0.  0.
         25    2    1    2    0    0  0.23391146451E+02 -0.44892735535E+02 -0.46985559820E+03  0.48885069859E+03  0.12509284119E+03 0.  0.
        -24    2    1    2    0    0 -0.44537212649E+02  0.10551352589E+03 -0.10484987743E+03  0.17458686778E+03  0.79814849172E+02 0.  0.
        -11    1    3    3    0    0 -0.23063997830E+02 -0.35258547967E+02 -0.51177303963E+03  0.51350438877E+03  0.00000000000E+00 0.  1.
         12    1    3    3    0    0  0.44210064028E+02 -0.25362242390E+02 -0.23131906039E+03  0.23686764406E+03  0.00000000000E+00 0. -1.
         11    1    5    5    0    0  0.86014810337E+01  0.62292893177E+02 -0.79922781607E+02  0.10169582605E+03  0.00000000000E+00 0. -1.
        -12    1    5    5    0    0 -0.53138693683E+02  0.43220632715E+02 -0.24927095824E+02  0.72891041732E+02  0.00000000000E+00 0.  1.
          5    1    4    4  501    0  0.11838640110E+02 -0.76287374198E+02 -0.16589303038E+03  0.18302427924E+03  0.41800000000E+01 0. -1.
         -5    1    4    4    0  501  0.11552506341E+02  0.31394638663E+02 -0.30396256782E+03  0.30582641936E+03  0.41800000000E+01 0. -1.
</event>
<event>
11    1  0.8037748E-009  0.1286852E+03  0.7561462E-02  0.1120895E+00
         22   -1    0    0    0    0  0.00000000000E+00  0.00000000000E+00  0.78364811942E+03  0.78364811942E+03  0.00000000000E+00 0.  1.
         22   -1    0    0    0    0 -0.00000000000E+00 -0.00000000000E+00 -0.20602215777E+04  0.20602215777E+04  0.00000000000E+00 0. -1.
        -24    2    1    2    0    0 -0.91448909555E+01 -0.15720849062E+02 -0.19325559404E+04  0.19343158686E+04  0.80465163396E+02 0.  0.
         25    2    1    2    0    0 -0.19341318812E+02  0.49379004245E+01 -0.92143800733E+02  0.15664354288E+03  0.12509296558E+03 0.  0.
         24    2    1    2    0    0  0.28486209768E+02  0.10782948637E+02  0.74812628283E+03  0.75291028569E+03  0.79077348902E+02 0.  0.
        -13    1    5    5    0    0  0.46223973914E+02  0.31294314460E+02  0.57073539392E+03  0.57345869925E+03  0.00000000000E+00 0.  1.
         14    1    5    5    0    0 -0.17737764146E+02 -0.20511365823E+02  0.17739088892E+03  0.17945158644E+03  0.00000000000E+00 0. -1.
         11    1    3    3    0    0 -0.28461148313E+02 -0.15966293132E+01 -0.17458515776E+04  0.17460842812E+04  0.00000000000E+00 0. -1.
        -12    1    3    3    0    0  0.19316257358E+02 -0.14124219748E+02 -0.18670436281E+03  0.18823158735E+03  0.00000000000E+00 0.  1.
          5    1    4    4  501    0 -0.49868296497E+02 -0.40020284671E+02 -0.21861670421E+02  0.67704321976E+02  0.41800000000E+01 0. -1.
         -5    1    4    4    0  501  0.30526977684E+02  0.44958185095E+02 -0.70282130311E+02  0.88939220902E+02  0.41800000000E+01 0. -1.
</event>
<event>
11    1  0.8037748E-009  0.1645506E+03  0.7561462E-02  0.1082874E+00
         22   -1    0    0    0    0  0.00000000000E+00  0.00000000000E+00  0.12314806676E+04  0.12314806676E+04  0.00000000000E+00 0.  1.
         22   -1    0    0    0    0 -0.00000000000E+00 -0.00000000000E+00 -0.53644455933E+03  0.53644455933E+03  0.00000000000E+00 0.  1.
        -24    2    1    2    0    0 -0.50761667967E+02 -0.40134577117E+02 -0.50866968201E+03  0.51830938331E+03  0.75579363731E+02 0.  0.
         25    2    1    2    0    0  0.14218779807E+03  0.52900928299E+01  0.50208572571E+03  0.53663631226E+03  0.12507238174E+03 0.  0.
         24    2    1    2    0    0 -0.91426130105E+02  0.34844484287E+02  0.70162006453E+03  0.71297953131E+03  0.80599142436E+02 0.  0.
        -11    1    5    5    0    0 -0.79041303444E+02  0.42243260644E+02  0.68555241330E+03  0.69138566090E+03  0.00000000000E+00 0.  1.
         12    1    5    5    0    0 -0.12384826661E+02 -0.73987763572E+01  0.16067651227E+02  0.21593870403E+02  0.00000000000E+00 0. -1.
         11    1    3    3    0    0 -0.15735094168E+02 -0.12697111332E+02 -0.23072911596E+02  0.30678479007E+02  0.00000000000E+00 0. -1.
        -12    1    3    3    0    0 -0.35026573799E+02 -0.27437465785E+02 -0.48559677041E+03  0.48763090431E+03  0.00000000000E+00 0.  1.
          5    1    4    4  501    0  0.15786379599E+03 -0.18839289091E+02  0.44512640197E+03  0.47268476073E+03  0.41800000000E+01 0.  1.
         -5    1    4    4    0  501 -0.15675997914E+02  0.24129381921E+02  0.56959323742E+02  0.63951551535E+02  0.41800000000E+01 0.  1.
</event>
<event>
11    1  0.8037748E-009  0.2912901E+03  0.7561462E-02  0.1003946E+00
         22   -1    0    0    0    0  0.00000000000E+00  0.00000000000E+00  0.81197739865E+03  0.81197739865E+03  0.00000000000E+00 0.  1.
         22   -1    0    0    0    0 -0.00000000000E+00 -0.00000000000E+00 -0.53902379137E+03  0.53902379137E+03  0.00000000000E+00 0. -1.
         24    2    1    2    0    0 -0.80721741374E+02 -0.42017533560E+02 -0.36249218582E+03  0.38329713368E+03  0.85056659064E+02 0.  0.
         25    2    1    2    0    0 -0.17625194987E+03  0.13759195357E+03 -0.13530602216E+02  0.25657001575E+03  0.12509516482E+03 0.  0.
        -24    2    1    2    0    0  0.25697369125E+03 -0.95574420014E+02  0.64897639531E+03  0.71113404060E+03  0.96805548736E+02 0.  0.
        -11    1    3    3    0    0 -0.15805112784E+02 -0.18914970283E+02 -0.14603681955E+02  0.28650396464E+02  0.00000000000E+00 0.  1.
         12    1    3    3    0    0 -0.64916628590E+02 -0.23102563277E+02 -0.34788850386E+03  0.35464673722E+03  0.00000000000E+00 0. -1.
         11    1    5    5    0    0  0.80601866124E+02 -0.24361246796E+02  0.32230675899E+03  0.33312426819E+03  0.00000000000E+00 0. -1.
        -12    1    5    5    0    0  0.17637182512E+03 -0.71213173219E+02  0.32666963633E+03  0.37800977241E+03  0.00000000000E+00 0.  1.
          5    1    4    4  501    0 -0.85317142717E+02  0.14109963833E+03 -0.41948805446E+01  0.16499452173E+03  0.41800000000E+01 0.  1.
         -5    1    4    4    0  501 -0.90934807157E+02 -0.35076847595E+01 -0.93357216709E+01  0.91575494015E+02  0.41800000000E+01 0.  1.
</event>
<event>
11    1  0.8037748E-009  0.2155772E+03  0.7561462E-02  0.1044024E+00
         22   -1    0    0    0    0  0.00000000000E+00  0.00000000000E+00  0.13923345903E+04  0.13923345903E+04  0.00000000000E+00 0.  1.
         22   -1    0    0    0    0 -0.00000000000E+00 -0.00000000000E+00 -0.55624429794E+02  0.55624429794E+02  0.00000000000E+00 0.  1.
        -24    2    1    2    0    0 -0.15422088167E+03 -0.83116925040E+02  0.26319742950E+03  0.33027780127E+03  0.95488405288E+02 0.  0.
         25    2    1    2    0    0  0.17379167686E+03  0.46719183461E+02  0.71928167859E+03  0.75192840246E+03  0.12507581790E+03 0.  0.
         24    2    1    2    0    0 -0.19570795195E+02  0.36397741579E+02  0.35423105238E+03  0.36575281633E+03  0.81164478469E+02 0.  0.
        -13    1    5    5    0    0  0.12203565931E+02 -0.20655568381E+02  0.66252752178E+02  0.70462803647E+02  0.00000000000E+00 0.  1.
         14    1    5    5    0    0 -0.31774361126E+02  0.57053309960E+02  0.28797830020E+03  0.29529001268E+03  0.00000000000E+00 0. -1.
         11    1    3    3    0    0 -0.57984645759E+02 -0.56255978470E+02  0.50480172764E+02  0.95263855159E+02  0.00000000000E+00 0. -1.
        -12    1    3    3    0    0 -0.96236235909E+02 -0.26860946570E+02  0.21271725674E+03  0.23501394611E+03  0.00000000000E+00 0.  1.
          5    1    4    4  501    0  0.25989875734E+02  0.28501206060E+02  0.37230024481E+03  0.37431635961E+03  0.41800000000E+01 0.  1.
         -5    1    4    4    0  501  0.14780180113E+03  0.18217977401E+02  0.34698143378E+03  0.37761204285E+03  0.41800000000E+01 0.  1.
</event>
<event>
11    1  0.8037748E-009  0.1736310E+03  0.7561462E-02  0.1074914E+00
         22   -1    0    0    0    0  0.00000000000E+00  0.00000000000E+00  0.20538685953E+04  0.20538685953E+04  0.00000000000E+00 0. -1.
         22   -1    0    0    0    0 -0.00000000000E+00 -0.00000000000E+00 -0.42001643233E+04  0.42001643233E+04  0.00000000000E+00 0. -1.
         24    2    1    2    0    0 -0.36547094053E+02 -0.18046444123E+02 -0.41306981441E+04  0.41315795131E+04  0.74971669161E+02 0.  0.
         25    2    1    2    0    0  0.15457897992E+03  0.22185227984E+01  0.82770130697E+02  0.21540020472E+03  0.12508705281E+03 0.  0.
        -24    2    1    2    0    0 -0.11803188587E+03  0.15827921325E+02  0.19016322853E+04  0.19070532008E+04  0.80402195577E+02 0.  0.
        -11    1    3    3    0    0 -0.57417321152E+02 -0.75001669100E+01 -0.22863775684E+04  0.22871107071E+04  0.00000000000E+00 0.  1.
         12    1    3    3    0    0  0.20870227099E+02 -0.10546277213E+02 -0.18443205757E+04  0.18444688060E+04  0.00000000000E+00 0. -1.
         13    1    5    5    0    0 -0.12409216281E+03  0.55963597604E+00  0.17794312053E+04  0.17837529517E+04  0.00000000000E+00 0. -1.
        -14    1    5    5    0    0  0.60602769452E+01  0.15268285349E+02  0.12220107995E+03  0.12330024913E+03  0.00000000000E+00 0.  1.
          5    1    4    4  501    0 -0.55202745607E+00 -0.27928438600E+02  0.44563273095E+02  0.52760403011E+02  0.41800000000E+01 0.  1.
         -5    1    4    4    0  501  0.15513100738E+03  0.30146961399E+02  0.38206857602E+02  0.16263980171E+03  0.41800000000E+01 0.  1.
</event>
<event>
11    1  0.8037748E-009  0.1584574E+03  0.7561462E-02  0.1088537E+00
         22   -1    0    0    0    0  0.00000000000E+00  0.00000000000E+00  0.36044987954E+04  0.36044987954E+04  0.00000000000E+00 0. -1.
         22   -1    0    0    0    0 -0.00000000000E+00 -0.00000000000E+00 -0.15747686680E+03  0.15747686680E+03  0.00000000000E+00 0. -1.
         24    2    1    2    0    0 -0.15991033601E+02 -0.27609899895E+02 -0.65876998826E+02  0.10882905768E+03  0.80535489657E+02 0.  0.
         25    2    1    2    0    0  0.10976928424E+03  0.52037375950E+02  0.41199573468E+02  0.17916853023E+03  0.12508706214E+03 0.  0.
        -24    2    1    2    0    0 -0.93778250634E+02 -0.24427476055E+02  0.34716993540E+04  0.34739780743E+04  0.80225896168E+02 0.  0.
        -13    1    3    3    0    0  0.14353800803E+02 -0.98801647610E+01  0.13484672579E+02  0.22033738852E+02  0.00000000000E+00 0.  1.
         14    1    3    3    0    0 -0.30344834405E+02 -0.17729735134E+02 -0.79361671405E+02  0.86795318832E+02  0.00000000000E+00 0. -1.
         11    1    5    5    0    0 -0.60626683718E+02 -0.36717641817E+02  0.30423089917E+04  0.30431345322E+04  0.00000000000E+00 0. -1.
        -12    1    5    5    0    0 -0.33151566917E+02  0.12290165762E+02  0.42939036232E+03  0.43084354216E+03  0.00000000000E+00 0.  1.
          5    1    4    4  501    0  0.12505916558E+02 -0.35049957043E+02 -0.10177682733E+02  0.38806636849E+02  0.41800000000E+01 0. -1.
         -5    1    4    4    0  501  0.97263367677E+02  0.87087332993E+02  0.51377256202E+02  0.14036189338E+03  0.41800000000E+01 0. -1.
</event>
<event>
11    1  0.8037748E-009  0.1290148E+03  0.7561462E-02  0.1120485E+00
         22   -1    0    0    0    0  0.00000000000E+00  0.00000000000E+00  0.96980104188E+03  0.96980104188E+03  0.00000000000E+00 0. -1.
         22   -1    0    0    0    0 -0.00000000000E+00 -0.00000000000E+00 -0.24197680400E+03  0.24197680400E+03  0.00000000000E+00 0.  1.
        -24    2    1    2    0    0 -0.10916237635E+02 -0.21692268490E+02 -0.17311367425E+03  0.18971125981E+03  0.73704132369E+02 0.  0.
         25    2    1    2    0    0  0.42067039559E+02  0.19628481822E+02  0.17949319884E+02  0.13462837231E+03  0.12509079675E+03 0.  0.
         24    2    1    2    0    0 -0.31150801924E+02  0.20637866682E+01  0.88298859226E+03  0.88743821376E+03  0.83084881313E+02 0.  0.
        -13    1    5    5    0    0  0.13720745903E+02  0.16566289094E+02  0.73649449225E+02  0.76726411187E+02  0.00000000000E+00 0.  1.
         14    1    5    5    0    0 -0.44871547827E+02 -0.14502502426E+02  0.80933914303E+03  0.81071180257E+03  0.00000000000E+00 0. -1.
         11    1    3    3    0    0  0.10967597979E+02 -0.42754669898E+02 -0.12737835038E+03  0.13480910262E+03  0.00000000000E+00 0. -1.
        -12    1    3    3    0    0 -0.21883835614E+02  0.21062401408E+02 -0.45735323875E+02  0.54902157191E+02  0.00000000000E+00 0.  1.
          5    1    4    4  501    0 -0.20608374999E+02 -0.36158421665E+02 -0.14929260664E+02  0.44412743682E+02  0.41800000000E+01 0.  1.
         -5    1    4    4    0  501  0.62675414558E+02  0.55786903487E+02  0.32878580547E+02  0.90215628632E+02  0.41800000000E+01 0.  1.
</event>
<event>
11    1  0.8037748E-009  0.1439198E+03  0.7561462E-02  0.1103259E+00
         22   -1    0    0    0    0  0.00000000000E+00  0.00000000000E+00  0.23286021343E+03  0.23286021343E+03  0.00000000000E+00 0. -1.
         22   -1    0    0    0    0 -0.00000000000E+00 -0.00000000000E+00 -0.98462199611E+03  0.98462199611E+03  0.00000000000E+00 0. -1.
        -24    2    1    2    0    0  0.17645258661E+02  0.70546411994E+02 -0.89150014387E+03  0.89813270547E+03  0.81127669246E+02 0.  0.
         25    2    1    2    0    0 -0.55676636132E+02 -0.27445936689E+02 -0.10296493976E+02  0.14002365772E+03  0.12508972653E+03 0.  0.
         24    2    1    2    0    0  0.38031377471E+02 -0.43100475304E+02  0.15003485516E+03  0.17932584634E+03  0.79644615365E+02 0.  0.
        -11    1    5    5    0    0  0.30847641242E+02 -0.45589266049E+02  0.37662242781E+02  0.66696346830E+02  0.00000000000E+00 0.  1.
         12    1    5    5    0    0  0.71837362290E+01  0.24887907448E+01  0.11237261238E+03  0.11262949951E+03  0.00000000000E+00 0. -1.
         13    1    3    3    0    0  0.34314029117E+02  0.58174134837E+02 -0.83844692986E+03  0.84116284794E+03  0.00000000000E+00 0. -1.
        -14    1    3    3    0    0 -0.16668770456E+02  0.12372277157E+02 -0.53053214009E+02  0.56969857533E+02  0.00000000000E+00 0.  1.
          5    1    4    4  501    0  0.26763495140E+01 -0.11378003515E+02 -0.60200554705E+02  0.61467072466E+02  0.41800000000E+01 0. -1.
         -5    1    4    4    0  501 -0.58352985646E+02 -0.16067933174E+02  0.49904060729E+02  0.78556585258E+02  0.41800000000E+01 0. -1.
</event>
<event>
11    1  0.8037748E-009  0.1434215E+03  0.7561462E-02  0.1103797E+00
         22   -1    0    0    0    0  0.00000000000E+00  0.00000000000E+00  0.61155462640E+03  0.61155462640E+03  0.00000000000E+00 0. -1.
         22   -1    0    0    0    0 -0.00000000000E+00 -0.00000000000E+00 -0.35277117205E+03  0.35277117205E+03  0.00000000000E+00 0.  1.
        -24    2    1    2    0    0  0.64885263024E+02 -0.21826309958E+02 -0.24499874232E+03  0.26686018009E+03  0.80644198901E+02 0.  0.
         25    2    1    2    0    0 -0.58469543661E+02  0.70417522544E+02 -0.27768502095E+02  0.15746678122E+03  0.12508949780E+03 0.  0.
         24    2    1    2    0    0 -0.64157193635E+01 -0.48591212586E+02  0.53155069876E+03  0.53999883714E+03  0.81549563829E+02 0.  0.
        -13    1    5    5    0    0 -0.30603932842E+02 -0.38137752426E+02  0.15506806898E+03  0.16259518714E+03  0.00000000000E+00 0.  1.
         14    1    5    5    0    0  0.24188213478E+02 -0.10453460160E+02  0.37648262979E+03  0.37740365000E+03  0.00000000000E+00 0. -1.
         13    1    3    3    0    0  0.88890904993E+01  0.44770472381E+01  0.36724007214E+01  0.10608789230E+02  0.00000000000E+00 0. -1.
        -14    1    3    3    0    0  0.55996172525E+02 -0.26303357196E+02 -0.24867114304E+03  0.25625139086E+03  0.00000000000E+00 0.  1.
          5    1    4    4  501    0 -0.53087159873E+02  0.38274777486E+02 -0.75192357621E+02  0.99772582304E+02  0.41800000000E+01 0. -1.
         -5    1    4    4    0  501 -0.53823837880E+01  0.32142745058E+02  0.47423855526E+02  0.57694198912E+02  0.41800000000E+01 0. -1.
</event>
<event>
11    1  0.8037748E-009  0.2671475E+03  0.7561462E-02  0.1015141E+00
         22   -1    0    0    0    0  0.00000000000E+00  0.00000000000E+00  0.82445893622E+03  0.82445893622E+03  0.00000000000E+00 0. -1.
         22   -1    0    0    0    0 -0.00000000000E+00 -0.00000000000E+00 -0.66334099420E+03  0.66334099420E+03  0.00000000000E+00 0.  1.
         24    2    1    2    0    0  0.27583005535E+02 -0.30496129230E+02 -0.53108636429E+03  0.53856011117E+03  0.79394149154E+02 0.  0.
         25    2    1    2    0    0  0.12049029166E+03 -0.16316002477E+03  0.31862324699E+02  0.24042020810E+03  0.12509022608E+03 0.  0.
        -24    2    1    2    0    0 -0.14807329719E+03  0.19365615400E+03  0.66034198161E+03  0.70881961115E+03  0.83338473418E+02 0.  0.
        -11    1    3    3    0    0  0.26597768931E+02 -0.18636067423E+00 -0.46596870995E+03  0.46672723800E+03  0.00000000000E+00 0.  1.
         12    1    3    3    0    0  0.98523660454E+00 -0.30309768555E+02 -0.65117654343E+02  0.71832873172E+02  0.00000000000E+00 0. -1.
         13    1    5    5    0    0 -0.52655526381E+02  0.13350490070E+03  0.40494205475E+03  0.42962103146E+03  0.00000000000E+00 0. -1.
        -14    1    5    5    0    0 -0.95417770810E+02  0.60151253299E+02  0.25539992687E+03  0.27919857969E+03  0.00000000000E+00 0.  1.
          5    1    4    4  501    0  0.82965744926E+02 -0.50076731184E+02 -0.35734277821E+02  0.10337023193E+03  0.41800000000E+01 0. -1.
         -5    1    4    4    0  501  0.37524546729E+02 -0.11308329359E+03  0.67596602520E+02  0.13704997617E+03  0.41800000000E+01 0. -1.
</event>
<event>
11    1  0.8037748E-009  0.1315743E+03  0.7561462E-02  0.1117350E+00
         22   -1    0    0    0    0  0.00000000000E+00  0.00000000000E+00  0.20171137820E+04  0.20171137820E+04  0.00000000000E+00 0.  1.
         22   -1    0    0    0    0 -0.00000000000E+00 -0.00000000000E+00 -0.76202309094E+03  0.76202309094E+03  0.00000000000E+00 0. -1.
        -24    2    1    2    0    0  0.39490659316E+02  0.77229568473E+01 -0.72317815038E+03  0.72869972001E+03  0.79984301703E+02 0.  0.
         25    2    1    2    0    0 -0.69089215414E+02 -0.92220860834E+01  0.11113192863E+03  0.18126568666E+03  0.12509427261E+03 0.  0.
         24    2    1    2    0    0  0.29598556098E+02  0.14991292362E+01  0.18671369129E+04  0.18691714663E+04  0.81996324525E+02 0.  0.
        -11    1    5    5    0    0  0.38387829957E+01  0.21791979822E+02  0.15820473743E+04  0.15822021113E+04  0.00000000000E+00 0.  1.
         12    1    5    5    0    0  0.25759773102E+02 -0.20292850586E+02  0.28508953860E+03  0.28696935501E+03  0.00000000000E+00 0. -1.
         11    1    3    3    0    0  0.28142949196E+02 -0.35020404158E+02 -0.33068896404E+03  0.33372690217E+03  0.00000000000E+00 0. -1.
        -12    1    3    3    0    0  0.11347710121E+02  0.42743361005E+02 -0.39248918634E+03  0.39497281784E+03  0.00000000000E+00 0.  1.
          5    1    4    4  501    0 -0.12299685733E+02  0.53782584031E+01 -0.27389188540E+02  0.30787139871E+02  0.41800000000E+01 0.  1.
         -5    1    4    4    0  501 -0.56789529681E+02 -0.14600344487E+02  0.13852111717E+03  0.15047854678E+03  0.41800000000E+01 0.  1.
</event>
<event>
11    1  0.8037748E-009  0.1419330E+03  0.7561462E-02  0.1105419E+00
         22   -1    0    0    0    0  0.00000000000E+00  0.00000000000E+00  0.41019770277E+03  0.41019770277E+03  0.00000000000E+00 0. -1.
         22   -1    0    0    0    0 -0.00000000000E+00 -0.00000000000E+00 -0.17506478038E+04  0.17506478038E+04  0.00000000000E+00 0. -1.
         24    2    1    2    0    0  0.29564609979E+00 -0.51937508707E+02 -0.15848172433E+04  0.15877551563E+04  0.81382735090E+02 0.  0.
         25    2    1    2    0    0 -0.53832629941E+02  0.92712401304E+01 -0.12749446373E+03  0.18677623432E+03  0.12508643205E+03 0.  0.
        -24    2    1    2    0    0  0.53536983842E+02  0.42666268577E+02  0.37186160600E+03  0.38631411592E+03  0.79189159753E+02 0.  0.
        -13    1    3    3    0    0 -0.37708135140E+02 -0.39421709450E+02 -0.10674335376E+04  0.10688266145E+04  0.00000000000E+00 0.  1.
         14    1    3    3    0    0  0.38003781240E+02 -0.12515799257E+02 -0.51738370568E+03  0.51892854183E+03  0.00000000000E+00 0. -1.
         13    1    5    5    0    0  0.30122951237E+02  0.59281991698E+02  0.17209821936E+03  0.18449808627E+03  0.00000000000E+00 0. -1.
        -14    1    5    5    0    0  0.23414032605E+02 -0.16615723122E+02  0.19976338664E+03  0.20181602964E+03  0.00000000000E+00 0.  1.
          5    1    4    4  501    0  0.16188745000E+02  0.38493854521E+02 -0.95520896938E+02  0.10433391803E+03  0.41800000000E+01 0. -1.
         -5    1    4    4    0  501 -0.70021374941E+02 -0.29222614391E+02 -0.31973566795E+02  0.82442316283E+02  0.41800000000E+01 0. -1.
</event>
<event>
11    1  0.8037748E-009  0.1319904E+03  0.7561462E-02  0.1116847E+00
         22   -1    0    0    0    0  0.00000000000E+00  0.00000000000E+00  0.73558567320E+02  0.73558567320E+02  0.00000000000E+00 0. -1.
         22   -1    0    0    0    0 -0.00000000000E+00 -0.00000000000E+00 -0.41669519006E+03  0.41669519006E+03  0.00000000000E+00 0. -1.
        -24    2    1    2    0    0 -0.20625879816E+01  0.39143738867E+02 -0.19077724465E+03  0.21385815165E+03  0.88333829235E+02 0.  0.
         25    2    1    2    0    0  0.17857550841E+02 -0.46536897461E+02 -0.16028824074E+03  0.20934350519E+03  0.12509119912E+03 0.  0.
         24    2    1    2    0    0 -0.15794962859E+02  0.73931585934E+01  0.79288626494E+01  0.67052100549E+02  0.64257121624E+02 0.  0.
        -11    1    5    5    0    0 -0.16419385799E+01 -0.10106350050E+02 -0.25086313740E+02  0.27095339280E+02  0.00000000000E+00 0.  1.
         12    1    5    5    0    0 -0.14153024279E+02  0.17499508644E+02  0.33015176390E+02  0.39956761268E+02  0.00000000000E+00 0. -1.
         11    1    3    3    0    0  0.40766275361E+02  0.19263756932E+02 -0.61726364126E+02  0.76440339914E+02  0.00000000000E+00 0. -1.
        -12    1    3    3    0    0 -0.42828863343E+02  0.19879981935E+02 -0.12905088053E+03  0.13741781173E+03  0.00000000000E+00 0.  1.
          5    1    4    4  501    0 -0.29715102397E+02  0.30752909388E+02 -0.40938325073E+02  0.59347684083E+02  0.41800000000E+01 0. -1.
         -5    1    4    4    0  501  0.47572653237E+02 -0.77289806849E+02 -0.11934991567E+03  0.14999582110E+03  0.41800000000E+01 0. -1.
</event>
<event>
11    1  0.8037748E-009  0.1498153E+03  0.7561462E-02  0.1097068E+00
         22   -1    0    0    0    0  0.00000000000E+00  0.00000000000E+00  0.14640827678E+03  0.14640827678E+03  0.00000000000E+00 0.  1.
         22   -1    0    0    0    0 -0.00000000000E+00 -0.00000000000E+00 -0.19011455625E+04  0.19011455625E+04  0.00000000000E+00 0. -1.
        -24    2    1    2    0    0 -0.43764357744E+02 -0.63948411476E+02 -0.17596733279E+04  0.17632273133E+04  0.80719385402E+02 0.  0.
         25    2    1    2    0    0 -0.35767663635E+02 -0.65886210191E+01 -0.50340971292E+02  0.13964380448E+03  0.12507375045E+03 0.  0.
         24    2    1    2    0    0  0.79532021379E+02  0.70537032495E+02  0.55277013513E+02  0.14468272144E+03  0.81097017709E+02 0.  0.
        -11    1    5    5    0    0  0.91766759673E+02  0.55810017205E+02  0.62445027187E+02  0.12423879274E+03  0.00000000000E+00 0.  1.
         12    1    5    5    0    0 -0.12234738294E+02  0.14727015290E+02 -0.71680136735E+01  0.20443928695E+02  0.00000000000E+00 0. -1.
         13    1    3    3    0    0 -0.41692394564E+02 -0.67826842365E+02 -0.17550204081E+04  0.17568253667E+04  0.00000000000E+00 0. -1.
        -14    1    3    3    0    0 -0.20719631802E+01  0.38784308889E+01 -0.46529197958E+01  0.64019465951E+01  0.00000000000E+00 0.  1.
          5    1    4    4  501    0 -0.38501873390E+02  0.20281130392E+02 -0.84953524173E+02  0.95542096345E+02  0.41800000000E+01 0.  1.
         -5    1    4    4    0  501  0.27342097550E+01 -0.26869751411E+02  0.34612552881E+02  0.44101708140E+02  0.41800000000E+01 0.  1.
</event>
<event>
11    1  0.8037748E-009  0.1301331E+03  0.7561462E-02  0.1119106E+00
         22   -1    0    0    0    0  0.00000000000E+00  0.00000000000E+00  0.32714597695E+03  0.32714597695E+03  0.00000000000E+00 0. -1.
         22   -1    0    0    0    0 -0.00000000000E+00 -0.00000000000E+00 -0.26875879178E+04  0.26875879178E+04  0.00000000000E+00 0. -1.
        -24    2    1    2    0    0 -0.22042831793E+02  0.79956937070E+01 -0.26072374894E+04  0.26084586253E+04  0.76284050425E+02 0.  0.
         25    2    1    2    0    0  0.12394937666E+02 -0.42271170600E+02 -0.11363652194E+02  0.13311624682E+03  0.12510122394E+03 0.  0.
         24    2    1    2    0    0  0.96478941274E+01  0.34275476893E+02  0.25815920075E+03  0.27315902259E+03  0.81864452077E+02 0.  0.
        -11    1    5    5    0    0  0.27347861120E+02 -0.48620576857E+01  0.19381230423E+03  0.19579263107E+03  0.00000000000E+00 0.  1.
         12    1    5    5    0    0 -0.17699966993E+02  0.39137534578E+02  0.64346896526E+02  0.77366391521E+02  0.00000000000E+00 0. -1.
         13    1    3    3    0    0 -0.27386000934E+02  0.19592187633E+02 -0.25259524186E+04  0.25261768481E+04  0.00000000000E+00 0. -1.
        -14    1    3    3    0    0  0.53431691411E+01 -0.11596493926E+02 -0.81285070827E+02  0.82281777249E+02  0.00000000000E+00 0.  1.
          5    1    4    4  501    0 -0.31851877417E+02 -0.50800496770E+02 -0.46360638956E+02  0.75907929833E+02  0.41800000000E+01 0.  1.
         -5    1    4    4    0  501  0.44246815083E+02  0.85293261705E+01  0.34996986763E+02  0.57208316986E+02  0.41800000000E+01 0.  1.
</event>
<event>
11    1  0.8037748E-009  0.1376878E+03  0.7561462E-02  0.1110168E+00
         22   -1    0    0    0    0  0.00000000000E+00  0.00000000000E+00  0.26987484643E+03  0.26987484643E+03  0.00000000000E+00 0. -1.
         22   -1    0    0    0    0 -0.00000000000E+00 -0.00000000000E+00 -0.68590481021E+03  0.68590481021E+03  0.00000000000E+00 0. -1.
         24    2    1    2    0    0  0.89950935644E+01 -0.54222175102E+02 -0.52344759860E+03  0.53247899563E+03  0.80718872161E+02 0.  0.
         25    2    1    2    0    0 -0.22162648012E+01  0.78755101460E+02 -0.11395140276E+03  0.18665687137E+03  0.12509431484E+03 0.  0.
        -24    2    1    2    0    0 -0.67788287632E+01 -0.24532926359E+02  0.22136903758E+03  0.23664378963E+03  0.79675688737E+02 0.  0.
        -13    1    3    3    0    0  0.30322459664E+02 -0.37875746761E+02 -0.14149387994E+03  0.14958122146E+03  0.00000000000E+00 0.  1.
         14    1    3    3    0    0 -0.21327366100E+02 -0.16346428341E+02 -0.38195371867E+03  0.38289777417E+03  0.00000000000E+00 0. -1.
         13    1    5    5    0    0 -0.31304025176E+02 -0.80278115683E+01  0.33815255921E+02  0.46774558083E+02  0.00000000000E+00 0. -1.
        -14    1    5    5    0    0  0.24525196413E+02 -0.16505114790E+02  0.18755378166E+03  0.18986923155E+03  0.00000000000E+00 0.  1.
          5    1    4    4  501    0  0.23546067058E+02  0.18547396348E+02  0.20837006244E+02  0.36743385996E+02  0.41800000000E+01 0. -1.
         -5    1    4    4    0  501 -0.25762331859E+02  0.60207705112E+02 -0.13478840900E+03  0.14991348538E+03  0.41800000000E+01 0. -1.
</event>
<event>
11    1  0.8037748E-009  0.1950511E+03  0.7561462E-02  0.1058080E+00
         22   -1    0    0    0    0  0.00000000000E+00  0.00000000000E+00  0.11321366299E+04  0.11321366299E+04  0.00000000000E+00 0. -1.
         22   -1    0    0    0    0 -0.00000000000E+00 -0.00000000000E+00 -0.42611321663E+03  0.42611321663E+03  0.00000000000E+00 0.  1.
         24    2    1    2    0    0 -0.14018544685E+03 -0.29736688641E+02 -0.30287143157E+03  0.34443870651E+03  0.79816591785E+02 0.  0.
         25    2    1    2    0    0  0.19809760545E+03 -0.15112027792E+02  0.39172738481E+02  0.23801990239E+03  0.12509170966E+03 0.  0.
        -24    2    1    2    0    0 -0.57912158596E+02  0.44848716433E+02  0.96972210640E+03  0.97579123768E+03  0.80264253578E+02 0.  0.
        -13    1    3    3    0    0 -0.36800440039E+02  0.10747328398E+02 -0.15413779177E+03  0.15883398978E+03  0.00000000000E+00 0.  1.
         14    1    3    3    0    0 -0.10338500681E+03 -0.40484017039E+02 -0.14873363979E+03  0.18560471674E+03  0.00000000000E+00 0. -1.
         13    1    5    5    0    0  0.59595466958E+01 -0.17660456390E+02  0.21172211825E+03  0.21254096846E+03  0.00000000000E+00 0. -1.
        -14    1    5    5    0    0 -0.63871705291E+02  0.62509172823E+02  0.75799998815E+03  0.76325026921E+03  0.00000000000E+00 0.  1.
          5    1    4    4  501    0  0.18838415879E+03 -0.61399137421E+01 -0.81503734364E+01  0.18870662631E+03  0.41800000000E+01 0. -1.
         -5    1    4    4    0  501  0.97134466526E+01 -0.89721140500E+01  0.47323111917E+02  0.49313276082E+02  0.41800000000E+01 0. -1.
</event>
<event>
11    1  0.8037748E-009  0.1313187E+03  0.7561462E-02  0.1117659E+00
         22   -1    0    0    0    0  0.00000000000E+00  0.00000000000E+00  0.11596222334E+04  0.11596222334E+04  0.00000000000E+00 0. -1.
         22   -1    0    0    0    0 -0.00000000000E+00 -0.00000000000E+00 -0.33459919877E+03  0.33459919877E+03  0.00000000000E+00 0. -1.
         24    2    1    2    0    0 -0.56411021098E+01  0.25500827124E+02 -0.24484062489E+03  0.25874976566E+03  0.79513492023E+02 0.  0.
         25    2    1    2    0    0 -0.33198031010E+02 -0.15011090405E+02 -0.28520109005E+02  0.13337324222E+03  0.12509029948E+03 0.  0.
        -24    2    1    2    0    0  0.38839133120E+02 -0.10489736719E+02  0.10983837686E+04  0.11020984243E+04  0.80966172007E+02 0.  0.
        -13    1    3    3    0    0 -0.18376572694E+02 -0.23508438259E+02 -0.58755229527E+02  0.65897815518E+02  0.00000000000E+00 0.  1.
         14    1    3    3    0    0  0.12735470585E+02  0.49009265383E+02 -0.18608539537E+03  0.19285195014E+03  0.00000000000E+00 0. -1.
         13    1    5    5    0    0  0.34534180093E+02 -0.18173913698E+02  0.10870228203E+04  0.10877230863E+04  0.00000000000E+00 0. -1.
        -14    1    5    5    0    0  0.43049530267E+01  0.76841769785E+01  0.11360948291E+02  0.14375337995E+02  0.00000000000E+00 0.  1.
          5    1    4    4  501    0  0.15012736777E+01  0.97369162010E+00 -0.73824004727E+02  0.73963896409E+02  0.41800000000E+01 0. -1.
         -5    1    4    4    0  501 -0.34699304688E+02 -0.15984782025E+02  0.45303895723E+02  0.59409345812E+02  0.41800000000E+01 0. -1.
</event>
<event>
11    1  0.8037748E-009  0.1456750E+03  0.7561462E-02  0.1101382E+00
         22   -1    0    0    0    0  0.00000000000E+00  0.00000000000E+00  0.64622052670E+03  0.64622052670E+03  0.00000000000E+00 0.  1.
         22   -1    0    0    0    0 -0.00000000000E+00 -0.00000000000E+00 -0.52444873239E+03  0.52444873239E+03  0.00000000000E+00 0. -1.
        -24    2    1    2    0    0 -0.38033953120E+02  0.65991290661E+02 -0.49311890158E+03  0.50570662653E+03  0.82289179053E+02 0.  0.
         25    2    1    2    0    0 -0.18307667129E+02 -0.33883376095E+02  0.20809429754E+03  0.24583163822E+03  0.12508678519E+03 0.  0.
         24    2    1    2    0    0  0.56341620249E+02 -0.32107914567E+02  0.40679639835E+03  0.41913099435E+03  0.77344582003E+02 0.  0.
        -13    1    5    5    0    0  0.58352563117E+02 -0.17724422917E+02  0.39689628534E+03  0.40155427791E+03  0.00000000000E+00 0.  1.
         14    1    5    5    0    0 -0.20109428681E+01 -0.14383491650E+02  0.99001130080E+01  0.17576716441E+02  0.00000000000E+00 0. -1.
         11    1    3    3    0    0  0.21606723349E+02  0.36028770416E+02 -0.25385663236E+03  0.25730937135E+03  0.00000000000E+00 0. -1.
        -12    1    3    3    0    0 -0.59640676469E+02  0.29962520246E+02 -0.23926226922E+03  0.24839725518E+03  0.00000000000E+00 0.  1.
          5    1    4    4  501    0  0.15328462189E+02 -0.20278026407E+02  0.20771478676E+03  0.20930615172E+03  0.41800000000E+01 0.  1.
         -5    1    4    4    0  501 -0.33636129318E+02 -0.13605349688E+02  0.37951078059E+00  0.36525486500E+02  0.41800000000E+01 0.  1.
</event>
<event>
11    1  0.8037748E-009  0.1886029E+03  0.7561462E-02  0.1062889E+00
         22   -1    0    0    0    0  0.00000000000E+00  0.00000000000E+00  0.29703854787E+03  0.29703854787E+03  0.00000000000E+00 0. -1.
         22   -1    0    0    0    0 -0.00000000000E+00 -0.00000000000E+00 -0.21882327360E+03  0.21882327360E+03  0.00000000000E+00 0. -1.
        -24    2    1    2    0    0 -0.16744177566E+03 -0.29141891242E+02 -0.37656008578E+02  0.19207695739E+03  0.81176255853E+02 0.  0.
         25    2    1    2    0    0  0.78378043753E+02  0.83023904757E+02  0.52967467212E+02  0.17745377813E+03  0.12509278271E+03 0.  0.
         24    2    1    2    0    0  0.89063731909E+02 -0.53882013516E+02  0.62903815630E+02  0.14633108595E+03  0.81365084479E+02 0.  0.
        -13    1    5    5    0    0 -0.47918478985E-02 -0.72515685260E+01 -0.16627825040E+02  0.18140282099E+02  0.00000000000E+00 0.  1.
         14    1    5    5    0    0  0.89068523757E+02 -0.46630444990E+02  0.79531640670E+02  0.12819080385E+03  0.00000000000E+00 0. -1.
         13    1    3    3    0    0 -0.16184599399E+03 -0.21259752917E+02 -0.54973237521E+02  0.17224447657E+03  0.00000000000E+00 0. -1.
        -14    1    3    3    0    0 -0.55957816736E+01 -0.78821383245E+01  0.17317228944E+02  0.19832480818E+02  0.00000000000E+00 0.  1.
          5    1    4    4  501    0  0.51847660236E+02 -0.17138526222E+02  0.49300840694E+02  0.73688223253E+02  0.41800000000E+01 0.  1.
         -5    1    4    4    0  501  0.26530383517E+02  0.10016243098E+03  0.36666265181E+01  0.10376555488E+03  0.41800000000E+01 0.  1.
</event>
<event>
11    1  0.8037748E-009  0.1468361E+03  0.7561462E-02  0.1100156E+00
         22   -1    0    0    0    0  0.00000000000E+00  0.00000000000E+00  0.22068015365E+03  0.22068015365E+03  0.00000000000E+00 0. -1.
         22   -1    0    0    0    0 -0.00000000000E+00 -0.00000000000E+00 -0.15816705419E+04  0.15816705419E+04  0.00000000000E+00 0. -1.
        -24    2    1    2    0    0 -0.15637375684E+02 -0.44784851498E+02 -0.14888173055E+04  0.14918361729E+04  0.82146133814E+02 0.  0.
         25    2    1    2    0    0  0.13365449657E+02  0.10918792440E+03  0.39316343109E+02  0.17115549355E+03  0.12509112702E+03 0.  0.
         24    2    1    2    0    0  0.22719260271E+01 -0.64403072902E+02  0.88510574149E+02  0.13935902905E+03  0.86220066081E+02 0.  0.
        -11    1    5    5    0    0 -0.14232596727E+02  0.17306423652E+02  0.30305723257E+02  0.37689732970E+02  0.00000000000E+00 0.  1.
         12    1    5    5    0    0  0.16504522754E+02 -0.81709496554E+02  0.58204850892E+02  0.10166929608E+03  0.00000000000E+00 0. -1.
         11    1    3    3    0    0 -0.10876538052E+02 -0.69078773586E+02 -0.11378629423E+04  0.11400097594E+04  0.00000000000E+00 0. -1.
        -12    1    3    3    0    0 -0.47608376321E+01  0.24293922088E+02 -0.35095436321E+03  0.35182641356E+03  0.00000000000E+00 0.  1.
          5    1    4    4  501    0  0.14928965133E+02  0.13687483909E+03  0.38785439243E+02  0.14310617832E+03  0.41800000000E+01 0. -1.
         -5    1    4    4    0  501 -0.15635154760E+01 -0.27686914694E+02  0.53090386625E+00  0.28049315229E+02  0.41800000000E+01 0. -1.
</event>
<event>
11    1  0.8037748E-009  0.2449523E+03  0.7561462E-02  0.1026623E+00
         22   -1    0    0    0    0  0.00000000000E+00  0.00000000000E+00  0.42772887128E+03  0.42772887128E+03  0.00000000000E+00 0. -1.
         22   -1    0    0    0    0 -0.00000000000E+00 -0.00000000000E+00 -0.19704215631E+04  0.19704215631E+04  0.00000000000E+00 0. -1.
        -24    2    1    2    0    0  0.63211681878E+02 -0.19761480490E+03 -0.16442709647E+04  0.16592452356E+04  0.80127515394E+02 0.  0.
         25    2    1    2    0    0 -0.23594189239E+03  0.17893889905E+03 -0.20218502214E+03  0.37975516532E+03  0.12508995254E+03 0.  0.
         24    2    1    2    0    0  0.17273021051E+03  0.18675905851E+02  0.30376329506E+03  0.35915003340E+03  0.80821358430E+02 0.  0.
        -11    1    5    5    0    0  0.74381961781E+02  0.41143953870E+02  0.96232336134E+02  0.12839845675E+03  0.00000000000E+00 0.  1.
         12    1    5    5    0    0  0.98348248734E+02 -0.22468048019E+02  0.20753095893E+03  0.23075157665E+03  0.00000000000E+00 0. -1.
         11    1    3    3    0    0  0.80747417152E+02 -0.17454035111E+03 -0.14792442146E+04  0.14916929730E+04  0.00000000000E+00 0. -1.
        -12    1    3    3    0    0 -0.17535735274E+02 -0.23074453796E+02 -0.16502675018E+03  0.16755226261E+03  0.00000000000E+00 0.  1.
          5    1    4    4  501    0 -0.23222282437E+03  0.18851340569E+03 -0.21060029281E+03  0.36583425210E+03  0.41800000000E+01 0.  1.
         -5    1    4    4    0  501 -0.37190680271E+01 -0.95745066366E+01  0.84152706673E+01  0.13920913215E+02  0.41800000000E+01 0.  1.
</event>
<event>
11    1  0.9101351E-009  0.1529710E+03  0.7561462E-02  0.1093881E+00
         22   -1    0    0    0    0  0.00000000000E+00  0.00000000000E+00  0.15021173681E+04  0.15021173681E+04  0.00000000000E+00 0. -1.
         22   -1    0    0    0    0 -0.00000000000E+00 -0.00000000000E+00 -0.22674017209E+03  0.22674017209E+03  0.00000000000E+00 0.  1.
        -24    2    1    2    0    0  0.52154962823E+01 -0.46452791934E+02 -0.12313442315E+03  0.15462163667E+03  0.80998154794E+02 0.  0.
         25    2    1    2    0    0  0.78430999621E+02  0.17155999561E+02 -0.20651290216E+02  0.15006023655E+03  0.12508336734E+03 0.  0.
         24    2    1    2    0    0 -0.83646495903E+02  0.29296792373E+02  0.14191629094E+04  0.14241756670E+04  0.79987053248E+02 0.  0.
        -11    1    5    5    0    0 -0.58319442876E+02  0.22064275804E+02  0.41414753276E+03  0.41881519621E+03  0.00000000000E+00 0.  1.
         12    1    5    5    0    0 -0.25327053026E+02  0.72325165689E+01  0.10050153766E+04  0.10053604708E+04  0.00000000000E+00 0. -1.
         13    1    3    3    0    0  0.91560694230E+01  0.49548955435E+01  0.83783320664E+01  0.13363421917E+02  0.00000000000E+00 0. -1.
        -14    1    3    3    0    0 -0.39405731407E+01 -0.51407687477E+02 -0.13151275522E+03  0.14125821475E+03  0.00000000000E+00 0.  1.
          5    1    4    4  501    0  0.66124612700E+02  0.66152793800E+02  0.39577763703E+01  0.93711220918E+02  0.41800000000E+01 0. -1.
         -5    1    4    4    0  501  0.12306386921E+02 -0.48996794239E+02 -0.24609066586E+02  0.56349015634E+02  0.41800000000E+01 0. -1.
</event>
<event>
11    1  0.8037748E-009  0.1351382E+03  0.7561462E-02  0.1113112E+00
         22   -1    0    0    0    0  0.00000000000E+00  0.00000000000E+00  0.55846242196E+02  0.55846242196E+02  0.00000000000E+00 0.  1.
         22   -1    0    0    0    0 -0.00000000000E+00 -0.00000000000E+00 -0.25721477262E+04  0.25721477262E+04  0.00000000000E+00 0.  1.
         24    2    1    2    0    0 -0.20445123353E+02 -0.53379842038E+01 -0.21027649083E+04  0.21044791471E+04  0.82254020104E+02 0.  0.
         25    2    1    2    0    0 -0.24543356781E+02 -0.23431857239E+02 -0.40534221250E+03  0.42556063033E+03  0.12509241608E+03 0.  0.
        -24    2    1    2    0    0  0.44988480134E+02  0.28769841442E+02 -0.81943631720E+01  0.97954190938E+02  0.81708070673E+02 0.  0.
        -13    1    3    3    0    0 -0.35854867075E+02 -0.33383594662E+02 -0.15621398234E+04  0.15629078232E+04  0.00000000000E+00 0.  1.
         14    1    3    3    0    0  0.15409743722E+02  0.28045610458E+02 -0.54062508490E+03  0.54157132392E+03  0.00000000000E+00 0. -1.
         11    1    5    5    0    0  0.84023859462E+01  0.75670467349E+01 -0.42201516619E+02  0.43690139515E+02  0.00000000000E+00 0. -1.
        -12    1    5    5    0    0  0.36586094188E+02  0.21202794707E+02  0.34007153447E+02  0.54264051424E+02  0.00000000000E+00 0.  1.
          5    1    4    4  501    0  0.38301140075E+02  0.14185017185E+01 -0.28400837160E+03  0.28661335805E+03  0.41800000000E+01 0.  1.
         -5    1    4    4    0  501 -0.62844496856E+02 -0.24850358957E+02 -0.12133384090E+03  0.13894727228E+03  0.41800000000E+01 0.  1.
</event>
<event>
11    1  0.8037748E-009  0.1847377E+03  0.7561462E-02  0.1065874E+00
         22   -1    0    0    0    0  0.00000000000E+00  0.00000000000E+00  0.51834516955E+03  0.51834516955E+03  0.00000000000E+00 0. -1.
         22   -1    0    0    0    0 -0.00000000000E+00 -0.00000000000E+00 -0.40688776568E+03  0.40688776568E+03  0.00000000000E+00 0.  1.
        -24    2    1    2    0    0  0.94582821703E+02  0.10723629329E+03 -0.32446908483E+03  0.36358567835E+03  0.80429010479E+02 0.  0.
         25    2    1    2    0    0 -0.45005790778E+02 -0.87733903239E+02  0.54188675170E+02  0.16824479479E+03  0.12508852655E+03 0.  0.
         24    2    1    2    0    0 -0.49577030925E+02 -0.19502390053E+02  0.38173781353E+03  0.39340246210E+03  0.78762387555E+02 0.  0.
        -11    1    5    5    0    0  0.14845653327E+02 -0.14927863815E+02  0.36168425860E+02  0.41849606568E+02  0.00000000000E+00 0.  1.
         12    1    5    5    0    0 -0.64422684252E+02 -0.45745262381E+01  0.34556938767E+03  0.35155285553E+03  0.00000000000E+00 0. -1.
         11    1    3    3    0    0  0.75343868358E+02  0.27873737977E+02 -0.13222029381E+03  0.15471215164E+03  0.00000000000E+00 0. -1.
        -12    1    3    3    0    0  0.19238953345E+02  0.79362555315E+02 -0.19224879102E+03  0.20887352671E+03  0.00000000000E+00 0.  1.
          5    1    4    4  501    0  0.34233555979E+02 -0.36515085079E+02  0.54071725719E+02  0.73800485876E+02  0.41800000000E+01 0. -1.
         -5    1    4    4    0  501 -0.79239346757E+02 -0.51218818160E+02  0.11694945095E+00  0.94444308909E+02  0.41800000000E+01 0. -1.
</event>
<event>
11    1  0.8037748E-009  0.1333145E+03  0.7561462E-02  0.1115262E+00
         22   -1    0    0    0    0  0.00000000000E+00  0.00000000000E+00  0.31884679381E+03  0.31884679381E+03  0.00000000000E+00 0.  1.
         22   -1    0    0    0    0 -0.00000000000E+00 -0.00000000000E+00 -0.30052393263E+03  0.30052393263E+03  0.00000000000E+00 0.  1.
         24    2    1    2    0    0  0.45989389912E+02  0.18494311830E+02 -0.23698002328E+03  0.26366356928E+03  0.10441208156E+03 0.  0.
         25    2    1    2    0    0 -0.22349372972E+02 -0.59646712560E+01  0.43489099619E+02  0.13443913084E+03  0.12508999296E+03 0.  0.
        -24    2    1    2    0    0 -0.23640016940E+02 -0.12529640574E+02  0.21181378484E+03  0.22126802632E+03  0.58125878283E+02 0.  0.
        -11    1    3    3    0    0  0.13953996848E+02 -0.22697053607E+02 -0.19466697108E+03  0.19648180552E+03  0.00000000000E+00 0.  1.
         12    1    3    3    0    0  0.32035393064E+02  0.41191365437E+02 -0.42313052199E+02  0.67181763759E+02  0.00000000000E+00 0. -1.
         11    1    5    5    0    0 -0.19606462269E+00 -0.32533977559E+01 -0.33255277957E+01  0.46564120752E+01  0.00000000000E+00 0. -1.
        -12    1    5    5    0    0 -0.23443952318E+02 -0.92762428177E+01  0.21513931264E+03  0.21661161424E+03  0.00000000000E+00 0.  1.
          5    1    4    4  501    0  0.47024094190E+02 -0.24081887452E+02  0.57561276632E+01  0.53308612281E+02  0.41800000000E+01 0. -1.
         -5    1    4    4    0  501 -0.69373467162E+02  0.18117216196E+02  0.37732971956E+02  0.81130518557E+02  0.41800000000E+01 0. -1.
</event>
<event>
11    1  0.8037748E-009  0.1927106E+03  0.7561462E-02  0.1059801E+00
         22   -1    0    0    0    0  0.00000000000E+00  0.00000000000E+00  0.15831515659E+03  0.15831515659E+03  0.00000000000E+00 0. -1.
         22   -1    0    0    0    0 -0.00000000000E+00 -0.00000000000E+00 -0.85810780560E+03  0.85810780560E+03  0.00000000000E+00 0.  1.
         24    2    1    2    0    0  0.59076407665E+02  0.81043818222E+02 -0.58613460965E+03  0.60010920025E+03  0.80741248308E+02 0.  0.
         25    2    1    2    0    0  0.27124483039E+01 -0.19735608141E+03 -0.11671096313E+03  0.26120233813E+03  0.12509369402E+03 0.  0.
        -24    2    1    2    0    0 -0.61788855969E+02  0.11631226319E+03  0.30529237586E+01  0.15511142382E+03  0.81876908625E+02 0.  0.
        -13    1    3    3    0    0  0.40823761776E+02  0.82597861495E+02 -0.56353712422E+03  0.57101933122E+03  0.00000000000E+00 0.  1.
         14    1    3    3    0    0  0.18252645888E+02 -0.15540432730E+01 -0.22597485424E+02  0.29089869025E+02  0.00000000000E+00 0. -1.
         13    1    5    5    0    0 -0.52531227620E+02  0.25040557914E+02  0.20553434130E+02  0.61717121372E+02  0.00000000000E+00 0. -1.
        -14    1    5    5    0    0 -0.92576283482E+01  0.91271705276E+02 -0.17500510371E+02  0.93394302449E+02  0.00000000000E+00 0.  1.
          5    1    4    4  501    0  0.14105466788E+02 -0.14459690477E+03 -0.15172233624E+02  0.14613315207E+03  0.41800000000E+01 0. -1.
         -5    1    4    4    0  501 -0.11393018484E+02 -0.52759176646E+02 -0.10153872950E+03  0.11506918606E+03  0.41800000000E+01 0. -1.
</event>
<event>
11    1  0.8037748E-009  0.1282884E+03  0.7561462E-02  0.1121390E+00
         22   -1    0    0    0    0  0.00000000000E+00  0.00000000000E+00  0.93215004444E+03  0.93215004444E+03  0.00000000000E+00 0. -1.
         22   -1    0    0    0    0 -0.00000000000E+00 -0.00000000000E+00 -0.97821090382E+02  0.97821090382E+02  0.00000000000E+00 0.  1.
        -24    2    1    2    0    0  0.18612705945E+02 -0.99974794212E+01 -0.43571647757E+02  0.93270716386E+02  0.79715466690E+02 0.  0.
         25    2    1    2    0    0 -0.37705500559E+02 -0.10445829150E+02  0.13212646073E+03  0.18610729713E+03  0.12509078424E+03 0.  0.
         24    2    1    2    0    0  0.19092794614E+02  0.20443308572E+02  0.74577414108E+03  0.75059312130E+03  0.80177930694E+02 0.  0.
        -11    1    5    5    0    0  0.15671063944E+02 -0.17929064156E+02  0.74470481478E+02  0.78184948668E+02  0.00000000000E+00 0.  1.
         12    1    5    5    0    0  0.34217306694E+01  0.38372372728E+02  0.67130365960E+03  0.67240817263E+03  0.00000000000E+00 0. -1.
         11    1    3    3    0    0  0.37054498762E+02 -0.44609927126E+01  0.80452710628E+01  0.38179349405E+02  0.00000000000E+00 0. -1.
        -12    1    3    3    0    0 -0.18441792817E+02 -0.55364867086E+01 -0.51616918820E+02  0.55091366981E+02  0.00000000000E+00 0.  1.
          5    1    4    4  501    0 -0.57749980463E+02  0.32566930913E+02  0.28952264657E+02  0.72466345715E+02  0.41800000000E+01 0. -1.
         -5    1    4    4    0  501  0.20044479904E+02 -0.43012760063E+02  0.10317419608E+03  0.11364095142E+03  0.41800000000E+01 0. -1.
</event>
<event>
11    1  0.8037748E-009  0.1872675E+03  0.7561462E-02  0.1063911E+00
         22   -1    0    0    0    0  0.00000000000E+00  0.00000000000E+00  0.43386923340E+03  0.43386923340E+03  0.00000000000E+00 0.  1.
         22   -1    0    0    0    0 -0.00000000000E+00 -0.00000000000E+00 -0.17763302881E+04  0.17763302881E+04  0.00000000000E+00 0. -1.
         24    2    1    2    0    0  0.39311316142E+02 -0.74062480949E+01 -0.16575084906E+04  0.16599098307E+04  0.79787327484E+02 0.  0.
         25    2    1    2    0    0 -0.13855025075E+03  0.97181610847E+02  0.13570349099E+02  0.21088312086E+03  0.12508836404E+03 0.  0.
        -24    2    1    2    0    0  0.99238934607E+02 -0.89775362752E+02  0.30147708673E+03  0.33940656999E+03  0.80002525155E+02 0.  0.
        -13    1    3    3    0    0  0.37710314420E+02 -0.10967270986E+02 -0.32070986827E+03  0.32310550669E+03  0.00000000000E+00 0.  1.
         14    1    3    3    0    0  0.16010017217E+01  0.35610228916E+01 -0.13367986223E+04  0.13368043240E+04  0.00000000000E+00 0. -1.
         13    1    5    5    0    0  0.29073395109E+02 -0.17772163110E+02  0.17806827224E+02  0.38447303944E+02  0.00000000000E+00 0. -1.
        -14    1    5    5    0    0  0.70165539498E+02 -0.72003199642E+02  0.28367025951E+03  0.30095926605E+03  0.00000000000E+00 0.  1.
          5    1    4    4  501    0 -0.76143412284E+02  0.63512558695E+02 -0.53881906163E+02  0.11292650954E+03  0.41800000000E+01 0.  1.
         -5    1    4    4    0  501 -0.62406838464E+02  0.33669052152E+02  0.67452255261E+02  0.97956611312E+02  0.41800000000E+01 0.  1.
</event>
<event>
11    1  0.8037748E-009  0.1426429E+03  0.7561462E-02  0.1104643E+00
         22   -1    0    0    0    0  0.00000000000E+00  0.00000000000E+00  0.31006209795E+03  0.31006209795E+03  0.00000000000E+00 0. -1.
         22   -1    0    0    0    0 -0.00000000000E+00 -0.00000000000E+00 -0.20537587523E+04  0.20537587523E+04  0.00000000000E+00 0. -1.
         24    2    1    2    0    0 -0.78194521789E+00 -0.22327915634E+02 -0.18110132539E+04  0.18129470853E+04  0.80678255943E+02 0.  0.
         25    2    1    2    0    0  0.39719478819E+02  0.77824144598E+02 -0.20684009628E+03  0.25702896765E+03  0.12508729072E+03 0.  0.
        -24    2    1    2    0    0 -0.38937533601E+02 -0.55496228964E+02  0.27415669587E+03  0.29384479728E+03  0.81159768652E+02 0.  0.
        -13    1    3    3    0    0 -0.10261433111E+02  0.84529129163E+01 -0.53106469393E+02  0.54745281419E+02  0.00000000000E+00 0.  1.
         14    1    3    3    0    0  0.94794878928E+01 -0.30780828550E+02 -0.17579067845E+04  0.17582018039E+04  0.00000000000E+00 0. -1.
         11    1    5    5    0    0 -0.21564968276E+02 -0.20572659932E+02  0.24045817569E+03  0.24229819738E+03  0.00000000000E+00 0. -1.
        -12    1    5    5    0    0 -0.17372565325E+02 -0.34923569032E+02  0.33698520175E+02  0.51546599906E+02  0.00000000000E+00 0.  1.
          5    1    4    4  501    0  0.46617177974E+01 -0.27054772563E+02 -0.97821751697E+02  0.10168706819E+03  0.41800000000E+01 0.  1.
         -5    1    4    4    0  501  0.35057761022E+02  0.10487891716E+03 -0.10901834459E+03  0.15534189946E+03  0.41800000000E+01 0.  1.
</event>
<event>
11    1  0.8037748E-009  0.1714799E+03  0.7561462E-02  0.1076751E+00
         22   -1    0    0    0    0  0.00000000000E+00  0.00000000000E+00  0.10348124846E+03  0.10348124846E+03  0.00000000000E+00 0.  1.
         22   -1    0    0    0    0 -0.00000000000E+00 -0.00000000000E+00 -0.17353837517E+04  0.17353837517E+04  0.00000000000E+00 0. -1.
        -24    2    1    2    0    0  0.12393409451E+03 -0.19128074101E+02 -0.14182648047E+04  0.14262689741E+04  0.83920123209E+02 0.  0.
         25    2    1    2    0    0 -0.79097004407E+02  0.17835847350E+01 -0.26670221934E+03  0.30501730689E+03  0.12508383756E+03 0.  0.
         24    2    1    2    0    0 -0.44837090101E+02  0.17344489366E+02  0.53064520785E+02  0.10757871925E+03  0.80287866510E+02 0.  0.
        -11    1    5    5    0    0 -0.12151628391E+02  0.83137299948E+01  0.68683915638E+02  0.70244291201E+02  0.00000000000E+00 0.  1.
         12    1    5    5    0    0 -0.32685461710E+02  0.90307593709E+01 -0.15619394853E+02  0.37334428047E+02  0.00000000000E+00 0. -1.
         11    1    3    3    0    0  0.10049071774E+03 -0.46491089891E+02 -0.11945996512E+04  0.11997200226E+04  0.00000000000E+00 0. -1.
        -12    1    3    3    0    0  0.23443376764E+02  0.27363015790E+02 -0.22366515348E+03  0.22654895150E+03  0.00000000000E+00 0.  1.
          5    1    4    4  501    0 -0.80608273152E+02  0.53022176904E+02 -0.17419167734E+03  0.19917142817E+03  0.41800000000E+01 0. -1.
         -5    1    4    4    0  501  0.15112687455E+01 -0.51238592169E+02 -0.92510542009E+02  0.10584587873E+03  0.41800000000E+01 0. -1.
</event>
<event>
11    1  0.8037748E-009  0.5841542E+03  0.7561462E-02  0.9222936E-01
         22   -1    0    0    0    0  0.00000000000E+00  0.00000000000E+00  0.14616531203E+04  0.14616531203E+04  0.00000000000E+00 0.  1.
         22   -1    0    0    0    0 -0.00000000000E+00 -0.00000000000E+00 -0.29375018615E+04  0.29375018615E+04  0.00000000000E+00 0.  1.
        -24    2    1    2    0    0  0.28440057844E+03 -0.49712754356E+03 -0.28078576454E+04  0.28668484527E+04  0.82073199046E+02 0.  0.
         25    2    1    2    0    0 -0.38713204557E+03  0.36147490903E+03  0.80328303898E+03  0.97028153211E+03  0.12508908935E+03 0.  0.
         24    2    1    2    0    0  0.10273146713E+03  0.13565263453E+03  0.52872586521E+03  0.56202499707E+03  0.85823453622E+02 0.  0.
        -13    1    5    5    0    0  0.68159988572E+02  0.98561696416E+02  0.46707109345E+03  0.48219871255E+03  0.00000000000E+00 0.  1.
         14    1    5    5    0    0  0.34571478559E+02  0.37090938111E+02  0.61654771759E+02  0.79826284521E+02  0.00000000000E+00 0. -1.
         13    1    3    3    0    0  0.13443171921E+03 -0.18018414863E+03 -0.12458373605E+04  0.12659577178E+04  0.00000000000E+00 0. -1.
        -14    1    3    3    0    0  0.14996885924E+03 -0.31694339493E+03 -0.15620202849E+04  0.16008907348E+04  0.00000000000E+00 0.  1.
          5    1    4    4  501    0 -0.26845029718E+03  0.32059876382E+03  0.60051585367E+03  0.73176901569E+03  0.41800000000E+01 0. -1.
         -5    1    4    4    0  501 -0.11868174840E+03  0.40876145210E+02  0.20276718531E+03  0.23851251642E+03  0.41800000000E+01 0. -1.
</event>
<event>
11    1  0.8037748E-009  0.1381690E+03  0.7561462E-02  0.1109620E+00
         22   -1    0    0    0    0  0.00000000000E+00  0.00000000000E+00  0.37978385806E+03  0.37978385806E+03  0.00000000000E+00 0.  1.
         22   -1    0    0    0    0 -0.00000000000E+00 -0.00000000000E+00 -0.18755217825E+04  0.18755217825E+04  0.00000000000E+00 0.  1.
        -24    2    1    2    0    0 -0.26301681178E+02 -0.52485497192E+02 -0.17922757809E+04  0.17950321360E+04  0.80258260870E+02 0.  0.
         25    2    1    2    0    0  0.50426659203E+02  0.38732882935E+02 -0.11402724000E+02  0.14078559870E+03  0.12508988171E+03 0.  0.
         24    2    1    2    0    0 -0.24124978025E+02  0.13752614257E+02  0.30794058050E+03  0.31948790587E+03  0.80460996208E+02 0.  0.
        -13    1    5    5    0    0 -0.34125185340E+02  0.39911109850E+02  0.24552467851E+03  0.25107726445E+03  0.00000000000E+00 0.  1.
         14    1    5    5    0    0  0.10000207315E+02 -0.26158495593E+02  0.62415901992E+02  0.68410641420E+02  0.00000000000E+00 0. -1.
         11    1    3    3    0    0 -0.36492971853E+02 -0.50482260756E+02 -0.71553880904E+03  0.71824507161E+03  0.00000000000E+00 0. -1.
        -12    1    3    3    0    0  0.10191290675E+02 -0.20032364359E+01 -0.10767369719E+04  0.10767870644E+04  0.00000000000E+00 0.  1.
          5    1    4    4  501    0 -0.26307220217E+02 -0.26501785925E+02  0.72603118608E+01  0.38270079972E+02  0.41800000000E+01 0. -1.
         -5    1    4    4    0  501  0.76733879419E+02  0.65234668860E+02 -0.18663035860E+02  0.10251551873E+03  0.41800000000E+01 0. -1.
</event>
<event>
11    1  0.8037748E-009  0.1598458E+03  0.7561462E-02  0.1087222E+00
         22   -1    0    0    0    0  0.00000000000E+00  0.00000000000E+00  0.14848082528E+04  0.14848082528E+04  0.00000000000E+00 0. -1.
         22   -1    0    0    0    0 -0.00000000000E+00 -0.00000000000E+00 -0.36398793309E+03  0.36398793309E+03  0.00000000000E+00 0.  1.
        -24    2    1    2    0    0 -0.31150213323E+02  0.43369378987E+01 -0.23237775094E+03  0.24805528499E+03  0.80887950030E+02 0.  0.
         25    2    1    2    0    0  0.10284981928E+03  0.64089288273E+02 -0.57976910165E+02  0.18351931881E+03  0.12502998068E+03 0.  0.
         24    2    1    2    0    0 -0.71699605954E+02 -0.68426226172E+02  0.14111749809E+04  0.14172215821E+04  0.85318253011E+02 0.  0.
        -11    1    5    5    0    0 -0.59409158601E+02 -0.71876763327E+02  0.73061894823E+03  0.73654583343E+03  0.00000000000E+00 0.  1.
         12    1    5    5    0    0 -0.12290447352E+02  0.34505371545E+01  0.68055603264E+03  0.68067574870E+03  0.00000000000E+00 0. -1.
         11    1    3    3    0    0 -0.90753552222E+01 -0.27169153579E-01  0.44870396774E+01  0.10124047394E+02  0.00000000000E+00 0. -1.
        -12    1    3    3    0    0 -0.22074858101E+02  0.43641070523E+01 -0.23686479062E+03  0.23793123760E+03  0.00000000000E+00 0.  1.
          5    1    4    4  501    0  0.38226585568E+02  0.13362596348E+02  0.38983662955E+02  0.56365141734E+02  0.41800000000E+01 0.  1.
         -5    1    4    4    0  501  0.64623233709E+02  0.50726691925E+02 -0.96960573120E+02  0.12715417708E+03  0.41800000000E+01 0.  1.
</event>
<event>
11    1  0.9515649E-009  0.1562975E+03  0.7561462E-02  0.1090612E+00
         22   -1    0    0    0    0  0.00000000000E+00  0.00000000000E+00  0.74403579732E+03  0.74403579732E+03  0.00000000000E+00 0. -1.
         22   -1    0    0    0    0 -0.00000000000E+00 -0.00000000000E+00 -0.82038517012E+03  0.82038517012E+03  0.00000000000E+00 0.  1.
        -24    2    1    2    0    0  0.58668653276E+02  0.32988594574E+02 -0.40701909283E+03  0.42031541421E+03  0.80437847112E+02 0.  0.
         25    2    1    2    0    0 -0.11560584709E+02 -0.11400737755E+03 -0.38350227436E+03  0.41934786329E+03  0.12508919520E+03 0.  0.
         24    2    1    2    0    0 -0.47108068567E+02  0.81018782979E+02  0.71417199438E+03  0.72475768993E+03  0.80304783375E+02 0.  0.
        -13    1    5    5    0    0 -0.17330890193E+02  0.16554384632E+01  0.25426871056E+02  0.30816002387E+02  0.00000000000E+00 0.  1.
         14    1    5    5    0    0 -0.29777178374E+02  0.79363344516E+02  0.68874512333E+03  0.69394168754E+03  0.00000000000E+00 0. -1.
         13    1    3    3    0    0 -0.19877115106E+02  0.31332027249E+01 -0.10003341921E+03  0.10203725605E+03  0.00000000000E+00 0. -1.
        -14    1    3    3    0    0  0.78545768382E+02  0.29855391849E+02 -0.30698567362E+03  0.31827815816E+03  0.00000000000E+00 0.  1.
          5    1    4    4  501    0  0.32235113054E+02 -0.64055439827E+02 -0.31781097309E+03  0.32582739127E+03  0.41800000000E+01 0. -1.
         -5    1    4    4    0  501 -0.43795697763E+02 -0.49951937727E+02 -0.65691301261E+02  0.93520472018E+02  0.41800000000E+01 0. -1.
</event>
<event>
11    1  0.8037748E-009  0.1483752E+03  0.7561462E-02  0.1098551E+00
         22   -1    0    0    0    0  0.00000000000E+00  0.00000000000E+00  0.30768457001E+03  0.30768457001E+03  0.00000000000E+00 0. -1.
         22   -1    0    0    0    0 -0.00000000000E+00 -0.00000000000E+00 -0.18199145171E+03  0.18199145171E+03  0.00000000000E+00 0. -1.
        -24    2    1    2    0    0  0.11094255351E+02 -0.80301110484E+02 -0.80061058310E+02  0.13983796948E+03  0.81077332244E+02 0.  0.
         25    2    1    2    0    0 -0.14011427029E+02  0.74958708140E+02  0.20913044581E+02  0.14799045395E+03  0.12509472816E+03 0.  0.
         24    2    1    2    0    0  0.29171716782E+01  0.53424023435E+01  0.18484113203E+03  0.20184759829E+03  0.80865058522E+02 0.  0.
        -13    1    5    5    0    0 -0.62158361817E+01 -0.32504854333E+02  0.40259253198E+02  0.52115349396E+02  0.00000000000E+00 0.  1.
         14    1    5    5    0    0  0.91330078599E+01  0.37847256677E+02  0.14458187883E+03  0.14973224889E+03  0.00000000000E+00 0. -1.
         13    1    3    3    0    0  0.34326525787E+02 -0.85608118376E+01 -0.43393362438E+02  0.55987335850E+02  0.00000000000E+00 0. -1.
        -14    1    3    3    0    0 -0.23232270436E+02 -0.71740298646E+02 -0.36667695871E+02  0.83850633629E+02  0.00000000000E+00 0.  1.
          5    1    4    4  501    0 -0.16067149113E+02  0.43655372581E+02 -0.51161153279E+02  0.69273954994E+02  0.41800000000E+01 0.  1.
         -5    1    4    4    0  501  0.20557220841E+01  0.31303335559E+02  0.72074197860E+02  0.78716498954E+02  0.41800000000E+01 0.  1.
</event>
<event>
11    1  0.8037748E-009  0.1415573E+03  0.7561462E-02  0.1105832E+00
         22   -1    0    0    0    0  0.00000000000E+00  0.00000000000E+00  0.23694080423E+02  0.23694080423E+02  0.00000000000E+00 0.  1.
         22   -1    0    0    0    0 -0.00000000000E+00 -0.00000000000E+00 -0.12432692717E+04  0.12432692717E+04  0.00000000000E+00 0.  1.
        -24    2    1    2    0    0 -0.66051752949E+02 -0.18091205977E+02 -0.70011263123E+03  0.70831934881E+03  0.82876279453E+02 0.  0.
         25    2    1    2    0    0  0.58484703473E+02  0.10430737574E+02 -0.35378392448E+03  0.37991992563E+03  0.12508726490E+03 0.  0.
         24    2    1    2    0    0  0.75670494758E+01  0.76604684031E+01 -0.16567863552E+03  0.17872407763E+03  0.66158466166E+02 0.  0.
        -11    1    5    5    0    0 -0.63361459746E+01  0.16459778699E+02 -0.16051213771E+03  0.16147822581E+03  0.00000000000E+00 0.  1.
         12    1    5    5    0    0  0.13903195450E+02 -0.87993102957E+01 -0.51664978109E+01  0.17245851821E+02  0.00000000000E+00 0. -1.
         13    1    3    3    0    0  0.11965447163E+02 -0.13065408698E+02 -0.30685986120E+03  0.30737086923E+03  0.00000000000E+00 0. -1.
        -14    1    3    3    0    0 -0.78017200112E+02 -0.50257972784E+01 -0.39325277003E+03  0.40094847959E+03  0.00000000000E+00 0.  1.
          5    1    4    4  501    0  0.68571750738E+02  0.28116064578E+02 -0.96251158092E+02  0.12154980839E+03  0.41800000000E+01 0. -1.
         -5    1    4    4    0  501 -0.10087047265E+02 -0.17685327005E+02 -0.25753276639E+03  0.25837011723E+03  0.41800000000E+01 0. -1.
</event>
<event>
11    1  0.8037748E-009  0.2256979E+03  0.7561462E-02  0.1037706E+00
         22   -1    0    0    0    0  0.00000000000E+00  0.00000000000E+00  0.12086169039E+04  0.12086169039E+04  0.00000000000E+00 0.  1.
         22   -1    0    0    0    0 -0.00000000000E+00 -0.00000000000E+00 -0.19324228484E+04  0.19324228484E+04  0.00000000000E+00 0.  1.
        -24    2    1    2    0    0  0.73617934889E+02 -0.10825096504E+03 -0.50970374575E+03  0.53223934827E+03  0.79642599481E+02 0.  0.
         25    2    1    2    0    0 -0.22778600295E+03  0.89129093471E+00 -0.13905085371E+04  0.14145846153E+04  0.12509350296E+03 0.  0.
         24    2    1    2    0    0  0.15416806806E+03  0.10735967410E+03  0.11764063383E+04  0.11942157887E+04  0.83220095939E+02 0.  0.
        -11    1    5    5    0    0  0.13656455462E+03  0.74716320135E+02  0.10755476579E+04  0.10867544205E+04  0.00000000000E+00 0.  1.
         12    1    5    5    0    0  0.17603513441E+02  0.32643353969E+02  0.10085868043E+03  0.10746136823E+03  0.00000000000E+00 0. -1.
         13    1    3    3    0    0 -0.15633646015E+02 -0.54609080566E+01 -0.70698725677E+02  0.72612273184E+02  0.00000000000E+00 0. -1.
        -14    1    3    3    0    0  0.89251580904E+02 -0.10279005698E+03 -0.43900502007E+03  0.45962707509E+03  0.00000000000E+00 0.  1.
          5    1    4    4  501    0 -0.24075782117E+03  0.10615012368E+02 -0.12450348945E+04  0.12681507671E+04  0.41800000000E+01 0.  1.
         -5    1    4    4    0  501  0.12971818222E+02 -0.97237214338E+01 -0.14547364259E+03  0.14643384826E+03  0.41800000000E+01 0.  1.
</event>
<event>
11    1  0.8037748E-009  0.1811019E+03  0.7561462E-02  0.1068755E+00
         22   -1    0    0    0    0  0.00000000000E+00  0.00000000000E+00  0.77894925875E+03  0.77894925875E+03  0.00000000000E+00 0.  1.
         22   -1    0    0    0    0 -0.00000000000E+00 -0.00000000000E+00 -0.97210814865E+03  0.97210814865E+03  0.00000000000E+00 0. -1.
         24    2    1    2    0    0 -0.10615111503E+03  0.74523083400E+02 -0.91125720000E+03  0.92377321087E+03  0.78393312126E+02 0.  0.
         25    2    1    2    0    0  0.11850065328E+03 -0.16878200668E+03  0.26917349802E+03  0.36143107763E+03  0.12509309027E+03 0.  0.
        -24    2    1    2    0    0 -0.12349538245E+02  0.94258923279E+02  0.44892481208E+03  0.46585311890E+03  0.80301841669E+02 0.  0.
        -13    1    3    3    0    0  0.98765540737E+01  0.67689220104E+01 -0.29492441579E+02  0.31830311589E+02  0.00000000000E+00 0.  1.
         14    1    3    3    0    0 -0.11602766911E+03  0.67754161389E+02 -0.88176475842E+03  0.89194289928E+03  0.00000000000E+00 0. -1.
         11    1    5    5    0    0  0.29901785213E+02  0.52634102105E+02  0.16387675899E+03  0.17469990727E+03  0.00000000000E+00 0. -1.
        -12    1    5    5    0    0 -0.42251323458E+02  0.41624821173E+02  0.28504805309E+03  0.29115321163E+03  0.00000000000E+00 0.  1.
          5    1    4    4  501    0  0.14781035209E+02 -0.12875035266E+03  0.15356348763E+03  0.20098345565E+03  0.41800000000E+01 0.  1.
         -5    1    4    4    0  501  0.10371961807E+03 -0.40031654017E+02  0.11561001040E+03  0.16044762198E+03  0.41800000000E+01 0.  1.
</event>
<event>
11    1  0.8037748E-009  0.1600809E+03  0.7561462E-02  0.1087001E+00
         22   -1    0    0    0    0  0.00000000000E+00  0.00000000000E+00  0.15457974283E+04  0.15457974283E+04  0.00000000000E+00 0. -1.
         22   -1    0    0    0    0 -0.00000000000E+00 -0.00000000000E+00 -0.23072913190E+04  0.23072913190E+04  0.00000000000E+00 0. -1.
        -24    2    1    2    0    0 -0.98182274878E+02 -0.19204560958E+02 -0.22781425791E+04  0.22817656135E+04  0.80697768067E+02 0.  0.
         25    2    1    2    0    0  0.77448194130E+02  0.42520872951E+02  0.20036522846E+03  0.25218040006E+03  0.12506990840E+03 0.  0.
         24    2    1    2    0    0  0.20734080748E+02 -0.23316311994E+02  0.13162834600E+04  0.13191427338E+04  0.81005262826E+02 0.  0.
        -11    1    5    5    0    0  0.17078709469E+02  0.26959730385E+02  0.32072802307E+03  0.32231192060E+03  0.00000000000E+00 0.  1.
         12    1    5    5    0    0  0.36553712795E+01 -0.50276042379E+02  0.99555543692E+03  0.99683081320E+03  0.00000000000E+00 0. -1.
         11    1    3    3    0    0 -0.10484828981E+03 -0.27231691304E+02 -0.22234101514E+04  0.22260474906E+04  0.00000000000E+00 0. -1.
        -12    1    3    3    0    0  0.66660149352E+01  0.80271303463E+01 -0.54732427710E+02  0.55718122902E+02  0.00000000000E+00 0.  1.
          5    1    4    4  501    0  0.38591361926E+02 -0.24170095267E+02  0.10123066538E+02  0.46834128546E+02  0.41800000000E+01 0. -1.
         -5    1    4    4    0  501  0.38856832203E+02  0.66690968218E+02  0.19024216192E+03  0.20534627151E+03  0.41800000000E+01 0. -1.
</event>
<event>
11    1  0.8037748E-009  0.1680834E+03  0.7561462E-02  0.1079712E+00
         22   -1    0    0    0    0  0.00000000000E+00  0.00000000000E+00  0.65878100519E+03  0.65878100519E+03  0.00000000000E+00 0.  1.
         22   -1    0    0    0    0 -0.00000000000E+00 -0.00000000000E+00 -0.26383798100E+03  0.26383798100E+03  0.00000000000E+00 0. -1.
        -24    2    1    2    0    0 -0.84521680792E+02 -0.56299044732E+02 -0.15950811043E+03  0.21011946312E+03  0.91617981473E+02 0.  0.
         25    2    1    2    0    0  0.15678137137E+03  0.10406762306E+03  0.10839309289E+03  0.25061868872E+03  0.12510074328E+03 0.  0.
         24    2    1    2    0    0 -0.72259690576E+02 -0.47768578333E+02  0.44605804173E+03  0.46188083435E+03  0.82842190870E+02 0.  0.
        -13    1    5    5    0    0 -0.60763915378E+02 -0.41685055458E+01  0.35592305284E+03  0.36109673135E+03  0.00000000000E+00 0.  1.
         14    1    5    5    0    0 -0.11495775199E+02 -0.43600072787E+02  0.90134988888E+02  0.10078410299E+03  0.00000000000E+00 0. -1.
         11    1    3    3    0    0 -0.74334681463E+02 -0.15085259004E+02 -0.14772597786E+03  0.16606075528E+03  0.00000000000E+00 0. -1.
        -12    1    3    3    0    0 -0.10186999330E+02 -0.41213785727E+02 -0.11782132564E+02  0.44058707846E+02  0.00000000000E+00 0.  1.
          5    1    4    4  501    0  0.35184944307E-01  0.42756997925E+02 -0.10845925227E+02  0.44308786979E+02  0.41800000000E+01 0. -1.
         -5    1    4    4    0  501  0.15674618642E+03  0.61310625140E+02  0.11923901812E+03  0.20630990174E+03  0.41800000000E+01 0. -1.
</event>
<event>
11    1  0.8037748E-009  0.2335109E+03  0.7561462E-02  0.1033069E+00
         22   -1    0    0    0    0  0.00000000000E+00  0.00000000000E+00  0.38617015135E+03  0.38617015135E+03  0.00000000000E+00 0. -1.
         22   -1    0    0    0    0 -0.00000000000E+00 -0.00000000000E+00 -0.58537845453E+03  0.58537845453E+03  0.00000000000E+00 0. -1.
        -24    2    1    2    0    0  0.50943228677E+02  0.16175389623E+02 -0.36188677594E+03  0.37523641783E+03  0.83567187856E+02 0.  0.
         25    2    1    2    0    0  0.15461555128E+03  0.15264622336E+01 -0.12342267247E+03  0.23407424505E+03  0.12509715157E+03 0.  0.
         24    2    1    2    0    0 -0.20555877996E+03 -0.17701851856E+02  0.28610114523E+03  0.36223794300E+03  0.82429936741E+02 0.  0.
        -13    1    5    5    0    0 -0.74047653333E+02 -0.24956886361E+02  0.16820354339E+03  0.18546787632E+03  0.00000000000E+00 0.  1.
         14    1    5    5    0    0 -0.13151112663E+03  0.72550345046E+01  0.11789760184E+03  0.17677006668E+03  0.00000000000E+00 0. -1.
         11    1    3    3    0    0  0.77619432839E+01  0.42078365906E+02 -0.23234447714E+03  0.23625154539E+03  0.00000000000E+00 0. -1.
        -12    1    3    3    0    0  0.43181285393E+02 -0.25902976284E+02 -0.12954229880E+03  0.13898487244E+03  0.00000000000E+00 0.  1.
          5    1    4    4  501    0  0.89608864646E+02 -0.14115077444E+02  0.31513539255E+01  0.90864665663E+02  0.41800000000E+01 0. -1.
         -5    1    4    4    0  501  0.65006686638E+02  0.15641539677E+02 -0.12657402639E+03  0.14320957939E+03  0.41800000000E+01 0. -1.
</event>
<event>
11    1  0.8037748E-009  0.2988634E+03  0.7561462E-02  0.1000673E+00
         22   -1    0    0    0    0  0.00000000000E+00  0.00000000000E+00  0.11989326304E+04  0.11989326304E+04  0.00000000000E+00 0. -1.
         22   -1    0    0    0    0 -0.00000000000E+00 -0.00000000000E+00 -0.33195655681E+03  0.33195655681E+03  0.00000000000E+00 0.  1.
         24    2    1    2    0    0 -0.32200018250E+02 -0.75042207277E+02 -0.19900893282E+03  0.23003773010E+03  0.81514586888E+02 0.  0.
         25    2    1    2    0    0  0.28318295125E+03  0.14907435523E+03  0.21144171929E+03  0.40344787387E+03  0.12508732553E+03 0.  0.
        -24    2    1    2    0    0 -0.25098293300E+03 -0.74032147956E+02  0.85454328711E+03  0.89740358323E+03  0.81337384154E+02 0.  0.
        -11    1    3    3    0    0  0.20479795937E+02 -0.47842194835E+02 -0.12363023344E+03  0.13413699068E+03  0.00000000000E+00 0.  1.
         12    1    3    3    0    0 -0.52679814187E+02 -0.27200012442E+02 -0.75378699381E+02  0.95900739413E+02  0.00000000000E+00 0. -1.
         11    1    5    5    0    0 -0.19715072602E+03 -0.38604879843E+02  0.73047873469E+03  0.75760011045E+03  0.00000000000E+00 0. -1.
        -12    1    5    5    0    0 -0.53832206982E+02 -0.35427268113E+02  0.12406455241E+03  0.13980347278E+03  0.00000000000E+00 0.  1.
          5    1    4    4  501    0  0.25586215747E+03  0.92102744510E+02  0.13332024578E+03  0.30288631449E+03  0.41800000000E+01 0.  1.
         -5    1    4    4    0  501  0.27320793776E+02  0.56971610722E+02  0.78121473507E+02  0.10056155937E+03  0.41800000000E+01 0.  1.
</event>
<event>
11    1  0.8037748E-009  0.1813708E+03  0.7561462E-02  0.1068539E+00
         22   -1    0    0    0    0  0.00000000000E+00  0.00000000000E+00  0.10136362554E+03  0.10136362554E+03  0.00000000000E+00 0. -1.
         22   -1    0    0    0    0 -0.00000000000E+00 -0.00000000000E+00 -0.14572645368E+04  0.14572645368E+04  0.00000000000E+00 0. -1.
         24    2    1    2    0    0 -0.96159479609E+02 -0.10469007648E+03 -0.99490043586E+03  0.10083115038E+04  0.81599962052E+02 0.  0.
         25    2    1    2    0    0  0.89363914519E+02  0.59808765142E+02 -0.40377421612E+03  0.43616821227E+03  0.12508434826E+03 0.  0.
        -24    2    1    2    0    0  0.67955650904E+01  0.44881311343E+02  0.42773740716E+02  0.11414844626E+03  0.95602108120E+02 0.  0.
        -13    1    3    3    0    0 -0.71840673623E+02 -0.66864880807E+02 -0.40587984119E+03  0.41757686736E+03  0.00000000000E+00 0.  1.
         14    1    3    3    0    0 -0.24318805987E+02 -0.37825195677E+02 -0.58902059467E+03  0.59073463644E+03  0.00000000000E+00 0. -1.
         13    1    5    5    0    0  0.13540923150E+02  0.26804458516E+02  0.72633819532E+02  0.78597120404E+02  0.00000000000E+00 0. -1.
        -14    1    5    5    0    0 -0.67453580593E+01  0.18076852827E+02 -0.29860078816E+02  0.35551325860E+02  0.00000000000E+00 0.  1.
          5    1    4    4  501    0  0.94237889507E+02  0.57937720838E+02 -0.17357636416E+03  0.20587322777E+03  0.41800000000E+01 0.  1.
         -5    1    4    4    0  501 -0.48739749880E+01  0.18710443032E+01 -0.23019785196E+03  0.23029498450E+03  0.41800000000E+01 0.  1.
</event>
<event>
11    1  0.8037748E-009  0.1360008E+03  0.7561462E-02  0.1112108E+00
         22   -1    0    0    0    0  0.00000000000E+00  0.00000000000E+00  0.51892852589E+03  0.51892852589E+03  0.00000000000E+00 0.  1.
         22   -1    0    0    0    0 -0.00000000000E+00 -0.00000000000E+00 -0.13566762532E+04  0.13566762532E+04  0.00000000000E+00 0. -1.
        -24    2    1    2    0    0 -0.31495770236E+01  0.51778529970E+02 -0.11865037295E+04  0.11903936151E+04  0.80962476494E+02 0.  0.
         25    2    1    2    0    0  0.17795707550E+02 -0.79200234440E+02 -0.13055952651E+03  0.19818703116E+03  0.12507175946E+03 0.  0.
         24    2    1    2    0    0 -0.14646130527E+02  0.27421704470E+02  0.47931552872E+03  0.48702413288E+03  0.80515035370E+02 0.  0.
        -13    1    5    5    0    0  0.10046788481E+02  0.11555777088E+02  0.42508228995E+03  0.42535799883E+03  0.00000000000E+00 0.  1.
         14    1    5    5    0    0 -0.24692919008E+02  0.15865927382E+02  0.54233238771E+02  0.61666134048E+02  0.00000000000E+00 0. -1.
         13    1    3    3    0    0  0.12316517463E+02  0.69731175197E+02 -0.97462620939E+03  0.97719516036E+03  0.00000000000E+00 0. -1.
        -14    1    3    3    0    0 -0.15466094486E+02 -0.17952645227E+02 -0.21187752015E+03  0.21319845472E+03  0.00000000000E+00 0.  1.
          5    1    4    4  501    0 -0.35166956705E+02 -0.69974222477E+02 -0.11982213896E+03  0.14320587991E+03  0.41800000000E+01 0.  1.
         -5    1    4    4    0  501  0.52962664255E+02 -0.92260119629E+01 -0.10737387552E+02  0.54981151254E+02  0.41800000000E+01 0.  1.
</event>
<event>
11    1  0.8037748E-009  0.1319092E+03  0.7561462E-02  0.1116945E+00
         22   -1    0    0    0    0  0.00000000000E+00  0.00000000000E+00  0.11490620189E+03  0.11490620189E+03  0.00000000000E+00 0.  1.
         22   -1    0    0    0    0 -0.00000000000E+00 -0.00000000000E+00 -0.92439363982E+03  0.92439363982E+03  0.00000000000E+00 0.  1.
        -24    2    1    2    0    0  0.12756709249E+02 -0.86168923881E+01 -0.73628318075E+03  0.74153279413E+03  0.86723572696E+02 0.  0.
         25    2    1    2    0    0  0.39918440971E+00 -0.32769326954E+02 -0.13544143693E+03  0.18725646299E+03  0.12508641796E+03 0.  0.
         24    2    1    2    0    0 -0.13155893659E+02  0.41386219342E+02  0.62237179751E+02  0.11051058458E+03  0.80331974158E+02 0.  0.
        -13    1    5    5    0    0 -0.18620719286E+02  0.67570713999E+01  0.71546384220E+02  0.74237957243E+02  0.00000000000E+00 0.  1.
         14    1    5    5    0    0  0.54648256274E+01  0.34629147942E+02 -0.93092044685E+01  0.36272627340E+02  0.00000000000E+00 0. -1.
         13    1    3    3    0    0 -0.34607896345E+01  0.34575532582E+02 -0.17889817443E+03  0.18224160155E+03  0.00000000000E+00 0. -1.
        -14    1    3    3    0    0  0.16217498884E+02 -0.43192424970E+02 -0.55738500631E+03  0.55929119259E+03  0.00000000000E+00 0.  1.
          5    1    4    4  501    0 -0.26107847748E+02 -0.74153067750E+02 -0.70273899853E+02  0.10552815061E+03  0.41800000000E+01 0. -1.
         -5    1    4    4    0  501  0.26507032158E+02  0.41383740796E+02 -0.65167537078E+02  0.81728312383E+02  0.41800000000E+01 0. -1.
</event>
<event>
11    1  0.8037748E-009  0.1438251E+03  0.7561462E-02  0.1103361E+00
         22   -1    0    0    0    0  0.00000000000E+00  0.00000000000E+00  0.61871316723E+03  0.61871316723E+03  0.00000000000E+00 0. -1.
         22   -1    0    0    0    0 -0.00000000000E+00 -0.00000000000E+00 -0.28759087497E+03  0.28759087497E+03  0.00000000000E+00 0. -1.
         24    2    1    2    0    0 -0.61906439666E+02  0.17030932859E+02 -0.15174057545E+03  0.18318941441E+03  0.80066843137E+02 0.  0.
         25    2    1    2    0    0  0.87103831719E+02 -0.35564507430E+02 -0.64196021570E+02  0.16917318019E+03  0.12508606646E+03 0.  0.
        -24    2    1    2    0    0 -0.25197392053E+02  0.18533574571E+02  0.54705888927E+03  0.55394144759E+03  0.81236057753E+02 0.  0.
        -13    1    3    3    0    0 -0.24971241181E+02  0.28622797626E+02 -0.14606539123E+02  0.40696171997E+02  0.00000000000E+00 0.  1.
         14    1    3    3    0    0 -0.36935198485E+02 -0.11591864767E+02 -0.13713403632E+03  0.14249324242E+03  0.00000000000E+00 0. -1.
         13    1    5    5    0    0 -0.49412265169E+02  0.11582547971E+01  0.21786405917E+03  0.22340022780E+03  0.00000000000E+00 0. -1.
        -14    1    5    5    0    0  0.24214873116E+02  0.17375319774E+02  0.32919483010E+03  0.33054121979E+03  0.00000000000E+00 0.  1.
          5    1    4    4  501    0 -0.13568300271E+02  0.32027551064E+02 -0.11267204043E+02  0.36800612581E+02  0.41800000000E+01 0.  1.
         -5    1    4    4    0  501  0.10067213199E+03 -0.67592058494E+02 -0.52928817527E+02  0.13237256761E+03  0.41800000000E+01 0.  1.
</event>
<event>
11    1  0.8037748E-009  0.2020132E+03  0.7561462E-02  0.1053109E+00
         22   -1    0    0    0    0  0.00000000000E+00  0.00000000000E+00  0.66472741393E+03  0.66472741393E+03  0.00000000000E+00 0. -1.
         22   -1    0    0    0    0 -0.00000000000E+00 -0.00000000000E+00 -0.36548583357E+03  0.36548583357E+03  0.00000000000E+00 0.  1.
        -24    2    1    2    0    0 -0.24925818343E+01  0.29340676556E+02 -0.21497237132E+03  0.23230843237E+03  0.82987945244E+02 0.  0.
         25    2    1    2    0    0  0.14411461406E+03  0.44408812446E+02 -0.53830992425E+02  0.20318786608E+03  0.12508544507E+03 0.  0.
         24    2    1    2    0    0 -0.14162203222E+03 -0.73749489003E+02  0.56804494411E+03  0.59471694904E+03  0.74279228686E+02 0.  0.
        -11    1    5    5    0    0 -0.10829055093E+03 -0.22246262021E+02  0.29945795790E+03  0.31921279446E+03  0.00000000000E+00 0.  1.
         12    1    5    5    0    0 -0.33331481290E+02 -0.51503226982E+02  0.26858698620E+03  0.27550415458E+03  0.00000000000E+00 0. -1.
         13    1    3    3    0    0 -0.80368728631E+01  0.58002382478E+02 -0.13405610514E+03  0.14628707060E+03  0.00000000000E+00 0. -1.
        -14    1    3    3    0    0  0.55442910288E+01 -0.28661705922E+02 -0.80916266176E+02  0.86021361772E+02  0.00000000000E+00 0.  1.
          5    1    4    4  501    0 -0.12252903421E+02  0.26484452767E+02 -0.33193408137E+02  0.44394083214E+02  0.41800000000E+01 0. -1.
         -5    1    4    4    0  501  0.15636751748E+03  0.17924359679E+02 -0.20637584288E+02  0.15879378287E+03  0.41800000000E+01 0. -1.
</event>
<event>
11    1  0.8037748E-009  0.1554872E+03  0.7561462E-02  0.1091400E+00
         22   -1    0    0    0    0  0.00000000000E+00  0.00000000000E+00  0.38045509595E+03  0.38045509595E+03  0.00000000000E+00 0. -1.
         22   -1    0    0    0    0 -0.00000000000E+00 -0.00000000000E+00 -0.37099234518E+03  0.37099234518E+03  0.00000000000E+00 0.  1.
         24    2    1    2    0    0  0.91608565331E+02  0.11797671776E+02 -0.26603289275E+03  0.29278186367E+03  0.80102467956E+02 0.  0.
         25    2    1    2    0    0 -0.89349157893E+02 -0.27018152115E+02 -0.15229604718E+02  0.15682115226E+03  0.12509068861E+03 0.  0.
        -24    2    1    2    0    0 -0.22594074380E+01  0.15220480339E+02  0.29072524824E+03  0.30184442519E+03  0.79700182646E+02 0.  0.
        -11    1    3    3    0    0  0.10302346884E+03 -0.13356373251E+00 -0.24675870225E+03  0.26740177655E+03  0.00000000000E+00 0.  1.
         12    1    3    3    0    0 -0.11414903505E+02  0.11931235508E+02 -0.19274190500E+02  0.25380087120E+02  0.00000000000E+00 0. -1.
         13    1    5    5    0    0 -0.20422932077E+02 -0.66607029630E+00  0.26773959832E+03  0.26851821598E+03  0.00000000000E+00 0. -1.
        -14    1    5    5    0    0  0.18163524639E+02  0.15886550635E+02  0.22985649916E+02  0.33326209213E+02  0.00000000000E+00 0.  1.
          5    1    4    4  501    0 -0.10021005008E+03  0.21390714745E+02 -0.26182882689E+02  0.10584248939E+03  0.41800000000E+01 0. -1.
         -5    1    4    4    0  501  0.10860892188E+02 -0.48408866860E+02  0.10953277971E+02  0.50978662871E+02  0.41800000000E+01 0. -1.
</event>
<event>
11    1  0.8037748E-009  0.1284095E+03  0.7561462E-02  0.1121239E+00
         22   -1    0    0    0    0  0.00000000000E+00  0.00000000000E+00  0.29086628383E+03  0.29086628383E+03  0.00000000000E+00 0.  1.
         22   -1    0    0    0    0 -0.00000000000E+00 -0.00000000000E+00 -0.10268785133E+04  0.10268785133E+04  0.00000000000E+00 0. -1.
        -24    2    1    2    0    0 -0.20185706932E+02  0.21819623726E+02 -0.92767557730E+03  0.93184375318E+03  0.82868841405E+02 0.  0.
         25    2    1    2    0    0  0.14768659325E+02 -0.56826581673E+01 -0.46246839849E+02  0.13429716292E+03  0.12508617777E+03 0.  0.
         24    2    1    2    0    0  0.54170476063E+01 -0.16136965558E+02  0.23791018771E+03  0.25160388100E+03  0.80084389568E+02 0.  0.
        -13    1    5    5    0    0 -0.21210486082E+02  0.11635940406E+02  0.18278634592E+03  0.18438038964E+03  0.00000000000E+00 0.  1.
         14    1    5    5    0    0  0.26627533688E+02 -0.27772905964E+02  0.55123841790E+02  0.67223491353E+02  0.00000000000E+00 0. -1.
         13    1    3    3    0    0  0.27731253560E+02  0.26161119825E+02 -0.50545376780E+03  0.50688947315E+03  0.00000000000E+00 0. -1.
        -14    1    3    3    0    0 -0.47916960492E+02 -0.43414960990E+01 -0.42222180950E+03  0.42495428002E+03  0.00000000000E+00 0.  1.
          5    1    4    4  501    0  0.35558905458E+02 -0.58825117715E+02 -0.25573061239E+02  0.73459404385E+02  0.41800000000E+01 0. -1.
         -5    1    4    4    0  501 -0.20790246133E+02  0.53142459547E+02 -0.20673778611E+02  0.60837758531E+02  0.41800000000E+01 0. -1.
</event>
<event>
11    1  0.8037748E-009  0.1432988E+03  0.7561462E-02  0.1103930E+00
         22   -1    0    0    0    0  0.00000000000E+00  0.00000000000E+00  0.33742553288E+03  0.33742553288E+03  0.00000000000E+00 0.  1.
         22   -1    0    0    0    0 -0.00000000000E+00 -0.00000000000E+00 -0.23119599016E+03  0.23119599016E+03  0.00000000000E+00 0. -1.
        -24    2    1    2    0    0 -0.17985871862E+02  0.88290166087E+02 -0.12579663294E+03  0.17920671272E+03  0.90396946907E+02 0.  0.
         25    2    1    2    0    0  0.26485955968E+02 -0.17041179971E+02 -0.52991560814E+01  0.12910403797E+03  0.12509142212E+03 0.  0.
         24    2    1    2    0    0 -0.85000841062E+01 -0.71248986116E+02  0.23732533175E+03  0.26031077235E+03  0.79307727599E+02 0.  0.
        -11    1    5    5    0    0 -0.34652062929E+02 -0.29823317425E+02  0.17588633595E+03  0.18173111704E+03  0.00000000000E+00 0.  1.
         12    1    5    5    0    0  0.26151978823E+02 -0.41425668691E+02  0.61438995803E+02  0.78579655307E+02  0.00000000000E+00 0. -1.
         11    1    3    3    0    0 -0.67354417738E+01  0.61752690104E+02 -0.13528202950E+03  0.14886231362E+03  0.00000000000E+00 0. -1.
        -12    1    3    3    0    0 -0.11250430088E+02  0.26537475983E+02  0.94853965596E+01  0.30344399098E+02  0.00000000000E+00 0.  1.
          5    1    4    4  501    0  0.54673988458E+02  0.13414111961E+02 -0.44487841744E+02  0.71873666086E+02  0.41800000000E+01 0. -1.
         -5    1    4    4    0  501 -0.28188032490E+02 -0.30455291932E+02  0.39188685663E+02  0.57230371887E+02  0.41800000000E+01 0. -1.
</event>
<event>
11    1  0.8037748E-009  0.1795581E+03  0.7561462E-02  0.1070001E+00
         22   -1    0    0    0    0  0.00000000000E+00  0.00000000000E+00  0.19952598371E+04  0.19952598371E+04  0.00000000000E+00 0. -1.
         22   -1    0    0    0    0 -0.00000000000E+00 -0.00000000000E+00 -0.89514685631E+03  0.89514685631E+03  0.00000000000E+00 0. -1.
         24    2    1    2    0    0 -0.10140030114E+03 -0.83804349776E+02 -0.76898462439E+03  0.78468781488E+03  0.84216531307E+02 0.  0.
         25    2    1    2    0    0  0.27562534559E+02  0.12674888012E+03 -0.46848514413E+02  0.18619456792E+03  0.12509461178E+03 0.  0.
        -24    2    1    2    0    0  0.73837766581E+02 -0.42944530340E+02  0.19159461196E+04  0.19195243106E+04  0.80173545670E+02 0.  0.
        -11    1    3    3    0    0 -0.90608798536E+01  0.92369807072E+01 -0.17003173732E+02  0.21366545655E+02  0.00000000000E+00 0.  1.
         12    1    3    3    0    0 -0.92339421286E+02 -0.93041330483E+02 -0.75198145066E+03  0.76332126922E+03  0.00000000000E+00 0. -1.
         13    1    5    5    0    0  0.25395627857E+02 -0.60507992331E+02  0.10761525507E+04  0.10781514121E+04  0.00000000000E+00 0. -1.
        -14    1    5    5    0    0  0.48442138724E+02  0.17563461992E+02  0.83979356889E+03  0.84137289851E+03  0.00000000000E+00 0.  1.
          5    1    4    4  501    0 -0.12461258936E+02  0.46171613392E+02 -0.77406997726E+02  0.91084666955E+02  0.41800000000E+01 0.  1.
         -5    1    4    4    0  501  0.40023793495E+02  0.80577266724E+02  0.30558483313E+02  0.95109900961E+02  0.41800000000E+01 0.  1.
</event>
<event>
11    1  0.8037748E-009  0.1297963E+03  0.7561462E-02  0.1119519E+00
         22   -1    0    0    0    0  0.00000000000E+00  0.00000000000E+00  0.98499692077E+03  0.98499692077E+03  0.00000000000E+00 0.  1.
         22   -1    0    0    0    0 -0.00000000000E+00 -0.00000000000E+00 -0.51617970296E+02  0.51617970296E+02  0.00000000000E+00 0. -1.
        -24    2    1    2    0    0 -0.23197169092E+01 -0.12414528252E+02  0.99528334096E+01  0.86171856138E+02  0.84658303191E+02 0.  0.
         25    2    1    2    0    0 -0.31761889592E+02  0.18077119116E+02  0.42575640499E+03  0.44525284609E+03  0.12508389464E+03 0.  0.
         24    2    1    2    0    0  0.34081606501E+02 -0.56625908642E+01  0.49766971208E+03  0.50519018884E+03  0.79676619804E+02 0.  0.
        -11    1    5    5    0    0  0.55348818774E+02 -0.52725146047E+01  0.44386236990E+03  0.44733107936E+03  0.00000000000E+00 0.  1.
         12    1    5    5    0    0 -0.21267212272E+02 -0.39007625951E+00  0.53807342178E+02  0.57859109478E+02  0.00000000000E+00 0. -1.
         11    1    3    3    0    0 -0.20345221447E+02 -0.11337019860E+01 -0.32690236466E+02  0.38520966708E+02  0.00000000000E+00 0. -1.
        -12    1    3    3    0    0  0.18025504538E+02 -0.11280826266E+02  0.42643069875E+02  0.47650889430E+02  0.00000000000E+00 0.  1.
          5    1    4    4  501    0  0.23961272754E+02  0.53122819350E+02  0.26739599359E+03  0.27370470641E+03  0.41800000000E+01 0.  1.
         -5    1    4    4    0  501 -0.55723162346E+02 -0.35045700234E+02  0.15836041140E+03  0.17154813968E+03  0.41800000000E+01 0.  1.
</event>
<event>
11    1  0.8037748E-009  0.1360285E+03  0.7561462E-02  0.1112076E+00
         22   -1    0    0    0    0  0.00000000000E+00  0.00000000000E+00  0.48879630581E+03  0.48879630581E+03  0.00000000000E+00 0. -1.
         22   -1    0    0    0    0 -0.00000000000E+00 -0.00000000000E+00 -0.16773338074E+04  0.16773338074E+04  0.00000000000E+00 0. -1.
         24    2    1    2    0    0 -0.56561683347E+02  0.42237313479E+01 -0.13610863986E+04  0.13646354537E+04  0.80353426289E+02 0.  0.
         25    2    1    2    0    0  0.25088054298E+02 -0.29443659146E+02 -0.29638848871E+03  0.32402020188E+03  0.12508643193E+03 0.  0.
        -24    2    1    2    0    0  0.31473629049E+02  0.25219927798E+02  0.46893738574E+03  0.47747445762E+03  0.80330267306E+02 0.  0.
        -11    1    3    3    0    0 -0.25490665941E+01  0.13701091600E+02 -0.39051044449E+02  0.41463257520E+02  0.00000000000E+00 0.  1.
         12    1    3    3    0    0 -0.54012616753E+02 -0.94773602523E+01 -0.13220353541E+04  0.13231721962E+04  0.00000000000E+00 0. -1.
         13    1    5    5    0    0  0.37024619342E+02  0.40799090072E+02  0.44489251252E+03  0.44829090542E+03  0.00000000000E+00 0. -1.
        -14    1    5    5    0    0 -0.55509902926E+01 -0.15579162274E+02  0.24044873223E+02  0.29183552195E+02  0.00000000000E+00 0.  1.
          5    1    4    4  501    0  0.64619904775E+02 -0.34406588992E+02 -0.10245492665E+03  0.12599218171E+03  0.41800000000E+01 0.  1.
         -5    1    4    4    0  501 -0.39531850477E+02  0.49629298460E+01 -0.19393356206E+03  0.19802802016E+03  0.41800000000E+01 0.  1.
</event>
<event>
11    1  0.1118345E-008  0.1732193E+03  0.7561462E-02  0.1075264E+00
         22   -1    0    0    0    0  0.00000000000E+00  0.00000000000E+00  0.18572607482E+04  0.18572607482E+04  0.00000000000E+00 0. -1.
         22   -1    0    0    0    0 -0.00000000000E+00 -0.00000000000E+00 -0.46239419674E+03  0.46239419674E+03  0.00000000000E+00 0.  1.
        -24    2    1    2    0    0 -0.38536625767E+02 -0.98937789036E+02 -0.40545380654E+03  0.42874286082E+03  0.90298913841E+02 0.  0.
         25    2    1    2    0    0  0.10083564153E+03 -0.88171646168E+01  0.11171891182E+03  0.19585524212E+03  0.12503036277E+03 0.  0.
         24    2    1    2    0    0 -0.62299015759E+02  0.10775495365E+03  0.16886014462E+04  0.16950568420E+04  0.79690376681E+02 0.  0.
        -11    1    5    5    0    0  0.17339924442E+02  0.64189154363E+01  0.25779922761E+03  0.25846144241E+03  0.00000000000E+00 0.  1.
         12    1    5    5    0    0 -0.79638940201E+02  0.10133603822E+03  0.14308022186E+04  0.14365953996E+04  0.00000000000E+00 0. -1.
         11    1    3    3    0    0  0.26716915586E+02 -0.16036229482E+02 -0.61056000892E+02  0.68547716806E+02  0.00000000000E+00 0. -1.
        -12    1    3    3    0    0 -0.65253541353E+02 -0.82901559554E+02 -0.34439780565E+03  0.36019514401E+03  0.00000000000E+00 0.  1.
          5    1    4    4  501    0  0.56886702246E+02 -0.66860782994E+02  0.63626946390E+02  0.10850033134E+03  0.41800000000E+01 0. -1.
         -5    1    4    4    0  501  0.43948939280E+02  0.58043618378E+02  0.48091965432E+02  0.87354910780E+02  0.41800000000E+01 0. -1.
</event>
<event>
11    1  0.8037748E-009  0.2250949E+03  0.7561462E-02  0.1038072E+00
         22   -1    0    0    0    0  0.00000000000E+00  0.00000000000E+00  0.26752883541E+04  0.26752883541E+04  0.00000000000E+00 0.  1.
         22   -1    0    0    0    0 -0.00000000000E+00 -0.00000000000E+00 -0.97771119607E+02  0.97771119607E+02  0.00000000000E+00 0. -1.
        -24    2    1    2    0    0  0.89769363262E+02 -0.16521446192E+03  0.16691959985E+03  0.26499530157E+03  0.83701852026E+02 0.  0.
         25    2    1    2    0    0 -0.12694520087E+03  0.14001941954E+03  0.22114148902E+03  0.31665838641E+03  0.12509377941E+03 0.  0.
         24    2    1    2    0    0  0.37175837608E+02  0.25195042379E+02  0.21894561457E+04  0.21914057858E+04  0.80772959776E+02 0.  0.
        -13    1    5    5    0    0  0.53517621888E+02  0.11127741201E+02  0.19965738103E+04  0.19973219426E+04  0.00000000000E+00 0.  1.
         14    1    5    5    0    0 -0.16341784279E+02  0.14067301178E+02  0.19288233538E+03  0.19408384317E+03  0.00000000000E+00 0. -1.
         13    1    3    3    0    0  0.54540939491E+02 -0.80627831461E+02  0.33109587849E+02  0.10281928853E+03  0.00000000000E+00 0. -1.
        -14    1    3    3    0    0  0.35228423771E+02 -0.84586630457E+02  0.13381001200E+03  0.16217601303E+03  0.00000000000E+00 0.  1.
          5    1    4    4  501    0 -0.10190493387E+03  0.14405923882E+03  0.22959177153E+03  0.28959891884E+03  0.41800000000E+01 0. -1.
         -5    1    4    4    0  501 -0.25040266996E+02 -0.40398192839E+01 -0.84502825063E+01  0.27059467576E+02  0.41800000000E+01 0. -1.
</event>
<event>
11    1  0.8037748E-009  0.1382653E+03  0.7561462E-02  0.1109511E+00
         22   -1    0    0    0    0  0.00000000000E+00  0.00000000000E+00  0.92814525959E+03  0.92814525959E+03  0.00000000000E+00 0.  1.
         22   -1    0    0    0    0 -0.00000000000E+00 -0.00000000000E+00 -0.69780456441E+03  0.69780456441E+03  0.00000000000E+00 0.  1.
         24    2    1    2    0    0  0.58142280016E+02 -0.14276156419E+02 -0.33682723814E+03  0.35316719731E+03  0.87693486265E+02 0.  0.
         25    2    1    2    0    0 -0.39343955206E+02  0.55018634662E+02 -0.33534493260E+03  0.36424014490E+03  0.12505863573E+03 0.  0.
        -24    2    1    2    0    0 -0.18798324810E+02 -0.40742478243E+02  0.90251286591E+03  0.90854248179E+03  0.94375004828E+02 0.  0.
        -13    1    3    3    0    0  0.47980745829E+02  0.60833561934E+01 -0.32287175928E+03  0.32647409106E+03  0.00000000000E+00 0.  1.
         14    1    3    3    0    0  0.10161534187E+02 -0.20359512612E+02 -0.13955478857E+02  0.26693106245E+02  0.00000000000E+00 0. -1.
         11    1    5    5    0    0 -0.36799246811E+02  0.94693873500E+01  0.61163817215E+03  0.61281735248E+03  0.00000000000E+00 0. -1.
        -12    1    5    5    0    0  0.18000922001E+02 -0.50211865593E+02  0.29087469376E+03  0.29572512932E+03  0.00000000000E+00 0.  1.
          5    1    4    4  501    0 -0.57891600865E+01  0.71551221131E+02 -0.31148097597E+03  0.31967321190E+03  0.41800000000E+01 0.  1.
         -5    1    4    4    0  501 -0.33554795120E+02 -0.16532586469E+02 -0.23863956627E+02  0.44566932997E+02  0.41800000000E+01 0.  1.
</event>
<event>
11    1  0.8037748E-009  0.1358348E+03  0.7561462E-02  0.1112301E+00
         22   -1    0    0    0    0  0.00000000000E+00  0.00000000000E+00  0.74967747852E+03  0.74967747852E+03  0.00000000000E+00 0. -1.
         22   -1    0    0    0    0 -0.00000000000E+00 -0.00000000000E+00 -0.61393489397E+03  0.61393489397E+03  0.00000000000E+00 0. -1.
        -24    2    1    2    0    0 -0.34261711730E+02 -0.15813158363E+02 -0.59172640237E+03  0.59845464471E+03  0.81141269681E+02 0.  0.
         25    2    1    2    0    0  0.70889764698E+02  0.29239868244E+02  0.44156782121E+03  0.46530682370E+03  0.12509184953E+03 0.  0.
         24    2    1    2    0    0 -0.36628052968E+02 -0.13426709881E+02  0.28590116571E+03  0.29985090408E+03  0.81542610470E+02 0.  0.
        -11    1    5    5    0    0  0.22689007194E+02 -0.20530030518E+02  0.10182552111E+03  0.10632360956E+03  0.00000000000E+00 0.  1.
         12    1    5    5    0    0 -0.59317060162E+02  0.71033206365E+01  0.18407564460E+03  0.19352729452E+03  0.00000000000E+00 0. -1.
         11    1    3    3    0    0 -0.41300682901E+02 -0.11173170958E+02 -0.58744148481E+03  0.58899752481E+03  0.00000000000E+00 0. -1.
        -12    1    3    3    0    0  0.70389711708E+01 -0.46399874048E+01 -0.42849175562E+01  0.94571198958E+01  0.00000000000E+00 0.  1.
          5    1    4    4  501    0  0.12432763379E+02 -0.42690888407E+02  0.22988118903E+03  0.23417924551E+03  0.41800000000E+01 0. -1.
         -5    1    4    4    0  501  0.58457001319E+02  0.71930756652E+02  0.21168663218E+03  0.23112757819E+03  0.41800000000E+01 0. -1.
</event>
<event>
11    1  0.8037748E-009  0.2266025E+03  0.7561462E-02  0.1037159E+00
         22   -1    0    0    0    0  0.00000000000E+00  0.00000000000E+00  0.75822773750E+03  0.75822773750E+03  0.00000000000E+00 0. -1.
         22   -1    0    0    0    0 -0.00000000000E+00 -0.00000000000E+00 -0.28270239448E+03  0.28270239448E+03  0.00000000000E+00 0. -1.
         24    2    1    2    0    0  0.78932104053E+02 -0.13926309439E+03  0.11983394735E+02  0.18019909288E+03  0.81875666810E+02 0.  0.
         25    2    1    2    0    0 -0.22914930868E+03  0.23015500773E+03 -0.11346417724E+02  0.34822060777E+03  0.12509243473E+03 0.  0.
        -24    2    1    2    0    0  0.15021720463E+03 -0.90891913346E+02  0.47488836601E+03  0.51251043133E+03  0.79507443509E+02 0.  0.
        -13    1    3    3    0    0  0.50115900015E+02 -0.12021004656E+03  0.39431300130E+02  0.13607676568E+03  0.00000000000E+00 0.  1.
         14    1    3    3    0    0  0.28816204038E+02 -0.19053047831E+02 -0.27447905396E+02  0.44122327199E+02  0.00000000000E+00 0. -1.
         11    1    5    5    0    0  0.11715756361E+03 -0.72693156451E+02  0.25963125348E+03  0.29397036839E+03  0.00000000000E+00 0. -1.
        -12    1    5    5    0    0  0.33059641015E+02 -0.18198756895E+02  0.21525711252E+03  0.21854006294E+03  0.00000000000E+00 0.  1.
          5    1    4    4  501    0 -0.64030337692E+02  0.19954570407E+02  0.36760316464E+02  0.76595445632E+02  0.41800000000E+01 0. -1.
         -5    1    4    4    0  501 -0.16511897099E+03  0.21020043733E+03 -0.48106734188E+02  0.27162516214E+03  0.41800000000E+01 0. -1.
</event>
<event>
11    1  0.8037748E-009  0.1428092E+03  0.7561462E-02  0.1104461E+00
         22   -1    0    0    0    0  0.00000000000E+00  0.00000000000E+00  0.27690675975E+03  0.27690675975E+03  0.00000000000E+00 0.  1.
         22   -1    0    0    0    0 -0.00000000000E+00 -0.00000000000E+00 -0.25670245352E+04  0.25670245352E+04  0.00000000000E+00 0. -1.
         24    2    1    2    0    0 -0.30264092213E+02  0.62141294818E+02 -0.24852611788E+04  0.24875398350E+04  0.80955839345E+02 0.  0.
         25    2    1    2    0    0  0.64545698585E+02 -0.28450682672E+02  0.81552606149E+01  0.14383946533E+03  0.12509074690E+03 0.  0.
        -24    2    1    2    0    0 -0.34281606373E+02 -0.33690612147E+02  0.18698814279E+03  0.21255199459E+03  0.88901625288E+02 0.  0.
        -13    1    3    3    0    0 -0.24737992730E+02  0.44033551297E+01 -0.20402818749E+03  0.20556959676E+03  0.00000000000E+00 0.  1.
         14    1    3    3    0    0 -0.55260994827E+01  0.57737939689E+02 -0.22812329913E+04  0.22819702382E+04  0.00000000000E+00 0. -1.
         11    1    5    5    0    0 -0.38435516430E+02 -0.26080788000E+02  0.29934247867E+02  0.55258986792E+02  0.00000000000E+00 0. -1.
        -12    1    5    5    0    0  0.41539100578E+01 -0.76098241471E+01  0.15705389492E+03  0.15729300780E+03  0.00000000000E+00 0.  1.
          5    1    4    4  501    0  0.53777534541E+02  0.43370987152E+02  0.14845355567E+02  0.70787871346E+02  0.41800000000E+01 0. -1.
         -5    1    4    4    0  501  0.10768164044E+02 -0.71821669824E+02 -0.66900949517E+01  0.73051593984E+02  0.41800000000E+01 0. -1.
</event>
<event>
11    1  0.8037748E-009  0.1748674E+03  0.7561462E-02  0.1073872E+00
         22   -1    0    0    0    0  0.00000000000E+00  0.00000000000E+00  0.32849705373E+04  0.32849705373E+04  0.00000000000E+00 0.  1.
         22   -1    0    0    0    0 -0.00000000000E+00 -0.00000000000E+00 -0.79276996412E+02  0.79276996412E+02  0.00000000000E+00 0. -1.
         24    2    1    2    0    0 -0.62651033616E+02  0.98871875018E+02  0.44866559256E+02  0.14910364226E+03  0.80734678500E+02 0.  0.
         25    2    1    2    0    0  0.82591285568E+02 -0.11305240284E+03  0.30536697351E+03  0.35846795633E+03  0.12509244965E+03 0.  0.
        -24    2    1    2    0    0 -0.19940251953E+02  0.14180527826E+02  0.28554600081E+04  0.28566759351E+04  0.79667053196E+02 0.  0.
        -13    1    3    3    0    0 -0.34530964297E+01  0.27194132838E+02  0.48893371070E+02  0.56053603545E+02  0.00000000000E+00 0.  1.
         14    1    3    3    0    0 -0.59197937186E+02  0.71677742180E+02 -0.40268118142E+01  0.93050038713E+02  0.00000000000E+00 0. -1.
         13    1    5    5    0    0 -0.10430501754E+02  0.27880117389E+02  0.38145025714E+03  0.38260997763E+03  0.00000000000E+00 0. -1.
        -14    1    5    5    0    0 -0.95097501984E+01 -0.13699589563E+02  0.24740097510E+04  0.24740659575E+04  0.00000000000E+00 0.  1.
          5    1    4    4  501    0  0.83695315047E+02 -0.13757911431E+03  0.27922659893E+03  0.32236296997E+03  0.41800000000E+01 0.  1.
         -5    1    4    4    0  501 -0.11040294791E+01  0.24526711469E+02  0.26140374586E+02  0.36104986360E+02  0.41800000000E+01 0.  1.
</event>
<event>
11    1  0.8037748E-009  0.1391764E+03  0.7561462E-02  0.1108482E+00
         22   -1    0    0    0    0  0.00000000000E+00  0.00000000000E+00  0.16060715892E+03  0.16060715892E+03  0.00000000000E+00 0. -1.
         22   -1    0    0    0    0 -0.00000000000E+00 -0.00000000000E+00 -0.16592739009E+04  0.16592739009E+04  0.00000000000E+00 0.  1.
         24    2    1    2    0    0  0.57995124290E+02 -0.16924291689E+02 -0.14183480143E+04  0.14219715407E+04  0.81499120947E+02 0.  0.
         25    2    1    2    0    0 -0.52725623438E+02  0.62586235779E+02 -0.19820405566E+03  0.24825263694E+03  0.12508995080E+03 0.  0.
        -24    2    1    2    0    0 -0.52695008520E+01 -0.45661944089E+02  0.11788532802E+03  0.14965688216E+03  0.79921530504E+02 0.  0.
        -11    1    3    3    0    0  0.63520751954E+02 -0.41700852681E+02 -0.10384166099E+04  0.10411930190E+04  0.00000000000E+00 0.  1.
         12    1    3    3    0    0 -0.55256276646E+01  0.24776560992E+02 -0.37993140440E+03  0.38077852170E+03  0.00000000000E+00 0. -1.
         11    1    5    5    0    0 -0.36403835364E+02 -0.84648476330E+01  0.79329497409E+02  0.87692998773E+02  0.00000000000E+00 0. -1.
        -12    1    5    5    0    0  0.31134334512E+02 -0.37197096456E+02  0.38555830614E+02  0.61963883389E+02  0.00000000000E+00 0.  1.
          5    1    4    4  501    0 -0.34366045630E+02  0.83895401411E+02 -0.20013372862E+03  0.21975087076E+03  0.41800000000E+01 0.  1.
         -5    1    4    4    0  501 -0.18359577808E+02 -0.21309165633E+02  0.19296729599E+01  0.28501766173E+02  0.41800000000E+01 0.  1.
</event>
<event>
11    1  0.8037748E-009  0.1419121E+03  0.7561462E-02  0.1105442E+00
         22   -1    0    0    0    0  0.00000000000E+00  0.00000000000E+00  0.13526534756E+04  0.13526534756E+04  0.00000000000E+00 0. -1.
         22   -1    0    0    0    0 -0.00000000000E+00 -0.00000000000E+00 -0.40858907946E+03  0.40858907946E+03  0.00000000000E+00 0.  1.
        -24    2    1    2    0    0  0.23989811061E+01 -0.68679236983E+02 -0.38352977331E+03  0.39788373232E+03  0.80584022778E+02 0.  0.
         25    2    1    2    0    0  0.47233960560E+02  0.12282847449E+02  0.28479274078E+03  0.31485901918E+03  0.12508949352E+03 0.  0.
         24    2    1    2    0    0 -0.49632941666E+02  0.56396389534E+02  0.10428014287E+04  0.10484998036E+04  0.79202504732E+02 0.  0.
        -11    1    5    5    0    0 -0.29669131684E+02  0.21433811955E+02  0.13702927008E+03  0.14183330543E+03  0.00000000000E+00 0.  1.
         12    1    5    5    0    0 -0.19963809982E+02  0.34962577579E+02  0.90577215859E+03  0.90666649812E+03  0.00000000000E+00 0. -1.
         11    1    3    3    0    0 -0.10673791523E+02  0.85294689308E+01 -0.11979621294E+02  0.18171213280E+02  0.00000000000E+00 0. -1.
        -12    1    3    3    0    0  0.13072772629E+02 -0.77208705914E+02 -0.37155015202E+03  0.37971251904E+03  0.00000000000E+00 0.  1.
          5    1    4    4  501    0 -0.25767627736E+02  0.36754486478E+02  0.17487649977E+03  0.18059381354E+03  0.41800000000E+01 0.  1.
         -5    1    4    4    0  501  0.73001588296E+02 -0.24471639029E+02  0.10991624100E+03  0.13426520565E+03  0.41800000000E+01 0.  1.
</event>
<event>
11    1  0.8037748E-009  0.1391475E+03  0.7561462E-02  0.1108514E+00
         22   -1    0    0    0    0  0.00000000000E+00  0.00000000000E+00  0.16382594841E+04  0.16382594841E+04  0.00000000000E+00 0. -1.
         22   -1    0    0    0    0 -0.00000000000E+00 -0.00000000000E+00 -0.39335384836E+03  0.39335384836E+03  0.00000000000E+00 0. -1.
         24    2    1    2    0    0 -0.59128579364E+02 -0.40730392922E+01 -0.33283478492E+03  0.34733042012E+03  0.79665853066E+02 0.  0.
         25    2    1    2    0    0  0.85368656199E+02  0.24217101787E+02  0.60855935919E+02  0.16500290633E+03  0.12509292019E+03 0.  0.
        -24    2    1    2    0    0 -0.26240076835E+02 -0.20144062495E+02  0.15168844847E+04  0.15192800060E+04  0.78605799626E+02 0.  0.
        -13    1    3    3    0    0  0.19566051712E+02 -0.63393072926E+01 -0.68995978380E+02  0.71996265383E+02  0.00000000000E+00 0.  1.
         14    1    3    3    0    0 -0.78694631076E+02  0.22662680003E+01 -0.26383880654E+03  0.27533415474E+03  0.00000000000E+00 0. -1.
         11    1    5    5    0    0 -0.26622793641E+02  0.34590531378E+01  0.13874981420E+04  0.13877578435E+04  0.00000000000E+00 0. -1.
        -12    1    5    5    0    0  0.38271680582E+00 -0.23603115632E+02  0.12938634278E+03  0.13152216254E+03  0.00000000000E+00 0.  1.
          5    1    4    4  501    0  0.42528815712E+02 -0.45449461035E+02  0.54547951168E+02  0.82869204479E+02  0.41800000000E+01 0. -1.
         -5    1    4    4    0  501  0.42839840487E+02  0.69666562822E+02  0.63079847507E+01  0.82133701853E+02  0.41800000000E+01 0. -1.
</event>
<event>
11    1  0.8037748E-009  0.4170627E+03  0.7561462E-02  0.9600713E-01
         22   -1    0    0    0    0  0.00000000000E+00  0.00000000000E+00  0.10441719180E+04  0.10441719180E+04  0.00000000000E+00 0.  1.
         22   -1    0    0    0    0 -0.00000000000E+00 -0.00000000000E+00 -0.24449051101E+03  0.24449051101E+03  0.00000000000E+00 0. -1.
         24    2    1    2    0    0  0.37245465176E+02 -0.60103983385E+02 -0.21349823146E+02  0.10888485235E+03  0.80002391388E+02 0.  0.
         25    2    1    2    0    0 -0.23372683544E+03  0.37467269482E+03  0.36372777484E+03  0.58562179102E+03  0.12508847301E+03 0.  0.
        -24    2    1    2    0    0  0.19648137026E+03 -0.31456871143E+03  0.45730345529E+03  0.59415578564E+03  0.79600529620E+02 0.  0.
        -11    1    3    3    0    0  0.42059132797E+01  0.16827791314E+02 -0.18138047792E+02  0.25096873207E+02  0.00000000000E+00 0.  1.
         12    1    3    3    0    0  0.33039551896E+02 -0.76931774700E+02 -0.32117753539E+01  0.83787979143E+02  0.00000000000E+00 0. -1.
         11    1    5    5    0    0  0.93399584092E+02 -0.81124885592E+02  0.16279144476E+03  0.20446462740E+03  0.00000000000E+00 0. -1.
        -12    1    5    5    0    0  0.10308178617E+03 -0.23344382584E+03  0.29451201053E+03  0.38969115824E+03  0.00000000000E+00 0.  1.
          5    1    4    4  501    0 -0.21748977184E+03  0.30965689186E+03  0.35322464419E+03  0.51766235443E+03  0.41800000000E+01 0. -1.
         -5    1    4    4    0  501 -0.16237063598E+02  0.65015802957E+02  0.10503130656E+02  0.67959436592E+02  0.41800000000E+01 0. -1.
</event>
<event>
11    1  0.8037748E-009  0.1462218E+03  0.7561462E-02  0.1100803E+00
         22   -1    0    0    0    0  0.00000000000E+00  0.00000000000E+00  0.27734966463E+03  0.27734966463E+03  0.00000000000E+00 0. -1.
         22   -1    0    0    0    0 -0.00000000000E+00 -0.00000000000E+00 -0.36034255767E+03  0.36034255767E+03  0.00000000000E+00 0. -1.
        -24    2    1    2    0    0  0.39707909302E+02 -0.48171596389E+02 -0.21436169394E+03  0.23709076130E+03  0.79773883605E+02 0.  0.
         25    2    1    2    0    0 -0.90220478236E+02  0.95603045231E+02 -0.52410167328E+02  0.18887361435E+03  0.12508692820E+03 0.  0.
         24    2    1    2    0    0  0.50512568934E+02 -0.47431448843E+02  0.18377896823E+03  0.21172784665E+03  0.79074078697E+02 0.  0.
        -13    1    5    5    0    0 -0.57373050518E+00  0.17793643981E+02  0.13431209398E+02  0.22301128194E+02  0.00000000000E+00 0.  1.
         14    1    5    5    0    0  0.51086299440E+02 -0.65225092824E+02  0.17034775883E+03  0.18942671845E+03  0.00000000000E+00 0. -1.
         13    1    3    3    0    0  0.26311907772E+02 -0.64253951921E+02 -0.19999262745E+03  0.21170247486E+03  0.00000000000E+00 0. -1.
        -14    1    3    3    0    0  0.13396001530E+02  0.16082355532E+02 -0.14369066487E+02  0.25388286436E+02  0.00000000000E+00 0.  1.
          5    1    4    4  501    0  0.29713630296E+02  0.32145331484E+02 -0.18521132180E+01  0.44012780927E+02  0.41800000000E+01 0.  1.
         -5    1    4    4    0  501 -0.11993410853E+03  0.63457713748E+02 -0.50558054110E+02  0.14486083342E+03  0.41800000000E+01 0.  1.
</event>
<event>
11    1  0.8037748E-009  0.1532114E+03  0.7561462E-02  0.1093642E+00
         22   -1    0    0    0    0  0.00000000000E+00  0.00000000000E+00  0.41860829224E+04  0.41860829224E+04  0.00000000000E+00 0. -1.
         22   -1    0    0    0    0 -0.00000000000E+00 -0.00000000000E+00 -0.25272361059E+03  0.25272361059E+03  0.00000000000E+00 0.  1.
        -24    2    1    2    0    0  0.58757351677E+02 -0.84298957724E+01 -0.16869479276E+03  0.19626594013E+03  0.80863444351E+02 0.  0.
         25    2    1    2    0    0  0.15095176688E+02 -0.41475656637E+02 -0.59558580982E+01  0.13278032497E+03  0.12508816091E+03 0.  0.
         24    2    1    2    0    0 -0.73852528365E+02  0.49905552409E+02  0.41080099627E+04  0.41097602679E+04  0.80242420892E+02 0.  0.
        -13    1    5    5    0    0  0.11099487990E+02  0.30236755575E+02  0.12866601977E+04  0.12870632946E+04  0.00000000000E+00 0.  1.
         14    1    5    5    0    0 -0.84952016355E+02  0.19668796834E+02  0.28213497650E+04  0.28226969733E+04  0.00000000000E+00 0. -1.
         11    1    3    3    0    0  0.10556195768E+02  0.22907676564E+02 -0.94067472028E+01  0.26919914703E+02  0.00000000000E+00 0. -1.
        -12    1    3    3    0    0  0.48201155909E+02 -0.31337572337E+02 -0.15928804555E+03  0.16934602542E+03  0.00000000000E+00 0.  1.
          5    1    4    4  501    0  0.46966193157E+01 -0.30412511030E+02  0.58605885730E+02  0.66325721273E+02  0.41800000000E+01 0.  1.
         -5    1    4    4    0  501  0.10398557372E+02 -0.11063145607E+02 -0.64561743829E+02  0.66454603696E+02  0.41800000000E+01 0.  1.
</event>
<event>
11    1  0.8037748E-009  0.2155261E+03  0.7561462E-02  0.1044057E+00
         22   -1    0    0    0    0  0.00000000000E+00  0.00000000000E+00  0.21438547216E+04  0.21438547216E+04  0.00000000000E+00 0.  1.
         22   -1    0    0    0    0 -0.00000000000E+00 -0.00000000000E+00 -0.10839985898E+03  0.10839985898E+03  0.00000000000E+00 0. -1.
        -24    2    1    2    0    0 -0.51532240541E+02 -0.29843592453E+02 -0.61065255477E+02  0.11500721585E+03  0.77145851775E+02 0.  0.
         25    2    1    2    0    0  0.30264586926E+02 -0.15792487547E+03  0.85254994183E+03  0.87655246486E+03  0.12508640545E+03 0.  0.
         24    2    1    2    0    0  0.21267653615E+02  0.18776846792E+03  0.12439701763E+04  0.12606948999E+04  0.78616286184E+02 0.  0.
        -13    1    5    5    0    0  0.48763473779E+02  0.15128837306E+03  0.95639116471E+03  0.96951024137E+03  0.00000000000E+00 0.  1.
         14    1    5    5    0    0 -0.27495820164E+02  0.36480094857E+02  0.28757901159E+03  0.29118465852E+03  0.00000000000E+00 0. -1.
         11    1    3    3    0    0 -0.57844548576E+02 -0.48031081644E+02 -0.59142129841E+02  0.95659647323E+02  0.00000000000E+00 0. -1.
        -12    1    3    3    0    0  0.63123080351E+01  0.18187489191E+02 -0.19231256359E+01  0.19347568530E+02  0.00000000000E+00 0.  1.
          5    1    4    4  501    0  0.13572863082E+02  0.11134602238E+02  0.20434076070E+02  0.27262168734E+02  0.41800000000E+01 0. -1.
         -5    1    4    4    0  501  0.16691723843E+02 -0.16905947771E+03  0.83211586576E+03  0.84929029613E+03  0.41800000000E+01 0. -1.
</event>
<event>
11    1  0.8037748E-009  0.1577419E+03  0.7561462E-02  0.1089221E+00
         22   -1    0    0    0    0  0.00000000000E+00  0.00000000000E+00  0.19579669219E+03  0.19579669219E+03  0.00000000000E+00 0.  1.
         22   -1    0    0    0    0 -0.00000000000E+00 -0.00000000000E+00 -0.35036413033E+04  0.35036413033E+04  0.00000000000E+00 0. -1.
         24    2    1    2    0    0  0.11743119929E+02 -0.39580300158E+02 -0.33902756083E+04  0.33914780843E+04  0.80314350913E+02 0.  0.
         25    2    1    2    0    0  0.87534896009E+02  0.15445409671E+02  0.16839629969E+01  0.15346838252E+03  0.12509512381E+03 0.  0.
        -24    2    1    2    0    0 -0.99278015938E+02  0.24134890488E+02  0.80747034201E+02  0.15449152867E+03  0.83119982622E+02 0.  0.
        -13    1    3    3    0    0 -0.95284946041E+01 -0.26567652265E+02 -0.36161385415E+03  0.36271367753E+03  0.00000000000E+00 0.  1.
         14    1    3    3    0    0  0.21271614533E+02 -0.13012647893E+02 -0.30286617541E+04  0.30287644068E+04  0.00000000000E+00 0. -1.
         11    1    5    5    0    0 -0.18587867454E+02 -0.22725242728E+02 -0.24720244211E+01  0.29462796511E+02  0.00000000000E+00 0. -1.
        -12    1    5    5    0    0 -0.80690148484E+02  0.46860133215E+02  0.83219058622E+02  0.12502873216E+03  0.00000000000E+00 0.  1.
          5    1    4    4  501    0  0.52631453284E+02  0.46615479015E+02 -0.47888525127E+02  0.85169572016E+02  0.41800000000E+01 0. -1.
         -5    1    4    4    0  501  0.34903442725E+02 -0.31170069344E+02  0.49572488124E+02  0.68298810500E+02  0.41800000000E+01 0. -1.
</event>
<event>
11    1  0.8037748E-009  0.1356379E+03  0.7561462E-02  0.1112530E+00
         22   -1    0    0    0    0  0.00000000000E+00  0.00000000000E+00  0.61668217051E+03  0.61668217051E+03  0.00000000000E+00 0.  1.
         22   -1    0    0    0    0 -0.00000000000E+00 -0.00000000000E+00 -0.40114117162E+03  0.40114117162E+03  0.00000000000E+00 0. -1.
        -24    2    1    2    0    0  0.51797271173E+02 -0.50286380686E+01 -0.36889551766E+03  0.38177668516E+03  0.83434344714E+02 0.  0.
         25    2    1    2    0    0 -0.67402042375E+02  0.11107462070E+02  0.23385278252E+03  0.27386354965E+03  0.12509080264E+03 0.  0.
         24    2    1    2    0    0  0.15604771203E+02 -0.60788240018E+01  0.35058373403E+03  0.36218310732E+03  0.89371067342E+02 0.  0.
        -11    1    5    5    0    0  0.13577479738E+02  0.43567317070E+01  0.35124272753E+03  0.35153205075E+03  0.00000000000E+00 0.  1.
         12    1    5    5    0    0  0.20272914648E+01 -0.10435555709E+02 -0.65899349452E+00  0.10651056570E+02  0.00000000000E+00 0. -1.
         13    1    3    3    0    0  0.72951963098E+02  0.71632192834E+01 -0.29406060764E+03  0.30305930376E+03  0.00000000000E+00 0. -1.
        -14    1    3    3    0    0 -0.21154691925E+02 -0.12191857352E+02 -0.74834910022E+02  0.78717381398E+02  0.00000000000E+00 0.  1.
          5    1    4    4  501    0 -0.48294095364E+01  0.86721059857E+01 -0.14297391838E+02  0.17900179666E+02  0.41800000000E+01 0.  1.
         -5    1    4    4    0  501 -0.62572632839E+02  0.24353560847E+01  0.24815017436E+03  0.25596336998E+03  0.41800000000E+01 0.  1.
</event>
<event>
11    1  0.8037748E-009  0.1299486E+03  0.7561462E-02  0.1119332E+00
         22   -1    0    0    0    0  0.00000000000E+00  0.00000000000E+00  0.10520666059E+03  0.10520666059E+03  0.00000000000E+00 0. -1.
         22   -1    0    0    0    0 -0.00000000000E+00 -0.00000000000E+00 -0.11952778137E+04  0.11952778137E+04  0.00000000000E+00 0.  1.
        -24    2    1    2    0    0  0.10747025864E+02 -0.35877631662E+02 -0.89869839543E+03  0.90305734689E+03  0.80318508552E+02 0.  0.
         25    2    1    2    0    0 -0.10534585432E+02  0.17633477915E+02 -0.26033266524E+03  0.28955801048E+03  0.12509527493E+03 0.  0.
         24    2    1    2    0    0 -0.21244043131E+00  0.18244153746E+02  0.68959907533E+02  0.10786911694E+03  0.80915902426E+02 0.  0.
        -11    1    5    5    0    0 -0.14765383599E+02  0.12375165285E+02 -0.13759457180E+02  0.23674541823E+02  0.00000000000E+00 0.  1.
         12    1    5    5    0    0  0.14552943168E+02  0.58689884613E+01  0.82719364713E+02  0.84194575116E+02  0.00000000000E+00 0. -1.
         13    1    3    3    0    0  0.13392449771E+02 -0.65503708565E+01 -0.26846283933E+02  0.30708110170E+02  0.00000000000E+00 0. -1.
        -14    1    3    3    0    0 -0.26454239075E+01 -0.29327260805E+02 -0.87185211149E+03  0.87234923672E+03  0.00000000000E+00 0.  1.
          5    1    4    4  501    0 -0.59876831377E+02  0.14046959153E+02 -0.20999239589E+03  0.21885344578E+03  0.41800000000E+01 0.  1.
         -5    1    4    4    0  501  0.49342245944E+02  0.35865187628E+01 -0.50340269343E+02  0.70704564698E+02  0.41800000000E+01 0.  1.
</event>
<event>
11    1  0.8037748E-009  0.1497086E+03  0.7561462E-02  0.1097177E+00
         22   -1    0    0    0    0  0.00000000000E+00  0.00000000000E+00  0.72098068482E+03  0.72098068482E+03  0.00000000000E+00 0. -1.
         22   -1    0    0    0    0 -0.00000000000E+00 -0.00000000000E+00 -0.22000432318E+03  0.22000432318E+03  0.00000000000E+00 0.  1.
        -24    2    1    2    0    0  0.23082918850E+02 -0.24068408612E+02 -0.10884811872E+03  0.13910578044E+03  0.79939951009E+02 0.  0.
         25    2    1    2    0    0  0.26550510541E+02 -0.43722260565E+02 -0.40655291226E+02  0.14112742772E+03  0.12509009741E+03 0.  0.
         24    2    1    2    0    0 -0.49633429391E+02  0.67790669176E+02  0.65047977159E+03  0.66075179984E+03  0.80062198321E+02 0.  0.
        -13    1    5    5    0    0 -0.11370493309E+02  0.42787638598E+02  0.53076106988E+03  0.53260434042E+03  0.00000000000E+00 0.  1.
         14    1    5    5    0    0 -0.38262936083E+02  0.25003030578E+02  0.11971870171E+03  0.12814745941E+03  0.00000000000E+00 0. -1.
         13    1    3    3    0    0 -0.23953169324E+02  0.12257894490E+02 -0.28884889214E+02  0.39475905600E+02  0.00000000000E+00 0. -1.
        -14    1    3    3    0    0  0.47036088174E+02 -0.36326303102E+02 -0.79963229507E+02  0.99629874841E+02  0.00000000000E+00 0.  1.
          5    1    4    4  501    0  0.34491106609E+02  0.28262230801E+02  0.17568773769E+02  0.48109503600E+02  0.41800000000E+01 0. -1.
         -5    1    4    4    0  501 -0.79405960674E+01 -0.71984491365E+02 -0.58224064995E+02  0.93017924120E+02  0.41800000000E+01 0. -1.
</event>
<event>
11    1  0.8037748E-009  0.1428694E+03  0.7561462E-02  0.1104396E+00
         22   -1    0    0    0    0  0.00000000000E+00  0.00000000000E+00  0.20632782085E+03  0.20632782085E+03  0.00000000000E+00 0.  1.
         22   -1    0    0    0    0 -0.00000000000E+00 -0.00000000000E+00 -0.13821011601E+04  0.13821011601E+04  0.00000000000E+00 0.  1.
        -24    2    1    2    0    0 -0.56833099027E+02  0.31272362012E+02 -0.89052269395E+03  0.89635428388E+03  0.78818601936E+02 0.  0.
         25    2    1    2    0    0 -0.12966872755E+02 -0.18803200936E+02 -0.46517439012E+03  0.48224040755E+03  0.12508755850E+03 0.  0.
         24    2    1    2    0    0  0.69799971782E+02 -0.12469161076E+02  0.17992374482E+03  0.20983428952E+03  0.81427016827E+02 0.  0.
        -11    1    5    5    0    0  0.84197489222E+02 -0.71540004307E+01  0.11258363262E+03  0.14076743674E+03  0.00000000000E+00 0.  1.
         12    1    5    5    0    0 -0.14397517440E+02 -0.53151606454E+01  0.67340112205E+02  0.69066852779E+02  0.00000000000E+00 0. -1.
         11    1    3    3    0    0  0.12655769467E+01 -0.92186015852E+01 -0.45629704048E+03  0.45639190774E+03  0.00000000000E+00 0. -1.
        -12    1    3    3    0    0 -0.58098675973E+02  0.40490963597E+02 -0.43422565347E+03  0.43996237614E+03  0.00000000000E+00 0.  1.
          5    1    4    4  501    0  0.30198796905E+02  0.28909483717E+02 -0.68486592881E+02  0.80346819400E+02  0.41800000000E+01 0.  1.
         -5    1    4    4    0  501 -0.43165669660E+02 -0.47712684653E+02 -0.39668779724E+03  0.40189358815E+03  0.41800000000E+01 0.  1.
</event>
<event>
11    1  0.8037748E-009  0.1421456E+03  0.7561462E-02  0.1105186E+00
         22   -1    0    0    0    0  0.00000000000E+00  0.00000000000E+00  0.65141676077E+03  0.65141676077E+03  0.00000000000E+00 0.  1.
         22   -1    0    0    0    0 -0.00000000000E+00 -0.00000000000E+00 -0.18338209141E+03  0.18338209141E+03  0.00000000000E+00 0. -1.
        -24    2    1    2    0    0 -0.28047456001E+02 -0.23295363613E+02 -0.87178666035E+02  0.10881957408E+03  0.53965230821E+02 0.  0.
         25    2    1    2    0    0 -0.41011805842E+02  0.22986557002E+02 -0.25278643539E+02  0.13600464650E+03  0.12509158257E+03 0.  0.
         24    2    1    2    0    0  0.69059261843E+02  0.30880661078E+00  0.58049197894E+03  0.58997463160E+03  0.79560362659E+02 0.  0.
        -11    1    5    5    0    0  0.18979393826E+02  0.37269467007E+02  0.27976729517E+03  0.28287624504E+03  0.00000000000E+00 0.  1.
         12    1    5    5    0    0  0.50079868017E+02 -0.36960660396E+02  0.30072468377E+03  0.30709838656E+03  0.00000000000E+00 0. -1.
         11    1    3    3    0    0 -0.31267184584E+02 -0.36893175935E+01 -0.82646823646E+02  0.88440631810E+02  0.00000000000E+00 0. -1.
        -12    1    3    3    0    0  0.32197285832E+01 -0.19606046020E+02 -0.45318423890E+01  0.20378942272E+02  0.00000000000E+00 0.  1.
          5    1    4    4  501    0  0.38404954886E+02  0.16825925599E+02 -0.36128840909E+02  0.55505115778E+02  0.41800000000E+01 0. -1.
         -5    1    4    4    0  501 -0.79416760728E+02  0.61606314032E+01  0.10850197370E+02  0.80499530724E+02  0.41800000000E+01 0. -1.
</event>
<event>
11    1  0.8037748E-009  0.1383679E+03  0.7561462E-02  0.1109395E+00
         22   -1    0    0    0    0  0.00000000000E+00  0.00000000000E+00  0.40711029693E+03  0.40711029693E+03  0.00000000000E+00 0.  1.
         22   -1    0    0    0    0 -0.00000000000E+00 -0.00000000000E+00 -0.13782063236E+04  0.13782063236E+04  0.00000000000E+00 0.  1.
         24    2    1    2    0    0  0.12231985872E+02 -0.45370394107E+02 -0.83906321581E+03  0.84411900969E+03  0.79383425617E+02 0.  0.
         25    2    1    2    0    0  0.30740458384E+02  0.40846349871E+01 -0.52247986385E+03  0.53814260325E+03  0.12510233127E+03 0.  0.
        -24    2    1    2    0    0 -0.42972444256E+02  0.41285759119E+02  0.39044705294E+03  0.40305500763E+03  0.80332391702E+02 0.  0.
        -11    1    3    3    0    0 -0.27900442343E+02  0.44658300947E+01 -0.25235716828E+03  0.25393408338E+03  0.00000000000E+00 0.  1.
         12    1    3    3    0    0  0.40132428214E+02 -0.49836224201E+02 -0.58670604753E+03  0.59018492631E+03  0.00000000000E+00 0. -1.
         13    1    5    5    0    0 -0.30402699086E+02 -0.19842344007E+02  0.17633049795E+03  0.18002912885E+03  0.00000000000E+00 0. -1.
        -14    1    5    5    0    0 -0.12569745169E+02  0.61128103127E+02  0.21411655499E+03  0.22302587878E+03  0.00000000000E+00 0.  1.
          5    1    4    4  501    0  0.17695245778E+02 -0.54156140971E+02 -0.14322678137E+03  0.15419919789E+03  0.41800000000E+01 0.  1.
         -5    1    4    4    0  501  0.13045212605E+02  0.58240775958E+02 -0.37925308248E+03  0.38394340537E+03  0.41800000000E+01 0.  1.
</event>
<event>
11    1  0.8037748E-009  0.1912344E+03  0.7561462E-02  0.1060901E+00
         22   -1    0    0    0    0  0.00000000000E+00  0.00000000000E+00  0.77368796904E+03  0.77368796904E+03  0.00000000000E+00 0.  1.
         22   -1    0    0    0    0 -0.00000000000E+00 -0.00000000000E+00 -0.12742109772E+04  0.12742109772E+04  0.00000000000E+00 0.  1.
        -24    2    1    2    0    0  0.11235843316E+03  0.83688079665E+02 -0.10771184239E+04  0.10891585219E+04  0.80337254510E+02 0.  0.
         25    2    1    2    0    0 -0.17486249010E+03 -0.10318489481E+03 -0.11149932411E+03  0.26325480678E+03  0.12508789332E+03 0.  0.
         24    2    1    2    0    0  0.62504056941E+02  0.19496815144E+02  0.68809473983E+03  0.69548561760E+03  0.77064845247E+02 0.  0.
        -13    1    5    5    0    0  0.79189221642E+02  0.61389446422E+01  0.51820019660E+03  0.52425190817E+03  0.00000000000E+00 0.  1.
         14    1    5    5    0    0 -0.16685164701E+02  0.13357870502E+02  0.16989454324E+03  0.17123370944E+03  0.00000000000E+00 0. -1.
         11    1    3    3    0    0  0.76393205333E+02  0.36358995868E+02 -0.37016879022E+03  0.37971414466E+03  0.00000000000E+00 0. -1.
        -12    1    3    3    0    0  0.35965227831E+02  0.47329083797E+02 -0.70694963369E+03  0.70944437721E+03  0.00000000000E+00 0.  1.
          5    1    4    4  501    0 -0.13250083979E+03 -0.12182961140E+03 -0.11950757771E+03  0.21609826535E+03  0.41800000000E+01 0. -1.
         -5    1    4    4    0  501 -0.42361650318E+02  0.18644716589E+02  0.80082535961E+01  0.47156541433E+02  0.41800000000E+01 0. -1.
</event>
<event>
11    1  0.8037748E-009  0.2438785E+03  0.7561462E-02  0.1027212E+00
         22   -1    0    0    0    0  0.00000000000E+00  0.00000000000E+00  0.12473792156E+04  0.12473792156E+04  0.00000000000E+00 0.  1.
         22   -1    0    0    0    0 -0.00000000000E+00 -0.00000000000E+00 -0.10443531251E+04  0.10443531251E+04  0.00000000000E+00 0.  1.
        -24    2    1    2    0    0  0.10652025661E+03 -0.17651576492E+03 -0.89299521084E+03  0.92023592402E+03  0.83001981565E+02 0.  0.
         25    2    1    2    0    0 -0.16967753364E+03  0.18034750629E+03  0.68884143820E+01  0.27750770424E+03  0.12508951681E+03 0.  0.
         24    2    1    2    0    0  0.63157277031E+02 -0.38317413747E+01  0.10891328869E+04  0.10939887124E+04  0.81223971312E+02 0.  0.
        -13    1    5    5    0    0  0.68517114807E+02 -0.22916167486E+02  0.10032406812E+04  0.10058387595E+04  0.00000000000E+00 0.  1.
         14    1    5    5    0    0 -0.53598377766E+01  0.19084426111E+02  0.85892205763E+02  0.88149952875E+02  0.00000000000E+00 0. -1.
         11    1    3    3    0    0  0.21455625050E+02 -0.15033214144E+02 -0.39189149369E+02  0.47139482411E+02  0.00000000000E+00 0. -1.
        -12    1    3    3    0    0  0.85064631556E+02 -0.16148255077E+03 -0.85380606147E+03  0.87309644161E+03  0.00000000000E+00 0.  1.
          5    1    4    4  501    0 -0.41628608787E+02  0.21361998680E+02 -0.46878197012E+02  0.66365004425E+02  0.41800000000E+01 0. -1.
         -5    1    4    4    0  501 -0.12804892485E+03  0.15898550761E+03  0.53766611394E+02  0.21114269982E+03  0.41800000000E+01 0. -1.
</event>
<event>
11    1  0.8037748E-009  0.1275367E+03  0.7561462E-02  0.1122333E+00
         22   -1    0    0    0    0  0.00000000000E+00  0.00000000000E+00  0.10088180861E+04  0.10088180861E+04  0.00000000000E+00 0. -1.
         22   -1    0    0    0    0 -0.00000000000E+00 -0.00000000000E+00 -0.13364692039E+04  0.13364692039E+04  0.00000000000E+00 0. -1.
         24    2    1    2    0    0  0.11548924783E+02  0.48314940315E+01 -0.12971121086E+04  0.12983774596E+04  0.55923915294E+02 0.  0.
         25    2    1    2    0    0 -0.32280342274E+02  0.79243201264E+01  0.80161532018E+02  0.15224458351E+03  0.12509087355E+03 0.  0.
        -24    2    1    2    0    0  0.20731417491E+02 -0.12755814158E+02  0.88929945882E+03  0.89466524685E+03  0.94762197151E+02 0.  0.
        -13    1    3    3    0    0  0.24570841536E+02  0.14911203692E+02 -0.36843100529E+03  0.36955036992E+03  0.00000000000E+00 0.  1.
         14    1    3    3    0    0 -0.13021916753E+02 -0.10079709660E+02 -0.92868110332E+03  0.92882708968E+03  0.00000000000E+00 0. -1.
         13    1    5    5    0    0  0.22276719899E+02 -0.26183727068E+02  0.87216027640E+03  0.87283754935E+03  0.00000000000E+00 0. -1.
        -14    1    5    5    0    0 -0.15453024082E+01  0.13427912910E+02  0.17139182412E+02  0.21827697506E+02  0.00000000000E+00 0.  1.
          5    1    4    4  501    0 -0.45929450751E+02 -0.47300970957E+02  0.66191579254E+02  0.93518414571E+02  0.41800000000E+01 0. -1.
         -5    1    4    4    0  501  0.13649108477E+02  0.55225291084E+02  0.13969952764E+02  0.58726168935E+02  0.41800000000E+01 0. -1.
</event>
<event>
11    1  0.8037748E-009  0.2193093E+03  0.7561462E-02  0.1041651E+00
         22   -1    0    0    0    0  0.00000000000E+00  0.00000000000E+00  0.91069352212E+03  0.91069352212E+03  0.00000000000E+00 0. -1.
         22   -1    0    0    0    0 -0.00000000000E+00 -0.00000000000E+00 -0.19142709509E+03  0.19142709509E+03  0.00000000000E+00 0.  1.
         24    2    1    2    0    0  0.55396985618E+02  0.20858568620E+02 -0.80328087974E+02  0.12686404185E+03  0.78345245526E+02 0.  0.
         25    2    1    2    0    0  0.13317636714E+03 -0.21655060373E+02  0.39385490120E+02  0.18815732191E+03  0.12508826703E+03 0.  0.
        -24    2    1    2    0    0 -0.18857335276E+03  0.79649175280E+00  0.76020902489E+03  0.78709925345E+03  0.77762005473E+02 0.  0.
        -13    1    3    3    0    0  0.40557652246E+02  0.11599675310E+02 -0.95057597738E+02  0.10399722357E+03  0.00000000000E+00 0.  1.
         14    1    3    3    0    0  0.14839333372E+02  0.92588933102E+01  0.14729509764E+02  0.22866818277E+02  0.00000000000E+00 0. -1.
         11    1    5    5    0    0 -0.25347794521E+02  0.25834699123E+02  0.93945212851E+02  0.10067594243E+03  0.00000000000E+00 0. -1.
        -12    1    5    5    0    0 -0.16322555824E+03 -0.25038207370E+02  0.66626381204E+03  0.68642331103E+03  0.00000000000E+00 0.  1.
          5    1    4    4  501    0  0.96169923010E+02 -0.63608978020E+02  0.57887701079E+02  0.12908607405E+03  0.41800000000E+01 0.  1.
         -5    1    4    4    0  501  0.37006444135E+02  0.41953917647E+02 -0.18502210959E+02  0.59071247861E+02  0.41800000000E+01 0.  1.
</event>
<event>
11    1  0.8037748E-009  0.2531910E+03  0.7561462E-02  0.1022213E+00
         22   -1    0    0    0    0  0.00000000000E+00  0.00000000000E+00  0.28893397560E+03  0.28893397560E+03  0.00000000000E+00 0.  1.
         22   -1    0    0    0    0 -0.00000000000E+00 -0.00000000000E+00 -0.47684932360E+03  0.47684932360E+03  0.00000000000E+00 0.  1.
         24    2    1    2    0    0 -0.11466828282E+03 -0.12892329023E+03 -0.28041625932E+03  0.33876614118E+03  0.79744530023E+02 0.  0.
         25    2    1    2    0    0  0.99569351268E+02  0.21157042382E+03  0.14282832765E+03  0.30120331278E+03  0.12508958589E+03 0.  0.
        -24    2    1    2    0    0  0.15098931551E+02 -0.82647133589E+02 -0.50327416336E+02  0.12581384525E+03  0.78979417556E+02 0.  0.
        -11    1    3    3    0    0 -0.10317491066E+03 -0.13925642945E+03 -0.26689982840E+03  0.31823408637E+03  0.00000000000E+00 0.  1.
         12    1    3    3    0    0 -0.11493372160E+02  0.10333139213E+02 -0.13516430921E+02  0.20532054803E+02  0.00000000000E+00 0. -1.
         11    1    5    5    0    0  0.46620087957E+02 -0.62218995225E+02 -0.34083212231E+02  0.84889936529E+02  0.00000000000E+00 0. -1.
        -12    1    5    5    0    0 -0.31521156405E+02 -0.20428138364E+02 -0.16244204106E+02  0.40923908723E+02  0.00000000000E+00 0.  1.
          5    1    4    4  501    0  0.12783842975E+03  0.18901319455E+03  0.11623572451E+03  0.25611885500E+03  0.41800000000E+01 0. -1.
         -5    1    4    4    0  501 -0.28269078482E+02  0.22557229272E+02  0.26592603148E+02  0.45084457775E+02  0.41800000000E+01 0. -1.
</event>
<event>
11    1  0.8037748E-009  0.6107762E+03  0.7561462E-02  0.9175221E-01
         22   -1    0    0    0    0  0.00000000000E+00  0.00000000000E+00  0.30664539273E+03  0.30664539273E+03  0.00000000000E+00 0. -1.
         22   -1    0    0    0    0 -0.00000000000E+00 -0.00000000000E+00 -0.30413594377E+03  0.30413594377E+03  0.00000000000E+00 0.  1.
        -24    2    1    2    0    0 -0.15595216933E+03  0.37387221669E+02 -0.33383585148E+02  0.18237974726E+03  0.80181200994E+02 0.  0.
         25    2    1    2    0    0  0.24946804898E+03 -0.65841358071E+02  0.72358449677E+02  0.29572376674E+03  0.12508960420E+03 0.  0.
         24    2    1    2    0    0 -0.93515879652E+02  0.28454136402E+02 -0.36465415563E+02  0.13267782250E+03  0.81968411140E+02 0.  0.
        -11    1    5    5    0    0 -0.26128113056E+02 -0.28535586114E+02 -0.51503960049E+01  0.39031840153E+02  0.00000000000E+00 0.  1.
         12    1    5    5    0    0 -0.67387766597E+02  0.56989722516E+02 -0.31315019558E+02  0.93645982344E+02  0.00000000000E+00 0. -1.
         13    1    3    3    0    0 -0.13222213359E+03  0.22166862649E+02  0.57011689725E+01  0.13418854548E+03  0.00000000000E+00 0. -1.
        -14    1    3    3    0    0 -0.23730035741E+02  0.15220359020E+02 -0.39084754120E+02  0.48191201786E+02  0.00000000000E+00 0.  1.
          5    1    4    4  501    0  0.35035874924E+02 -0.55402571986E+02 -0.85939988547E+01  0.66244144878E+02  0.41800000000E+01 0.  1.
         -5    1    4    4    0  501  0.21443217406E+03 -0.10438786085E+02  0.80952448532E+02  0.22947962186E+03  0.41800000000E+01 0.  1.
</event>
<event>
11    1  0.8037748E-009  0.1274554E+03  0.7561462E-02  0.1122436E+00
         22   -1    0    0    0    0  0.00000000000E+00  0.00000000000E+00  0.72628587283E+03  0.72628587283E+03  0.00000000000E+00 0.  1.
         22   -1    0    0    0    0 -0.00000000000E+00 -0.00000000000E+00 -0.10416116814E+04  0.10416116814E+04  0.00000000000E+00 0. -1.
        -24    2    1    2    0    0 -0.15859584720E+02  0.15236711045E+01 -0.10232287419E+04  0.10262371324E+04  0.76887876611E+02 0.  0.
         25    2    1    2    0    0  0.24001543675E+02 -0.22207119923E+02  0.32515711482E+03  0.34991929688E+03  0.12508850760E+03 0.  0.
         24    2    1    2    0    0 -0.81419589551E+01  0.20683448818E+02  0.38274581850E+03  0.39174112501E+03  0.80452786766E+02 0.  0.
        -11    1    5    5    0    0  0.31462198299E+02  0.23537849720E+02  0.25369600889E+03  0.25672079234E+03  0.00000000000E+00 0.  1.
         12    1    5    5    0    0 -0.39604157254E+02 -0.28544009018E+01  0.12904980961E+03  0.13502033268E+03  0.00000000000E+00 0. -1.
         13    1    3    3    0    0 -0.53903378552E+01  0.29856163933E+02 -0.83902858275E+03  0.83957692258E+03  0.00000000000E+00 0. -1.
        -14    1    3    3    0    0 -0.10469246865E+02 -0.28332492828E+02 -0.18420015918E+03  0.18666020980E+03  0.00000000000E+00 0.  1.
          5    1    4    4  501    0 -0.42039055000E+02  0.23735878241E+02  0.11122990204E+03  0.12132698615E+03  0.41800000000E+01 0. -1.
         -5    1    4    4    0  501  0.66040598675E+02 -0.45942998164E+02  0.21392721278E+03  0.22859231072E+03  0.41800000000E+01 0. -1.
</event>
<event>
11    1  0.8037748E-009  0.1301236E+03  0.7561462E-02  0.1119117E+00
         22   -1    0    0    0    0  0.00000000000E+00  0.00000000000E+00  0.91021782243E+03  0.91021782243E+03  0.00000000000E+00 0. -1.
         22   -1    0    0    0    0 -0.00000000000E+00 -0.00000000000E+00 -0.10133149357E+04  0.10133149357E+04  0.00000000000E+00 0. -1.
         24    2    1    2    0    0  0.12862004567E+01 -0.34572396720E+02 -0.91182557732E+03  0.91601645860E+03  0.80395049856E+02 0.  0.
         25    2    1    2    0    0  0.37537552084E+01  0.64466613126E+02 -0.46252177043E+02  0.14819581326E+03  0.12511075214E+03 0.  0.
        -24    2    1    2    0    0 -0.50399556651E+01 -0.29894216406E+02  0.85498064114E+03  0.85932048623E+03  0.80751074302E+02 0.  0.
        -13    1    3    3    0    0  0.32212690868E+02  0.95729648602E+01 -0.35910873468E+03  0.36067767111E+03  0.00000000000E+00 0.  1.
         14    1    3    3    0    0 -0.30926490411E+02 -0.44145361580E+02 -0.55271684264E+03  0.55533878749E+03  0.00000000000E+00 0. -1.
         11    1    5    5    0    0  0.15868436188E+02  0.12612351300E+02  0.57526711740E+03  0.57562412652E+03  0.00000000000E+00 0. -1.
        -12    1    5    5    0    0 -0.20908391853E+02 -0.42506567706E+02  0.27971352374E+03  0.28369635971E+03  0.00000000000E+00 0.  1.
          5    1    4    4  501    0 -0.12586469440E+01  0.73439669316E+02  0.23759183235E+02  0.77310674615E+02  0.41800000000E+01 0.  1.
         -5    1    4    4    0  501  0.50124021524E+01 -0.89730561903E+01 -0.70011360278E+02  0.70885138645E+02  0.41800000000E+01 0.  1.
</event>
<event>
11    1  0.8037748E-009  0.5669059E+03  0.7561462E-02  0.9255311E-01
         22   -1    0    0    0    0  0.00000000000E+00  0.00000000000E+00  0.11949156253E+04  0.11949156253E+04  0.00000000000E+00 0.  1.
         22   -1    0    0    0    0 -0.00000000000E+00 -0.00000000000E+00 -0.48253598781E+03  0.48253598781E+03  0.00000000000E+00 0.  1.
        -24    2    1    2    0    0  0.26606289299E+03  0.45654968115E+03 -0.56245782242E+02  0.53753021368E+03  0.80920134768E+02 0.  0.
         25    2    1    2    0    0 -0.31395428378E+03 -0.52091756819E+03  0.36447026176E+03  0.72000595004E+03  0.12509033227E+03 0.  0.
         24    2    1    2    0    0  0.47891390790E+02  0.64367887040E+02  0.40415515794E+03  0.41991544937E+03  0.80936905884E+02 0.  0.
        -11    1    5    5    0    0 -0.39016167732E+01  0.60400619872E+02  0.25086085961E+03  0.25805935050E+03  0.00000000000E+00 0.  1.
         12    1    5    5    0    0  0.51793007563E+02  0.39672671677E+01  0.15329429833E+03  0.16185609887E+03  0.00000000000E+00 0. -1.
         11    1    3    3    0    0  0.11793937947E+03  0.27345258022E+03 -0.13024205612E+02  0.29808663303E+03  0.00000000000E+00 0. -1.
        -12    1    3    3    0    0  0.14812351352E+03  0.18309710093E+03 -0.43221576629E+02  0.23944358065E+03  0.00000000000E+00 0.  1.
          5    1    4    4  501    0 -0.13811004969E+03 -0.13555265805E+03  0.15192824662E+03  0.24606619729E+03  0.41800000000E+01 0.  1.
         -5    1    4    4    0  501 -0.17584423409E+03 -0.38536491014E+03  0.21254201514E+03  0.47393975274E+03  0.41800000000E+01 0.  1.
</event>
<event>
11    1  0.8037748E-009  0.1304284E+03  0.7561462E-02  0.1118744E+00
         22   -1    0    0    0    0  0.00000000000E+00  0.00000000000E+00  0.24832500870E+04  0.24832500870E+04  0.00000000000E+00 0.  1.
         22   -1    0    0    0    0 -0.00000000000E+00 -0.00000000000E+00 -0.34389205914E+03  0.34389205914E+03  0.00000000000E+00 0. -1.
         24    2    1    2    0    0  0.26303205916E+02  0.26287630442E+02 -0.33034041839E+03  0.34450535515E+03  0.90422616390E+02 0.  0.
         25    2    1    2    0    0  0.64498343339E+01 -0.19615334365E+02  0.74696792772E+03  0.75765120663E+03  0.12509158310E+03 0.  0.
        -24    2    1    2    0    0 -0.32753040250E+02 -0.66722960765E+01  0.17227305185E+04  0.17249855844E+04  0.81593784122E+02 0.  0.
        -13    1    3    3    0    0  0.40106438540E+01  0.40062218829E+02 -0.56302290928E+02  0.69217155427E+02  0.00000000000E+00 0.  1.
         14    1    3    3    0    0  0.22292562062E+02 -0.13774588387E+02 -0.27403812746E+03  0.27528819973E+03  0.00000000000E+00 0. -1.
         11    1    5    5    0    0  0.60961217925E+01  0.31397003232E+02  0.47926619222E+03  0.48033219496E+03  0.00000000000E+00 0. -1.
        -12    1    5    5    0    0 -0.38849162042E+02 -0.38069299308E+02  0.12434643263E+04  0.12446533894E+04  0.00000000000E+00 0.  1.
          5    1    4    4  501    0  0.14248498178E+02  0.38556779101E+02  0.10266713103E+03  0.11066913349E+03  0.41800000000E+01 0.  1.
         -5    1    4    4    0  501 -0.77986638439E+01 -0.58172113466E+02  0.64430079669E+03  0.64698207314E+03  0.41800000000E+01 0.  1.
</event>
<event>
11    1  0.8037748E-009  0.2456569E+03  0.7561462E-02  0.1026239E+00
         22   -1    0    0    0    0  0.00000000000E+00  0.00000000000E+00  0.32460649784E+03  0.32460649784E+03  0.00000000000E+00 0.  1.
         22   -1    0    0    0    0 -0.00000000000E+00 -0.00000000000E+00 -0.47308147326E+03  0.47308147326E+03  0.00000000000E+00 0. -1.
         24    2    1    2    0    0  0.39594261812E+02  0.21871879747E+03 -0.29506912678E+03  0.37769557141E+03  0.78629111321E+02 0.  0.
         25    2    1    2    0    0 -0.38075513625E+02 -0.18139208508E+03 -0.26197592157E+02  0.22513880190E+03  0.12509329726E+03 0.  0.
        -24    2    1    2    0    0 -0.15187481877E+01 -0.37326712394E+02  0.17279174352E+03  0.19485359780E+03  0.81947226259E+02 0.  0.
        -11    1    3    3    0    0  0.11650587469E+02  0.11483144016E+02 -0.39366122612E+00  0.16363182882E+02  0.00000000000E+00 0.  1.
         12    1    3    3    0    0  0.27943674343E+02  0.20723565346E+03 -0.29467546556E+03  0.36133238853E+03  0.00000000000E+00 0. -1.
         11    1    5    5    0    0 -0.23243114885E+01 -0.35076394491E+02  0.17008153472E+02  0.39051672934E+02  0.00000000000E+00 0. -1.
        -12    1    5    5    0    0  0.80556330083E+00 -0.22503179032E+01  0.15578359005E+03  0.15580192486E+03  0.00000000000E+00 0.  1.
          5    1    4    4  501    0  0.14162025402E+02 -0.48630314730E+02 -0.59827516153E+02  0.78500156454E+02  0.41800000000E+01 0. -1.
         -5    1    4    4    0  501 -0.52237539027E+02 -0.13276177035E+03  0.33629923996E+02  0.14663864544E+03  0.41800000000E+01 0. -1.
</event>
<event>
11    1  0.8037748E-009  0.1294841E+03  0.7561462E-02  0.1119905E+00
         22   -1    0    0    0    0  0.00000000000E+00  0.00000000000E+00  0.12104410198E+04  0.12104410198E+04  0.00000000000E+00 0. -1.
         22   -1    0    0    0    0 -0.00000000000E+00 -0.00000000000E+00 -0.30422927643E+03  0.30422927643E+03  0.00000000000E+00 0.  1.
        -24    2    1    2    0    0 -0.15499641433E+02 -0.29835854879E+02 -0.28021357309E+03  0.29408301641E+03  0.82672588410E+02 0.  0.
         25    2    1    2    0    0  0.14265132995E+02  0.21450580716E+02  0.25050602527E+03  0.28118719933E+03  0.12509736583E+03 0.  0.
         24    2    1    2    0    0  0.12345084378E+01  0.83852741631E+01  0.93591929118E+03  0.93940008048E+03  0.80347711602E+02 0.  0.
        -13    1    5    5    0    0  0.22430553325E+02  0.26063065498E+02  0.19792219537E+03  0.20088705415E+03  0.00000000000E+00 0.  1.
         14    1    5    5    0    0 -0.21196044887E+02 -0.17677791335E+02  0.73799709582E+03  0.73851302633E+03  0.00000000000E+00 0. -1.
         11    1    3    3    0    0 -0.94533404233E+01  0.28699077191E+02 -0.86279348916E+02  0.91417332744E+02  0.00000000000E+00 0. -1.
        -12    1    3    3    0    0 -0.60463010095E+01 -0.58534932070E+02 -0.19393422418E+03  0.20266568367E+03  0.00000000000E+00 0.  1.
          5    1    4    4  501    0  0.13663455700E+02  0.15594952827E+01 -0.11491086839E+02  0.18402160850E+02  0.41800000000E+01 0. -1.
         -5    1    4    4    0  501  0.60167729492E+00  0.19891085433E+02  0.26199711211E+03  0.26278503848E+03  0.41800000000E+01 0. -1.
</event>
<event>
11    1  0.8037748E-009  0.1334896E+03  0.7561462E-02  0.1115054E+00
         22   -1    0    0    0    0  0.00000000000E+00  0.00000000000E+00  0.26570564230E+03  0.26570564230E+03  0.00000000000E+00 0. -1.
         22   -1    0    0    0    0 -0.00000000000E+00 -0.00000000000E+00 -0.22520363588E+04  0.22520363588E+04  0.00000000000E+00 0. -1.
         24    2    1    2    0    0 -0.45492159931E+02 -0.91826271831E+01 -0.21985701414E+04  0.22004316265E+04  0.77684095745E+02 0.  0.
         25    2    1    2    0    0  0.75648931525E+02  0.95707417439E+01  0.10910862607E+03  0.18266686157E+03  0.12509248617E+03 0.  0.
        -24    2    1    2    0    0 -0.30156771594E+02 -0.38811456081E+00  0.10313079890E+03  0.13464351301E+03  0.81137737255E+02 0.  0.
        -11    1    3    3    0    0  0.20462812606E+02  0.12734021872E+01 -0.30746683636E+03  0.30814964500E+03  0.00000000000E+00 0.  1.
         12    1    3    3    0    0 -0.65954972537E+02 -0.10456029370E+02 -0.18911033051E+04  0.18922819815E+04  0.00000000000E+00 0. -1.
         11    1    5    5    0    0 -0.18375405349E+02  0.39785477277E+02  0.62250550665E+02  0.76129303044E+02  0.00000000000E+00 0. -1.
        -12    1    5    5    0    0 -0.11781366246E+02 -0.40173591838E+02  0.40880248238E+02  0.58514209964E+02  0.00000000000E+00 0.  1.
          5    1    4    4  501    0  0.25569438000E+02  0.33777949571E+02 -0.16164941786E+02  0.45535961391E+02  0.41800000000E+01 0. -1.
         -5    1    4    4    0  501  0.50079493525E+02 -0.24207207827E+02  0.12527356785E+03  0.13713090018E+03  0.41800000000E+01 0. -1.
</event>
<event>
11    1  0.8037748E-009  0.2839195E+03  0.7561462E-02  0.1007236E+00
         22   -1    0    0    0    0  0.00000000000E+00  0.00000000000E+00  0.15543803660E+04  0.15543803660E+04  0.00000000000E+00 0. -1.
         22   -1    0    0    0    0 -0.00000000000E+00 -0.00000000000E+00 -0.39933652262E+04  0.39933652262E+04  0.00000000000E+00 0.  1.
         24    2    1    2    0    0 -0.19855045400E+03 -0.18602468742E+03 -0.39242496077E+04  0.39344628613E+04  0.78965537302E+02 0.  0.
         25    2    1    2    0    0 -0.15287112820E+03  0.16299664784E+03  0.46436764505E+03  0.53030550292E+03  0.12509647323E+03 0.  0.
        -24    2    1    2    0    0  0.35142158220E+03  0.23028039580E+02  0.10208971024E+04  0.10829772280E+04  0.81125604211E+02 0.  0.
        -11    1    3    3    0    0 -0.13871393020E+03 -0.17216701206E+03 -0.29434846290E+04  0.29517765491E+04  0.00000000000E+00 0.  1.
         12    1    3    3    0    0 -0.59836523796E+02 -0.13857675355E+02 -0.98076497866E+03  0.98268631217E+03  0.00000000000E+00 0. -1.
         13    1    5    5    0    0  0.24754430657E+03 -0.47733241282E+01  0.61221981067E+03  0.66038932828E+03  0.00000000000E+00 0. -1.
        -14    1    5    5    0    0  0.10387727563E+03  0.27801363709E+02  0.40867729177E+03  0.42258789977E+03  0.00000000000E+00 0.  1.
          5    1    4    4  501    0 -0.22665219975E+02  0.59692464379E+02  0.25525068086E+03  0.26314878867E+03  0.41800000000E+01 0.  1.
         -5    1    4    4    0  501 -0.13020590822E+03  0.10330418346E+03  0.20911696419E+03  0.26715671425E+03  0.41800000000E+01 0.  1.
</event>
<event>
11    1  0.8037748E-009  0.2171306E+03  0.7561462E-02  0.1043030E+00
         22   -1    0    0    0    0  0.00000000000E+00  0.00000000000E+00  0.10543860774E+04  0.10543860774E+04  0.00000000000E+00 0. -1.
         22   -1    0    0    0    0 -0.00000000000E+00 -0.00000000000E+00 -0.14898148362E+04  0.14898148362E+04  0.00000000000E+00 0. -1.
         24    2    1    2    0    0 -0.17257450284E+03  0.49630820499E+02 -0.14509094972E+04  0.14641589588E+04  0.79861820006E+02 0.  0.
         25    2    1    2    0    0  0.10592006613E+03  0.41385834113E+02  0.24841000293E+03  0.30047961028E+03  0.12509444019E+03 0.  0.
        -24    2    1    2    0    0  0.66654436713E+02 -0.91016654611E+02  0.76707073546E+03  0.77956234442E+03  0.81197846493E+02 0.  0.
        -11    1    3    3    0    0 -0.87401734106E+02  0.54692148002E+02 -0.58121122436E+03  0.59028533905E+03  0.00000000000E+00 0.  1.
         12    1    3    3    0    0 -0.85172768737E+02 -0.50613275038E+01 -0.86969827283E+03  0.87387361977E+03  0.00000000000E+00 0. -1.
         11    1    5    5    0    0  0.17528212426E+02 -0.66140782085E+02  0.59436457418E+03  0.59829013724E+03  0.00000000000E+00 0. -1.
        -12    1    5    5    0    0  0.49126224287E+02 -0.24875872526E+02  0.17270616129E+03  0.18127220717E+03  0.00000000000E+00 0.  1.
          5    1    4    4  501    0  0.10709219632E+03  0.37370769034E+01  0.97676189207E+02  0.14505452283E+03  0.41800000000E+01 0.  1.
         -5    1    4    4    0  501 -0.11721301919E+01  0.37648757209E+02  0.15073381372E+03  0.15542508745E+03  0.41800000000E+01 0.  1.
</event>
<event>
11    1  0.8037748E-009  0.1528709E+03  0.7561462E-02  0.1093981E+00
         22   -1    0    0    0    0  0.00000000000E+00  0.00000000000E+00  0.40781813486E+03  0.40781813486E+03  0.00000000000E+00 0.  1.
         22   -1    0    0    0    0 -0.00000000000E+00 -0.00000000000E+00 -0.93218683869E+03  0.93218683869E+03  0.00000000000E+00 0.  1.
         24    2    1    2    0    0 -0.86146605933E+02 -0.30302607178E+02 -0.84044520739E+03  0.84917246437E+03  0.80039002436E+02 0.  0.
         25    2    1    2    0    0  0.40845937611E+02  0.19118148673E+02 -0.26899982892E+02  0.13566729389E+03  0.12509241113E+03 0.  0.
        -24    2    1    2    0    0  0.45300668322E+02  0.11184458505E+02  0.34297648645E+03  0.35516521530E+03  0.79575230047E+02 0.  0.
        -13    1    3    3    0    0 -0.50133563440E+02  0.13411027443E+02 -0.21527708876E+03  0.22144402179E+03  0.00000000000E+00 0.  1.
         14    1    3    3    0    0 -0.36013042493E+02 -0.43713634621E+02 -0.62516811863E+03  0.62772844258E+03  0.00000000000E+00 0. -1.
         11    1    5    5    0    0 -0.95339972419E+01 -0.89635254911E+01  0.84520888333E+01  0.15578180198E+02  0.00000000000E+00 0. -1.
        -12    1    5    5    0    0  0.54834665564E+02  0.20147983996E+02  0.33452439762E+03  0.33958703510E+03  0.00000000000E+00 0.  1.
          5    1    4    4  501    0  0.52202705366E+02  0.43255996882E+02  0.28792342536E+02  0.73774488155E+02  0.41800000000E+01 0. -1.
         -5    1    4    4    0  501 -0.11356767755E+02 -0.24137848209E+02 -0.55692325428E+02  0.61892805733E+02  0.41800000000E+01 0. -1.
</event>
<event>
11    1  0.8037748E-009  0.1376183E+03  0.7561462E-02  0.1110247E+00
         22   -1    0    0    0    0  0.00000000000E+00  0.00000000000E+00  0.18870277226E+04  0.18870277226E+04  0.00000000000E+00 0. -1.
         22   -1    0    0    0    0 -0.00000000000E+00 -0.00000000000E+00 -0.51899309104E+03  0.51899309104E+03  0.00000000000E+00 0. -1.
        -24    2    1    2    0    0  0.40301593467E+02  0.13855884622E+02 -0.49774154103E+03  0.50624399696E+03  0.81976452820E+02 0.  0.
         25    2    1    2    0    0 -0.93870520365E+02 -0.10902818693E+02  0.38350908924E+03  0.41431391516E+03  0.12508498198E+03 0.  0.
         24    2    1    2    0    0  0.53568926898E+02 -0.29530659295E+01  0.14822670833E+04  0.14854629015E+04  0.81277148501E+02 0.  0.
        -13    1    5    5    0    0  0.11606770699E+02  0.19377669360E+02  0.10622283137E+03  0.10859788718E+03  0.00000000000E+00 0.  1.
         14    1    5    5    0    0  0.41962156199E+02 -0.22330735289E+02  0.13760442520E+04  0.13768650143E+04  0.00000000000E+00 0. -1.
         11    1    3    3    0    0  0.37514865801E+02  0.46388226939E+02 -0.31138769376E+03  0.31705130275E+03  0.00000000000E+00 0. -1.
        -12    1    3    3    0    0  0.27867276656E+01 -0.32532342317E+02 -0.18635384728E+03  0.18919269421E+03  0.00000000000E+00 0.  1.
          5    1    4    4  501    0 -0.16777245839E+02  0.43997336236E+02  0.55529147216E+02  0.72925991007E+02  0.41800000000E+01 0.  1.
         -5    1    4    4    0  501 -0.77093274525E+02 -0.54900154929E+02  0.32797994202E+03  0.34138792415E+03  0.41800000000E+01 0.  1.
</event>
<event>
11    1  0.8037748E-009  0.2206543E+03  0.7561462E-02  0.1040808E+00
         22   -1    0    0    0    0  0.00000000000E+00  0.00000000000E+00  0.26025522039E+03  0.26025522039E+03  0.00000000000E+00 0.  1.
         22   -1    0    0    0    0 -0.00000000000E+00 -0.00000000000E+00 -0.45976140581E+03  0.45976140581E+03  0.00000000000E+00 0.  1.
        -24    2    1    2    0    0 -0.28295078921E+01  0.34706181607E+02 -0.15604540531E+03  0.17641119371E+03  0.74553441186E+02 0.  0.
         25    2    1    2    0    0 -0.16776915748E+03  0.35148277958E+02 -0.19809795155E+03  0.29029716840E+03  0.12509099060E+03 0.  0.
         24    2    1    2    0    0  0.17059866537E+03 -0.69854459565E+02  0.15463717144E+03  0.25330826410E+03  0.79176206814E+02 0.  0.
        -11    1    5    5    0    0  0.15694862225E+03 -0.45218761806E+02  0.15495573276E+03  0.22514192315E+03  0.00000000000E+00 0.  1.
         12    1    5    5    0    0  0.13650043116E+02 -0.24635697759E+02 -0.31856132080E+00  0.28166340949E+02  0.00000000000E+00 0. -1.
         11    1    3    3    0    0 -0.11693767022E+02  0.45579029731E+02 -0.15540008391E+03  0.16236803324E+03  0.00000000000E+00 0. -1.
        -12    1    3    3    0    0  0.88642591295E+01 -0.10872848124E+02 -0.64532139203E+00  0.14043160469E+02  0.00000000000E+00 0.  1.
          5    1    4    4  501    0 -0.11972802818E+03  0.80146746285E+02 -0.11621009887E+03  0.18515010438E+03  0.41800000000E+01 0.  1.
         -5    1    4    4    0  501 -0.48041129298E+02 -0.44998468327E+02 -0.81887852677E+02  0.10514706402E+03  0.41800000000E+01 0.  1.
</event>
<event>
11    1  0.8037748E-009  0.1298097E+03  0.7561462E-02  0.1119503E+00
         22   -1    0    0    0    0  0.00000000000E+00  0.00000000000E+00  0.44091531063E+03  0.44091531063E+03  0.00000000000E+00 0. -1.
         22   -1    0    0    0    0 -0.00000000000E+00 -0.00000000000E+00 -0.63554870866E+03  0.63554870866E+03  0.00000000000E+00 0. -1.
        -24    2    1    2    0    0 -0.16380032497E+02 -0.31863831566E+02 -0.52658452430E+03  0.53702334293E+03  0.99091878518E+02 0.  0.
         25    2    1    2    0    0  0.21322504099E+02  0.17705184825E+02 -0.58503555729E+02  0.14084812169E+03  0.12508958629E+03 0.  0.
         24    2    1    2    0    0 -0.49424716016E+01  0.14158646741E+02  0.39045468200E+03  0.39859255468E+03  0.78716393770E+02 0.  0.
        -13    1    5    5    0    0  0.39411135138E+01  0.52215984570E+01 -0.12709541412E+01  0.66642922058E+01  0.00000000000E+00 0.  1.
         14    1    5    5    0    0 -0.88835851154E+01  0.89370482840E+01  0.39172563614E+03  0.39192826247E+03  0.00000000000E+00 0. -1.
         13    1    3    3    0    0 -0.11904062128E+02  0.13318504817E+02 -0.42923314614E+03  0.42960468225E+03  0.00000000000E+00 0. -1.
        -14    1    3    3    0    0 -0.44759703690E+01 -0.45182336383E+02 -0.97351378160E+02  0.10741866068E+03  0.00000000000E+00 0.  1.
          5    1    4    4  501    0 -0.46352512817E+02  0.17011591326E+02 -0.53399641847E+02  0.72848773725E+02  0.41800000000E+01 0.  1.
         -5    1    4    4    0  501  0.67675016916E+02  0.69359349887E+00 -0.51039138825E+01  0.67999347963E+02  0.41800000000E+01 0.  1.
</event>
<event>
11    1  0.9953499E-009  0.1536408E+03  0.7561462E-02  0.1093216E+00
         22   -1    0    0    0    0  0.00000000000E+00  0.00000000000E+00  0.11961683312E+04  0.11961683312E+04  0.00000000000E+00 0. -1.
         22   -1    0    0    0    0 -0.00000000000E+00 -0.00000000000E+00 -0.19332160963E+04  0.19332160963E+04  0.00000000000E+00 0.  1.
         24    2    1    2    0    0  0.16388364550E+02 -0.14382682158E+02 -0.16082658613E+04  0.16104395911E+04  0.80753674031E+02 0.  0.
         25    2    1    2    0    0  0.44172710103E+02  0.79892858827E+02 -0.30208227763E+03  0.33946278249E+03  0.12508869266E+03 0.  0.
        -24    2    1    2    0    0 -0.60561074653E+02 -0.65510176669E+02  0.11733003738E+04  0.11794820540E+04  0.81147528418E+02 0.  0.
        -11    1    3    3    0    0 -0.93365818363E+01  0.17643721256E+02 -0.11886925607E+04  0.11888601585E+04  0.00000000000E+00 0.  1.
         12    1    3    3    0    0  0.25724946386E+02 -0.32026403414E+02 -0.41957330064E+03  0.42157943260E+03  0.00000000000E+00 0. -1.
         13    1    5    5    0    0 -0.26257203086E+02 -0.45419501969E+02  0.10118567918E+04  0.10132159390E+04  0.00000000000E+00 0. -1.
        -14    1    5    5    0    0 -0.34303871566E+02 -0.20090674700E+02  0.16144358206E+03  0.16626611501E+03  0.00000000000E+00 0.  1.
          5    1    4    4  501    0 -0.30012645002E+02 -0.76074049274E+01 -0.26643162014E+02  0.41060467019E+02  0.41800000000E+01 0.  1.
         -5    1    4    4    0  501  0.74185355104E+02  0.87500263754E+02 -0.27543911561E+03  0.29840231547E+03  0.41800000000E+01 0.  1.
</event>
<event>
11    1  0.8037748E-009  0.1425289E+03  0.7561462E-02  0.1104767E+00
         22   -1    0    0    0    0  0.00000000000E+00  0.00000000000E+00  0.73281921027E+03  0.73281921027E+03  0.00000000000E+00 0.  1.
         22   -1    0    0    0    0 -0.00000000000E+00 -0.00000000000E+00 -0.27542384497E+03  0.27542384497E+03  0.00000000000E+00 0. -1.
         24    2    1    2    0    0 -0.31791759095E+00  0.66618268473E+02 -0.23235372275E+03  0.25426505316E+03  0.78894676716E+02 0.  0.
         25    2    1    2    0    0  0.16474672667E+02 -0.10572356546E+03  0.21510070555E+03  0.27085981618E+03  0.12509132406E+03 0.  0.
        -24    2    1    2    0    0 -0.16156755076E+02  0.39105296989E+02  0.47464838249E+03  0.48311818591E+03  0.79509933782E+02 0.  0.
        -11    1    3    3    0    0  0.57770890672E+01 -0.17731794865E+02 -0.39312571600E+02  0.43511717882E+02  0.00000000000E+00 0.  1.
         12    1    3    3    0    0 -0.60950066581E+01  0.84350063338E+02 -0.19304115115E+03  0.21075333527E+03  0.00000000000E+00 0. -1.
         13    1    5    5    0    0  0.13241803773E+00 -0.13758610009E+02  0.15816036534E+02  0.20963394181E+02  0.00000000000E+00 0. -1.
        -14    1    5    5    0    0 -0.16289173113E+02  0.52863906998E+02  0.45883234596E+03  0.46215479173E+03  0.00000000000E+00 0.  1.
          5    1    4    4  501    0 -0.50999296065E+02 -0.57426183774E+02  0.71827093826E+02  0.10523924453E+03  0.41800000000E+01 0. -1.
         -5    1    4    4    0  501  0.67473968732E+02 -0.48297381688E+02  0.14327361173E+03  0.16562057164E+03  0.41800000000E+01 0. -1.
</event>
<event>
11    1  0.8037748E-009  0.1546778E+03  0.7561462E-02  0.1092193E+00
         22   -1    0    0    0    0  0.00000000000E+00  0.00000000000E+00  0.60774477132E+03  0.60774477132E+03  0.00000000000E+00 0.  1.
         22   -1    0    0    0    0 -0.00000000000E+00 -0.00000000000E+00 -0.10711615355E+03  0.10711615355E+03  0.00000000000E+00 0.  1.
        -24    2    1    2    0    0 -0.52591012166E+02 -0.63260467412E+02  0.13795857777E+01  0.11476855491E+03  0.80013852810E+02 0.  0.
         25    2    1    2    0    0  0.71386285760E+02  0.89518129203E+02  0.11062924974E+03  0.20247390294E+03  0.12508938094E+03 0.  0.
         24    2    1    2    0    0 -0.18795273594E+02 -0.26257661791E+02  0.38861978226E+03  0.39761846702E+03  0.77668417243E+02 0.  0.
        -13    1    5    5    0    0 -0.10156700901E+02 -0.35379970979E+02  0.38131135356E+03  0.38308386715E+03  0.00000000000E+00 0.  1.
         14    1    5    5    0    0 -0.86385726933E+01  0.91223091880E+01  0.73084286980E+01  0.14534599861E+02  0.00000000000E+00 0. -1.
         11    1    3    3    0    0 -0.33736884333E+02 -0.52204004050E+02  0.37468936028E+02  0.72576556617E+02  0.00000000000E+00 0. -1.
        -12    1    3    3    0    0 -0.18854127833E+02 -0.11056463362E+02 -0.36089350251E+02  0.42191998293E+02  0.00000000000E+00 0.  1.
          5    1    4    4  501    0 -0.14284559467E+01  0.35024501665E+02 -0.22004964848E+02  0.41598642781E+02  0.41800000000E+01 0. -1.
         -5    1    4    4    0  501  0.72814741707E+02  0.54493627538E+02  0.13263421458E+03  0.16087526016E+03  0.41800000000E+01 0. -1.
</event>
<event>
11    1  0.8037748E-009  0.1300305E+03  0.7561462E-02  0.1119231E+00
         22   -1    0    0    0    0  0.00000000000E+00  0.00000000000E+00  0.57874828208E+03  0.57874828208E+03  0.00000000000E+00 0.  1.
         22   -1    0    0    0    0 -0.00000000000E+00 -0.00000000000E+00 -0.59722551517E+03  0.59722551517E+03  0.00000000000E+00 0.  1.
         24    2    1    2    0    0  0.61262975807E+01  0.14381953504E+01 -0.48667564655E+03  0.49333083217E+03  0.80514129793E+02 0.  0.
         25    2    1    2    0    0 -0.26361478301E+02  0.27673257360E+02 -0.62297101183E+02  0.14486905881E+03  0.12508148813E+03 0.  0.
        -24    2    1    2    0    0  0.20235180720E+02 -0.29111452711E+02  0.53049551465E+03  0.53777390627E+03  0.80736261854E+02 0.  0.
        -13    1    3    3    0    0  0.35787129127E+01 -0.98756053213E+01 -0.47966374972E+03  0.47977874855E+03  0.00000000000E+00 0.  1.
         14    1    3    3    0    0  0.25475846680E+01  0.11313800672E+02 -0.70118968342E+01  0.13552083622E+02  0.00000000000E+00 0. -1.
         13    1    5    5    0    0 -0.24101039632E+02  0.11990710180E+02  0.19872359678E+03  0.20053853784E+03  0.00000000000E+00 0. -1.
        -14    1    5    5    0    0  0.44336220352E+02 -0.41102162891E+02  0.33177191787E+03  0.33723536843E+03  0.00000000000E+00 0.  1.
          5    1    4    4  501    0 -0.55173720542E+02  0.63593444027E+02 -0.44542021933E+02  0.95340073839E+02  0.41800000000E+01 0. -1.
         -5    1    4    4    0  501  0.28812242241E+02 -0.35920186667E+02 -0.17755079249E+02  0.49528984971E+02  0.41800000000E+01 0. -1.
</event>
<event>
11    1  0.8037748E-009  0.1350073E+03  0.7561462E-02  0.1113265E+00
         22   -1    0    0    0    0  0.00000000000E+00  0.00000000000E+00  0.26727286519E+03  0.26727286519E+03  0.00000000000E+00 0. -1.
         22   -1    0    0    0    0 -0.00000000000E+00 -0.00000000000E+00 -0.27118829480E+03  0.27118829480E+03  0.00000000000E+00 0.  1.
        -24    2    1    2    0    0 -0.15187072178E+02  0.25069268966E+02 -0.17089818680E+03  0.19082116199E+03  0.79670635777E+02 0.  0.
         25    2    1    2    0    0 -0.20993456258E+02 -0.59368970076E+02 -0.16480635467E+02  0.14101338173E+03  0.12509101753E+03 0.  0.
         24    2    1    2    0    0  0.36180528436E+02  0.34299701110E+02  0.18346339266E+03  0.20662661627E+03  0.80933565154E+02 0.  0.
        -11    1    5    5    0    0  0.56675571568E+02  0.29167745535E+02  0.86851012747E+02  0.10773103642E+03  0.00000000000E+00 0.  1.
         12    1    5    5    0    0 -0.20495043132E+02  0.51319555745E+01  0.96612379918E+02  0.98895579852E+02  0.00000000000E+00 0. -1.
         13    1    3    3    0    0 -0.12629251499E+02  0.48595756901E+02 -0.64054952778E+02  0.81388466982E+02  0.00000000000E+00 0. -1.
        -14    1    3    3    0    0 -0.25578206792E+01 -0.23526487936E+02 -0.10684323402E+03  0.10943269501E+03  0.00000000000E+00 0.  1.
          5    1    4    4  501    0  0.25651797226E+02 -0.13472863343E+02 -0.56896776903E+02  0.63986313923E+02  0.41800000000E+01 0.  1.
         -5    1    4    4    0  501 -0.46645253484E+02 -0.45896106733E+02  0.40416141435E+02  0.77027067803E+02  0.41800000000E+01 0.  1.
</event>
<event>
11    1  0.8037748E-009  0.1286619E+03  0.7561462E-02  0.1120924E+00
         22   -1    0    0    0    0  0.00000000000E+00  0.00000000000E+00  0.45177175419E+03  0.45177175419E+03  0.00000000000E+00 0. -1.
         22   -1    0    0    0    0 -0.00000000000E+00 -0.00000000000E+00 -0.20654929935E+03  0.20654929935E+03  0.00000000000E+00 0.  1.
         24    2    1    2    0    0 -0.30703729289E+02 -0.70780339036E+01 -0.16246800216E+03  0.18531891763E+03  0.83393236823E+02 0.  0.
         25    2    1    2    0    0  0.31029957541E+01  0.28848873623E+02  0.13426734200E+03  0.18578911007E+03  0.12509191900E+03 0.  0.
        -24    2    1    2    0    0  0.27600733535E+02 -0.21770839719E+02  0.27342311500E+03  0.28721302585E+03  0.80593749442E+02 0.  0.
        -13    1    3    3    0    0 -0.54868820996E+02  0.13441894714E+02 -0.90595075564E+02  0.10676488078E+03  0.00000000000E+00 0.  1.
         14    1    3    3    0    0  0.24165091706E+02 -0.20519928617E+02 -0.71872926599E+02  0.78554036850E+02  0.00000000000E+00 0. -1.
         11    1    5    5    0    0  0.43548615172E+01  0.27772702817E+02  0.14361352200E+03  0.14633909779E+03  0.00000000000E+00 0. -1.
        -12    1    5    5    0    0  0.23245872018E+02 -0.49543542537E+02  0.12980959299E+03  0.14087392806E+03  0.00000000000E+00 0.  1.
          5    1    4    4  501    0  0.89825719969E+01  0.76307081162E+02  0.60984242325E+02  0.98183539593E+02  0.41800000000E+01 0. -1.
         -5    1    4    4    0  501 -0.58795762427E+01 -0.47458207539E+02  0.73283099678E+02  0.87605570474E+02  0.41800000000E+01 0. -1.
</event>
<event>
11    1  0.8037748E-009  0.1400740E+03  0.7561462E-02  0.1107476E+00
         22   -1    0    0    0    0  0.00000000000E+00  0.00000000000E+00  0.49338551668E+03  0.49338551668E+03  0.00000000000E+00 0.  1.
         22   -1    0    0    0    0 -0.00000000000E+00 -0.00000000000E+00 -0.61418540403E+03  0.61418540403E+03  0.00000000000E+00 0.  1.
         24    2    1    2    0    0  0.23196276803E+02 -0.15105467167E+02 -0.47018994142E+03  0.47723551581E+03  0.76869461695E+02 0.  0.
         25    2    1    2    0    0  0.76221434874E+01 -0.40941628808E+02 -0.10240538666E+03  0.16696760809E+03  0.12512795408E+03 0.  0.
        -24    2    1    2    0    0 -0.30818420290E+02  0.56047095975E+02  0.45179544073E+03  0.46336779682E+03  0.80619742388E+02 0.  0.
        -11    1    3    3    0    0  0.23912330366E+02 -0.21147584715E+02 -0.47006721685E+03  0.47114987874E+03  0.00000000000E+00 0.  1.
         12    1    3    3    0    0 -0.71605356268E+00  0.60421175485E+01 -0.12272456973E+00  0.60856370656E+01  0.00000000000E+00 0. -1.
         11    1    5    5    0    0  0.10604097082E+02  0.23780946297E+02  0.36892622365E+02  0.45155795494E+02  0.00000000000E+00 0. -1.
        -12    1    5    5    0    0 -0.41422517372E+02  0.32266149678E+02  0.41490281837E+03  0.41821200132E+03  0.00000000000E+00 0.  1.
          5    1    4    4  501    0  0.33956592292E+02 -0.78165379663E+02 -0.75017892326E+02  0.11361352607E+03  0.41800000000E+01 0. -1.
         -5    1    4    4    0  501 -0.26334448805E+02  0.37223750855E+02 -0.27387494337E+02  0.53354082015E+02  0.41800000000E+01 0. -1.
</event>
<event>
11    1  0.8037748E-009  0.1466094E+03  0.7561462E-02  0.1100395E+00
         22   -1    0    0    0    0  0.00000000000E+00  0.00000000000E+00  0.29579741171E+03  0.29579741171E+03  0.00000000000E+00 0. -1.
         22   -1    0    0    0    0 -0.00000000000E+00 -0.00000000000E+00 -0.33042473628E+03  0.33042473628E+03  0.00000000000E+00 0. -1.
        -24    2    1    2    0    0 -0.20886447078E+02  0.80421425163E+01 -0.12761579966E+03  0.15213245336E+03  0.79734379756E+02 0.  0.
         25    2    1    2    0    0  0.61799172338E+01  0.67847922270E+02 -0.14811979393E+03  0.20549808717E+03  0.12509379897E+03 0.  0.
         24    2    1    2    0    0  0.14706529844E+02 -0.75890064786E+02  0.24110826902E+03  0.26859160747E+03  0.89625165320E+02 0.  0.
        -13    1    5    5    0    0 -0.21170814854E+02  0.81529378724E+01  0.23945130807E+02  0.32985498130E+02  0.00000000000E+00 0.  1.
         14    1    5    5    0    0  0.35877344698E+02 -0.84043002659E+02  0.21716313821E+03  0.23560610934E+03  0.00000000000E+00 0. -1.
         11    1    3    3    0    0 -0.10284196331E+02 -0.35280381923E+01 -0.13454069142E+03  0.13497929247E+03  0.00000000000E+00 0. -1.
        -12    1    3    3    0    0 -0.10602250747E+02  0.11570180709E+02  0.69248917640E+01  0.17153160889E+02  0.00000000000E+00 0.  1.
          5    1    4    4  501    0 -0.33856240692E+02 -0.54900207742E+01  0.94152011717E+00  0.34565072284E+02  0.41800000000E+01 0. -1.
         -5    1    4    4    0  501  0.40036157925E+02  0.73337943044E+02 -0.14906131405E+03  0.17093301488E+03  0.41800000000E+01 0. -1.
</event>
<event>
11    1  0.8037748E-009  0.1991361E+03  0.7561462E-02  0.1055136E+00
         22   -1    0    0    0    0  0.00000000000E+00  0.00000000000E+00  0.44279556554E+03  0.44279556554E+03  0.00000000000E+00 0. -1.
         22   -1    0    0    0    0 -0.00000000000E+00 -0.00000000000E+00 -0.23060868888E+03  0.23060868888E+03  0.00000000000E+00 0. -1.
        -24    2    1    2    0    0  0.67925303522E+01  0.27707559508E+02 -0.12421297144E+03  0.14999570169E+03  0.79094885596E+02 0.  0.
         25    2    1    2    0    0  0.13739952857E+03 -0.81120157803E+02  0.89159674291E+02  0.22148870192E+03  0.12509471253E+03 0.  0.
         24    2    1    2    0    0 -0.14419205892E+03  0.53412598295E+02  0.24724017382E+03  0.30191985082E+03  0.79897667392E+02 0.  0.
        -13    1    5    5    0    0 -0.13265481923E+02  0.18495358045E+02  0.34745464686E+01  0.23024416454E+02  0.00000000000E+00 0.  1.
         14    1    5    5    0    0 -0.13092657700E+03  0.34917240250E+02  0.24376562735E+03  0.27889543436E+03  0.00000000000E+00 0. -1.
         13    1    3    3    0    0  0.23218956540E+02  0.31132026051E+02 -0.12716061070E+03  0.13295918134E+03  0.00000000000E+00 0. -1.
        -14    1    3    3    0    0 -0.16426426187E+02 -0.34244665439E+01  0.29476392561E+01  0.17036520349E+02  0.00000000000E+00 0.  1.
          5    1    4    4  501    0  0.12956408123E+03 -0.22520138492E+02  0.94479910077E+02  0.16198127543E+03  0.41800000000E+01 0.  1.
         -5    1    4    4    0  501  0.78354473447E+01 -0.58600019311E+02 -0.53202357857E+01  0.59507426487E+02  0.41800000000E+01 0.  1.
</event>
<event>
11    1  0.8037748E-009  0.1819654E+03  0.7561462E-02  0.1068064E+00
         22   -1    0    0    0    0  0.00000000000E+00  0.00000000000E+00  0.38816025685E+03  0.38816025685E+03  0.00000000000E+00 0.  1.
         22   -1    0    0    0    0 -0.00000000000E+00 -0.00000000000E+00 -0.58020472411E+03  0.58020472411E+03  0.00000000000E+00 0. -1.
        -24    2    1    2    0    0 -0.13662159913E+02  0.63029751984E+02 -0.47075453024E+03  0.48223148058E+03  0.82328420809E+02 0.  0.
         25    2    1    2    0    0 -0.94243685254E+02  0.30368254715E+02 -0.43348746690E+01  0.15959768909E+03  0.12509407708E+03 0.  0.
         24    2    1    2    0    0  0.10790584517E+03 -0.93398006699E+02  0.28304493765E+03  0.32653581128E+03  0.78385842109E+02 0.  0.
        -13    1    5    5    0    0  0.67960445477E+02 -0.57565679371E+02  0.24519134301E+03  0.26086629579E+03  0.00000000000E+00 0.  1.
         14    1    5    5    0    0  0.39945399690E+02 -0.35832327328E+02  0.37853594643E+02  0.65669515496E+02  0.00000000000E+00 0. -1.
         13    1    3    3    0    0 -0.65514534266E+01  0.45830908821E+02 -0.91737337691E+02  0.10275764143E+03  0.00000000000E+00 0. -1.
        -14    1    3    3    0    0 -0.71107064859E+01  0.17198843163E+02 -0.37901719255E+03  0.37947383916E+03  0.00000000000E+00 0.  1.
          5    1    4    4  501    0 -0.98190933965E+01  0.52825040688E+02  0.34408850480E+02  0.63940135363E+02  0.41800000000E+01 0.  1.
         -5    1    4    4    0  501 -0.84424591858E+02 -0.22456785974E+02 -0.38743725149E+02  0.95657553727E+02  0.41800000000E+01 0.  1.
</event>
<event>
11    1  0.8037748E-009  0.1281692E+03  0.7561462E-02  0.1121539E+00
         22   -1    0    0    0    0  0.00000000000E+00  0.00000000000E+00  0.22440819946E+03  0.22440819946E+03  0.00000000000E+00 0.  1.
         22   -1    0    0    0    0 -0.00000000000E+00 -0.00000000000E+00 -0.14070915423E+04  0.14070915423E+04  0.00000000000E+00 0.  1.
        -24    2    1    2    0    0  0.56220299702E+01 -0.74732859175E+01 -0.12824142315E+04  0.12849350475E+04  0.79902176886E+02 0.  0.
         25    2    1    2    0    0 -0.57171679745E+01  0.34804701560E+02 -0.76830442219E+02  0.15098086226E+03  0.12509296805E+03 0.  0.
         24    2    1    2    0    0  0.95138004290E-01 -0.27331415642E+02  0.17656133090E+03  0.19558383199E+03  0.79574596667E+02 0.  0.
        -11    1    5    5    0    0  0.48660339634E+01 -0.43400032187E+02  0.17302705379E+03  0.17845336204E+03  0.00000000000E+00 0.  1.
         12    1    5    5    0    0 -0.47708959591E+01  0.16068616544E+02  0.35342771049E+01  0.17130469945E+02  0.00000000000E+00 0. -1.
         11    1    3    3    0    0 -0.10833369395E+02  0.18588701216E+02 -0.10830661337E+03  0.11042293333E+03  0.00000000000E+00 0. -1.
        -12    1    3    3    0    0  0.16455399365E+02 -0.26061987133E+02 -0.11741076181E+04  0.11745121142E+04  0.00000000000E+00 0.  1.
          5    1    4    4  501    0  0.12345937777E+00 -0.20422690146E+02 -0.91128338779E+02  0.93482340812E+02  0.41800000000E+01 0.  1.
         -5    1    4    4    0  501 -0.58406273523E+01  0.55227391706E+02  0.14297896560E+02  0.57498521447E+02  0.41800000000E+01 0.  1.
</event>
<event>
11    1  0.8037748E-009  0.1289810E+03  0.7561462E-02  0.1120527E+00
         22   -1    0    0    0    0  0.00000000000E+00  0.00000000000E+00  0.14569411945E+04  0.14569411945E+04  0.00000000000E+00 0. -1.
         22   -1    0    0    0    0 -0.00000000000E+00 -0.00000000000E+00 -0.45728270806E+02  0.45728270806E+02  0.00000000000E+00 0.  1.
        -24    2    1    2    0    0 -0.30164533893E+01 -0.18828870065E+02  0.13109929316E+02  0.80729603617E+02  0.77341924689E+02 0.  0.
         25    2    1    2    0    0  0.40863831844E+01 -0.16344747798E+02  0.40889088362E+03  0.42792985178E+03  0.12509338124E+03 0.  0.
         24    2    1    2    0    0 -0.10699297951E+01  0.35173617863E+02  0.98921211080E+03  0.99401000995E+03  0.90977863153E+02 0.  0.
        -11    1    5    5    0    0 -0.14173387813E+02  0.35417588650E+02  0.15262714007E+03  0.15732238999E+03  0.00000000000E+00 0.  1.
         12    1    5    5    0    0  0.13103458018E+02 -0.24397078732E+00  0.83658497073E+03  0.83668761995E+03  0.00000000000E+00 0. -1.
         11    1    3    3    0    0  0.15986547249E+02  0.24255699396E+02 -0.64200083659E+01  0.29751052983E+02  0.00000000000E+00 0. -1.
        -12    1    3    3    0    0 -0.19003000639E+02 -0.43084569461E+02  0.19529937682E+02  0.50978550635E+02  0.00000000000E+00 0.  1.
          5    1    4    4  501    0  0.51362339933E+02 -0.25800916378E+02  0.10121987786E+03  0.11647623501E+03  0.41800000000E+01 0. -1.
         -5    1    4    4    0  501 -0.47275956749E+02  0.94561685802E+01  0.30767100576E+03  0.31145361676E+03  0.41800000000E+01 0. -1.
</event>
<event>
11    1  0.8037748E-009  0.1990965E+03  0.7561462E-02  0.1055164E+00
         22   -1    0    0    0    0  0.00000000000E+00  0.00000000000E+00  0.89328154211E+03  0.89328154211E+03  0.00000000000E+00 0. -1.
         22   -1    0    0    0    0 -0.00000000000E+00 -0.00000000000E+00 -0.17306367718E+04  0.17306367718E+04  0.00000000000E+00 0.  1.
         24    2    1    2    0    0  0.76646289199E+01  0.15397273276E+02 -0.16301115981E+04  0.16321925169E+04  0.80577710272E+02 0.  0.
         25    2    1    2    0    0  0.60095432170E+02 -0.15357078314E+03  0.28903909719E+02  0.20899556795E+03  0.12509302548E+03 0.  0.
        -24    2    1    2    0    0 -0.67760061089E+02  0.13817350986E+03  0.76385245873E+03  0.78273022902E+03  0.74247478186E+02 0.  0.
        -13    1    3    3    0    0  0.55488533051E+01  0.25172731117E+02 -0.16043559126E+04  0.16045629780E+04  0.00000000000E+00 0.  1.
         14    1    3    3    0    0  0.21157756148E+01 -0.97754578409E+01 -0.25755685487E+02  0.27629538856E+02  0.00000000000E+00 0. -1.
         11    1    5    5    0    0 -0.69183025231E+02  0.13157669001E+03  0.76103369040E+03  0.77541665849E+03  0.00000000000E+00 0. -1.
        -12    1    5    5    0    0  0.14229641419E+01  0.65968198506E+01  0.28187683243E+01  0.73135705340E+01  0.00000000000E+00 0.  1.
          5    1    4    4  501    0 -0.39826476886E+01 -0.54368793119E+02  0.65468813618E+02  0.85296336993E+02  0.41800000000E+01 0. -1.
         -5    1    4    4    0  501  0.64078079858E+02 -0.99201990019E+02 -0.36564903899E+02  0.12369923096E+03  0.41800000000E+01 0. -1.
</event>
<event>
11    1  0.8037748E-009  0.1788629E+03  0.7561462E-02  0.1070566E+00
         22   -1    0    0    0    0  0.00000000000E+00  0.00000000000E+00  0.21278348230E+03  0.21278348230E+03  0.00000000000E+00 0. -1.
         22   -1    0    0    0    0 -0.00000000000E+00 -0.00000000000E+00 -0.19593293969E+04  0.19593293969E+04  0.00000000000E+00 0. -1.
        -24    2    1    2    0    0 -0.28109705703E+02 -0.12624879862E+03 -0.18280378608E+04  0.18345307580E+04  0.83974797058E+02 0.  0.
         25    2    1    2    0    0  0.33469317624E+01  0.10364649484E+03 -0.61322476067E+02  0.17367143845E+03  0.12509006602E+03 0.  0.
         24    2    1    2    0    0  0.24762773940E+02  0.22602303787E+02  0.14281442228E+03  0.16391068281E+03  0.73121088741E+02 0.  0.
        -13    1    5    5    0    0 -0.12942674421E+02 -0.17645381175E+02  0.64614082110E+02  0.68219146175E+02  0.00000000000E+00 0.  1.
         14    1    5    5    0    0  0.37705448362E+02  0.40247684962E+02  0.78200340171E+02  0.95691536636E+02  0.00000000000E+00 0. -1.
         11    1    3    3    0    0  0.20278111734E+01 -0.73923399926E+02 -0.14327666325E+04  0.14346738320E+04  0.00000000000E+00 0. -1.
        -12    1    3    3    0    0 -0.30137516876E+02 -0.52325398698E+02 -0.39527122834E+03  0.39985692594E+03  0.00000000000E+00 0.  1.
          5    1    4    4  501    0  0.29900431040E+02 -0.49557074563E+01  0.18936681645E+02  0.35981455286E+02  0.41800000000E+01 0.  1.
         -5    1    4    4    0  501 -0.26553499278E+02  0.10860220229E+03 -0.80259157711E+02  0.13768998316E+03  0.41800000000E+01 0.  1.
</event>
<event>
11    1  0.8037748E-009  0.1611640E+03  0.7561462E-02  0.1085988E+00
         22   -1    0    0    0    0  0.00000000000E+00  0.00000000000E+00  0.98538660790E+03  0.98538660790E+03  0.00000000000E+00 0.  1.
         22   -1    0    0    0    0 -0.00000000000E+00 -0.00000000000E+00 -0.22036199457E+03  0.22036199457E+03  0.00000000000E+00 0. -1.
         24    2    1    2    0    0  0.75722692842E+02 -0.33594420042E+02 -0.10233656144E+03  0.15413787999E+03  0.80144887368E+02 0.  0.
         25    2    1    2    0    0 -0.11641741108E+03 -0.59435222228E+02  0.65315272987E+01  0.18104404420E+03  0.12509486740E+03 0.  0.
        -24    2    1    2    0    0  0.40694718235E+02  0.93029642271E+02  0.86082964746E+03  0.87056667828E+03  0.80920238209E+02 0.  0.
        -11    1    3    3    0    0  0.25209911620E+00 -0.25265600518E+02  0.17187782457E+01  0.25325250683E+02  0.00000000000E+00 0.  1.
         12    1    3    3    0    0  0.75470593726E+02 -0.83288195245E+01 -0.10405533968E+03  0.12881262930E+03  0.00000000000E+00 0. -1.
         11    1    5    5    0    0  0.59267616172E+01  0.83804250981E+02  0.42303541958E+03  0.43129716578E+03  0.00000000000E+00 0. -1.
        -12    1    5    5    0    0  0.34767956618E+02  0.92253912900E+01  0.43779422788E+03  0.43926951250E+03  0.00000000000E+00 0.  1.
          5    1    4    4  501    0  0.12281449072E+02 -0.60944626494E+01  0.35856196838E+02  0.38614967539E+02  0.41800000000E+01 0. -1.
         -5    1    4    4    0  501 -0.12869886015E+03 -0.53340759579E+02 -0.29324669540E+02  0.14242907667E+03  0.41800000000E+01 0. -1.
</event>
<event>
11    1  0.8037748E-009  0.1796380E+03  0.7561462E-02  0.1069936E+00
         22   -1    0    0    0    0  0.00000000000E+00  0.00000000000E+00  0.28140982765E+03  0.28140982765E+03  0.00000000000E+00 0. -1.
         22   -1    0    0    0    0 -0.00000000000E+00 -0.00000000000E+00 -0.95927335090E+03  0.95927335090E+03  0.00000000000E+00 0.  1.
        -24    2    1    2    0    0 -0.11774547810E+02 -0.44163033269E+02 -0.82598964867E+03  0.83114040095E+03  0.80289805694E+02 0.  0.
         25    2    1    2    0    0 -0.21300958495E+02 -0.93249130457E+02 -0.30094822046E+02  0.16031989438E+03  0.12509052345E+03 0.  0.
         24    2    1    2    0    0  0.33075506305E+02  0.13741216373E+03  0.17822094746E+03  0.24922288322E+03  0.10184914113E+03 0.  0.
        -13    1    5    5    0    0 -0.19775241777E+02 -0.84297846919E+00  0.32721057347E+01  0.20061841291E+02  0.00000000000E+00 0.  1.
         14    1    5    5    0    0  0.52850748082E+02  0.13825514220E+03  0.17494884173E+03  0.22916104193E+03  0.00000000000E+00 0. -1.
         13    1    3    3    0    0  0.76612957350E+01  0.75522027677E+01 -0.16068770211E+02  0.19337440241E+02  0.00000000000E+00 0. -1.
        -14    1    3    3    0    0 -0.19435843545E+02 -0.51715236037E+02 -0.80992087846E+03  0.81180296071E+03  0.00000000000E+00 0.  1.
          5    1    4    4  501    0  0.50707430552E+02 -0.39115394671E+02 -0.28242807528E+02  0.70116946529E+02  0.41800000000E+01 0.  1.
         -5    1    4    4    0  501 -0.72008389048E+02 -0.54133735785E+02 -0.18520145177E+01  0.90202947851E+02  0.41800000000E+01 0.  1.
</event>
<event>
11    1  0.8037748E-009  0.1297644E+03  0.7561462E-02  0.1119559E+00
         22   -1    0    0    0    0  0.00000000000E+00  0.00000000000E+00  0.41582575461E+03  0.41582575461E+03  0.00000000000E+00 0. -1.
         22   -1    0    0    0    0 -0.00000000000E+00 -0.00000000000E+00 -0.50287990513E+03  0.50287990513E+03  0.00000000000E+00 0.  1.
         24    2    1    2    0    0 -0.37556931446E+02  0.22743118203E+02 -0.45342173091E+03  0.46260473650E+03  0.80523932138E+02 0.  0.
         25    2    1    2    0    0  0.35287295824E+02  0.15275754108E+02  0.76527442627E+02  0.15159868870E+03  0.12508865268E+03 0.  0.
        -24    2    1    2    0    0  0.22696356220E+01 -0.38018872311E+02  0.28984013777E+03  0.30450223454E+03  0.85227457283E+02 0.  0.
        -13    1    3    3    0    0 -0.98450668734E+01  0.38488950565E+02 -0.97852381512E+02  0.10560972126E+03  0.00000000000E+00 0.  1.
         14    1    3    3    0    0 -0.27711864573E+02 -0.15745832363E+02 -0.35556934940E+03  0.35699501524E+03  0.00000000000E+00 0. -1.
         13    1    5    5    0    0 -0.16919052595E+02 -0.48405795805E+02  0.27058700434E+03  0.27540280014E+03  0.00000000000E+00 0. -1.
        -14    1    5    5    0    0  0.19188688217E+02  0.10386923494E+02  0.19253133440E+02  0.29099434400E+02  0.00000000000E+00 0.  1.
          5    1    4    4  501    0 -0.29877420967E+02  0.30936646548E+02  0.72408601675E+02  0.84322087141E+02  0.41800000000E+01 0.  1.
         -5    1    4    4    0  501  0.65164716791E+02 -0.15660892440E+02  0.41188409515E+01  0.67276601558E+02  0.41800000000E+01 0.  1.
</event>
<event>
11    1  0.8037748E-009  0.1825257E+03  0.7561462E-02  0.1067618E+00
         22   -1    0    0    0    0  0.00000000000E+00  0.00000000000E+00  0.98973577706E+03  0.98973577706E+03  0.00000000000E+00 0.  1.
         22   -1    0    0    0    0 -0.00000000000E+00 -0.00000000000E+00 -0.40592915207E+03  0.40592915207E+03  0.00000000000E+00 0.  1.
        -24    2    1    2    0    0  0.17059469521E+02  0.22134337892E+02 -0.36466072779E+03  0.37434768365E+03  0.79861050857E+02 0.  0.
         25    2    1    2    0    0 -0.13903963534E+03 -0.58481289447E+02  0.32163534180E+03  0.37663787093E+03  0.12511878882E+03 0.  0.
         24    2    1    2    0    0  0.12198016582E+03  0.36346951556E+02  0.62683201099E+03  0.64467937456E+03  0.80578311231E+02 0.  0.
        -11    1    5    5    0    0  0.13328554207E+03  0.34833894387E+02  0.59822230019E+03  0.61387975725E+03  0.00000000000E+00 0.  1.
         12    1    5    5    0    0 -0.11305376248E+02  0.15130571682E+01  0.28609710798E+02  0.30799617303E+02  0.00000000000E+00 0. -1.
         13    1    3    3    0    0 -0.23279469772E+02  0.12045691390E+02 -0.45661642580E+02  0.52649957237E+02  0.00000000000E+00 0. -1.
        -14    1    3    3    0    0  0.40338939293E+02  0.10088646501E+02 -0.31899908521E+03  0.32169772641E+03  0.00000000000E+00 0.  1.
          5    1    4    4  501    0  0.11931896786E+02 -0.39870968943E+02  0.93235566324E+02  0.10218809888E+03  0.41800000000E+01 0.  1.
         -5    1    4    4    0  501 -0.15097153213E+03 -0.18610320505E+02  0.22839977547E+03  0.27444977205E+03  0.41800000000E+01 0.  1.
</event>
<event>
11    1  0.8037748E-009  0.1614564E+03  0.7561462E-02  0.1085715E+00
         22   -1    0    0    0    0  0.00000000000E+00  0.00000000000E+00  0.15351523367E+04  0.15351523367E+04  0.00000000000E+00 0. -1.
         22   -1    0    0    0    0 -0.00000000000E+00 -0.00000000000E+00 -0.19122844413E+03  0.19122844413E+03  0.00000000000E+00 0. -1.
        -24    2    1    2    0    0  0.35761050272E+02 -0.10271495793E+03 -0.14313988366E+03  0.20102913419E+03  0.89969279201E+02 0.  0.
         25    2    1    2    0    0  0.34033558313E+02  0.47037151783E+02  0.27852906299E+03  0.31079563694E+03  0.12507882423E+03 0.  0.
         24    2    1    2    0    0 -0.69794608585E+02  0.55677806145E+02  0.12085347132E+04  0.12145560097E+04  0.81356266648E+02 0.  0.
        -13    1    5    5    0    0 -0.48033770693E+02  0.33770112299E+02  0.31124155827E+03  0.31673170224E+03  0.00000000000E+00 0.  1.
         14    1    5    5    0    0 -0.21760837892E+02  0.21907693846E+02  0.89729315493E+03  0.89782430742E+03  0.00000000000E+00 0. -1.
         11    1    3    3    0    0  0.56232135201E+02 -0.10634544058E+03 -0.12414150335E+03  0.17286560854E+03  0.00000000000E+00 0. -1.
        -12    1    3    3    0    0 -0.20471084930E+02  0.36304826562E+01 -0.18998380306E+02  0.28163525645E+02  0.00000000000E+00 0.  1.
          5    1    4    4  501    0 -0.40257730651E+02 -0.63636597055E+01  0.50297019638E+02  0.64872518268E+02  0.41800000000E+01 0. -1.
         -5    1    4    4    0  501  0.74291288964E+02  0.53400811489E+02  0.22823204336E+03  0.24592311867E+03  0.41800000000E+01 0. -1.
</event>
<event>
11    1  0.8037748E-009  0.1618759E+03  0.7561462E-02  0.1085326E+00
         22   -1    0    0    0    0  0.00000000000E+00  0.00000000000E+00  0.67729753680E+03  0.67729753680E+03  0.00000000000E+00 0. -1.
         22   -1    0    0    0    0 -0.00000000000E+00 -0.00000000000E+00 -0.18889584618E+03  0.18889584618E+03  0.00000000000E+00 0. -1.
         24    2    1    2    0    0 -0.31827098966E+02  0.14618370458E+02 -0.74606436462E+02  0.11488058730E+03  0.80029794404E+02 0.  0.
         25    2    1    2    0    0  0.99437590811E+02 -0.88540490440E+02  0.93945491187E+01  0.18294718159E+03  0.12511658878E+03 0.  0.
        -24    2    1    2    0    0 -0.67610491845E+02  0.73922119981E+02  0.55361357796E+03  0.56836561408E+03  0.80720623999E+02 0.  0.
        -11    1    3    3    0    0 -0.30575722045E+02 -0.10468796090E+02  0.38075095470E+01  0.32541782359E+02  0.00000000000E+00 0.  1.
         12    1    3    3    0    0 -0.12513769211E+01  0.25087166549E+02 -0.78413946009E+02  0.82338804937E+02  0.00000000000E+00 0. -1.
         13    1    5    5    0    0  0.88737065191E+01  0.38711149576E+02  0.25631267847E+03  0.25937132631E+03  0.00000000000E+00 0. -1.
        -14    1    5    5    0    0 -0.76484198364E+02  0.35210970405E+02  0.29730089950E+03  0.30899428777E+03  0.00000000000E+00 0.  1.
          5    1    4    4  501    0 -0.17588450715E+02 -0.42612771337E+02  0.30457565181E+02  0.55410626746E+02  0.41800000000E+01 0.  1.
         -5    1    4    4    0  501  0.11702604153E+03 -0.45927719102E+02 -0.21063016062E+02  0.12753655485E+03  0.41800000000E+01 0.  1.
</event>
<event>
11    1  0.8037748E-009  0.1481846E+03  0.7561462E-02  0.1098748E+00
         22   -1    0    0    0    0  0.00000000000E+00  0.00000000000E+00  0.68778959390E+03  0.68778959390E+03  0.00000000000E+00 0.  1.
         22   -1    0    0    0    0 -0.00000000000E+00 -0.00000000000E+00 -0.10267228476E+04  0.10267228476E+04  0.00000000000E+00 0. -1.
        -24    2    1    2    0    0  0.94247288534E+01 -0.30986754496E+02 -0.86396390922E+03  0.86828567797E+03  0.80233270360E+02 0.  0.
         25    2    1    2    0    0  0.66525150269E+02  0.54252888732E+02 -0.11882830108E+03  0.19270928197E+03  0.12509088962E+03 0.  0.
         24    2    1    2    0    0 -0.75949879123E+02 -0.23266134236E+02  0.64385895664E+03  0.65351748150E+03  0.78873604200E+02 0.  0.
        -13    1    5    5    0    0 -0.45678732305E+02  0.13123797150E+02  0.49587893509E+03  0.49815128115E+03  0.00000000000E+00 0.  1.
         14    1    5    5    0    0 -0.30271146818E+02 -0.36389931386E+02  0.14798002155E+03  0.15536620036E+03  0.00000000000E+00 0. -1.
         11    1    3    3    0    0 -0.28239426643E+02 -0.29024689564E+02 -0.63011532311E+03  0.63141525024E+03  0.00000000000E+00 0. -1.
        -12    1    3    3    0    0  0.37664155496E+02 -0.19620649321E+01 -0.23384858611E+03  0.23687042773E+03  0.00000000000E+00 0.  1.
          5    1    4    4  501    0 -0.15323256443E+02  0.27975959933E+01 -0.90433263306E+02  0.91860090592E+02  0.41800000000E+01 0. -1.
         -5    1    4    4    0  501  0.81848406712E+02  0.51455292738E+02 -0.28395037775E+02  0.10084919138E+03  0.41800000000E+01 0. -1.
</event>
<event>
11    1  0.8037748E-009  0.4404522E+03  0.7561462E-02  0.9537407E-01
         22   -1    0    0    0    0  0.00000000000E+00  0.00000000000E+00  0.85638415633E+03  0.85638415633E+03  0.00000000000E+00 0.  1.
         22   -1    0    0    0    0 -0.00000000000E+00 -0.00000000000E+00 -0.84498547249E+03  0.84498547249E+03  0.00000000000E+00 0.  1.
        -24    2    1    2    0    0  0.20022154054E+03 -0.16264228295E+03 -0.63825275345E+03  0.69305850858E+03  0.80139512948E+02 0.  0.
         25    2    1    2    0    0 -0.35442957859E+03  0.26049700092E+03  0.66605784722E+03  0.80793505564E+03  0.12508790760E+03 0.  0.
         24    2    1    2    0    0  0.15420803805E+03 -0.97854717978E+02 -0.16406409940E+02  0.20037606460E+03  0.80782003862E+02 0.  0.
        -11    1    5    5    0    0  0.13677527281E+03 -0.74183247197E+02 -0.42251977914E+02  0.16123231392E+03  0.00000000000E+00 0.  1.
         12    1    5    5    0    0  0.17432765241E+02 -0.23671470781E+02  0.25845567974E+02  0.39143750674E+02  0.00000000000E+00 0. -1.
         13    1    3    3    0    0 -0.50452047690E+01 -0.33691308492E+01 -0.45011710399E+02  0.45418709877E+02  0.00000000000E+00 0. -1.
        -14    1    3    3    0    0  0.20526674531E+03 -0.15927315210E+03 -0.59324104305E+03  0.64763979870E+03  0.00000000000E+00 0.  1.
          5    1    4    4  501    0  0.37718072006E+01  0.13347326363E+01 -0.25773405123E+01  0.63342817182E+01  0.41800000000E+01 0.  1.
         -5    1    4    4    0  501 -0.35820138579E+03  0.25916226829E+03  0.66863518773E+03  0.80160077393E+03  0.41800000000E+01 0.  1.
</event>
<event>
11    1  0.8037748E-009  0.1366534E+03  0.7561462E-02  0.1111354E+00
         22   -1    0    0    0    0  0.00000000000E+00  0.00000000000E+00  0.17549989196E+04  0.17549989196E+04  0.00000000000E+00 0. -1.
         22   -1    0    0    0    0 -0.00000000000E+00 -0.00000000000E+00 -0.45552801695E+03  0.45552801695E+03  0.00000000000E+00 0. -1.
        -24    2    1    2    0    0 -0.43654343049E+02 -0.18457215865E+02 -0.31811875351E+03  0.33186723350E+03  0.81792107501E+02 0.  0.
         25    2    1    2    0    0  0.83774521681E+02 -0.18811021408E+02 -0.84582507109E+02  0.17372115014E+03  0.12511120048E+03 0.  0.
         24    2    1    2    0    0 -0.40120178632E+02  0.37268237274E+02  0.17021721633E+04  0.17049385529E+04  0.80167609109E+02 0.  0.
        -11    1    5    5    0    0  0.11328330000E+02 -0.15549938569E+02  0.59673044005E+03  0.59704049254E+03  0.00000000000E+00 0.  1.
         12    1    5    5    0    0 -0.51448508632E+02  0.52818175843E+02  0.11054417233E+04  0.11078980604E+04  0.00000000000E+00 0. -1.
         11    1    3    3    0    0  0.89536900542E+01 -0.36069275460E+02 -0.16125261261E+03  0.16547980623E+03  0.00000000000E+00 0. -1.
        -12    1    3    3    0    0 -0.52608033103E+02  0.17612059595E+02 -0.15686614091E+03  0.16638742727E+03  0.00000000000E+00 0.  1.
          5    1    4    4  501    0 -0.23902651720E+02  0.44027399000E+01  0.11760351468E+02  0.27322136530E+02  0.41800000000E+01 0.  1.
         -5    1    4    4    0  501  0.10767717340E+03 -0.23213761308E+02 -0.96342858578E+02  0.14639901361E+03  0.41800000000E+01 0.  1.
</event>
<event>
11    1  0.8037748E-009  0.2495428E+03  0.7561462E-02  0.1024143E+00
         22   -1    0    0    0    0  0.00000000000E+00  0.00000000000E+00  0.88493935794E+03  0.88493935794E+03  0.00000000000E+00 0. -1.
         22   -1    0    0    0    0 -0.00000000000E+00 -0.00000000000E+00 -0.16038220593E+03  0.16038220593E+03  0.00000000000E+00 0. -1.
         24    2    1    2    0    0  0.10918893308E+01 -0.22568633721E+02  0.87689155982E+02  0.12074394052E+03  0.79869741739E+02 0.  0.
         25    2    1    2    0    0  0.59700217174E+02  0.21111300357E+03  0.28533440716E+00  0.25254738094E+03  0.12508909623E+03 0.  0.
        -24    2    1    2    0    0 -0.60792106505E+02 -0.18854436985E+03  0.63658266162E+03  0.67203024241E+03  0.84513324566E+02 0.  0.
        -11    1    3    3    0    0  0.61968602087E+01  0.24147935989E+02  0.46955884521E+01  0.25368729568E+02  0.00000000000E+00 0.  1.
         12    1    3    3    0    0 -0.51049708779E+01 -0.46716569709E+02  0.82993567530E+02  0.95375210954E+02  0.00000000000E+00 0. -1.
         11    1    5    5    0    0 -0.82080401123E+02 -0.15874598409E+03  0.53337487787E+03  0.56251776866E+03  0.00000000000E+00 0. -1.
        -12    1    5    5    0    0  0.21288294618E+02 -0.29798385758E+02  0.10320778375E+03  0.10951247376E+03  0.00000000000E+00 0.  1.
          5    1    4    4  501    0  0.87438377348E+02  0.20611537603E+03  0.27185296377E+01  0.22395062151E+03  0.41800000000E+01 0.  1.
         -5    1    4    4    0  501 -0.27738160174E+02  0.49976275383E+01 -0.24331952305E+01  0.28596759430E+02  0.41800000000E+01 0.  1.
</event>
<event>
11    1  0.8037748E-009  0.1470630E+03  0.7561462E-02  0.1099918E+00
         22   -1    0    0    0    0  0.00000000000E+00  0.00000000000E+00  0.82899957624E+03  0.82899957624E+03  0.00000000000E+00 0. -1.
         22   -1    0    0    0    0 -0.00000000000E+00 -0.00000000000E+00 -0.32683782062E+03  0.32683782062E+03  0.00000000000E+00 0. -1.
         24    2    1    2    0    0 -0.84214905945E+01  0.73090026093E+02 -0.26157698336E+03  0.29112045009E+03  0.10447738904E+03 0.  0.
         25    2    1    2    0    0  0.45549945160E+02 -0.11400583206E+03  0.11757991335E+03  0.21105906414E+03  0.12509502502E+03 0.  0.
        -24    2    1    2    0    0 -0.37128454565E+02  0.40915805971E+02  0.64615882564E+03  0.65365788262E+03  0.81821600134E+02 0.  0.
        -11    1    3    3    0    0  0.85828780693E+01 -0.18824652184E+02 -0.10485530729E+02  0.23194388986E+02  0.00000000000E+00 0.  1.
         12    1    3    3    0    0 -0.17004368664E+02  0.91914678277E+02 -0.25109145263E+03  0.26792606111E+03  0.00000000000E+00 0. -1.
         11    1    5    5    0    0  0.83487046280E+01  0.14501489655E+02  0.45749700078E+03  0.45780290497E+03  0.00000000000E+00 0. -1.
        -12    1    5    5    0    0 -0.45477159193E+02  0.26414316317E+02  0.18866182485E+03  0.19585497765E+03  0.00000000000E+00 0.  1.
          5    1    4    4  501    0 -0.25614697408E+02 -0.51972138262E+01 -0.10528518283E+02  0.28485888649E+02  0.41800000000E+01 0.  1.
         -5    1    4    4    0  501  0.71164642568E+02 -0.10880861824E+03  0.12810843163E+03  0.18257317549E+03  0.41800000000E+01 0.  1.
</event>
<event>
11    1  0.8037748E-009  0.1325559E+03  0.7561462E-02  0.1116168E+00
         22   -1    0    0    0    0  0.00000000000E+00  0.00000000000E+00  0.81689185873E+02  0.81689185873E+02  0.00000000000E+00 0. -1.
         22   -1    0    0    0    0 -0.00000000000E+00 -0.00000000000E+00 -0.90808701094E+03  0.90808701094E+03  0.00000000000E+00 0.  1.
        -24    2    1    2    0    0  0.11206398640E+02 -0.39497705047E+02 -0.68792308070E+03  0.69429582040E+03  0.84397092288E+02 0.  0.
         25    2    1    2    0    0 -0.25489345348E+02  0.64771113280E+02 -0.15164158664E+03  0.20852736670E+03  0.12507393022E+03 0.  0.
         24    2    1    2    0    0  0.14282946708E+02 -0.25273408233E+02  0.13166842270E+02  0.86953009723E+02  0.80899396995E+02 0.  0.
        -11    1    5    5    0    0  0.10669790906E+02  0.27156789907E+02  0.17826338877E+02  0.34192309571E+02  0.00000000000E+00 0.  1.
         12    1    5    5    0    0  0.36131558020E+01 -0.52430198140E+02 -0.46594966066E+01  0.52760700152E+02  0.00000000000E+00 0. -1.
         11    1    3    3    0    0 -0.24500543781E+02 -0.40000112278E+02 -0.21655468875E+03  0.22157666585E+03  0.00000000000E+00 0. -1.
        -12    1    3    3    0    0  0.35706942420E+02  0.50240723122E+00 -0.47136839195E+03  0.47271915455E+03  0.00000000000E+00 0.  1.
          5    1    4    4  501    0  0.17071150945E+02 -0.21120449717E+02  0.18225737572E+01  0.27537097994E+02  0.41800000000E+01 0. -1.
         -5    1    4    4    0  501 -0.42560496293E+02  0.85891562997E+02 -0.15346416040E+03  0.18099026870E+03  0.41800000000E+01 0. -1.
</event>
<event>
11    1  0.8037748E-009  0.1709006E+03  0.7561462E-02  0.1077251E+00
         22   -1    0    0    0    0  0.00000000000E+00  0.00000000000E+00  0.24541698725E+03  0.24541698725E+03  0.00000000000E+00 0.  1.
         22   -1    0    0    0    0 -0.00000000000E+00 -0.00000000000E+00 -0.80297832223E+03  0.80297832223E+03  0.00000000000E+00 0. -1.
        -24    2    1    2    0    0 -0.31704375103E+02 -0.11348262110E+02 -0.68609241447E+03  0.69148657026E+03  0.79353167533E+02 0.  0.
         25    2    1    2    0    0 -0.80626516516E+02 -0.50582351003E+02  0.10586843644E+02  0.15754667989E+03  0.12509862384E+03 0.  0.
         24    2    1    2    0    0  0.11233089162E+03  0.61930613113E+02  0.11794423584E+03  0.19936205933E+03  0.96854312659E+02 0.  0.
        -13    1    5    5    0    0  0.41650687488E+02  0.77824599436E+02  0.66194037177E+02  0.11033176607E+03  0.00000000000E+00 0.  1.
         14    1    5    5    0    0  0.70680204132E+02 -0.15893986323E+02  0.51750198668E+02  0.89030293269E+02  0.00000000000E+00 0. -1.
         11    1    3    3    0    0 -0.15272845119E+02  0.33364379739E+02 -0.22935712241E+03  0.23227382812E+03  0.00000000000E+00 0. -1.
        -12    1    3    3    0    0 -0.16431529985E+02 -0.44712641850E+02 -0.45673529206E+03  0.45921274213E+03  0.00000000000E+00 0.  1.
          5    1    4    4  501    0  0.31434138709E+01  0.43419854179E+00 -0.44613136329E+02  0.44920751466E+02  0.41800000000E+01 0.  1.
         -5    1    4    4    0  501 -0.83769930387E+02 -0.51016549544E+02  0.55199979973E+02  0.11262592842E+03  0.41800000000E+01 0.  1.
</event>
<event>
11    1  0.8037748E-009  0.1316272E+03  0.7561462E-02  0.1117286E+00
         22   -1    0    0    0    0  0.00000000000E+00  0.00000000000E+00  0.77655016562E+03  0.77655016562E+03  0.00000000000E+00 0.  1.
         22   -1    0    0    0    0 -0.00000000000E+00 -0.00000000000E+00 -0.29902366942E+03  0.29902366942E+03  0.00000000000E+00 0. -1.
         24    2    1    2    0    0  0.35419336993E+02 -0.31129136264E+02 -0.22449042162E+03  0.24329029384E+03  0.81059639297E+02 0.  0.
         25    2    1    2    0    0 -0.33578811845E+02  0.70475866295E+02  0.26359602500E+02  0.14978464133E+03  0.12508487438E+03 0.  0.
        -24    2    1    2    0    0 -0.18405251478E+01 -0.39346730031E+02  0.67565731532E+03  0.68249889987E+03  0.87979474171E+02 0.  0.
        -13    1    3    3    0    0  0.15049151802E+02  0.30887167096E+01 -0.68845746329E-01  0.15363003632E+02  0.00000000000E+00 0.  1.
         14    1    3    3    0    0  0.20370185192E+02 -0.34217852973E+02 -0.22442157587E+03  0.22792729021E+03  0.00000000000E+00 0. -1.
         13    1    5    5    0    0  0.12466883116E+02  0.23722452255E+02  0.11286332679E+03  0.11600132952E+03  0.00000000000E+00 0. -1.
        -14    1    5    5    0    0 -0.14307408264E+02 -0.63069182286E+02  0.56279398853E+03  0.56649757035E+03  0.00000000000E+00 0.  1.
          5    1    4    4  501    0  0.26531515117E+02  0.23634968686E+02 -0.36351812181E+02  0.51004506547E+02  0.41800000000E+01 0.  1.
         -5    1    4    4    0  501 -0.60110326963E+02  0.46840897608E+02  0.62711414681E+02  0.98780134782E+02  0.41800000000E+01 0.  1.
</event>
<event>
11    1  0.8037748E-009  0.1383007E+03  0.7561462E-02  0.1109471E+00
         22   -1    0    0    0    0  0.00000000000E+00  0.00000000000E+00  0.83093726866E+03  0.83093726866E+03  0.00000000000E+00 0. -1.
         22   -1    0    0    0    0 -0.00000000000E+00 -0.00000000000E+00 -0.29762822727E+04  0.29762822727E+04  0.00000000000E+00 0. -1.
         24    2    1    2    0    0 -0.22174947012E+02  0.18217783672E+02 -0.25544532983E+04  0.25558876477E+04  0.80662249313E+02 0.  0.
         25    2    1    2    0    0 -0.36632227555E+02 -0.24112512875E+02 -0.40827307471E+03  0.42925240183E+03  0.12508951821E+03 0.  0.
        -24    2    1    2    0    0  0.58807174567E+02  0.58947292037E+01  0.81738136894E+03  0.82207949188E+03  0.64879558155E+02 0.  0.
        -13    1    3    3    0    0 -0.23744129345E+02 -0.88756461210E+01 -0.25145592192E+03  0.25273037301E+03  0.00000000000E+00 0.  1.
         14    1    3    3    0    0  0.15691823329E+01  0.27093429793E+02 -0.23029973764E+04  0.23031572747E+04  0.00000000000E+00 0. -1.
         13    1    5    5    0    0  0.45183008596E+02 -0.35118391004E+01  0.77852611556E+03  0.77984405485E+03  0.00000000000E+00 0. -1.
        -14    1    5    5    0    0  0.13624165971E+02  0.94065683041E+01  0.38855253376E+02  0.42235437024E+02  0.00000000000E+00 0.  1.
          5    1    4    4  501    0 -0.44945307253E+02 -0.38969659637E+02 -0.40735623335E+03  0.41169805473E+03  0.41800000000E+01 0. -1.
         -5    1    4    4    0  501  0.83130796982E+01  0.14857146762E+02 -0.91684135956E+00  0.17554347098E+02  0.41800000000E+01 0. -1.
</event>
<event>
11    1  0.8037748E-009  0.1789286E+03  0.7561462E-02  0.1070513E+00
         22   -1    0    0    0    0  0.00000000000E+00  0.00000000000E+00  0.20875748992E+03  0.20875748992E+03  0.00000000000E+00 0. -1.
         22   -1    0    0    0    0 -0.00000000000E+00 -0.00000000000E+00 -0.15400097333E+04  0.15400097333E+04  0.00000000000E+00 0. -1.
        -24    2    1    2    0    0  0.71923729562E+02 -0.92331021187E+02 -0.13247059591E+04  0.13323586123E+04  0.81458906046E+02 0.  0.
         25    2    1    2    0    0  0.44692963753E+01  0.18614405852E+03 -0.96974157585E+02  0.24437698795E+03  0.12508612980E+03 0.  0.
         24    2    1    2    0    0 -0.76393025937E+02 -0.93813037335E+02  0.90427873270E+02  0.17203162300E+03  0.82346212184E+02 0.  0.
        -11    1    5    5    0    0 -0.18893611159E+02  0.98872360109E+01  0.35363213600E+02  0.41295070586E+02  0.00000000000E+00 0.  1.
         12    1    5    5    0    0 -0.57499414778E+02 -0.10370027335E+03  0.55064659670E+02  0.13073655241E+03  0.00000000000E+00 0. -1.
         11    1    3    3    0    0  0.83897792492E+02 -0.90482645154E+02 -0.10238559746E+04  0.10312647601E+04  0.00000000000E+00 0. -1.
        -12    1    3    3    0    0 -0.11974062930E+02 -0.18483760325E+01 -0.30084998447E+03  0.30109385220E+03  0.00000000000E+00 0.  1.
          5    1    4    4  501    0 -0.14297942523E+02  0.13149840151E+03 -0.12318013257E+03  0.18079568086E+03  0.41800000000E+01 0. -1.
         -5    1    4    4    0  501  0.18767238898E+02  0.54645657014E+02  0.26205974980E+02  0.63581307088E+02  0.41800000000E+01 0. -1.
</event>
<event>
11    1  0.8037748E-009  0.1273184E+03  0.7561462E-02  0.1122608E+00
         22   -1    0    0    0    0  0.00000000000E+00  0.00000000000E+00  0.27975429981E+03  0.27975429981E+03  0.00000000000E+00 0. -1.
         22   -1    0    0    0    0 -0.00000000000E+00 -0.00000000000E+00 -0.12136465312E+04  0.12136465312E+04  0.00000000000E+00 0. -1.
        -24    2    1    2    0    0  0.12150759076E+02  0.15970989953E+02 -0.11134099947E+04  0.11164765158E+04  0.80220199869E+02 0.  0.
         25    2    1    2    0    0 -0.16683265560E+02  0.83727069761E+01 -0.46935770916E+02  0.13490124294E+03  0.12508774994E+03 0.  0.
         24    2    1    2    0    0  0.45325064840E+01 -0.24343696929E+02  0.22645353425E+03  0.24202307229E+03  0.81736192445E+02 0.  0.
        -11    1    5    5    0    0 -0.81836050696E+01  0.29011814010E+02  0.69280869610E+02  0.75554587141E+02  0.00000000000E+00 0.  1.
         12    1    5    5    0    0  0.12716111554E+02 -0.53355510940E+02  0.15717266464E+03  0.16646848515E+03  0.00000000000E+00 0. -1.
         13    1    3    3    0    0 -0.17290760429E+02  0.27320633402E+02 -0.91518013967E+03  0.91575109908E+03  0.00000000000E+00 0. -1.
        -14    1    3    3    0    0  0.29441519505E+02 -0.11349643448E+02 -0.19822985507E+03  0.20072541672E+03  0.00000000000E+00 0.  1.
          5    1    4    4  501    0 -0.40298357847E+02  0.99186390744E+01 -0.82228874703E+02  0.92203022083E+02  0.41800000000E+01 0.  1.
         -5    1    4    4    0  501  0.23615092287E+02 -0.15459320983E+01  0.35293103787E+02  0.42698220861E+02  0.41800000000E+01 0.  1.
</event>
<event>
11    1  0.8037748E-009  0.1458800E+03  0.7561462E-02  0.1101164E+00
         22   -1    0    0    0    0  0.00000000000E+00  0.00000000000E+00  0.14361204444E+03  0.14361204444E+03  0.00000000000E+00 0.  1.
         22   -1    0    0    0    0 -0.00000000000E+00 -0.00000000000E+00 -0.44555367144E+03  0.44555367144E+03  0.00000000000E+00 0. -1.
        -24    2    1    2    0    0 -0.86223953326E+00 -0.18660529334E+02 -0.20243959369E+03  0.21887966765E+03  0.81102163975E+02 0.  0.
         25    2    1    2    0    0 -0.72473891731E+02  0.32691478440E+02 -0.18022457424E+03  0.23335704474E+03  0.12511361007E+03 0.  0.
         24    2    1    2    0    0  0.73336131264E+02 -0.14030949107E+02  0.80722540934E+02  0.13692900349E+03  0.81598821688E+02 0.  0.
        -13    1    5    5    0    0  0.76442703601E+02 -0.38726806866E+02  0.61415821283E+02  0.10542843832E+03  0.00000000000E+00 0.  1.
         14    1    5    5    0    0 -0.31065723367E+01  0.24695857759E+02  0.19306719651E+02  0.31500565167E+02  0.00000000000E+00 0. -1.
         13    1    3    3    0    0  0.31756019492E+02 -0.33023035055E+02 -0.13561830690E+03  0.14314779350E+03  0.00000000000E+00 0. -1.
        -14    1    3    3    0    0 -0.32618259025E+02  0.14362505721E+02 -0.66821286795E+02  0.75731874144E+02  0.00000000000E+00 0.  1.
          5    1    4    4  501    0 -0.73285367378E+02 -0.33153094910E+02 -0.11645910842E+03  0.14159826661E+03  0.41800000000E+01 0.  1.
         -5    1    4    4    0  501  0.81147564774E+00  0.65844573350E+02 -0.63765465822E+02  0.91758778130E+02  0.41800000000E+01 0.  1.
</event>
<event>
11    1  0.8037748E-009  0.1364861E+03  0.7561462E-02  0.1111547E+00
         22   -1    0    0    0    0  0.00000000000E+00  0.00000000000E+00  0.23297417680E+04  0.23297417680E+04  0.00000000000E+00 0.  1.
         22   -1    0    0    0    0 -0.00000000000E+00 -0.00000000000E+00 -0.33387987347E+02  0.33387987347E+02  0.00000000000E+00 0.  1.
         24    2    1    2    0    0  0.29285502433E+02 -0.57245262913E+02  0.92136346504E+02  0.13724812319E+03  0.78824362936E+02 0.  0.
         25    2    1    2    0    0  0.87034763047E+01  0.24413600870E+02  0.41404915515E+03  0.43331585769E+03  0.12511656660E+03 0.  0.
        -24    2    1    2    0    0 -0.37988978738E+02  0.32831662043E+02  0.17901682790E+04  0.17925657745E+04  0.77900629866E+02 0.  0.
        -13    1    3    3    0    0  0.35889644265E+02 -0.64539947326E+02  0.39594082548E+02  0.83792378764E+02  0.00000000000E+00 0.  1.
         14    1    3    3    0    0 -0.66041418318E+01  0.72946844123E+01  0.52542263957E+02  0.53455744422E+02  0.00000000000E+00 0. -1.
         13    1    5    5    0    0 -0.24339365336E+02  0.72669127618E+01  0.14957066130E+03  0.15171221259E+03  0.00000000000E+00 0. -1.
        -14    1    5    5    0    0 -0.13649613402E+02  0.25564749281E+02  0.16405976177E+04  0.16408535619E+04  0.00000000000E+00 0.  1.
          5    1    4    4  501    0  0.11971165722E+02  0.69611824088E+02  0.15616500025E+03  0.17144706053E+03  0.41800000000E+01 0.  1.
         -5    1    4    4    0  501 -0.32676894170E+01 -0.45198223218E+02  0.25788415491E+03  0.26186879716E+03  0.41800000000E+01 0.  1.
</event>
<event>
11    1  0.8037748E-009  0.2576669E+03  0.7561462E-02  0.1019892E+00
         22   -1    0    0    0    0  0.00000000000E+00  0.00000000000E+00  0.25831832884E+04  0.25831832884E+04  0.00000000000E+00 0.  1.
         22   -1    0    0    0    0 -0.00000000000E+00 -0.00000000000E+00 -0.13900869610E+03  0.13900869610E+03  0.00000000000E+00 0. -1.
        -24    2    1    2    0    0 -0.11028429768E+03 -0.14187383791E+02  0.20221134715E+02  0.13764600083E+03  0.78572381163E+02 0.  0.
         25    2    1    2    0    0  0.16037823436E+03 -0.20437890193E+03  0.20729414385E+03  0.35512103900E+03  0.12509267227E+03 0.  0.
         24    2    1    2    0    0 -0.50093936677E+02  0.21856628572E+03  0.22166593137E+04  0.22294249447E+04  0.80476375392E+02 0.  0.
        -11    1    5    5    0    0 -0.70890415424E+02  0.13946308031E+03  0.14556601424E+04  0.14640429815E+04  0.00000000000E+00 0.  1.
         12    1    5    5    0    0  0.20796478747E+02  0.79103205412E+02  0.76099917137E+03  0.76538196312E+03  0.00000000000E+00 0. -1.
         13    1    3    3    0    0 -0.28053387660E+02  0.31394533163E+02  0.49008273639E+01  0.42386641535E+02  0.00000000000E+00 0. -1.
        -14    1    3    3    0    0 -0.82230910022E+02 -0.45581916955E+02  0.15320307351E+02  0.95259359297E+02  0.00000000000E+00 0.  1.
          5    1    4    4  501    0  0.36116375510E+02 -0.11431927955E+03  0.14808142787E+03  0.19057510838E+03  0.41800000000E+01 0.  1.
         -5    1    4    4    0  501  0.12426185885E+03 -0.90059622379E+02  0.59212715978E+02  0.16454593061E+03  0.41800000000E+01 0.  1.
</event>
<event>
11    1  0.8037748E-009  0.1693550E+03  0.7561462E-02  0.1078594E+00
         22   -1    0    0    0    0  0.00000000000E+00  0.00000000000E+00  0.15592128692E+04  0.15592128692E+04  0.00000000000E+00 0. -1.
         22   -1    0    0    0    0 -0.00000000000E+00 -0.00000000000E+00 -0.20645205090E+03  0.20645205090E+03  0.00000000000E+00 0.  1.
         24    2    1    2    0    0 -0.96670661187E+02  0.52525023405E+02 -0.11397629885E+03  0.17593591051E+03  0.76542492056E+02 0.  0.
         25    2    1    2    0    0  0.12260365858E+03 -0.51824103344E+02  0.78262061944E+02  0.19873049150E+03  0.12510580773E+03 0.  0.
        -24    2    1    2    0    0 -0.25932997393E+02 -0.70092006112E+00  0.13884750552E+04  0.13909985181E+04  0.79629685156E+02 0.  0.
        -13    1    3    3    0    0 -0.50204075515E+02  0.59040556993E+02 -0.10089693900E+03  0.12722589700E+03  0.00000000000E+00 0.  1.
         14    1    3    3    0    0 -0.46466585672E+02 -0.65155335884E+01 -0.13079359847E+02  0.48710013508E+02  0.00000000000E+00 0. -1.
         11    1    5    5    0    0 -0.42675670827E+01 -0.93284121639E+01  0.12801785839E+04  0.12802196836E+04  0.00000000000E+00 0. -1.
        -12    1    5    5    0    0 -0.21665430311E+02  0.86274921028E+01  0.10829647122E+03  0.11077883449E+03  0.00000000000E+00 0.  1.
          5    1    4    4  501    0  0.10187791621E+03  0.20916963036E+02  0.27885956273E+02  0.10775772878E+03  0.41800000000E+01 0.  1.
         -5    1    4    4    0  501  0.20725742366E+02 -0.72741066380E+02  0.50376105671E+02  0.90972762722E+02  0.41800000000E+01 0.  1.
</event>
<event>
11    1  0.8037748E-009  0.1306748E+03  0.7561462E-02  0.1118443E+00
         22   -1    0    0    0    0  0.00000000000E+00  0.00000000000E+00  0.12542070764E+04  0.12542070764E+04  0.00000000000E+00 0.  1.
         22   -1    0    0    0    0 -0.00000000000E+00 -0.00000000000E+00 -0.12668714386E+03  0.12668714386E+03  0.00000000000E+00 0. -1.
        -24    2    1    2    0    0  0.12380057057E+02  0.34868905311E+02 -0.86211116544E+02  0.13613507730E+03  0.98647332885E+02 0.  0.
         25    2    1    2    0    0 -0.36546181376E+02 -0.38129355232E+02  0.32589480304E+03  0.35305005412E+03  0.12508975564E+03 0.  0.
         24    2    1    2    0    0  0.24166124319E+02  0.32604499210E+01  0.88783624609E+03  0.89170908887E+03  0.79355322498E+02 0.  0.
        -13    1    5    5    0    0  0.23557121905E+02  0.26717368733E+02  0.80000126737E+03  0.80079384586E+03  0.00000000000E+00 0.  1.
         14    1    5    5    0    0  0.60900241420E+00 -0.23456918812E+02  0.87834978723E+02  0.90915243009E+02  0.00000000000E+00 0. -1.
         11    1    3    3    0    0  0.23548180942E+02  0.21207396304E+02 -0.10540315720E+03  0.11006405422E+03  0.00000000000E+00 0. -1.
        -12    1    3    3    0    0 -0.11168123885E+02  0.13661509007E+02  0.19192040661E+02  0.26071023075E+02  0.00000000000E+00 0.  1.
          5    1    4    4  501    0 -0.27384516810E+02  0.35372407054E+02  0.21488664380E+03  0.21953328000E+03  0.41800000000E+01 0.  1.
         -5    1    4    4    0  501 -0.91616645662E+01 -0.73501762285E+02  0.11100815923E+03  0.13351677413E+03  0.41800000000E+01 0.  1.
</event>
<event>
11    1  0.8037748E-009  0.1613983E+03  0.7561462E-02  0.1085769E+00
         22   -1    0    0    0    0  0.00000000000E+00  0.00000000000E+00  0.28388501798E+04  0.28388501798E+04  0.00000000000E+00 0.  1.
         22   -1    0    0    0    0 -0.00000000000E+00 -0.00000000000E+00 -0.21312015928E+03  0.21312015928E+03  0.00000000000E+00 0.  1.
        -24    2    1    2    0    0  0.23609989978E+02  0.90110068140E+00 -0.18545280236E+03  0.20261683389E+03  0.78119113287E+02 0.  0.
         25    2    1    2    0    0 -0.12360768732E+03 -0.65635158314E+01  0.42206690668E+03  0.45728659853E+03  0.12509444183E+03 0.  0.
         24    2    1    2    0    0  0.99997697341E+02  0.56624151500E+01  0.23891159162E+04  0.23920669067E+04  0.63856264192E+02 0.  0.
        -11    1    5    5    0    0  0.45772660777E+02 -0.27905693215E+02  0.91114536141E+03  0.91272106024E+03  0.00000000000E+00 0.  1.
         12    1    5    5    0    0  0.54225036563E+02  0.33568108365E+02  0.14779705548E+04  0.14793458464E+04  0.00000000000E+00 0. -1.
         11    1    3    3    0    0 -0.25657314410E+02  0.15228332467E+02 -0.78939795598E+02  0.84390113292E+02  0.00000000000E+00 0. -1.
        -12    1    3    3    0    0  0.49267304388E+02 -0.14327231785E+02 -0.10651300677E+03  0.11822672060E+03  0.00000000000E+00 0.  1.
          5    1    4    4  501    0  0.13007650805E+02 -0.13571614130E+02  0.74203333305E+01  0.20637864141E+02  0.41800000000E+01 0.  1.
         -5    1    4    4    0  501 -0.13661533812E+03  0.70080982985E+01  0.41464657335E+03  0.43664873439E+03  0.41800000000E+01 0.  1.
</event>
<event>
11    1  0.8037748E-009  0.1270728E+03  0.7561462E-02  0.1122919E+00
         22   -1    0    0    0    0  0.00000000000E+00  0.00000000000E+00  0.60240220178E+02  0.60240220178E+02  0.00000000000E+00 0.  1.
         22   -1    0    0    0    0 -0.00000000000E+00 -0.00000000000E+00 -0.18367946533E+04  0.18367946533E+04  0.00000000000E+00 0.  1.
        -24    2    1    2    0    0 -0.10317320161E+02 -0.20521823322E+02 -0.12024781055E+04  0.12056286325E+04  0.84019123087E+02 0.  0.
         25    2    1    2    0    0 -0.19460516804E+02  0.27588126189E+02 -0.58895936701E+03  0.60304300252E+03  0.12509160835E+03 0.  0.
         24    2    1    2    0    0  0.29777836965E+02 -0.70663028673E+01  0.14883039321E+02  0.88363238493E+02  0.81546948729E+02 0.  0.
        -11    1    5    5    0    0  0.38130119615E+02  0.12606025394E+02  0.39109713325E+02  0.56057002903E+02  0.00000000000E+00 0.  1.
         12    1    5    5    0    0 -0.83522826500E+01 -0.19672328262E+02 -0.24226674004E+02  0.32306235590E+02  0.00000000000E+00 0. -1.
         11    1    3    3    0    0 -0.86166578774E+01  0.13964365005E+02 -0.49803435882E+02  0.52436938398E+02  0.00000000000E+00 0. -1.
        -12    1    3    3    0    0 -0.17006622839E+01 -0.34486188326E+02 -0.11526746696E+04  0.11531916941E+04  0.00000000000E+00 0.  1.
          5    1    4    4  501    0  0.18149012709E+02  0.69131066868E+02 -0.27958246814E+03  0.28860408860E+03  0.41800000000E+01 0.  1.
         -5    1    4    4    0  501 -0.37609529512E+02 -0.41542940679E+02 -0.30937689887E+03  0.31443891392E+03  0.41800000000E+01 0.  1.
</event>
<event>
11    1  0.8037748E-009  0.1331879E+03  0.7561462E-02  0.1115413E+00
         22   -1    0    0    0    0  0.00000000000E+00  0.00000000000E+00  0.17786422081E+04  0.17786422081E+04  0.00000000000E+00 0. -1.
         22   -1    0    0    0    0 -0.00000000000E+00 -0.00000000000E+00 -0.71402419810E+03  0.71402419810E+03  0.00000000000E+00 0.  1.
         24    2    1    2    0    0  0.32618175270E+02 -0.33699067883E+02 -0.66117037820E+03  0.66810381700E+03  0.83766752054E+02 0.  0.
         25    2    1    2    0    0 -0.26696372531E+02 -0.22164954439E+01  0.36634610192E+02  0.13306869362E+03  0.12509026101E+03 0.  0.
        -24    2    1    2    0    0 -0.59218027387E+01  0.35915563327E+02  0.16891537780E+04  0.16914938956E+04  0.81154898537E+02 0.  0.
        -13    1    3    3    0    0  0.45508824064E+02  0.31153079971E+00 -0.18382269636E+03  0.18937247375E+03  0.00000000000E+00 0.  1.
         14    1    3    3    0    0 -0.12890648793E+02 -0.34010598683E+02 -0.47734768184E+03  0.47873134325E+03  0.00000000000E+00 0. -1.
         11    1    5    5    0    0 -0.21506843671E+02 -0.18244056296E+02  0.83918337886E+03  0.83965715222E+03  0.00000000000E+00 0. -1.
        -12    1    5    5    0    0  0.15585040932E+02  0.54159619623E+02  0.84997039916E+03  0.85183674337E+03  0.00000000000E+00 0.  1.
          5    1    4    4  501    0 -0.48543963391E+02  0.45296712559E+02  0.44474943546E+02  0.80023756183E+02  0.41800000000E+01 0.  1.
         -5    1    4    4    0  501  0.21847590859E+02 -0.47513208003E+02 -0.78403333532E+01  0.53044937441E+02  0.41800000000E+01 0.  1.
</event>
<event>
11    1  0.8037748E-009  0.1531731E+03  0.7561462E-02  0.1093680E+00
         22   -1    0    0    0    0  0.00000000000E+00  0.00000000000E+00  0.17283477740E+03  0.17283477740E+03  0.00000000000E+00 0.  1.
         22   -1    0    0    0    0 -0.00000000000E+00 -0.00000000000E+00 -0.36114395790E+03  0.36114395790E+03  0.00000000000E+00 0. -1.
         24    2    1    2    0    0 -0.53130714589E+02  0.38011673712E+01 -0.21394887027E+03  0.23452343090E+03  0.79936217355E+02 0.  0.
         25    2    1    2    0    0 -0.29665665156E+02 -0.58805791953E+02 -0.49630083060E+02  0.14982969307E+03  0.12509044298E+03 0.  0.
        -24    2    1    2    0    0  0.82796379745E+02  0.55004624582E+02  0.75269772830E+02  0.14962561132E+03  0.82713575899E+02 0.  0.
        -13    1    3    3    0    0 -0.19329756038E+02  0.12342790215E+02 -0.60462895579E+01  0.23717958517E+02  0.00000000000E+00 0.  1.
         14    1    3    3    0    0 -0.33800958550E+02 -0.85416228438E+01 -0.20790258072E+03  0.21080547239E+03  0.00000000000E+00 0. -1.
         11    1    5    5    0    0 -0.18838740547E+01  0.24237179919E+02 -0.93265236849E+01  0.26037932251E+02  0.00000000000E+00 0. -1.
        -12    1    5    5    0    0  0.84680253799E+02  0.30767444663E+02  0.84596296514E+02  0.12358767907E+03  0.00000000000E+00 0.  1.
          5    1    4    4  501    0  0.23773669147E+02  0.12593811469E+02  0.22287806905E+02  0.35185368673E+02  0.41800000000E+01 0.  1.
         -5    1    4    4    0  501 -0.53439334303E+02 -0.71399603422E+02 -0.71917889964E+02  0.11464432440E+03  0.41800000000E+01 0.  1.
</event>
<event>
11    1  0.8037748E-009  0.1540597E+03  0.7561462E-02  0.1092801E+00
         22   -1    0    0    0    0  0.00000000000E+00  0.00000000000E+00  0.12414259637E+04  0.12414259637E+04  0.00000000000E+00 0.  1.
         22   -1    0    0    0    0 -0.00000000000E+00 -0.00000000000E+00 -0.10329678302E+03  0.10329678302E+03  0.00000000000E+00 0.  1.
         24    2    1    2    0    0 -0.10749665119E+01  0.96802339711E+01 -0.50575624541E+02  0.98476963736E+02  0.83934236794E+02 0.  0.
         25    2    1    2    0    0 -0.70151631961E+02  0.46533910871E+02  0.19827553981E+03  0.24908801051E+03  0.12507993829E+03 0.  0.
        -24    2    1    2    0    0  0.71226598472E+02 -0.56214144842E+02  0.99042926539E+03  0.99715777246E+03  0.71695432467E+02 0.  0.
        -13    1    3    3    0    0  0.73999322245E+01 -0.95066968988E+01 -0.69312487452E+02  0.70351668065E+02  0.00000000000E+00 0.  1.
         14    1    3    3    0    0 -0.84748987364E+01  0.19186930870E+02  0.18736862911E+02  0.28125295670E+02  0.00000000000E+00 0. -1.
         13    1    5    5    0    0  0.14456132692E+02 -0.40242620488E+02  0.19940900915E+03  0.20394215162E+03  0.00000000000E+00 0. -1.
        -14    1    5    5    0    0  0.56770465781E+02 -0.15971524355E+02  0.79102025624E+03  0.79321562085E+03  0.00000000000E+00 0.  1.
          5    1    4    4  501    0 -0.34645150175E+02 -0.17463969175E+02  0.16323937313E+03  0.16783873805E+03  0.41800000000E+01 0. -1.
         -5    1    4    4    0  501 -0.35506481785E+02  0.63997880047E+02  0.35036166681E+02  0.81249272458E+02  0.41800000000E+01 0. -1.
</event>
<event>
11    1  0.8037748E-009  0.1322846E+03  0.7561462E-02  0.1116493E+00
         22   -1    0    0    0    0  0.00000000000E+00  0.00000000000E+00  0.99305064678E+03  0.99305064678E+03  0.00000000000E+00 0. -1.
         22   -1    0    0    0    0 -0.00000000000E+00 -0.00000000000E+00 -0.29481792861E+03  0.29481792861E+03  0.00000000000E+00 0. -1.
         24    2    1    2    0    0  0.42156009835E+02 -0.10314857382E+02 -0.26991287618E+03  0.28498106211E+03  0.80484281607E+02 0.  0.
         25    2    1    2    0    0 -0.36643948879E+02 -0.37600325833E+02  0.30841204133E+03  0.33693053882E+03  0.12509051627E+03 0.  0.
        -24    2    1    2    0    0 -0.55120609558E+01  0.47915183214E+02  0.65973355303E+03  0.66595697446E+03  0.76968066355E+02 0.  0.
        -13    1    3    3    0    0  0.17078828885E+02 -0.78198199521E+01 -0.57862871941E+01  0.19654951022E+02  0.00000000000E+00 0.  1.
         14    1    3    3    0    0  0.25077180950E+02 -0.24950374295E+01 -0.26412658899E+03  0.26532611109E+03  0.00000000000E+00 0. -1.
         11    1    5    5    0    0  0.18298243339E+02  0.39243098283E+02  0.59292742924E+03  0.59450633539E+03  0.00000000000E+00 0. -1.
        -12    1    5    5    0    0 -0.23810304295E+02  0.86720849316E+01  0.66806123785E+02  0.71450639065E+02  0.00000000000E+00 0.  1.
          5    1    4    4  501    0 -0.54717924920E+02  0.20403726455E+02  0.71995034885E+02  0.92796124968E+02  0.41800000000E+01 0. -1.
         -5    1    4    4    0  501  0.18073976041E+02 -0.58004052288E+02  0.23641700645E+03  0.24413441386E+03  0.41800000000E+01 0. -1.
</event>
<event>
11    1  0.8037748E-009  0.1438795E+03  0.7561462E-02  0.1103302E+00
         22   -1    0    0    0    0  0.00000000000E+00  0.00000000000E+00  0.21165651768E+04  0.21165651768E+04  0.00000000000E+00 0.  1.
         22   -1    0    0    0    0 -0.00000000000E+00 -0.00000000000E+00 -0.12004270678E+03  0.12004270678E+03  0.00000000000E+00 0. -1.
         24    2    1    2    0    0 -0.34282895885E+02 -0.48408714549E+02 -0.87914101694E+02  0.12939919867E+03  0.74138672392E+02 0.  0.
         25    2    1    2    0    0  0.99501438396E+02  0.40601416364E+02  0.71110579061E+03  0.72997791221E+03  0.12508915070E+03 0.  0.
        -24    2    1    2    0    0 -0.65218542511E+02  0.78072981852E+01  0.13733307812E+04  0.13772307727E+04  0.80079677514E+02 0.  0.
        -13    1    3    3    0    0 -0.50633730050E+02 -0.47358462122E+02 -0.42980495792E+02  0.81571573308E+02  0.00000000000E+00 0.  1.
         14    1    3    3    0    0  0.16350834165E+02 -0.10502524269E+01 -0.44933605902E+02  0.47827625358E+02  0.00000000000E+00 0. -1.
         11    1    5    5    0    0 -0.14655715720E+02  0.40682219827E+02  0.58685064149E+03  0.58844159305E+03  0.00000000000E+00 0. -1.
        -12    1    5    5    0    0 -0.50562826790E+02 -0.32874921641E+02  0.78648013966E+03  0.78878917969E+03  0.00000000000E+00 0.  1.
          5    1    4    4  501    0  0.11590247468E+03  0.15449123768E+02  0.66205641745E+03  0.67231557423E+03  0.41800000000E+01 0.  1.
         -5    1    4    4    0  501 -0.16401036288E+02  0.25152292596E+02  0.49049373156E+02  0.57662337978E+02  0.41800000000E+01 0.  1.
</event>
<event>
11    1  0.8037748E-009  0.1420317E+03  0.7561462E-02  0.1105311E+00
         22   -1    0    0    0    0  0.00000000000E+00  0.00000000000E+00  0.45625523529E+03  0.45625523529E+03  0.00000000000E+00 0.  1.
         22   -1    0    0    0    0 -0.00000000000E+00 -0.00000000000E+00 -0.49628211563E+03  0.49628211563E+03  0.00000000000E+00 0. -1.
        -24    2    1    2    0    0 -0.16582810187E+02  0.67608345969E+02 -0.40427567064E+03  0.41842589448E+03  0.82435024494E+02 0.  0.
         25    2    1    2    0    0  0.48382620842E+02 -0.35440180655E+02 -0.18957685755E+02  0.14002082353E+03  0.12509817252E+03 0.  0.
         24    2    1    2    0    0 -0.31799810656E+02 -0.32168165314E+02  0.38320647605E+03  0.39409063291E+03  0.80088731076E+02 0.  0.
        -11    1    5    5    0    0 -0.19964090877E+02 -0.56072554477E+02  0.31996509611E+03  0.32545408128E+03  0.00000000000E+00 0.  1.
         12    1    5    5    0    0 -0.11835719778E+02  0.23904389162E+02  0.63241379938E+02  0.68636551635E+02  0.00000000000E+00 0. -1.
         11    1    3    3    0    0 -0.84020186457E+01  0.16478207643E+01 -0.25356726046E+03  0.25371177507E+03  0.00000000000E+00 0. -1.
        -12    1    3    3    0    0 -0.81807915411E+01  0.65960525205E+02 -0.15070841018E+03  0.16471411941E+03  0.00000000000E+00 0.  1.
          5    1    4    4  501    0 -0.12778044507E+02  0.27468079189E+02 -0.39359997905E+02  0.49844313927E+02  0.41800000000E+01 0.  1.
         -5    1    4    4    0  501  0.61160665349E+02 -0.62908259844E+02  0.20402312150E+02  0.90176509600E+02  0.41800000000E+01 0.  1.
</event>
<event>
11    1  0.8037748E-009  0.1883025E+03  0.7561462E-02  0.1063118E+00
         22   -1    0    0    0    0  0.00000000000E+00  0.00000000000E+00  0.71912181567E+03  0.71912181567E+03  0.00000000000E+00 0.  1.
         22   -1    0    0    0    0 -0.00000000000E+00 -0.00000000000E+00 -0.21522995457E+03  0.21522995457E+03  0.00000000000E+00 0. -1.
        -24    2    1    2    0    0 -0.41232236716E+02  0.17395910790E+01 -0.44596005654E+02  0.98611326712E+02  0.77667667108E+02 0.  0.
         25    2    1    2    0    0  0.13078950679E+03 -0.10760135230E+03 -0.49677407098E+02  0.21633235895E+03  0.12509156106E+03 0.  0.
         24    2    1    2    0    0 -0.89557270074E+02  0.10586176122E+03  0.59816527386E+03  0.61940808457E+03  0.81470628310E+02 0.  0.
        -11    1    5    5    0    0 -0.96229016393E+02  0.60303386133E+02  0.38916797006E+03  0.40539885409E+03  0.00000000000E+00 0.  1.
         12    1    5    5    0    0  0.66717463186E+01  0.45558375087E+02  0.20899730380E+03  0.21400923049E+03  0.00000000000E+00 0. -1.
         11    1    3    3    0    0 -0.40574409128E+01 -0.26764690725E+02 -0.44121264307E+02  0.51763862496E+02  0.00000000000E+00 0. -1.
        -12    1    3    3    0    0 -0.37174795803E+02  0.28504281804E+02 -0.47474134677E+00  0.46847464217E+02  0.00000000000E+00 0.  1.
          5    1    4    4  501    0  0.15386310659E+03 -0.83829857171E+02 -0.52117709107E+02  0.18285247749E+03  0.41800000000E+01 0. -1.
         -5    1    4    4    0  501 -0.23073599799E+02 -0.23771495128E+02  0.24403020089E+01  0.33479881455E+02  0.41800000000E+01 0. -1.
</event>
<event>
11    1  0.8037748E-009  0.1442600E+03  0.7561462E-02  0.1102892E+00
         22   -1    0    0    0    0  0.00000000000E+00  0.00000000000E+00  0.45723128981E+03  0.45723128981E+03  0.00000000000E+00 0.  1.
         22   -1    0    0    0    0 -0.00000000000E+00 -0.00000000000E+00 -0.45211797497E+03  0.45211797497E+03  0.00000000000E+00 0. -1.
        -24    2    1    2    0    0 -0.40050176752E+02  0.94548353069E+01 -0.37274190184E+03  0.38372783903E+03  0.81345672879E+02 0.  0.
         25    2    1    2    0    0  0.58325954379E+02 -0.76844381126E+02  0.27169297127E+02  0.16028946141E+03  0.12509022691E+03 0.  0.
         24    2    1    2    0    0 -0.18275777627E+02  0.67389545819E+02  0.35068591955E+03  0.36533196434E+03  0.74909779507E+02 0.  0.
        -13    1    5    5    0    0 -0.32579047162E+01  0.67514545430E+02  0.34059735326E+03  0.34723966483E+03  0.00000000000E+00 0.  1.
         14    1    5    5    0    0 -0.15017872911E+02 -0.12499961089E+00  0.10088566293E+02  0.18092299509E+02  0.00000000000E+00 0. -1.
         11    1    3    3    0    0  0.43374674447E+01  0.13341418246E+02 -0.28476999900E+03  0.28511534402E+03  0.00000000000E+00 0. -1.
        -12    1    3    3    0    0 -0.44387644196E+02 -0.38865829388E+01 -0.87971902835E+02  0.98612495012E+02  0.00000000000E+00 0.  1.
          5    1    4    4  501    0  0.72754582729E+02 -0.53544097542E+02 -0.31207832913E+02  0.95664000151E+02  0.41800000000E+01 0.  1.
         -5    1    4    4    0  501 -0.14428628350E+02 -0.23300283584E+02  0.58377130040E+02  0.64625461259E+02  0.41800000000E+01 0.  1.
</event>
<event>
11    1  0.8037748E-009  0.1561948E+03  0.7561462E-02  0.1090712E+00
         22   -1    0    0    0    0  0.00000000000E+00  0.00000000000E+00  0.12711562395E+04  0.12711562395E+04  0.00000000000E+00 0.  1.
         22   -1    0    0    0    0 -0.00000000000E+00 -0.00000000000E+00 -0.19458905127E+03  0.19458905127E+03  0.00000000000E+00 0.  1.
         24    2    1    2    0    0 -0.92288982852E+02  0.15492833083E+02 -0.14415792073E+03  0.19006567999E+03  0.81155236223E+02 0.  0.
         25    2    1    2    0    0  0.10187186389E+03  0.57623842871E+02  0.28584660627E+03  0.33324851256E+03  0.12509158601E+03 0.  0.
        -24    2    1    2    0    0 -0.95828810349E+01 -0.73116675954E+02  0.93487850268E+03  0.94243109820E+03  0.93491604871E+02 0.  0.
        -13    1    3    3    0    0 -0.64655379487E+02 -0.28770129261E+02 -0.71380995844E+02  0.10051509838E+03  0.00000000000E+00 0.  1.
         14    1    3    3    0    0 -0.27633603365E+02  0.44262962344E+02 -0.72776924886E+02  0.89550581607E+02  0.00000000000E+00 0. -1.
         11    1    5    5    0    0 -0.17631532653E+02  0.15969035488E+02  0.34388293634E+03  0.34470473589E+03  0.00000000000E+00 0. -1.
        -12    1    5    5    0    0  0.80486516183E+01 -0.89085711442E+02  0.59099556634E+03  0.59772636232E+03  0.00000000000E+00 0.  1.
          5    1    4    4  501    0  0.85308813448E+02  0.48419730981E+02  0.80435232762E+02  0.12692266570E+03  0.41800000000E+01 0.  1.
         -5    1    4    4    0  501  0.16563050439E+02  0.92041118903E+01  0.20541137351E+03  0.20632584686E+03  0.41800000000E+01 0.  1.
</event>
<event>
11    1  0.8037748E-009  0.1984429E+03  0.7561462E-02  0.1055630E+00
         22   -1    0    0    0    0  0.00000000000E+00  0.00000000000E+00  0.82572346377E+03  0.82572346377E+03  0.00000000000E+00 0.  1.
         22   -1    0    0    0    0 -0.00000000000E+00 -0.00000000000E+00 -0.12804021902E+04  0.12804021902E+04  0.00000000000E+00 0.  1.
         24    2    1    2    0    0  0.26735332267E+02  0.51674375341E+02 -0.10071437813E+04  0.10118801487E+04  0.78599109805E+02 0.  0.
         25    2    1    2    0    0 -0.26826919323E+01 -0.20213120565E+03 -0.20714313553E+03  0.31531454744E+03  0.12510301393E+03 0.  0.
        -24    2    1    2    0    0 -0.24052640334E+02  0.15045683031E+03  0.75960819040E+03  0.77893095784E+03  0.80703450107E+02 0.  0.
        -11    1    3    3    0    0  0.42874566910E+02  0.59199338300E+02 -0.92207192894E+03  0.92496455731E+03  0.00000000000E+00 0.  1.
         12    1    3    3    0    0 -0.16139234644E+02 -0.75249629588E+01 -0.85071852379E+02  0.86915591407E+02  0.00000000000E+00 0. -1.
         13    1    5    5    0    0 -0.27851328065E+02  0.31136420741E+02  0.96380215689E+02  0.10504436752E+03  0.00000000000E+00 0. -1.
        -14    1    5    5    0    0  0.37986877307E+01  0.11932040957E+03  0.66322797471E+03  0.67388659031E+03  0.00000000000E+00 0.  1.
          5    1    4    4  501    0 -0.33642855387E+02 -0.15517397228E+02 -0.36735918290E+01  0.37464636823E+02  0.41800000000E+01 0.  1.
         -5    1    4    4    0  501  0.30960163455E+02 -0.18661380842E+03 -0.20346954370E+03  0.27784991062E+03  0.41800000000E+01 0.  1.
</event>
<event>
11    1  0.8037748E-009  0.1463008E+03  0.7561462E-02  0.1100720E+00
         22   -1    0    0    0    0  0.00000000000E+00  0.00000000000E+00  0.59393390681E+03  0.59393390681E+03  0.00000000000E+00 0. -1.
         22   -1    0    0    0    0 -0.00000000000E+00 -0.00000000000E+00 -0.39495915720E+03  0.39495915720E+03  0.00000000000E+00 0. -1.
        -24    2    1    2    0    0 -0.38734779847E+02 -0.62771310686E+02 -0.32090444383E+03  0.33867838466E+03  0.79263898135E+02 0.  0.
         25    2    1    2    0    0  0.14270387424E+02  0.11220816337E+03  0.58030805420E+02  0.17835028334E+03  0.12508770246E+03 0.  0.
         24    2    1    2    0    0  0.24464392423E+02 -0.49436852684E+02  0.46184838802E+03  0.47186439602E+03  0.79432775434E+02 0.  0.
        -13    1    5    5    0    0  0.81444924917E+01  0.57916476274E+01  0.45964644372E+01  0.11000155704E+02  0.00000000000E+00 0.  1.
         14    1    5    5    0    0  0.16319899931E+02 -0.55228500311E+02  0.45725192358E+03  0.46086424031E+03  0.00000000000E+00 0. -1.
         11    1    3    3    0    0  0.18293075598E+02 -0.72503257740E+01 -0.13537164058E+03  0.13679431608E+03  0.00000000000E+00 0. -1.
        -12    1    3    3    0    0 -0.57027855445E+02 -0.55520984912E+02 -0.18553280325E+03  0.20188406858E+03  0.00000000000E+00 0.  1.
          5    1    4    4  501    0 -0.34269384596E+02  0.46031985224E+02 -0.23903120778E+02  0.62307029838E+02  0.41800000000E+01 0. -1.
         -5    1    4    4    0  501  0.48539772020E+02  0.66176178146E+02  0.81933926198E+02  0.11604325350E+03  0.41800000000E+01 0. -1.
</event>
<event>
11    1  0.8037748E-009  0.2064061E+03  0.7561462E-02  0.1050084E+00
         22   -1    0    0    0    0  0.00000000000E+00  0.00000000000E+00  0.18161503944E+04  0.18161503944E+04  0.00000000000E+00 0.  1.
         22   -1    0    0    0    0 -0.00000000000E+00 -0.00000000000E+00 -0.13698695302E+03  0.13698695302E+03  0.00000000000E+00 0. -1.
        -24    2    1    2    0    0 -0.14388743144E+02 -0.27748907372E+02 -0.52401830824E+02  0.97827637190E+02  0.76467358623E+02 0.  0.
         25    2    1    2    0    0  0.47877533350E+02 -0.13507793803E+03  0.10315531572E+03  0.21639534877E+03  0.12509044835E+03 0.  0.
         24    2    1    2    0    0 -0.33488790206E+02  0.16282684540E+03  0.16284099564E+04  0.16389143614E+04  0.81775406850E+02 0.  0.
        -11    1    5    5    0    0 -0.31411005055E+01  0.97487622944E+02  0.12435600608E+04  0.12473793842E+04  0.00000000000E+00 0.  1.
         12    1    5    5    0    0 -0.30347689701E+02  0.65339222457E+02  0.38484989560E+03  0.39153497725E+03  0.00000000000E+00 0. -1.
         13    1    3    3    0    0  0.28993108212E+02  0.27572895038E+01 -0.23546126043E+02  0.37451609055E+02  0.00000000000E+00 0. -1.
        -14    1    3    3    0    0 -0.43381851356E+02 -0.30506196875E+02 -0.28855704781E+02  0.60376028135E+02  0.00000000000E+00 0.  1.
          5    1    4    4  501    0  0.62337069611E+02 -0.49041906344E+02 -0.23087132869E+01  0.79459558158E+02  0.41800000000E+01 0.  1.
         -5    1    4    4    0  501 -0.14459536261E+02 -0.86036031685E+02  0.10546402901E+03  0.13693579062E+03  0.41800000000E+01 0.  1.
</event>
<event>
11    1  0.8037748E-009  0.1428610E+03  0.7561462E-02  0.1104405E+00
         22   -1    0    0    0    0  0.00000000000E+00  0.00000000000E+00  0.16105108036E+04  0.16105108036E+04  0.00000000000E+00 0.  1.
         22   -1    0    0    0    0 -0.00000000000E+00 -0.00000000000E+00 -0.64931548569E+03  0.64931548569E+03  0.00000000000E+00 0. -1.
        -24    2    1    2    0    0 -0.54632478894E+02  0.40017896326E+02 -0.60182492650E+03  0.61095753876E+03  0.80558874355E+02 0.  0.
         25    2    1    2    0    0  0.10268013710E+03 -0.64085154074E+02  0.14240838720E+03  0.22489459652E+03  0.12508922125E+03 0.  0.
         24    2    1    2    0    0 -0.48047658204E+02  0.24067257748E+02  0.14206118572E+04  0.14239741540E+04  0.81710048760E+02 0.  0.
        -11    1    5    5    0    0 -0.56557988327E+02  0.78338197654E+01  0.13435430146E+04  0.13447557425E+04  0.00000000000E+00 0.  1.
         12    1    5    5    0    0  0.85103301225E+01  0.16233437982E+02  0.77068842617E+02  0.79218411558E+02  0.00000000000E+00 0. -1.
         13    1    3    3    0    0 -0.69108043874E+02  0.14218754841E+02 -0.49894308959E+03  0.50390703644E+03  0.00000000000E+00 0. -1.
        -14    1    3    3    0    0  0.14475564981E+02  0.25799141485E+02 -0.10288183690E+03  0.10705050232E+03  0.00000000000E+00 0.  1.
          5    1    4    4  501    0  0.30142439283E+02  0.24950473618E+02 -0.31052311044E+01  0.39474138875E+02  0.41800000000E+01 0.  1.
         -5    1    4    4    0  501  0.72537697815E+02 -0.89035627692E+02  0.14551361830E+03  0.18542045765E+03  0.41800000000E+01 0.  1.
</event>
<event>
11    1  0.8037748E-009  0.2073142E+03  0.7561462E-02  0.1049469E+00
         22   -1    0    0    0    0  0.00000000000E+00  0.00000000000E+00  0.12401723116E+04  0.12401723116E+04  0.00000000000E+00 0.  1.
         22   -1    0    0    0    0 -0.00000000000E+00 -0.00000000000E+00 -0.35652434654E+03  0.35652434654E+03  0.00000000000E+00 0.  1.
         24    2    1    2    0    0 -0.22697246695E+02  0.16418682769E+03 -0.28647173181E+03  0.33987213522E+03  0.77295121303E+02 0.  0.
         25    2    1    2    0    0 -0.96354595267E+02 -0.17138672898E+03  0.32772398096E+03  0.40212992435E+03  0.12509136446E+03 0.  0.
        -24    2    1    2    0    0  0.11905184196E+03  0.71999012884E+01  0.84239571589E+03  0.85469459854E+03  0.81529963585E+02 0.  0.
        -13    1    3    3    0    0 -0.10240453774E+02  0.11507355711E+03 -0.25571068837E+03  0.28059712505E+03  0.00000000000E+00 0.  1.
         14    1    3    3    0    0 -0.12456792921E+02  0.49113270587E+02 -0.30761043446E+02  0.59275010177E+02  0.00000000000E+00 0. -1.
         11    1    5    5    0    0  0.39610657808E+02 -0.99247015813E+01  0.10227550406E+03  0.11012621234E+03  0.00000000000E+00 0. -1.
        -12    1    5    5    0    0  0.79441184154E+02  0.17124602870E+02  0.74012021183E+03  0.74456838620E+03  0.00000000000E+00 0.  1.
          5    1    4    4  501    0 -0.74563166911E+02 -0.16953970279E+03  0.33129971840E+03  0.37957917816E+03  0.41800000000E+01 0.  1.
         -5    1    4    4    0  501 -0.21791428355E+02 -0.18470261928E+01 -0.35757374390E+01  0.22550746191E+02  0.41800000000E+01 0.  1.
</event>
<event>
11    1  0.8037748E-009  0.1766620E+03  0.7561462E-02  0.1072375E+00
         22   -1    0    0    0    0  0.00000000000E+00  0.00000000000E+00  0.42892473403E+03  0.42892473403E+03  0.00000000000E+00 0.  1.
         22   -1    0    0    0    0 -0.00000000000E+00 -0.00000000000E+00 -0.19268650164E+04  0.19268650164E+04  0.00000000000E+00 0. -1.
        -24    2    1    2    0    0 -0.43391558054E+02 -0.48345558430E+02 -0.16021566894E+04  0.16054989114E+04  0.80626155250E+02 0.  0.
         25    2    1    2    0    0  0.15147817506E+03  0.10550717888E+03 -0.26982550452E+03  0.35004417546E+03  0.12509084528E+03 0.  0.
         24    2    1    2    0    0 -0.10808661701E+03 -0.57161620445E+02  0.37404191151E+03  0.40024666357E+03  0.73074431227E+02 0.  0.
        -11    1    5    5    0    0 -0.10486620553E+03 -0.47170290643E+02  0.37224028829E+03  0.38959567453E+03  0.00000000000E+00 0.  1.
         12    1    5    5    0    0 -0.32204114779E+01 -0.99913298020E+01  0.18016232211E+01  0.10650989040E+02  0.00000000000E+00 0. -1.
         11    1    3    3    0    0 -0.47082197283E+01 -0.47383049527E+02 -0.13003778562E+04  0.13012493572E+04  0.00000000000E+00 0. -1.
        -12    1    3    3    0    0 -0.38683338325E+02 -0.96250890250E+00 -0.30177883322E+03  0.30424955426E+03  0.00000000000E+00 0.  1.
          5    1    4    4  501    0 -0.21550031515E+02  0.15798139745E+02 -0.44680931540E+02  0.52228757605E+02  0.41800000000E+01 0. -1.
         -5    1    4    4    0  501  0.17302820658E+03  0.89709039130E+02 -0.22514457298E+03  0.29781541786E+03  0.41800000000E+01 0. -1.
</event>
<event>
11    1  0.8037748E-009  0.1387933E+03  0.7561462E-02  0.1108913E+00
         22   -1    0    0    0    0  0.00000000000E+00  0.00000000000E+00  0.42906112228E+03  0.42906112228E+03  0.00000000000E+00 0.  1.
         22   -1    0    0    0    0 -0.00000000000E+00 -0.00000000000E+00 -0.42737481418E+03  0.42737481418E+03  0.00000000000E+00 0. -1.
         24    2    1    2    0    0  0.42318804155E+02 -0.14872011124E+02 -0.37632978325E+03  0.38813924915E+03  0.83761047423E+02 0.  0.
         25    2    1    2    0    0 -0.55458944042E+02 -0.44193049997E+02  0.10994775194E+03  0.18101247832E+03  0.12509312135E+03 0.  0.
        -24    2    1    2    0    0  0.13140139887E+02  0.59065061120E+02  0.26806833941E+03  0.28728420900E+03  0.83727160604E+02 0.  0.
        -11    1    3    3    0    0  0.31960955493E+02 -0.33045027898E+02 -0.90143637865E+02  0.10118968323E+03  0.00000000000E+00 0.  1.
         12    1    3    3    0    0  0.10357848662E+02  0.18173016775E+02 -0.28618614539E+03  0.28694956592E+03  0.00000000000E+00 0. -1.
         11    1    5    5    0    0  0.34858466352E+02  0.24848564422E+01  0.50360879559E+02  0.61298494091E+02  0.00000000000E+00 0. -1.
        -12    1    5    5    0    0 -0.21718326465E+02  0.56580204678E+02  0.21770745985E+03  0.22598571491E+03  0.00000000000E+00 0.  1.
          5    1    4    4  501    0  0.24717366496E+02  0.65473530571E+01 -0.10212984636E+02  0.27849479236E+02  0.41800000000E+01 0. -1.
         -5    1    4    4    0  501 -0.80176310538E+02 -0.50740403054E+02  0.12016073658E+03  0.15316299908E+03  0.41800000000E+01 0. -1.
</event>
<event>
11    1  0.8037748E-009  0.2212388E+03  0.7561462E-02  0.1040444E+00
         22   -1    0    0    0    0  0.00000000000E+00  0.00000000000E+00  0.30961045007E+03  0.30961045007E+03  0.00000000000E+00 0. -1.
         22   -1    0    0    0    0 -0.00000000000E+00 -0.00000000000E+00 -0.37991144791E+03  0.37991144791E+03  0.00000000000E+00 0.  1.
         24    2    1    2    0    0 -0.71619307514E+02  0.15652368070E+03 -0.15179743161E+03  0.24270968540E+03  0.78971788072E+02 0.  0.
         25    2    1    2    0    0  0.20713009715E+03 -0.13851205571E+03  0.61157613861E+02  0.28544304286E+03  0.12509600418E+03 0.  0.
        -24    2    1    2    0    0 -0.13551078964E+03 -0.18011624999E+02  0.20338819907E+02  0.16136916972E+03  0.83299151247E+02 0.  0.
        -13    1    3    3    0    0 -0.14116423461E+01  0.97600535540E+02 -0.82490665657E+02  0.12779893267E+03  0.00000000000E+00 0.  1.
         14    1    3    3    0    0 -0.70207665168E+02  0.58923145165E+02 -0.69306765957E+02  0.11491075273E+03  0.00000000000E+00 0. -1.
         13    1    5    5    0    0 -0.14021487209E+03 -0.22067536005E+02  0.19440869805E+01  0.14195409812E+03  0.00000000000E+00 0. -1.
        -14    1    5    5    0    0  0.47040824497E+01  0.40559110068E+01  0.18394732926E+02  0.19415071600E+02  0.00000000000E+00 0.  1.
          5    1    4    4  501    0  0.16965506237E+02 -0.30451512645E+02 -0.32157067031E+02  0.47609582904E+02  0.41800000000E+01 0. -1.
         -5    1    4    4    0  501  0.19016459091E+03 -0.10806054306E+03  0.93314680892E+02  0.23783345995E+03  0.41800000000E+01 0. -1.
</event>
<event>
11    1  0.8037748E-009  0.1302124E+03  0.7561462E-02  0.1119008E+00
         22   -1    0    0    0    0  0.00000000000E+00  0.00000000000E+00  0.36073449167E+02  0.36073449167E+02  0.00000000000E+00 0. -1.
         22   -1    0    0    0    0 -0.00000000000E+00 -0.00000000000E+00 -0.15519902958E+04  0.15519902958E+04  0.00000000000E+00 0.  1.
         24    2    1    2    0    0 -0.42466444284E+00  0.11176919508E+02 -0.10824410149E+04  0.10855473191E+04  0.81297768936E+02 0.  0.
         25    2    1    2    0    0 -0.23319133866E+02 -0.36536147213E+02 -0.37419488060E+03  0.39692406510E+03  0.12509289639E+03 0.  0.
        -24    2    1    2    0    0  0.23743798309E+02  0.25359227705E+02 -0.59280951090E+02  0.10559236080E+03  0.80178906890E+02 0.  0.
        -11    1    3    3    0    0 -0.29562013767E+02 -0.17013641861E+02 -0.72735631686E+03  0.72815560723E+03  0.00000000000E+00 0.  1.
         12    1    3    3    0    0  0.29137349324E+02  0.28190561369E+02 -0.35508469808E+03  0.35739171183E+03  0.00000000000E+00 0. -1.
         13    1    5    5    0    0 -0.16581190859E+02  0.25231678998E+02  0.41013286021E+01  0.30469565335E+02  0.00000000000E+00 0. -1.
        -14    1    5    5    0    0  0.40324989168E+02  0.12754870631E+00 -0.63382279692E+02  0.75122795469E+02  0.00000000000E+00 0.  1.
          5    1    4    4  501    0 -0.30793255684E+02  0.20887344434E+02 -0.30184895463E+03  0.30416240656E+03  0.41800000000E+01 0.  1.
         -5    1    4    4    0  501  0.74741218182E+01 -0.57423491647E+02 -0.72345925967E+02  0.92761658533E+02  0.41800000000E+01 0.  1.
</event>
<event>
11    1  0.8037748E-009  0.1757224E+03  0.7561462E-02  0.1073156E+00
         22   -1    0    0    0    0  0.00000000000E+00  0.00000000000E+00  0.64797097502E+03  0.64797097502E+03  0.00000000000E+00 0.  1.
         22   -1    0    0    0    0 -0.00000000000E+00 -0.00000000000E+00 -0.74026128180E+03  0.74026128180E+03  0.00000000000E+00 0. -1.
        -24    2    1    2    0    0 -0.83986931040E+01 -0.43052300986E+01 -0.67638562374E+03  0.68108198295E+03  0.79284818497E+02 0.  0.
         25    2    1    2    0    0 -0.61209296515E+02  0.10645422919E+03  0.10164054069E+03  0.20262682391E+03  0.12509096437E+03 0.  0.
         24    2    1    2    0    0  0.69607989619E+02 -0.10214899909E+03  0.48245477628E+03  0.50452344996E+03  0.80632562729E+02 0.  0.
        -13    1    5    5    0    0  0.78042630279E+02 -0.10255868958E+03  0.47781122872E+03  0.49488635790E+03  0.00000000000E+00 0.  1.
         14    1    5    5    0    0 -0.84346406606E+01  0.40969048971E+00  0.46435475590E+01  0.96370920564E+01  0.00000000000E+00 0. -1.
         13    1    3    3    0    0 -0.17037979287E+02 -0.30127176489E+02 -0.57690307017E+03  0.57794038782E+03  0.00000000000E+00 0. -1.
        -14    1    3    3    0    0  0.86392861828E+01  0.25821946390E+02 -0.99482553571E+02  0.10314159513E+03  0.00000000000E+00 0.  1.
          5    1    4    4  501    0  0.38632681372E+02  0.33505300292E+02  0.34870225459E+02  0.62036233293E+02  0.41800000000E+01 0. -1.
         -5    1    4    4    0  501 -0.99841977887E+02  0.72948928893E+02  0.66770315230E+02  0.14059059062E+03  0.41800000000E+01 0. -1.
</event>
<event>
11    1  0.8037748E-009  0.2208083E+03  0.7561462E-02  0.1040712E+00
         22   -1    0    0    0    0  0.00000000000E+00  0.00000000000E+00  0.11912330943E+03  0.11912330943E+03  0.00000000000E+00 0. -1.
         22   -1    0    0    0    0 -0.00000000000E+00 -0.00000000000E+00 -0.16135618607E+04  0.16135618607E+04  0.00000000000E+00 0. -1.
         24    2    1    2    0    0  0.65135218610E+00 -0.16200783773E+03 -0.92594866346E+03  0.94427558544E+03  0.89601842346E+02 0.  0.
         25    2    1    2    0    0 -0.44789199102E+01  0.24823589341E+03 -0.60398836025E+03  0.66489893536E+03  0.12509010923E+03 0.  0.
        -24    2    1    2    0    0  0.38275677241E+01 -0.86228055677E+02  0.35498472474E+02  0.12351064930E+03  0.80900006690E+02 0.  0.
        -13    1    3    3    0    0 -0.33811431317E+02 -0.61576840011E+02 -0.51772365590E+03  0.52246789757E+03  0.00000000000E+00 0.  1.
         14    1    3    3    0    0  0.34462783503E+02 -0.10043099772E+03 -0.40822500756E+03  0.42180768787E+03  0.00000000000E+00 0. -1.
         11    1    5    5    0    0 -0.35666444368E+02 -0.55024672053E+02  0.32245568215E+02  0.73072474010E+02  0.00000000000E+00 0. -1.
        -12    1    5    5    0    0  0.39494012092E+02 -0.31203383624E+02  0.32529042591E+01  0.50438175292E+02  0.00000000000E+00 0.  1.
          5    1    4    4  501    0  0.25156995916E+01  0.62990463091E+02 -0.49598749426E+02  0.80322073738E+02  0.41800000000E+01 0.  1.
         -5    1    4    4    0  501 -0.69946195018E+01  0.18524543031E+03 -0.55438961082E+03  0.58457686162E+03  0.41800000000E+01 0.  1.
</event>
<event>
11    1  0.8037748E-009  0.1433868E+03  0.7561462E-02  0.1103834E+00
         22   -1    0    0    0    0  0.00000000000E+00  0.00000000000E+00  0.37712181206E+03  0.37712181206E+03  0.00000000000E+00 0.  1.
         22   -1    0    0    0    0 -0.00000000000E+00 -0.00000000000E+00 -0.69024572824E+03  0.69024572824E+03  0.00000000000E+00 0. -1.
         24    2    1    2    0    0 -0.53627801564E+02  0.38033019826E+02 -0.51073417885E+03  0.52091661541E+03  0.78627393894E+02 0.  0.
         25    2    1    2    0    0 -0.15259732207E+02 -0.13412464874E+02 -0.14175603872E+03  0.19014515685E+03  0.12509057725E+03 0.  0.
        -24    2    1    2    0    0  0.68887533771E+02 -0.24620554952E+02  0.33936630139E+03  0.35630576805E+03  0.80203801622E+02 0.  0.
        -11    1    3    3    0    0 -0.61241879278E+02  0.44078679949E+02 -0.28033101265E+03  0.29030841266E+03  0.00000000000E+00 0.  1.
         12    1    3    3    0    0  0.76140777137E+01 -0.60456601226E+01 -0.23040316619E+03  0.23060820275E+03  0.00000000000E+00 0. -1.
         13    1    5    5    0    0 -0.74564938792E+01 -0.26532333254E+02  0.50678128094E+02  0.57687404830E+02  0.00000000000E+00 0. -1.
        -14    1    5    5    0    0  0.76344027650E+02  0.19117783022E+01  0.28868817329E+03  0.29861836322E+03  0.00000000000E+00 0.  1.
          5    1    4    4  501    0 -0.32743361906E+02  0.50461104986E+02 -0.64203060318E+02  0.88079261007E+02  0.41800000000E+01 0.  1.
         -5    1    4    4    0  501  0.17483629699E+02 -0.63873569860E+02 -0.77552978404E+02  0.10206589584E+03  0.41800000000E+01 0.  1.
</event>
<event>
11    1  0.8037748E-009  0.1655799E+03  0.7561462E-02  0.1081943E+00
         22   -1    0    0    0    0  0.00000000000E+00  0.00000000000E+00  0.68439236347E+03  0.68439236347E+03  0.00000000000E+00 0.  1.
         22   -1    0    0    0    0 -0.00000000000E+00 -0.00000000000E+00 -0.11411828849E+04  0.11411828849E+04  0.00000000000E+00 0.  1.
         24    2    1    2    0    0  0.36923184960E+02 -0.29395919915E+02 -0.99727619455E+03  0.10016470982E+04  0.80682460630E+02 0.  0.
         25    2    1    2    0    0 -0.94473922145E+02 -0.62851673898E+02 -0.81374316935E+02  0.18747520852E+03  0.12509803946E+03 0.  0.
        -24    2    1    2    0    0  0.57550737185E+02  0.92247593813E+02  0.62185999003E+03  0.63645294165E+03  0.80875174306E+02 0.  0.
        -13    1    3    3    0    0  0.19008295757E+02 -0.23081682652E+02 -0.95299196211E+03  0.95346093744E+03  0.00000000000E+00 0.  1.
         14    1    3    3    0    0  0.17914889202E+02 -0.63142372628E+01 -0.44284232441E+02  0.48186160775E+02  0.00000000000E+00 0. -1.
         11    1    5    5    0    0  0.30793375088E+02  0.23543931763E+02  0.72910271049E+02  0.82573944417E+02  0.00000000000E+00 0. -1.
        -12    1    5    5    0    0  0.26757362097E+02  0.68703662049E+02  0.54894971898E+03  0.55387899723E+03  0.00000000000E+00 0.  1.
          5    1    4    4  501    0 -0.63125936195E+02  0.99774486536E+00 -0.95769576884E+02  0.11478311536E+03  0.41800000000E+01 0.  1.
         -5    1    4    4    0  501 -0.31347985950E+02 -0.63849418763E+02  0.14395259949E+02  0.72692093164E+02  0.41800000000E+01 0.  1.
</event>
<event>
11    1  0.8037748E-009  0.1468242E+03  0.7561462E-02  0.1100169E+00
         22   -1    0    0    0    0  0.00000000000E+00  0.00000000000E+00  0.87238374950E+03  0.87238374950E+03  0.00000000000E+00 0.  1.
         22   -1    0    0    0    0 -0.00000000000E+00 -0.00000000000E+00 -0.19341320355E+03  0.19341320355E+03  0.00000000000E+00 0. -1.
         24    2    1    2    0    0  0.31102244092E+01  0.62944397121E+02 -0.11755819803E+03  0.15504528617E+03  0.79040750344E+02 0.  0.
         25    2    1    2    0    0  0.72458936092E+02 -0.43005097150E+02  0.54632273657E+02  0.16041220645E+03  0.12509058659E+03 0.  0.
        -24    2    1    2    0    0 -0.75569160501E+02 -0.19939299971E+02  0.74189647033E+03  0.75033946043E+03  0.80564629268E+02 0.  0.
        -13    1    3    3    0    0  0.25690107869E+02  0.91944332646E+01 -0.42454633831E+01  0.27614184846E+02  0.00000000000E+00 0.  1.
         14    1    3    3    0    0 -0.22579883460E+02  0.53749963857E+02 -0.11331273465E+03  0.12743110133E+03  0.00000000000E+00 0. -1.
         11    1    5    5    0    0 -0.35511958150E+02 -0.42822108464E+02  0.24167515661E+03  0.24799539002E+03  0.00000000000E+00 0. -1.
        -12    1    5    5    0    0 -0.40057202352E+02  0.22882808493E+02  0.50022131371E+03  0.50234407041E+03  0.00000000000E+00 0.  1.
          5    1    4    4  501    0  0.68594939829E+02 -0.77342710522E+02  0.10192136595E+02  0.10396399708E+03  0.41800000000E+01 0. -1.
         -5    1    4    4    0  501  0.38639962634E+01  0.34337613371E+02  0.44440137062E+02  0.56448209372E+02  0.41800000000E+01 0. -1.
</event>
<event>
11    1  0.8404763E-009  0.2589570E+03  0.7561462E-02  0.1019233E+00
         22   -1    0    0    0    0  0.00000000000E+00  0.00000000000E+00  0.81350777610E+03  0.81350777610E+03  0.00000000000E+00 0. -1.
         22   -1    0    0    0    0 -0.00000000000E+00 -0.00000000000E+00 -0.13062061013E+04  0.13062061013E+04  0.00000000000E+00 0. -1.
        -24    2    1    2    0    0  0.28655956194E+02  0.11465141983E+02 -0.88532230201E+03  0.88945730868E+03  0.79913154256E+02 0.  0.
         25    2    1    2    0    0  0.19873021862E+03 -0.28031104577E+02 -0.36498852087E+03  0.43490686420E+03  0.12509163658E+03 0.  0.
         24    2    1    2    0    0 -0.22738617482E+03  0.16565962595E+02  0.75761249770E+03  0.79534970450E+03  0.81397494854E+02 0.  0.
        -13    1    5    5    0    0 -0.18864445282E+03  0.56996226031E+01  0.49659868051E+03  0.53125273154E+03  0.00000000000E+00 0.  1.
         14    1    5    5    0    0 -0.38741721997E+02  0.10866339992E+02  0.26101381718E+03  0.26409697296E+03  0.00000000000E+00 0. -1.
         13    1    3    3    0    0  0.48616766271E+02 -0.15973457384E+02 -0.58098073325E+03  0.58323010357E+03  0.00000000000E+00 0. -1.
        -14    1    3    3    0    0 -0.19960810077E+02  0.27438599366E+02 -0.30434156876E+03  0.30622720511E+03  0.00000000000E+00 0.  1.
          5    1    4    4  501    0  0.90617337010E+02 -0.21154547848E+02 -0.28595821865E+03  0.30074672380E+03  0.41800000000E+01 0. -1.
         -5    1    4    4    0  501  0.10811288161E+03 -0.68765567293E+01 -0.79030302222E+02  0.13416014040E+03  0.41800000000E+01 0. -1.
</event>
<event>
11    1  0.8037748E-009  0.1512859E+03  0.7561462E-02  0.1095572E+00
         22   -1    0    0    0    0  0.00000000000E+00  0.00000000000E+00  0.21595146226E+03  0.21595146226E+03  0.00000000000E+00 0. -1.
         22   -1    0    0    0    0 -0.00000000000E+00 -0.00000000000E+00 -0.33327057258E+03  0.33327057258E+03  0.00000000000E+00 0.  1.
        -24    2    1    2    0    0  0.32334816159E+02  0.17501196042E+01 -0.12836255368E+03  0.15799098422E+03  0.86229940584E+02 0.  0.
         25    2    1    2    0    0  0.31529023865E+02 -0.61529252631E+02 -0.13939604302E+03  0.19964598043E+03  0.12508929777E+03 0.  0.
         24    2    1    2    0    0 -0.63863840024E+02  0.59779133026E+02  0.15043948638E+03  0.19158507019E+03  0.80129053706E+02 0.  0.
        -13    1    5    5    0    0  0.17618092308E+02  0.21573510333E+02  0.26728682213E+02  0.38603574672E+02  0.00000000000E+00 0.  1.
         14    1    5    5    0    0 -0.81481932332E+02  0.38205622694E+02  0.12371080417E+03  0.15298149552E+03  0.00000000000E+00 0. -1.
         11    1    3    3    0    0 -0.15086706796E+02  0.97501627567E+01  0.29001793253E+01  0.18195753237E+02  0.00000000000E+00 0. -1.
        -12    1    3    3    0    0  0.47421522955E+02 -0.80000431525E+01 -0.13126273300E+03  0.13979523098E+03  0.00000000000E+00 0.  1.
          5    1    4    4  501    0 -0.43363972164E+02 -0.46893104525E+02 -0.82241300477E+02  0.10421372864E+03  0.41800000000E+01 0. -1.
         -5    1    4    4    0  501  0.74892996029E+02 -0.14636148106E+02 -0.57154742543E+02  0.95432251785E+02  0.41800000000E+01 0. -1.
</event>
<event>
11    1  0.8037748E-009  0.2309330E+03  0.7561462E-02  0.1034577E+00
         22   -1    0    0    0    0  0.00000000000E+00  0.00000000000E+00  0.78278731135E+03  0.78278731135E+03  0.00000000000E+00 0.  1.
         22   -1    0    0    0    0 -0.00000000000E+00 -0.00000000000E+00 -0.71549037651E+03  0.71549037651E+03  0.00000000000E+00 0.  1.
        -24    2    1    2    0    0  0.11578954633E+02  0.19423054797E+03 -0.67117130373E+03  0.70300652075E+03  0.76731162603E+02 0.  0.
         25    2    1    2    0    0 -0.11364500437E+02 -0.17735987468E+03  0.56214445982E+03  0.60269131748E+03  0.12507898883E+03 0.  0.
         24    2    1    2    0    0 -0.21445419585E+00 -0.16870673287E+02  0.17632377874E+03  0.19257984963E+03  0.75579480851E+02 0.  0.
        -11    1    5    5    0    0 -0.17096453058E+02  0.20121924476E+02  0.12142107606E+03  0.12425883576E+03  0.00000000000E+00 0.  1.
         12    1    5    5    0    0  0.16881998863E+02 -0.36992597763E+02  0.54902702679E+02  0.68321013871E+02  0.00000000000E+00 0. -1.
         13    1    3    3    0    0 -0.96962301796E+01  0.69761085247E+01 -0.10246403091E+02  0.15737590227E+02  0.00000000000E+00 0. -1.
        -14    1    3    3    0    0  0.21275184813E+02  0.18725443944E+03 -0.66092490064E+03  0.68726893052E+03  0.00000000000E+00 0.  1.
          5    1    4    4  501    0 -0.54750828570E+02 -0.92517693395E+02  0.18827105907E+03  0.21684243335E+03  0.41800000000E+01 0.  1.
         -5    1    4    4    0  501  0.43386328132E+02 -0.84842181286E+02  0.37387340075E+03  0.38584888413E+03  0.41800000000E+01 0.  1.
</event>
<event>
11    1  0.8037748E-009  0.1544485E+03  0.7561462E-02  0.1092418E+00
         22   -1    0    0    0    0  0.00000000000E+00  0.00000000000E+00  0.49183091503E+03  0.49183091503E+03  0.00000000000E+00 0.  1.
         22   -1    0    0    0    0 -0.00000000000E+00 -0.00000000000E+00 -0.63079389313E+03  0.63079389313E+03  0.00000000000E+00 0. -1.
        -24    2    1    2    0    0  0.73353298675E+01  0.78997310718E+02 -0.37700071009E+03  0.39360759804E+03  0.80641327233E+02 0.  0.
         25    2    1    2    0    0 -0.88189106501E+01 -0.14054696957E+03 -0.20272165027E+03  0.27671920839E+03  0.12508488702E+03 0.  0.
         24    2    1    2    0    0  0.14835807826E+01  0.61549658848E+02  0.44075938227E+03  0.45229800174E+03  0.80709899028E+02 0.  0.
        -11    1    5    5    0    0 -0.17334759717E+02  0.73435054676E+02  0.38375620460E+03  0.39110359973E+03  0.00000000000E+00 0.  1.
         12    1    5    5    0    0  0.18818340500E+02 -0.11885395828E+02  0.57003177666E+02  0.61194402009E+02  0.00000000000E+00 0. -1.
         11    1    3    3    0    0  0.33903427381E+02  0.31218464733E+02 -0.26498867705E+03  0.26896660368E+03  0.00000000000E+00 0. -1.
        -12    1    3    3    0    0 -0.26568097513E+02  0.47778845985E+02 -0.11201203304E+03  0.12464099436E+03  0.00000000000E+00 0.  1.
          5    1    4    4  501    0 -0.53717994104E+02 -0.69978482373E+02 -0.15987936398E+03  0.18265129157E+03  0.41800000000E+01 0.  1.
         -5    1    4    4    0  501  0.44899083454E+02 -0.70568487193E+02 -0.42842286296E+02  0.94067916819E+02  0.41800000000E+01 0.  1.
</event>
<event>
11    1  0.8037748E-009  0.1479794E+03  0.7561462E-02  0.1098961E+00
         22   -1    0    0    0    0  0.00000000000E+00  0.00000000000E+00  0.58533207538E+03  0.58533207538E+03  0.00000000000E+00 0.  1.
         22   -1    0    0    0    0 -0.00000000000E+00 -0.00000000000E+00 -0.53648251830E+03  0.53648251830E+03  0.00000000000E+00 0. -1.
        -24    2    1    2    0    0 -0.75652935312E+02 -0.68957584203E+01 -0.44488974238E+03  0.45855789146E+03  0.81102027360E+02 0.  0.
         25    2    1    2    0    0  0.12923967730E+03 -0.30036555338E+02  0.25668694428E+02  0.18414774690E+03  0.12508565852E+03 0.  0.
         24    2    1    2    0    0 -0.53586741990E+02  0.36932313759E+02  0.46807060503E+03  0.47910895532E+03  0.78865487148E+02 0.  0.
        -13    1    5    5    0    0 -0.94099197519E+01  0.42906768766E+02  0.35270641429E+03  0.35543121990E+03  0.00000000000E+00 0.  1.
         14    1    5    5    0    0 -0.44176822238E+02 -0.59744550069E+01  0.11536419074E+03  0.12367773543E+03  0.00000000000E+00 0. -1.
         13    1    3    3    0    0 -0.80762544620E+02  0.59230314368E+01 -0.43248914017E+03  0.44000514461E+03  0.00000000000E+00 0. -1.
        -14    1    3    3    0    0  0.51096093089E+01 -0.12818789857E+02 -0.12400602207E+02  0.18552746853E+02  0.00000000000E+00 0.  1.
          5    1    4    4  501    0  0.10601526133E+03  0.27173496181E+02 -0.14337971430E+02  0.11045670806E+03  0.41800000000E+01 0. -1.
         -5    1    4    4    0  501  0.23224415970E+02 -0.57210051520E+02  0.40006665857E+02  0.73691038838E+02  0.41800000000E+01 0. -1.
</event>
<event>
11    1  0.8037748E-009  0.3116838E+03  0.7561462E-02  0.9953641E-01
         22   -1    0    0    0    0  0.00000000000E+00  0.00000000000E+00  0.66849651542E+03  0.66849651542E+03  0.00000000000E+00 0.  1.
         22   -1    0    0    0    0 -0.00000000000E+00 -0.00000000000E+00 -0.48616839298E+03  0.48616839298E+03  0.00000000000E+00 0.  1.
        -24    2    1    2    0    0  0.38205826688E+02  0.32637233361E+02 -0.24879600026E+03  0.26654778927E+03  0.81384273842E+02 0.  0.
         25    2    1    2    0    0  0.24180002598E+03 -0.11002593133E+03 -0.71510267318E+02  0.30221734276E+03  0.12509454746E+03 0.  0.
         24    2    1    2    0    0 -0.28000585267E+03  0.77388697973E+02  0.50263439002E+03  0.58589977636E+03  0.79024868309E+02 0.  0.
        -11    1    5    5    0    0 -0.21008435729E+03  0.20971746494E+02  0.34605239664E+03  0.40537330024E+03  0.00000000000E+00 0.  1.
         12    1    5    5    0    0 -0.69921495371E+02  0.56416951479E+02  0.15658199338E+03  0.18052647612E+03  0.00000000000E+00 0. -1.
         13    1    3    3    0    0  0.24318138770E+02 -0.23697998426E+02 -0.58913124314E+02  0.67997964815E+02  0.00000000000E+00 0. -1.
        -14    1    3    3    0    0  0.13887687918E+02  0.56335231787E+02 -0.18988287594E+03  0.19854982446E+03  0.00000000000E+00 0.  1.
          5    1    4    4  501    0  0.14493435613E+03 -0.84401189877E+02 -0.10329020309E+03  0.19701742790E+03  0.41800000000E+01 0.  1.
         -5    1    4    4    0  501  0.96865669848E+02 -0.25624741457E+02  0.31779935776E+02  0.10519991487E+03  0.41800000000E+01 0.  1.
</event>
<event>
11    1  0.8037748E-009  0.2006675E+03  0.7561462E-02  0.1054053E+00
         22   -1    0    0    0    0  0.00000000000E+00  0.00000000000E+00  0.37111057260E+03  0.37111057260E+03  0.00000000000E+00 0. -1.
         22   -1    0    0    0    0 -0.00000000000E+00 -0.00000000000E+00 -0.16391985793E+04  0.16391985793E+04  0.00000000000E+00 0. -1.
         24    2    1    2    0    0  0.87163960761E+02 -0.12554972303E+03 -0.14008828458E+04  0.14114684025E+04  0.80062566702E+02 0.  0.
         25    2    1    2    0    0 -0.17868444991E+03  0.13569869558E+03 -0.14565150830E+03  0.29530399016E+03  0.12509123117E+03 0.  0.
        -24    2    1    2    0    0  0.91520489147E+02 -0.10148972552E+02  0.27844634743E+03  0.30353675922E+03  0.78250841672E+02 0.  0.
        -13    1    3    3    0    0 -0.29082269225E+01  0.81134367334E+01 -0.32414263720E+02  0.33540574413E+02  0.00000000000E+00 0.  1.
         14    1    3    3    0    0  0.90072187684E+02 -0.13366315976E+03 -0.13684685821E+04  0.13779278281E+04  0.00000000000E+00 0. -1.
         13    1    5    5    0    0  0.72945833098E+02 -0.29861458017E+02  0.25751032005E+03  0.26930348340E+03  0.00000000000E+00 0. -1.
        -14    1    5    5    0    0  0.18574656048E+02  0.19712485466E+02  0.20936027380E+02  0.34233275815E+02  0.00000000000E+00 0.  1.
          5    1    4    4  501    0 -0.36767384655E+02  0.98017489334E+02 -0.90344421566E+02  0.13834325317E+03  0.41800000000E+01 0.  1.
         -5    1    4    4    0  501 -0.14191706525E+03  0.37681206249E+02 -0.55307086730E+02  0.15696073699E+03  0.41800000000E+01 0.  1.
</event>
<event>
11    1  0.8037748E-009  0.2239297E+03  0.7561462E-02  0.1038783E+00
         22   -1    0    0    0    0  0.00000000000E+00  0.00000000000E+00  0.18656916174E+04  0.18656916174E+04  0.00000000000E+00 0.  1.
         22   -1    0    0    0    0 -0.00000000000E+00 -0.00000000000E+00 -0.64592916074E+02  0.64592916074E+02  0.00000000000E+00 0. -1.
         24    2    1    2    0    0  0.10609579096E+03 -0.16466452507E+03  0.24858025335E+03  0.32605348726E+03  0.78409256610E+02 0.  0.
         25    2    1    2    0    0 -0.15603097935E+03  0.90239634195E+02  0.51467024368E+03  0.55948358712E+03  0.12509023316E+03 0.  0.
        -24    2    1    2    0    0  0.49935188395E+02  0.74424890875E+02  0.10378482043E+04  0.10447474591E+04  0.79597554653E+02 0.  0.
        -11    1    3    3    0    0  0.19156658676E+02 -0.88521774452E+02  0.75377083623E+02  0.11783372547E+03  0.00000000000E+00 0.  1.
         12    1    3    3    0    0  0.86939132280E+02 -0.76142750618E+02  0.17320316973E+03  0.20821976178E+03  0.00000000000E+00 0. -1.
         11    1    5    5    0    0  0.13219678473E+02  0.18310922553E+02  0.69697773587E+03  0.69734354094E+03  0.00000000000E+00 0. -1.
        -12    1    5    5    0    0  0.36715509922E+02  0.56113968322E+02  0.34087046840E+03  0.34740391814E+03  0.00000000000E+00 0.  1.
          5    1    4    4  501    0 -0.63824913573E+02  0.43957674679E+02  0.75273173339E+02  0.10811762012E+03  0.41800000000E+01 0.  1.
         -5    1    4    4    0  501 -0.92206065778E+02  0.46281959517E+02  0.43939707034E+03  0.45136596700E+03  0.41800000000E+01 0.  1.
</event>
<event>
11    1  0.8037748E-009  0.2327252E+03  0.7561462E-02  0.1033527E+00
         22   -1    0    0    0    0  0.00000000000E+00  0.00000000000E+00  0.11529826437E+04  0.11529826437E+04  0.00000000000E+00 0. -1.
         22   -1    0    0    0    0 -0.00000000000E+00 -0.00000000000E+00 -0.29488468589E+03  0.29488468589E+03  0.00000000000E+00 0. -1.
         24    2    1    2    0    0 -0.14936016042E+03  0.13191430819E+03 -0.20414602964E+03  0.29591615195E+03  0.78618861238E+02 0.  0.
         25    2    1    2    0    0  0.11514782212E+03 -0.13766681801E+03  0.23893742827E+03  0.32395931688E+03  0.12508945056E+03 0.  0.
        -24    2    1    2    0    0  0.34212338296E+02  0.57525098172E+01  0.82330655922E+03  0.82799186081E+03  0.80828557151E+02 0.  0.
        -13    1    3    3    0    0 -0.63917013728E+01 -0.99747815877E+01 -0.18616596840E+02  0.22066440403E+02  0.00000000000E+00 0.  1.
         14    1    3    3    0    0 -0.14296845904E+03  0.14188908978E+03 -0.18552943280E+03  0.27384971155E+03  0.00000000000E+00 0. -1.
         11    1    5    5    0    0  0.83958107520E+01 -0.28971963323E+02  0.58579006589E+03  0.58656616472E+03  0.00000000000E+00 0. -1.
        -12    1    5    5    0    0  0.25816527544E+02  0.34724473140E+02  0.23751649333E+03  0.24142569609E+03  0.00000000000E+00 0.  1.
          5    1    4    4  501    0  0.10397078822E+03 -0.15197287053E+03  0.16358985109E+03  0.24634283014E+03  0.41800000000E+01 0. -1.
         -5    1    4    4    0  501  0.11177033898E+02  0.14306052525E+02  0.75347577188E+02  0.77616486739E+02  0.41800000000E+01 0. -1.
</event>
<event>
11    1  0.8037748E-009  0.1835892E+03  0.7561462E-02  0.1066776E+00
         22   -1    0    0    0    0  0.00000000000E+00  0.00000000000E+00  0.59396359245E+03  0.59396359245E+03  0.00000000000E+00 0.  1.
         22   -1    0    0    0    0 -0.00000000000E+00 -0.00000000000E+00 -0.20149204714E+04  0.20149204714E+04  0.00000000000E+00 0.  1.
        -24    2    1    2    0    0  0.18426864368E+02 -0.13366828593E+03 -0.19773450172E+04  0.19836269397E+04  0.81705317180E+02 0.  0.
         25    2    1    2    0    0 -0.43958049075E+02  0.89844225916E+02  0.19579866043E+03  0.25295830212E+03  0.12508593916E+03 0.  0.
         24    2    1    2    0    0  0.25531184707E+02  0.43824060015E+02  0.36058947786E+03  0.37229882198E+03  0.77519363251E+02 0.  0.
        -11    1    5    5    0    0  0.38935150710E+02  0.48769261433E+02  0.34704761156E+03  0.35261371430E+03  0.00000000000E+00 0.  1.
         12    1    5    5    0    0 -0.13403966004E+02 -0.49452014181E+01  0.13541866296E+02  0.19685107683E+02  0.00000000000E+00 0. -1.
         13    1    3    3    0    0  0.50388927017E+02 -0.77850494617E+02 -0.12568765602E+04  0.12602929942E+04  0.00000000000E+00 0. -1.
        -14    1    3    3    0    0 -0.31962062649E+02 -0.55817791314E+02 -0.72046845697E+03  0.72333394554E+03  0.00000000000E+00 0.  1.
          5    1    4    4  501    0 -0.77439690188E+02  0.24526777901E+02  0.70284659408E+02  0.10749825207E+03  0.41800000000E+01 0. -1.
         -5    1    4    4    0  501  0.33481641113E+02  0.65317448015E+02  0.12551400103E+03  0.14546005005E+03  0.41800000000E+01 0. -1.
</event>
<event>
11    1  0.8037748E-009  0.9955965E+03  0.7561462E-02  0.8683214E-01
         22   -1    0    0    0    0  0.00000000000E+00  0.00000000000E+00  0.17247864028E+04  0.17247864028E+04  0.00000000000E+00 0.  1.
         22   -1    0    0    0    0 -0.00000000000E+00 -0.00000000000E+00 -0.18077260772E+04  0.18077260772E+04  0.00000000000E+00 0.  1.
        -24    2    1    2    0    0 -0.54862215104E+03 -0.46797794144E+02 -0.12491462717E+04  0.13674683043E+04  0.80167680006E+02 0.  0.
         25    2    1    2    0    0 -0.49186571974E+03 -0.14946112710E+03 -0.71736602766E+02  0.53391484287E+03  0.12509358294E+03 0.  0.
         24    2    1    2    0    0  0.10404878708E+04  0.19625892125E+03  0.12379432001E+04  0.16311293329E+04  0.83348428059E+02 0.  0.
        -13    1    5    5    0    0  0.10147284003E+04  0.17912067444E+03  0.11906274644E+04  0.15745957263E+04  0.00000000000E+00 0.  1.
         14    1    5    5    0    0  0.25759470449E+02  0.17138246808E+02  0.47315735688E+02  0.56533606511E+02  0.00000000000E+00 0. -1.
         13    1    3    3    0    0 -0.11130504515E+03 -0.42220590893E+02 -0.26100064147E+03  0.28686708807E+03  0.00000000000E+00 0. -1.
        -14    1    3    3    0    0 -0.43731710589E+03 -0.45772032502E+01 -0.98814563026E+03  0.10806012162E+04  0.00000000000E+00 0.  1.
          5    1    4    4  501    0 -0.38502776325E+03 -0.65733514670E+02 -0.29666795932E+02  0.39174591843E+03  0.41800000000E+01 0.  1.
         -5    1    4    4    0  501 -0.10683795649E+03 -0.83727612435E+02 -0.42069806833E+02  0.14216892445E+03  0.41800000000E+01 0.  1.
</event>
<event>
11    1  0.8037748E-009  0.1520093E+03  0.7561462E-02  0.1094843E+00
         22   -1    0    0    0    0  0.00000000000E+00  0.00000000000E+00  0.26574439393E+03  0.26574439393E+03  0.00000000000E+00 0.  1.
         22   -1    0    0    0    0 -0.00000000000E+00 -0.00000000000E+00 -0.64036231887E+03  0.64036231887E+03  0.00000000000E+00 0.  1.
         24    2    1    2    0    0 -0.57844224665E+02  0.59930356783E+02 -0.53428770527E+03  0.54663095028E+03  0.80027756475E+02 0.  0.
         25    2    1    2    0    0  0.83744550889E+02 -0.12544165095E+03  0.47766444034E+02  0.20168561378E+03  0.12508675403E+03 0.  0.
        -24    2    1    2    0    0 -0.25900326224E+02  0.65511294163E+02  0.11190333629E+03  0.15779014874E+03  0.86097722420E+02 0.  0.
        -11    1    3    3    0    0 -0.61829217835E+02  0.23109699193E+02 -0.44647245342E+03  0.45132533946E+03  0.00000000000E+00 0.  1.
         12    1    3    3    0    0  0.39849931699E+01  0.36820657590E+02 -0.87815251855E+02  0.95305610822E+02  0.00000000000E+00 0. -1.
         11    1    5    5    0    0  0.31086734902E+02  0.31847809197E+02  0.52804350727E+02  0.69057711323E+02  0.00000000000E+00 0. -1.
        -12    1    5    5    0    0 -0.56987061125E+02  0.33663484966E+02  0.59098985565E+02  0.88732437420E+02  0.00000000000E+00 0.  1.
          5    1    4    4  501    0 -0.31788654937E+02 -0.44229334930E+02  0.11572758511E+02  0.55840431504E+02  0.41800000000E+01 0. -1.
         -5    1    4    4    0  501  0.11553320583E+03 -0.81212316016E+02  0.36193685523E+02  0.14584518227E+03  0.41800000000E+01 0. -1.
</event>
<event>
11    1  0.8037748E-009  0.2295312E+03  0.7561462E-02  0.1035406E+00
         22   -1    0    0    0    0  0.00000000000E+00  0.00000000000E+00  0.36507245434E+03  0.36507245434E+03  0.00000000000E+00 0. -1.
         22   -1    0    0    0    0 -0.00000000000E+00 -0.00000000000E+00 -0.15170193397E+04  0.15170193397E+04  0.00000000000E+00 0.  1.
        -24    2    1    2    0    0 -0.21168722910E+02  0.18810713253E+03 -0.11170472964E+04  0.11359025216E+04  0.81532007202E+02 0.  0.
         25    2    1    2    0    0  0.37064519406E+02 -0.20204375103E+03 -0.34744375552E+03  0.42256333562E+03  0.12508858233E+03 0.  0.
         24    2    1    2    0    0 -0.15895796495E+02  0.13936618504E+02  0.31254416650E+03  0.32362593681E+03  0.81258755083E+02 0.  0.
        -11    1    5    5    0    0  0.16098798413E+02  0.17444543715E+02  0.25714284733E+02  0.34995826252E+02  0.00000000000E+00 0.  1.
         12    1    5    5    0    0 -0.31994594908E+02 -0.35079252103E+01  0.28682988177E+03  0.28863011056E+03  0.00000000000E+00 0. -1.
         11    1    3    3    0    0 -0.17620098800E+02  0.21841093826E+01 -0.15790130931E+03  0.15889638667E+03  0.00000000000E+00 0. -1.
        -12    1    3    3    0    0 -0.35486241105E+01  0.18592302314E+03 -0.95914598706E+03  0.97700613497E+03  0.00000000000E+00 0.  1.
          5    1    4    4  501    0 -0.20723089182E+02 -0.31416974157E+02 -0.86701009492E+01  0.38847338917E+02  0.41800000000E+01 0. -1.
         -5    1    4    4    0  501  0.57787608588E+02 -0.17062677687E+03 -0.33877365457E+03  0.38371599670E+03  0.41800000000E+01 0. -1.
</event>
<event>
11    1  0.8037748E-009  0.1653507E+03  0.7561462E-02  0.1082150E+00
         22   -1    0    0    0    0  0.00000000000E+00  0.00000000000E+00  0.69385874617E+03  0.69385874617E+03  0.00000000000E+00 0.  1.
         22   -1    0    0    0    0 -0.00000000000E+00 -0.00000000000E+00 -0.57161342281E+03  0.57161342281E+03  0.00000000000E+00 0.  1.
        -24    2    1    2    0    0 -0.44788449403E+02 -0.96431540669E+02 -0.44882731374E+03  0.46883899852E+03  0.84017865625E+02 0.  0.
         25    2    1    2    0    0 -0.90414950766E+01  0.13703235711E+03 -0.28556085291E+02  0.18793264076E+03  0.12507442555E+03 0.  0.
         24    2    1    2    0    0  0.53829944480E+02 -0.40600816442E+02  0.59962872239E+03  0.60870052969E+03  0.80097696049E+02 0.  0.
        -11    1    5    5    0    0  0.50721213827E+02  0.11576865217E+02  0.27245687356E+03  0.27737954735E+03  0.00000000000E+00 0.  1.
         12    1    5    5    0    0  0.31087306527E+01 -0.52177681659E+02  0.32717184883E+03  0.33132098234E+03  0.00000000000E+00 0. -1.
         13    1    3    3    0    0 -0.13643234831E+02  0.66575314720E+01 -0.13261295050E+02  0.20157443498E+02  0.00000000000E+00 0. -1.
        -14    1    3    3    0    0 -0.31145214572E+02 -0.10308907214E+03 -0.43556601869E+03  0.44868155503E+03  0.00000000000E+00 0.  1.
          5    1    4    4  501    0 -0.37863876001E+02  0.31542331649E+02  0.35727533308E+02  0.61012464530E+02  0.41800000000E+01 0.  1.
         -5    1    4    4    0  501  0.28822380925E+02  0.10549002546E+03 -0.64283618599E+02  0.12692017623E+03  0.41800000000E+01 0.  1.
</event>
<event>
11    1  0.8037748E-009  0.1667032E+03  0.7561462E-02  0.1080937E+00
         22   -1    0    0    0    0  0.00000000000E+00  0.00000000000E+00  0.10828161757E+04  0.10828161757E+04  0.00000000000E+00 0.  1.
         22   -1    0    0    0    0 -0.00000000000E+00 -0.00000000000E+00 -0.40824397484E+03  0.40824397484E+03  0.00000000000E+00 0. -1.
        -24    2    1    2    0    0 -0.52761033601E+02 -0.42536926499E+02 -0.33918592463E+03  0.35381126459E+03  0.74445971714E+02 0.  0.
         25    2    1    2    0    0  0.37153132779E+02  0.14875643475E+03  0.11539154801E+03  0.22906636990E+03  0.12508940928E+03 0.  0.
         24    2    1    2    0    0  0.15607900822E+02 -0.10621950825E+03  0.89836657749E+03  0.90818251605E+03  0.78783148068E+02 0.  0.
        -11    1    5    5    0    0  0.46154685990E+02 -0.64984019353E+02  0.46416923095E+03  0.47096311190E+03  0.00000000000E+00 0.  1.
         12    1    5    5    0    0 -0.30546785168E+02 -0.41235488896E+02  0.43419734654E+03  0.43721940415E+03  0.00000000000E+00 0. -1.
         11    1    3    3    0    0 -0.69598391514E+02 -0.37828858321E+02 -0.30836403011E+03  0.31837608844E+03  0.00000000000E+00 0. -1.
        -12    1    3    3    0    0  0.16837357914E+02 -0.47080681783E+01 -0.30821894522E+02  0.35435176159E+02  0.00000000000E+00 0.  1.
          5    1    4    4  501    0  0.69224890146E+02  0.47572743865E+02  0.20346008785E+02  0.86525625383E+02  0.41800000000E+01 0. -1.
         -5    1    4    4    0  501 -0.32071757367E+02  0.10118369088E+03  0.95045539225E+02  0.14254074452E+03  0.41800000000E+01 0. -1.
</event>
<event>
11    1  0.8037748E-009  0.1389348E+03  0.7561462E-02  0.1108754E+00
         22   -1    0    0    0    0  0.00000000000E+00  0.00000000000E+00  0.25357243725E+04  0.25357243725E+04  0.00000000000E+00 0.  1.
         22   -1    0    0    0    0 -0.00000000000E+00 -0.00000000000E+00 -0.55270852891E+02  0.55270852891E+02  0.00000000000E+00 0.  1.
         24    2    1    2    0    0  0.62722257400E+02 -0.46516656862E+01  0.62946056311E+01  0.10469834054E+03  0.83464968008E+02 0.  0.
         25    2    1    2    0    0 -0.16598637045E+02  0.33126783244E+02  0.92759513382E+03  0.93672500562E+03  0.12509238722E+03 0.  0.
        -24    2    1    2    0    0 -0.46123620355E+02 -0.28475117558E+02  0.15465637802E+04  0.15495718792E+04  0.79845238729E+02 0.  0.
        -13    1    3    3    0    0  0.79024974041E+02 -0.14339069297E+02 -0.83359334913E+01  0.80746784565E+02  0.00000000000E+00 0.  1.
         14    1    3    3    0    0 -0.16302716640E+02  0.96874036110E+01  0.14630539122E+02  0.23951555974E+02  0.00000000000E+00 0. -1.
         11    1    5    5    0    0 -0.13435771068E+02  0.13126842538E+02  0.10553279058E+04  0.10554950605E+04  0.00000000000E+00 0. -1.
        -12    1    5    5    0    0 -0.32687849287E+02 -0.41601960096E+02  0.49123587434E+03  0.49407681873E+03  0.00000000000E+00 0.  1.
          5    1    4    4  501    0 -0.10544882534E+02  0.77778070257E+02  0.71864617131E+03  0.72293181885E+03  0.41800000000E+01 0. -1.
         -5    1    4    4    0  501 -0.60537545104E+01 -0.44651287013E+02  0.20894896251E+03  0.21379318677E+03  0.41800000000E+01 0. -1.
</event>
<event>
11    1  0.8037748E-009  0.1297602E+03  0.7561462E-02  0.1119564E+00
         22   -1    0    0    0    0  0.00000000000E+00  0.00000000000E+00  0.27221831937E+04  0.27221831937E+04  0.00000000000E+00 0.  1.
         22   -1    0    0    0    0 -0.00000000000E+00 -0.00000000000E+00 -0.10168335737E+03  0.10168335737E+03  0.00000000000E+00 0.  1.
         24    2    1    2    0    0 -0.18702743397E+02  0.15302665101E+01 -0.67309770877E+02  0.10433920159E+03  0.77485026985E+02 0.  0.
         25    2    1    2    0    0  0.25383492060E+02 -0.35098966876E+02  0.27569236873E+03  0.30582722082E+03  0.12509095760E+03 0.  0.
        -24    2    1    2    0    0 -0.66807486629E+01  0.33568700366E+02  0.24121172384E+04  0.24137001286E+04  0.80419207372E+02 0.  0.
        -13    1    3    3    0    0 -0.29958493876E+02 -0.24148122004E+02 -0.65844919758E+02  0.76263992877E+02  0.00000000000E+00 0.  1.
         14    1    3    3    0    0  0.11255750479E+02  0.25678388514E+02 -0.14648511195E+01  0.28075208714E+02  0.00000000000E+00 0. -1.
         13    1    5    5    0    0 -0.17757223642E+02 -0.12213721351E+02  0.21489201897E+03  0.21597007617E+03  0.00000000000E+00 0. -1.
        -14    1    5    5    0    0  0.11076474979E+02  0.45782421717E+02  0.21972252195E+04  0.21977300525E+04  0.00000000000E+00 0.  1.
          5    1    4    4  501    0  0.77568597854E+01  0.44487021474E+02  0.14321455227E+03  0.15022364772E+03  0.41800000000E+01 0. -1.
         -5    1    4    4    0  501  0.17626632275E+02 -0.79585988350E+02  0.13247781646E+03  0.15560357310E+03  0.41800000000E+01 0. -1.
</event>
<event>
11    1  0.8037748E-009  0.2245419E+03  0.7561462E-02  0.1038409E+00
         22   -1    0    0    0    0  0.00000000000E+00  0.00000000000E+00  0.72171221744E+03  0.72171221744E+03  0.00000000000E+00 0.  1.
         22   -1    0    0    0    0 -0.00000000000E+00 -0.00000000000E+00 -0.14335286470E+04  0.14335286470E+04  0.00000000000E+00 0. -1.
         24    2    1    2    0    0 -0.18256186069E+02 -0.18441927812E+03 -0.13626500198E+04  0.13775920423E+04  0.81246538930E+02 0.  0.
         25    2    1    2    0    0  0.65859477609E+02  0.23098104585E+03  0.26859272954E+03  0.38141824426E+03  0.12509239928E+03 0.  0.
        -24    2    1    2    0    0 -0.47603291540E+02 -0.46561767723E+02  0.38224086068E+03  0.39623057790E+03  0.80352496631E+02 0.  0.
        -13    1    3    3    0    0  0.10286939104E+02  0.10951490044E+01 -0.16491654511E+03  0.16524069511E+03  0.00000000000E+00 0.  1.
         14    1    3    3    0    0 -0.28543125173E+02 -0.18551442713E+03 -0.11977334747E+04  0.12123513472E+04  0.00000000000E+00 0. -1.
         13    1    5    5    0    0 -0.57683700026E+02 -0.42460087066E+02  0.18043591136E+03  0.19413239388E+03  0.00000000000E+00 0. -1.
        -14    1    5    5    0    0  0.10080408486E+02 -0.41016806577E+01  0.20180494931E+03  0.20209818403E+03  0.00000000000E+00 0.  1.
          5    1    4    4  501    0  0.67432629637E+02  0.43401160682E+02  0.56188309862E+02  0.98007238781E+02  0.41800000000E+01 0.  1.
         -5    1    4    4    0  501 -0.15731520273E+01  0.18757988516E+03  0.21240441968E+03  0.28341100548E+03  0.41800000000E+01 0.  1.
</event>
<event>
11    1  0.8037748E-009  0.1374075E+03  0.7561462E-02  0.1110488E+00
         22   -1    0    0    0    0  0.00000000000E+00  0.00000000000E+00  0.42276858291E+03  0.42276858291E+03  0.00000000000E+00 0.  1.
         22   -1    0    0    0    0 -0.00000000000E+00 -0.00000000000E+00 -0.38414431953E+03  0.38414431953E+03  0.00000000000E+00 0. -1.
        -24    2    1    2    0    0  0.86159131246E+01  0.54371613282E+02 -0.32838977471E+03  0.34261155489E+03  0.80698990814E+02 0.  0.
         25    2    1    2    0    0 -0.13497137342E+02 -0.94343828954E+02  0.10975599858E+03  0.19177266403E+03  0.12508974646E+03 0.  0.
         24    2    1    2    0    0  0.48812242176E+01  0.39972215672E+02  0.25725803952E+03  0.27252868351E+03  0.80427483261E+02 0.  0.
        -11    1    5    5    0    0 -0.11664929135E+02  0.49027838100E+02  0.24477686144E+03  0.24991100692E+03  0.00000000000E+00 0.  1.
         12    1    5    5    0    0  0.16546153353E+02 -0.90556224277E+01  0.12481178074E+02  0.22617676593E+02  0.00000000000E+00 0. -1.
         13    1    3    3    0    0  0.20042194397E+02  0.72928361731E+02 -0.26492204145E+03  0.27550666697E+03  0.00000000000E+00 0. -1.
        -14    1    3    3    0    0 -0.11426281273E+02 -0.18556748449E+02 -0.63467733264E+02  0.67104887917E+02  0.00000000000E+00 0.  1.
          5    1    4    4  501    0 -0.36750321529E+02 -0.41116624103E+01  0.88644288716E+02  0.96139347940E+02  0.41800000000E+01 0.  1.
         -5    1    4    4    0  501  0.23253184187E+02 -0.90232166544E+02  0.21111709860E+02  0.95633316095E+02  0.41800000000E+01 0.  1.
</event>
<event>
11    1  0.8037748E-009  0.1298077E+03  0.7561462E-02  0.1119506E+00
         22   -1    0    0    0    0  0.00000000000E+00  0.00000000000E+00  0.18710879250E+03  0.18710879250E+03  0.00000000000E+00 0. -1.
         22   -1    0    0    0    0 -0.00000000000E+00 -0.00000000000E+00 -0.49594251705E+03  0.49594251705E+03  0.00000000000E+00 0. -1.
         24    2    1    2    0    0  0.20511280924E+01  0.11594249267E+02 -0.41076630867E+03  0.41882816437E+03  0.80928593144E+02 0.  0.
         25    2    1    2    0    0  0.17128164373E+02 -0.38457017469E+02  0.20191527400E+01  0.13199663561E+03  0.12508684434E+03 0.  0.
        -24    2    1    2    0    0 -0.19179292465E+02  0.26862768203E+02  0.99913431382E+02  0.13222650957E+03  0.80073107144E+02 0.  0.
        -13    1    3    3    0    0 -0.31942500123E+02  0.23705295814E+01 -0.79730926456E+02  0.85924172141E+02  0.00000000000E+00 0.  1.
         14    1    3    3    0    0  0.33993628215E+02  0.92237196853E+01 -0.33103538222E+03  0.33290399223E+03  0.00000000000E+00 0. -1.
         11    1    5    5    0    0 -0.36323145204E+02  0.29597386451E+02  0.10428210965E+03  0.11432468917E+03  0.00000000000E+00 0. -1.
        -12    1    5    5    0    0  0.17143852739E+02 -0.27346182479E+01 -0.43686782663E+01  0.17901820396E+02  0.00000000000E+00 0.  1.
          5    1    4    4  501    0  0.20995186412E+02 -0.79811958078E+02 -0.19686421911E+02  0.84945712737E+02  0.41800000000E+01 0.  1.
         -5    1    4    4    0  501 -0.38670220389E+01  0.41354940609E+02  0.21705574651E+02  0.47050922872E+02  0.41800000000E+01 0.  1.
</event>
<event>
11    1  0.8037748E-009  0.2005910E+03  0.7561462E-02  0.1054106E+00
         22   -1    0    0    0    0  0.00000000000E+00  0.00000000000E+00  0.29398858190E+03  0.29398858190E+03  0.00000000000E+00 0.  1.
         22   -1    0    0    0    0 -0.00000000000E+00 -0.00000000000E+00 -0.37978722285E+03  0.37978722285E+03  0.00000000000E+00 0. -1.
         24    2    1    2    0    0 -0.25193137996E+02  0.21483227633E+02 -0.20883435823E+03  0.22605844033E+03  0.79965029824E+02 0.  0.
         25    2    1    2    0    0  0.41707397261E+02  0.13880303321E+03 -0.49802458362E+02  0.19782234723E+03  0.12509039607E+03 0.  0.
        -24    2    1    2    0    0 -0.16514259265E+02 -0.16028626084E+03  0.17283817564E+03  0.24989501720E+03  0.81302389185E+02 0.  0.
        -13    1    3    3    0    0  0.90881335613E+00  0.10174077062E+02  0.42646827993E+01  0.11069114922E+02  0.00000000000E+00 0.  1.
         14    1    3    3    0    0 -0.26101951352E+02  0.11309150571E+02 -0.21309904103E+03  0.21498932541E+03  0.00000000000E+00 0. -1.
         11    1    5    5    0    0  0.13086041700E+02 -0.11521041887E+03  0.74740280552E+02  0.13795214620E+03  0.00000000000E+00 0. -1.
        -12    1    5    5    0    0 -0.29600300965E+02 -0.45075841974E+02  0.98097895092E+02  0.11194287100E+03  0.00000000000E+00 0.  1.
          5    1    4    4  501    0  0.60380948459E+02  0.88712802160E+02 -0.82140468221E+02  0.13520484135E+03  0.41800000000E+01 0.  1.
         -5    1    4    4    0  501 -0.18673551198E+02  0.50090231049E+02  0.32338009859E+02  0.62617505879E+02  0.41800000000E+01 0.  1.
</event>
<event>
11    1  0.8037748E-009  0.1352394E+03  0.7561462E-02  0.1112994E+00
         22   -1    0    0    0    0  0.00000000000E+00  0.00000000000E+00  0.81697164804E+03  0.81697164804E+03  0.00000000000E+00 0.  1.
         22   -1    0    0    0    0 -0.00000000000E+00 -0.00000000000E+00 -0.24705225293E+04  0.24705225293E+04  0.00000000000E+00 0.  1.
         24    2    1    2    0    0  0.61454165494E+01 -0.18533473477E+01 -0.22283076967E+04  0.22297370809E+04  0.79567942930E+02 0.  0.
         25    2    1    2    0    0 -0.54584422389E+02  0.18834732462E+02 -0.21864171339E+03  0.25842855314E+03  0.12508761701E+03 0.  0.
        -24    2    1    2    0    0  0.48439005839E+02 -0.16981385114E+02  0.79339852886E+03  0.79932854331E+03  0.82523874300E+02 0.  0.
        -13    1    3    3    0    0 -0.23281028482E+02 -0.15265493890E+02 -0.17981487950E+04  0.17983642930E+04  0.00000000000E+00 0.  1.
         14    1    3    3    0    0  0.29426445031E+02  0.13412146543E+02 -0.43015890179E+03  0.43137278789E+03  0.00000000000E+00 0. -1.
         13    1    5    5    0    0 -0.22149802075E+02 -0.13243548145E+02  0.25697115121E+03  0.25826377573E+03  0.00000000000E+00 0. -1.
        -14    1    5    5    0    0  0.70588807914E+02 -0.37378369693E+01  0.53642737765E+03  0.54106476758E+03  0.00000000000E+00 0.  1.
          5    1    4    4  501    0 -0.38662170671E+02 -0.38609413616E+02 -0.17778830723E+03  0.18604194379E+03  0.41800000000E+01 0. -1.
         -5    1    4    4    0  501 -0.15922251717E+02  0.57444146078E+02 -0.40853406154E+02  0.72386609347E+02  0.41800000000E+01 0. -1.
</event>
<event>
11    1  0.8037748E-009  0.2102185E+03  0.7561462E-02  0.1047524E+00
         22   -1    0    0    0    0  0.00000000000E+00  0.00000000000E+00  0.35570879234E+03  0.35570879234E+03  0.00000000000E+00 0. -1.
         22   -1    0    0    0    0 -0.00000000000E+00 -0.00000000000E+00 -0.17748188227E+04  0.17748188227E+04  0.00000000000E+00 0. -1.
        -24    2    1    2    0    0  0.44091971496E+02  0.21885547829E+02 -0.16103899796E+04  0.16132264044E+04  0.81978450301E+02 0.  0.
         25    2    1    2    0    0  0.68423428679E+02  0.11577716536E+03 -0.66172843709E+02  0.19522308338E+03  0.12508832651E+03 0.  0.
         24    2    1    2    0    0 -0.11251540017E+03 -0.13766271319E+03  0.25745279297E+03  0.32207812723E+03  0.76430632315E+02 0.  0.
        -11    1    5    5    0    0 -0.25681373053E+02  0.26249675186E-01  0.65740277169E+02  0.70578450346E+02  0.00000000000E+00 0.  1.
         12    1    5    5    0    0 -0.86834027122E+02 -0.13768896286E+03  0.19171251580E+03  0.25149967689E+03  0.00000000000E+00 0. -1.
         13    1    3    3    0    0  0.48220297519E+02  0.48647683576E+02 -0.11764686497E+04  0.11784609786E+04  0.00000000000E+00 0. -1.
        -14    1    3    3    0    0 -0.41283260233E+01 -0.26762135747E+02 -0.43392132983E+03  0.43476542580E+03  0.00000000000E+00 0.  1.
          5    1    4    4  501    0 -0.12920107674E+02  0.95243910421E+01 -0.58850047296E+02  0.61142813754E+02  0.41800000000E+01 0. -1.
         -5    1    4    4    0  501  0.81343536353E+02  0.10625277432E+03 -0.73227964137E+01  0.13408026963E+03  0.41800000000E+01 0. -1.
</event>
<event>
11    1  0.8037748E-009  0.1350230E+03  0.7561462E-02  0.1113247E+00
         22   -1    0    0    0    0  0.00000000000E+00  0.00000000000E+00  0.24153073912E+02  0.24153073912E+02  0.00000000000E+00 0. -1.
         22   -1    0    0    0    0 -0.00000000000E+00 -0.00000000000E+00 -0.23217722593E+04  0.23217722593E+04  0.00000000000E+00 0.  1.
         24    2    1    2    0    0 -0.24085950903E+01  0.31776069746E+02 -0.12321512105E+04  0.12352808499E+04  0.81894154886E+02 0.  0.
         25    2    1    2    0    0  0.20006183106E+02  0.19419693785E+02 -0.96004156515E+03  0.96855820678E+03  0.12509125157E+03 0.  0.
        -24    2    1    2    0    0 -0.17597588016E+02 -0.51195763531E+02 -0.10542640969E+03  0.14208627651E+03  0.78377935703E+02 0.  0.
        -11    1    3    3    0    0  0.38764557343E+02  0.12737693585E+02 -0.70584790581E+03  0.70702631202E+03  0.00000000000E+00 0.  1.
         12    1    3    3    0    0 -0.41173152434E+02  0.19038376161E+02 -0.52630330469E+03  0.52825453787E+03  0.00000000000E+00 0. -1.
         11    1    5    5    0    0 -0.38606501888E+02 -0.25861722994E+02 -0.20093472552E+02  0.50626458927E+02  0.00000000000E+00 0. -1.
        -12    1    5    5    0    0  0.21008913873E+02 -0.25334040537E+02 -0.85332937134E+02  0.91459817582E+02  0.00000000000E+00 0.  1.
          5    1    4    4  501    0  0.18579624496E+02  0.55641522140E+02 -0.86103766725E+03  0.86304375223E+03  0.41800000000E+01 0. -1.
         -5    1    4    4    0  501  0.14265586096E+01 -0.36221828355E+02 -0.99003897902E+02  0.10551445455E+03  0.41800000000E+01 0. -1.
</event>
<event>
11    1  0.8037748E-009  0.1504161E+03  0.7561462E-02  0.1096454E+00
         22   -1    0    0    0    0  0.00000000000E+00  0.00000000000E+00  0.17844950241E+04  0.17844950241E+04  0.00000000000E+00 0.  1.
         22   -1    0    0    0    0 -0.00000000000E+00 -0.00000000000E+00 -0.31712381774E+03  0.31712381774E+03  0.00000000000E+00 0.  1.
        -24    2    1    2    0    0  0.44529215025E+02  0.28123457289E+02 -0.20617983525E+03  0.22835900815E+03  0.82848852129E+02 0.  0.
         25    2    1    2    0    0 -0.65580290381E+02  0.53065931425E+02 -0.39388390432E+02  0.15593619219E+03  0.12509149919E+03 0.  0.
         24    2    1    2    0    0  0.21051075356E+02 -0.81189388714E+02  0.17129394320E+04  0.17173236415E+04  0.89465787814E+02 0.  0.
        -13    1    5    5    0    0  0.13909743593E+00  0.19619290184E+02  0.29426721957E+03  0.29492055270E+03  0.00000000000E+00 0.  1.
         14    1    5    5    0    0  0.20911977920E+02 -0.10080867890E+03  0.14186722125E+04  0.14224030888E+04  0.00000000000E+00 0. -1.
         13    1    3    3    0    0  0.66067027041E+02  0.31923289310E+02 -0.13200811556E+03  0.15103009977E+03  0.00000000000E+00 0. -1.
        -14    1    3    3    0    0 -0.21537812016E+02 -0.37998320214E+01 -0.74171719682E+02  0.77328908374E+02  0.00000000000E+00 0.  1.
          5    1    4    4  501    0 -0.14799579532E+01  0.20445417370E+02  0.42194358647E+02  0.47096089738E+02  0.41800000000E+01 0. -1.
         -5    1    4    4    0  501 -0.64100332427E+02  0.32620514055E+02 -0.81582749079E+02  0.10884010245E+03  0.41800000000E+01 0. -1.
</event>
<event>
11    1  0.8037748E-009  0.1320338E+03  0.7561462E-02  0.1116795E+00
         22   -1    0    0    0    0  0.00000000000E+00  0.00000000000E+00  0.10195408259E+04  0.10195408259E+04  0.00000000000E+00 0. -1.
         22   -1    0    0    0    0 -0.00000000000E+00 -0.00000000000E+00 -0.15803147462E+03  0.15803147462E+03  0.00000000000E+00 0.  1.
        -24    2    1    2    0    0 -0.36142217268E+02  0.21131230897E+02 -0.13052201844E+03  0.15958916987E+03  0.81730759524E+02 0.  0.
         25    2    1    2    0    0  0.61722245152E+02 -0.56277538626E+01  0.52671352029E+03  0.54490039075E+03  0.12509195106E+03 0.  0.
         24    2    1    2    0    0 -0.25580027884E+02 -0.15503477035E+02  0.46531784943E+03  0.47308273989E+03  0.79949247399E+02 0.  0.
        -13    1    5    5    0    0  0.11246710133E+02  0.18800596615E+02  0.48267952028E+02  0.53007038353E+02  0.00000000000E+00 0.  1.
         14    1    5    5    0    0 -0.36826738017E+02 -0.34304073650E+02  0.41704989740E+03  0.42007570154E+03  0.00000000000E+00 0. -1.
         11    1    3    3    0    0  0.16857479209E+02 -0.13806106300E+02 -0.11358311241E+02  0.24572228444E+02  0.00000000000E+00 0. -1.
        -12    1    3    3    0    0 -0.52999696478E+02  0.34937337197E+02 -0.11916370720E+03  0.13501694142E+03  0.00000000000E+00 0.  1.
          5    1    4    4  501    0  0.94317621567E+02 -0.20835285212E+02  0.29672408029E+03  0.31207783496E+03  0.41800000000E+01 0. -1.
         -5    1    4    4    0  501 -0.32595376415E+02  0.15207531350E+02  0.22998944000E+03  0.23282255579E+03  0.41800000000E+01 0. -1.
</event>
<event>
11    1  0.8037748E-009  0.1459733E+03  0.7561462E-02  0.1101066E+00
         22   -1    0    0    0    0  0.00000000000E+00  0.00000000000E+00  0.51966476244E+03  0.51966476244E+03  0.00000000000E+00 0. -1.
         22   -1    0    0    0    0 -0.00000000000E+00 -0.00000000000E+00 -0.84480354343E+03  0.84480354343E+03  0.00000000000E+00 0. -1.
         24    2    1    2    0    0 -0.39206813442E+02  0.64163771496E+02 -0.81485799666E+03  0.82519402596E+03  0.10628951951E+03 0.  0.
         25    2    1    2    0    0  0.42912902905E+02 -0.62740183378E+02  0.26551578284E+03  0.30319729554E+03  0.12510843793E+03 0.  0.
        -24    2    1    2    0    0 -0.37060894636E+01 -0.14235881186E+01  0.22420343284E+03  0.23607698438E+03  0.73820061991E+02 0.  0.
        -11    1    3    3    0    0 -0.10077761661E+02 -0.98275966528E+00 -0.35144029629E+01  0.10718121330E+02  0.00000000000E+00 0.  1.
         12    1    3    3    0    0 -0.29129051781E+02  0.65146531162E+02 -0.81134359370E+03  0.81447590463E+03  0.00000000000E+00 0. -1.
         11    1    5    5    0    0 -0.15354935642E+00  0.19137252813E+01  0.22913504158E+03  0.22914308456E+03  0.00000000000E+00 0. -1.
        -12    1    5    5    0    0 -0.35525401072E+01 -0.33373133999E+01 -0.49316087376E+01  0.69338998178E+01  0.00000000000E+00 0.  1.
          5    1    4    4  501    0 -0.10934222955E+01 -0.90703966909E+02  0.13612120300E+03  0.16363025237E+03  0.41800000000E+01 0.  1.
         -5    1    4    4    0  501  0.44006325201E+02  0.27963783531E+02  0.12939457984E+03  0.13956704317E+03  0.41800000000E+01 0.  1.
</event>
<event>
11    1  0.8037748E-009  0.1383453E+03  0.7561462E-02  0.1109420E+00
         22   -1    0    0    0    0  0.00000000000E+00  0.00000000000E+00  0.53983956765E+02  0.53983956765E+02  0.00000000000E+00 0. -1.
         22   -1    0    0    0    0 -0.00000000000E+00 -0.00000000000E+00 -0.19828393410E+04  0.19828393410E+04  0.00000000000E+00 0. -1.
         24    2    1    2    0    0  0.28965671747E+02 -0.10358563239E+02 -0.16186758517E+04  0.16210373755E+04  0.81880094196E+02 0.  0.
         25    2    1    2    0    0 -0.72905467131E+02 -0.24205727676E+02 -0.27873810036E+03  0.31503263775E+03  0.12509800103E+03 0.  0.
        -24    2    1    2    0    0  0.43939795384E+02  0.34564290915E+02 -0.31441432157E+02  0.10075328453E+03  0.77699838241E+02 0.  0.
        -11    1    3    3    0    0 -0.21758576798E+02  0.16927884206E+02 -0.36527352616E+03  0.36631235010E+03  0.00000000000E+00 0.  1.
         12    1    3    3    0    0  0.50724248545E+02 -0.27286447445E+02 -0.12534023255E+04  0.12547250254E+04  0.00000000000E+00 0. -1.
         11    1    5    5    0    0  0.54083757754E+01  0.16136064731E+02  0.24833532927E+02  0.30105273146E+02  0.00000000000E+00 0. -1.
        -12    1    5    5    0    0  0.38531419609E+02  0.18428226184E+02 -0.56274965084E+02  0.70648011384E+02  0.00000000000E+00 0.  1.
          5    1    4    4  501    0  0.84920497867E+01 -0.53462829994E+02 -0.15309725647E+03  0.16243962398E+03  0.41800000000E+01 0.  1.
         -5    1    4    4    0  501 -0.81397516918E+02  0.29257102318E+02 -0.12564084389E+03  0.15259301377E+03  0.41800000000E+01 0.  1.
</event>
<event>
11    1  0.8037748E-009  0.1374546E+03  0.7561462E-02  0.1110435E+00
         22   -1    0    0    0    0  0.00000000000E+00  0.00000000000E+00  0.55581601004E+03  0.55581601004E+03  0.00000000000E+00 0. -1.
         22   -1    0    0    0    0 -0.00000000000E+00 -0.00000000000E+00 -0.10674633600E+04  0.10674633600E+04  0.00000000000E+00 0.  1.
         24    2    1    2    0    0 -0.91437720341E+01  0.25806128757E+02 -0.93351213845E+03  0.93757681925E+03  0.82799846129E+02 0.  0.
         25    2    1    2    0    0  0.65638697741E+02 -0.20752193250E+02 -0.87162009969E+02  0.16728543160E+03  0.12509239577E+03 0.  0.
        -24    2    1    2    0    0 -0.56494925707E+02 -0.50539355075E+01  0.50902679848E+03  0.51841711917E+03  0.80192324998E+02 0.  0.
        -13    1    3    3    0    0  0.23571455099E+02  0.31690107265E+02 -0.75264653934E+03  0.75368208787E+03  0.00000000000E+00 0.  1.
         14    1    3    3    0    0 -0.32715227134E+02 -0.58839785080E+01 -0.18086559911E+03  0.18389473139E+03  0.00000000000E+00 0. -1.
         13    1    5    5    0    0  0.10488300046E+02 -0.24695093401E+01  0.26872379947E+03  0.26893973919E+03  0.00000000000E+00 0. -1.
        -14    1    5    5    0    0 -0.66983225753E+02 -0.25844261674E+01  0.24030299901E+03  0.24947737998E+03  0.00000000000E+00 0.  1.
          5    1    4    4  501    0  0.63345926565E+02 -0.26481022269E+02  0.10288320873E+02  0.69550506103E+02  0.41800000000E+01 0.  1.
         -5    1    4    4    0  501  0.22927711760E+01  0.57288290194E+01 -0.97450330842E+02  0.97734925501E+02  0.41800000000E+01 0.  1.
</event>
<event>
11    1  0.8037748E-009  0.1360436E+03  0.7561462E-02  0.1112059E+00
         22   -1    0    0    0    0  0.00000000000E+00  0.00000000000E+00  0.40360918919E+03  0.40360918919E+03  0.00000000000E+00 0. -1.
         22   -1    0    0    0    0 -0.00000000000E+00 -0.00000000000E+00 -0.29209175422E+04  0.29209175422E+04  0.00000000000E+00 0. -1.
        -24    2    1    2    0    0  0.29896764206E+02 -0.25681013006E+02 -0.27972169091E+04  0.27986566555E+04  0.80643089669E+02 0.  0.
         25    2    1    2    0    0 -0.49584851809E+02 -0.24729638891E+02 -0.76284640344E+02  0.15664925277E+03  0.12509767973E+03 0.  0.
         24    2    1    2    0    0  0.19688087603E+02  0.50410651897E+02  0.35619319640E+03  0.36922082315E+03  0.80756228661E+02 0.  0.
        -13    1    5    5    0    0  0.43351084924E+02  0.18110024816E+02  0.10740495895E+03  0.11723103160E+03  0.00000000000E+00 0.  1.
         14    1    5    5    0    0 -0.23662997321E+02  0.32300627081E+02  0.24878823745E+03  0.25198979155E+03  0.00000000000E+00 0. -1.
         13    1    3    3    0    0  0.22443818670E+02 -0.37655607697E+02 -0.27060578553E+04  0.27064129001E+04  0.00000000000E+00 0. -1.
        -14    1    3    3    0    0  0.74529455356E+01  0.11974594691E+02 -0.91159053828E+02  0.92243755398E+02  0.00000000000E+00 0.  1.
          5    1    4    4  501    0 -0.68778877564E+02 -0.55907210428E+02 -0.80181349250E+02  0.11959377636E+03  0.41800000000E+01 0. -1.
         -5    1    4    4    0  501  0.19194025755E+02  0.31177571537E+02  0.38967089061E+01  0.37055476410E+02  0.41800000000E+01 0. -1.
</event>
<event>
11    1  0.8037748E-009  0.1340382E+03  0.7561462E-02  0.1114405E+00
         22   -1    0    0    0    0  0.00000000000E+00  0.00000000000E+00  0.10428014393E+04  0.10428014393E+04  0.00000000000E+00 0. -1.
         22   -1    0    0    0    0 -0.00000000000E+00 -0.00000000000E+00 -0.45282924823E+03  0.45282924823E+03  0.00000000000E+00 0. -1.
        -24    2    1    2    0    0  0.16264509915E+02  0.29880490215E+02 -0.39234370671E+03  0.40220814696E+03  0.81733905503E+02 0.  0.
         25    2    1    2    0    0 -0.32638340140E+02 -0.73616570485E+02  0.50888413362E+02  0.15723435998E+03  0.12509337571E+03 0.  0.
         24    2    1    2    0    0  0.16373830225E+02  0.43736080270E+02  0.93142748442E+03  0.93618818059E+03  0.81915833047E+02 0.  0.
        -11    1    5    5    0    0  0.35001884796E+02  0.48590521215E+01  0.17494060511E+03  0.17847396909E+03  0.00000000000E+00 0.  1.
         12    1    5    5    0    0 -0.18628054571E+02  0.38877028148E+02  0.75648687931E+03  0.75771421150E+03  0.00000000000E+00 0. -1.
         13    1    3    3    0    0  0.37912194261E+02  0.40570541452E+02 -0.34075328430E+03  0.34524788786E+03  0.00000000000E+00 0. -1.
        -14    1    3    3    0    0 -0.21647684345E+02 -0.10690051237E+02 -0.51590422410E+02  0.56960259106E+02  0.00000000000E+00 0.  1.
          5    1    4    4  501    0 -0.74905855072E+02 -0.16320521952E+02  0.33834228678E+02  0.83901573234E+02  0.41800000000E+01 0. -1.
         -5    1    4    4    0  501  0.42267514932E+02 -0.57296048533E+02  0.17054184683E+02  0.73332786741E+02  0.41800000000E+01 0. -1.
</event>
<event>
11    1  0.8037748E-009  0.1450811E+03  0.7561462E-02  0.1102014E+00
         22   -1    0    0    0    0  0.00000000000E+00  0.00000000000E+00  0.15275148607E+04  0.15275148607E+04  0.00000000000E+00 0.  1.
         22   -1    0    0    0    0 -0.00000000000E+00 -0.00000000000E+00 -0.50854266725E+02  0.50854266725E+02  0.00000000000E+00 0.  1.
         24    2    1    2    0    0  0.11597057876E+02  0.44737513464E+02  0.19457872176E+02  0.95983721468E+02  0.81843320649E+02 0.  0.
         25    2    1    2    0    0 -0.12479864723E+02  0.41487047575E+02  0.47943895103E+03  0.49738069659E+03  0.12509567314E+03 0.  0.
        -24    2    1    2    0    0  0.88280684658E+00 -0.86224561040E+02  0.97776377074E+03  0.98500470934E+03  0.82321514609E+02 0.  0.
        -11    1    3    3    0    0  0.40549315202E+02  0.38015408314E+02  0.31530604367E+02  0.63903030009E+02  0.00000000000E+00 0.  1.
         12    1    3    3    0    0 -0.28952257326E+02  0.67221051504E+01 -0.12072732191E+02  0.32080691459E+02  0.00000000000E+00 0. -1.
         11    1    5    5    0    0  0.67669697061E+01 -0.32279977181E+02  0.94770413834E+02  0.10034550386E+03  0.00000000000E+00 0. -1.
        -12    1    5    5    0    0 -0.58841628596E+01 -0.53944583859E+02  0.88299335691E+03  0.88465920548E+03  0.00000000000E+00 0.  1.
          5    1    4    4  501    0 -0.53715982565E+02  0.63569962586E+02  0.26219815393E+03  0.27512159357E+03  0.41800000000E+01 0. -1.
         -5    1    4    4    0  501  0.41236117842E+02 -0.22082915011E+02  0.21724079710E+03  0.22225910302E+03  0.41800000000E+01 0. -1.
</event>
<event>
11    1  0.8037748E-009  0.3268153E+03  0.7561462E-02  0.9894404E-01
         22   -1    0    0    0    0  0.00000000000E+00  0.00000000000E+00  0.37178161242E+03  0.37178161242E+03  0.00000000000E+00 0. -1.
         22   -1    0    0    0    0 -0.00000000000E+00 -0.00000000000E+00 -0.78425813619E+03  0.78425813619E+03  0.00000000000E+00 0. -1.
        -24    2    1    2    0    0  0.89646468783E+02 -0.17938130957E+03 -0.31078910563E+03  0.37877789629E+03  0.81662004332E+02 0.  0.
         25    2    1    2    0    0 -0.18854209634E+03 -0.13982716199E+03 -0.28368399810E+03  0.38887104092E+03  0.12507724960E+03 0.  0.
         24    2    1    2    0    0  0.98895627558E+02  0.31920847156E+03  0.18199657995E+03  0.38839081141E+03  0.77783506011E+02 0.  0.
        -11    1    5    5    0    0  0.88510722148E+02  0.16741452581E+03  0.82264299943E+02  0.20646836666E+03  0.00000000000E+00 0.  1.
         12    1    5    5    0    0  0.10384905410E+02  0.15179394574E+03  0.99732280012E+02  0.18192244474E+03  0.00000000000E+00 0. -1.
         13    1    3    3    0    0  0.99216666618E+02 -0.11702638238E+03 -0.22223135942E+03  0.27004795540E+03  0.00000000000E+00 0. -1.
        -14    1    3    3    0    0 -0.95701978354E+01 -0.62354927190E+02 -0.88557746213E+02  0.10872994089E+03  0.00000000000E+00 0.  1.
          5    1    4    4  501    0 -0.10696963559E+02  0.17792208540E+02 -0.55443843165E+02  0.59350483225E+02  0.41800000000E+01 0. -1.
         -5    1    4    4    0  501 -0.17784513278E+03 -0.15761937053E+03 -0.22824015493E+03  0.32952055769E+03  0.41800000000E+01 0. -1.
</event>
<event>
11    1  0.8037748E-009  0.1320875E+03  0.7561462E-02  0.1116730E+00
         22   -1    0    0    0    0  0.00000000000E+00  0.00000000000E+00  0.13652959829E+04  0.13652959829E+04  0.00000000000E+00 0. -1.
         22   -1    0    0    0    0 -0.00000000000E+00 -0.00000000000E+00 -0.81864621261E+02  0.81864621261E+02  0.00000000000E+00 0.  1.
         24    2    1    2    0    0  0.24578194264E+02  0.10142026350E+02 -0.47453667090E+02  0.96960765365E+02  0.80265753395E+02 0.  0.
         25    2    1    2    0    0 -0.14295434700E+02 -0.49107968228E+02  0.70880344635E+03  0.72157013823E+03  0.12508072127E+03 0.  0.
        -24    2    1    2    0    0 -0.10282759563E+02  0.38965941878E+02  0.62208158234E+03  0.62862970053E+03  0.81029164654E+02 0.  0.
        -13    1    3    3    0    0  0.53923853172E+02  0.10040477514E+02 -0.26601647935E+02  0.60960977702E+02  0.00000000000E+00 0.  1.
         14    1    3    3    0    0 -0.29345658908E+02  0.10154883652E+00 -0.20852019155E+02  0.35999787662E+02  0.00000000000E+00 0. -1.
         13    1    5    5    0    0 -0.19292680891E+02  0.14800949177E+02  0.56994171894E+03  0.57046019898E+03  0.00000000000E+00 0. -1.
        -14    1    5    5    0    0  0.90099213274E+01  0.24164992701E+02  0.52139863400E+02  0.58169501545E+02  0.00000000000E+00 0.  1.
          5    1    4    4  501    0 -0.11717704359E+02  0.34010244922E+02  0.87288290053E+02  0.94502483223E+02  0.41800000000E+01 0. -1.
         -5    1    4    4    0  501 -0.25777303412E+01 -0.83118213150E+02  0.62151515630E+03  0.62706765501E+03  0.41800000000E+01 0. -1.
</event>
<event>
11    1  0.8037748E-009  0.1422855E+03  0.7561462E-02  0.1105033E+00
         22   -1    0    0    0    0  0.00000000000E+00  0.00000000000E+00  0.51767675372E+03  0.51767675372E+03  0.00000000000E+00 0.  1.
         22   -1    0    0    0    0 -0.00000000000E+00 -0.00000000000E+00 -0.21044401181E+03  0.21044401181E+03  0.00000000000E+00 0.  1.
        -24    2    1    2    0    0 -0.14848617149E+02  0.69367486383E+02 -0.16126293689E+03  0.19480015895E+03  0.83120620266E+02 0.  0.
         25    2    1    2    0    0  0.92018826976E+01 -0.36864510985E+02  0.13287613125E+03  0.18640631341E+03  0.12509028983E+03 0.  0.
         24    2    1    2    0    0  0.56467344518E+01 -0.32502975398E+02  0.33561954755E+03  0.34691429317E+03  0.81367789010E+02 0.  0.
        -13    1    5    5    0    0  0.16023454741E+02 -0.20898997459E+02  0.32891067550E+03  0.32996325804E+03  0.00000000000E+00 0.  1.
         14    1    5    5    0    0 -0.10376720289E+02 -0.11603977939E+02  0.67088720532E+01  0.16951035136E+02  0.00000000000E+00 0. -1.
         13    1    3    3    0    0 -0.43495030808E+02  0.12047817200E+02 -0.63365701085E+02  0.77795756171E+02  0.00000000000E+00 0. -1.
        -14    1    3    3    0    0  0.28646413659E+02  0.57319669183E+02 -0.97897235804E+02  0.11700440278E+03  0.00000000000E+00 0.  1.
          5    1    4    4  501    0  0.66458797899E+02 -0.11541778504E+02  0.61567615541E+02  0.91422251956E+02  0.41800000000E+01 0. -1.
         -5    1    4    4    0  501 -0.57256915202E+02 -0.25322732481E+02  0.71308515706E+02  0.94984061457E+02  0.41800000000E+01 0. -1.
</event>
<event>
11    1  0.8037748E-009  0.2557222E+03  0.7561462E-02  0.1020894E+00
         22   -1    0    0    0    0  0.00000000000E+00  0.00000000000E+00  0.20377511778E+04  0.20377511778E+04  0.00000000000E+00 0. -1.
         22   -1    0    0    0    0 -0.00000000000E+00 -0.00000000000E+00 -0.47705994599E+03  0.47705994599E+03  0.00000000000E+00 0.  1.
        -24    2    1    2    0    0  0.81095384722E+01  0.22110964402E+03 -0.41666308672E+03  0.47848579670E+03  0.79908012813E+02 0.  0.
         25    2    1    2    0    0  0.73553767441E+02 -0.28314815557E+03  0.97613394095E+03  0.10266780711E+04  0.12508939336E+03 0.  0.
         24    2    1    2    0    0 -0.81663305913E+02  0.62038511548E+02  0.10012203776E+04  0.10096472560E+04  0.80172717185E+02 0.  0.
        -13    1    5    5    0    0  0.16327667972E+01 -0.11174024373E+02  0.28978447469E+02  0.31101047665E+02  0.00000000000E+00 0.  1.
         14    1    5    5    0    0 -0.83296072710E+02  0.73212535922E+02  0.97224193013E+03  0.97854620833E+03  0.00000000000E+00 0. -1.
         13    1    3    3    0    0 -0.14855945181E+02  0.44656566063E+02 -0.39453417493E+02  0.61412377838E+02  0.00000000000E+00 0. -1.
        -14    1    3    3    0    0  0.22965483653E+02  0.17645307796E+03 -0.37720966923E+03  0.41707341886E+03  0.00000000000E+00 0.  1.
          5    1    4    4  501    0  0.10691225721E+03 -0.22643738337E+03  0.72512470506E+03  0.76715541425E+03  0.41800000000E+01 0. -1.
         -5    1    4    4    0  501 -0.33358489773E+02 -0.56710772205E+02  0.25100923590E+03  0.25952265687E+03  0.41800000000E+01 0. -1.
</event>
<event>
11    1  0.8037748E-009  0.1348057E+03  0.7561462E-02  0.1113501E+00
         22   -1    0    0    0    0  0.00000000000E+00  0.00000000000E+00  0.22737858970E+04  0.22737858970E+04  0.00000000000E+00 0. -1.
         22   -1    0    0    0    0 -0.00000000000E+00 -0.00000000000E+00 -0.18000071813E+03  0.18000071813E+03  0.00000000000E+00 0. -1.
         24    2    1    2    0    0  0.40435628531E+01  0.35797096928E+01 -0.15814506285E+03  0.17739508873E+03  0.80187230148E+02 0.  0.
         25    2    1    2    0    0  0.46598201373E+02 -0.34001658593E+01  0.39291973576E+03  0.41499000181E+03  0.12509128409E+03 0.  0.
        -24    2    1    2    0    0 -0.50641764226E+02 -0.17954383355E+00  0.18590105060E+04  0.18614015246E+04  0.79567291991E+02 0.  0.
        -13    1    3    3    0    0  0.28887501604E+02  0.31623872794E+02 -0.88071818117E+02  0.97934683467E+02  0.00000000000E+00 0.  1.
         14    1    3    3    0    0 -0.24843938750E+02 -0.28044163102E+02 -0.70073244734E+02  0.79460405261E+02  0.00000000000E+00 0. -1.
         11    1    5    5    0    0 -0.77249695086E+01  0.47249557640E+01  0.14653816098E+04  0.14654095887E+04  0.00000000000E+00 0. -1.
        -12    1    5    5    0    0 -0.42916794717E+02 -0.49044995976E+01  0.39362889626E+03  0.39599193597E+03  0.00000000000E+00 0.  1.
          5    1    4    4  501    0  0.83839055862E+02  0.19304298970E+02  0.30232543131E+03  0.31435613889E+03  0.41800000000E+01 0. -1.
         -5    1    4    4    0  501 -0.37240854489E+02 -0.22704464830E+02  0.90594304450E+02  0.10063386291E+03  0.41800000000E+01 0. -1.
</event>
<event>
11    1  0.8037748E-009  0.1775115E+03  0.7561462E-02  0.1071674E+00
         22   -1    0    0    0    0  0.00000000000E+00  0.00000000000E+00  0.37420894306E+03  0.37420894306E+03  0.00000000000E+00 0. -1.
         22   -1    0    0    0    0 -0.00000000000E+00 -0.00000000000E+00 -0.27568850215E+04  0.27568850215E+04  0.00000000000E+00 0. -1.
         24    2    1    2    0    0 -0.24263082954E+02  0.91235594879E+02 -0.26178192549E+04  0.26218230597E+04  0.10984477367E+03 0.  0.
         25    2    1    2    0    0 -0.10353932800E+03 -0.58422052604E+02 -0.54444683066E+02  0.18094837960E+03  0.12507823108E+03 0.  0.
        -24    2    1    2    0    0  0.12780241095E+03 -0.32813542275E+02  0.28958785956E+03  0.32832252518E+03  0.80773555907E+02 0.  0.
        -13    1    3    3    0    0 -0.25783663788E+02  0.11700468591E+02 -0.14578225228E+03  0.14850644217E+03  0.00000000000E+00 0.  1.
         14    1    3    3    0    0  0.15205808339E+01  0.79535126288E+02 -0.24720370026E+04  0.24733166176E+04  0.00000000000E+00 0. -1.
         13    1    5    5    0    0  0.12884048320E+03 -0.13296390678E+02  0.27486060856E+03  0.30385032213E+03  0.00000000000E+00 0. -1.
        -14    1    5    5    0    0 -0.10380722433E+01 -0.19517151597E+02  0.14727250994E+02  0.24472203053E+02  0.00000000000E+00 0.  1.
          5    1    4    4  501    0  0.58755254100E+01  0.29156894862E+02  0.12971835541E+01  0.30063289940E+02  0.41800000000E+01 0. -1.
         -5    1    4    4    0  501 -0.10941485341E+03 -0.87578947466E+02 -0.55741866620E+02  0.15088508966E+03  0.41800000000E+01 0. -1.
</event>
<event>
11    1  0.8037748E-009  0.1441519E+03  0.7561462E-02  0.1103009E+00
         22   -1    0    0    0    0  0.00000000000E+00  0.00000000000E+00  0.20663565051E+04  0.20663565051E+04  0.00000000000E+00 0. -1.
         22   -1    0    0    0    0 -0.00000000000E+00 -0.00000000000E+00 -0.89100557188E+03  0.89100557188E+03  0.00000000000E+00 0.  1.
         24    2    1    2    0    0 -0.64434376187E+02 -0.33132354908E+02 -0.72286373415E+03  0.73094019851E+03  0.80573282581E+02 0.  0.
         25    2    1    2    0    0  0.17781811421E+02  0.95892386539E+02 -0.12403184217E+03  0.20136097278E+03  0.12510316092E+03 0.  0.
        -24    2    1    2    0    0  0.46652564766E+02 -0.62760031632E+02  0.20222465095E+04  0.20250609057E+04  0.72632244845E+02 0.  0.
        -11    1    3    3    0    0 -0.61829461014E+02 -0.52059306110E+02 -0.66743209123E+03  0.67230844856E+03  0.00000000000E+00 0.  1.
         12    1    3    3    0    0 -0.26049151730E+01  0.18926951202E+02 -0.55431642927E+02  0.58631749953E+02  0.00000000000E+00 0. -1.
         13    1    5    5    0    0  0.37345781911E+02 -0.23798772642E+02  0.16627406803E+04  0.16633302916E+04  0.00000000000E+00 0. -1.
        -14    1    5    5    0    0  0.93067828554E+01 -0.38961258990E+02  0.35950582922E+03  0.36173061407E+03  0.00000000000E+00 0.  1.
          5    1    4    4  501    0  0.14374179203E+02  0.12208591335E+03 -0.71136708039E+02  0.14208972833E+03  0.41800000000E+01 0. -1.
         -5    1    4    4    0  501  0.34076322180E+01 -0.26193526809E+02 -0.52895134136E+02  0.59271244455E+02  0.41800000000E+01 0. -1.
</event>
<event>
11    1  0.8037748E-009  0.2342539E+03  0.7561462E-02  0.1032639E+00
         22   -1    0    0    0    0  0.00000000000E+00  0.00000000000E+00  0.25926559307E+03  0.25926559307E+03  0.00000000000E+00 0. -1.
         22   -1    0    0    0    0 -0.00000000000E+00 -0.00000000000E+00 -0.94157095131E+03  0.94157095131E+03  0.00000000000E+00 0. -1.
         24    2    1    2    0    0  0.85491607533E+02 -0.17727057590E+03 -0.73326336461E+03  0.76415226972E+03  0.86717111358E+02 0.  0.
         25    2    1    2    0    0 -0.37765027479E+02  0.20794736093E+03 -0.92672920105E+02  0.26249496081E+03  0.12508809741E+03 0.  0.
        -24    2    1    2    0    0 -0.47726580054E+02 -0.30676785025E+02  0.14363092647E+03  0.17418931384E+03  0.80580285643E+02 0.  0.
        -13    1    3    3    0    0  0.15230185585E+00 -0.90525419143E+02 -0.37560663938E+03  0.38636151757E+03  0.00000000000E+00 0.  1.
         14    1    3    3    0    0  0.85339305677E+02 -0.86745156760E+02 -0.35765672523E+03  0.37779075216E+03  0.00000000000E+00 0. -1.
         11    1    5    5    0    0 -0.44588352077E+02 -0.55749726801E+02  0.11979459152E+03  0.13945213278E+03  0.00000000000E+00 0. -1.
        -12    1    5    5    0    0 -0.31382279773E+01  0.25072941776E+02  0.23836334948E+02  0.34737181059E+02  0.00000000000E+00 0.  1.
          5    1    4    4  501    0 -0.73403168211E+00  0.10057763993E+03  0.19801873099E+02  0.10259623304E+03  0.41800000000E+01 0. -1.
         -5    1    4    4    0  501 -0.37030995797E+02  0.10736972100E+03 -0.11247479320E+03  0.15989872778E+03  0.41800000000E+01 0. -1.
</event>
<event>
11    1  0.8037748E-009  0.1587632E+03  0.7561462E-02  0.1088246E+00
         22   -1    0    0    0    0  0.00000000000E+00  0.00000000000E+00  0.30760221155E+03  0.30760221155E+03  0.00000000000E+00 0. -1.
         22   -1    0    0    0    0 -0.00000000000E+00 -0.00000000000E+00 -0.12515230794E+04  0.12515230794E+04  0.00000000000E+00 0.  1.
         24    2    1    2    0    0  0.15344465926E+02 -0.13194537937E+02 -0.90702942724E+03  0.91098388592E+03  0.82338994723E+02 0.  0.
         25    2    1    2    0    0  0.28833284916E+02 -0.74854877864E+02 -0.31161200411E+03  0.34523717076E+03  0.12510816084E+03 0.  0.
        -24    2    1    2    0    0 -0.44177750842E+02  0.88049415800E+02  0.27472056345E+03  0.30290423431E+03  0.81087692583E+02 0.  0.
        -11    1    3    3    0    0 -0.28044842923E+02  0.15119871924E+02 -0.41986784605E+03  0.42107497181E+03  0.00000000000E+00 0.  1.
         12    1    3    3    0    0  0.43389308849E+02 -0.28314409861E+02 -0.48716158119E+03  0.48990891410E+03  0.00000000000E+00 0. -1.
         11    1    5    5    0    0 -0.26030093881E+02  0.32198340245E+02  0.21572598121E+03  0.21966337399E+03  0.00000000000E+00 0. -1.
        -12    1    5    5    0    0 -0.18147656961E+02  0.55851075556E+02  0.58994582244E+02  0.83240860327E+02  0.00000000000E+00 0.  1.
          5    1    4    4  501    0  0.19475592125E+02 -0.76718590355E+02 -0.77370637196E+02  0.11076429341E+03  0.41800000000E+01 0.  1.
         -5    1    4    4    0  501  0.93576927907E+01  0.18637124920E+01 -0.23424136691E+03  0.23447287735E+03  0.41800000000E+01 0.  1.
</event>
<event>
11    1  0.8037748E-009  0.1725479E+03  0.7561462E-02  0.1075835E+00
         22   -1    0    0    0    0  0.00000000000E+00  0.00000000000E+00  0.21995247303E+04  0.21995247303E+04  0.00000000000E+00 0. -1.
         22   -1    0    0    0    0 -0.00000000000E+00 -0.00000000000E+00 -0.55952340449E+03  0.55952340449E+03  0.00000000000E+00 0.  1.
        -24    2    1    2    0    0 -0.77679379162E+02  0.88369360490E+02 -0.51866864532E+03  0.53769264368E+03  0.79075821917E+02 0.  0.
         25    2    1    2    0    0  0.76348488145E+02 -0.15359384499E+03  0.34681046063E+03  0.40662737027E+03  0.12509261284E+03 0.  0.
         24    2    1    2    0    0  0.13308910172E+01  0.65224484497E+02  0.18118595105E+04  0.18147281208E+04  0.78404477978E+02 0.  0.
        -11    1    5    5    0    0 -0.95297030308E+01  0.17838735599E+02  0.92664526294E+02  0.94845928542E+02  0.00000000000E+00 0.  1.
         12    1    5    5    0    0  0.10860594048E+02  0.47385748897E+02  0.17191949842E+04  0.17198821923E+04  0.00000000000E+00 0. -1.
         13    1    3    3    0    0 -0.59163953123E+02  0.88287710918E+01 -0.20290907677E+03  0.21154293650E+03  0.00000000000E+00 0. -1.
        -14    1    3    3    0    0 -0.18515426039E+02  0.79540589398E+02 -0.31575956855E+03  0.32614970718E+03  0.00000000000E+00 0.  1.
          5    1    4    4  501    0  0.64754470272E+02 -0.16169540803E+03  0.22822534532E+03  0.28712858974E+03  0.41800000000E+01 0. -1.
         -5    1    4    4    0  501  0.11594017872E+02  0.81015630479E+01  0.11858511530E+03  0.11949878052E+03  0.41800000000E+01 0. -1.
</event>
<event>
11    1  0.8037748E-009  0.1269049E+03  0.7561462E-02  0.1123131E+00
         22   -1    0    0    0    0  0.00000000000E+00  0.00000000000E+00  0.11612220973E+04  0.11612220973E+04  0.00000000000E+00 0. -1.
         22   -1    0    0    0    0 -0.00000000000E+00 -0.00000000000E+00 -0.66265424875E+02  0.66265424875E+02  0.00000000000E+00 0. -1.
         24    2    1    2    0    0  0.22759988460E+01 -0.18235767738E+02 -0.19960850105E+02  0.84913861999E+02  0.80462444823E+02 0.  0.
         25    2    1    2    0    0 -0.22870786719E+02  0.11234718595E+02  0.34073565989E+03  0.36386697698E+03  0.12509634380E+03 0.  0.
        -24    2    1    2    0    0  0.20594787873E+02  0.70010491429E+01  0.77418186263E+03  0.77870668318E+03  0.80952961840E+02 0.  0.
        -11    1    3    3    0    0 -0.19950698429E+02  0.25900919344E+02 -0.37635069751E+01  0.32909755019E+02  0.00000000000E+00 0.  1.
         12    1    3    3    0    0  0.22226697275E+02 -0.44136687082E+02 -0.16197343130E+02  0.52004106980E+02  0.00000000000E+00 0. -1.
         13    1    5    5    0    0 -0.66964207713E+01 -0.31827060577E+02  0.43592131491E+03  0.43713292787E+03  0.00000000000E+00 0. -1.
        -14    1    5    5    0    0  0.27291208644E+02  0.38828109719E+02  0.33826054772E+03  0.34157375531E+03  0.00000000000E+00 0.  1.
          5    1    4    4  501    0 -0.10353934911E+02  0.21021482091E+02  0.10938599294E+01  0.23828042450E+02  0.41800000000E+01 0.  1.
         -5    1    4    4    0  501 -0.12516851808E+02 -0.97867634958E+01  0.33964179996E+03  0.34003893453E+03  0.41800000000E+01 0.  1.
</event>
<event>
11    1  0.8037748E-009  0.1362130E+03  0.7561462E-02  0.1111862E+00
         22   -1    0    0    0    0  0.00000000000E+00  0.00000000000E+00  0.22316238861E+03  0.22316238861E+03  0.00000000000E+00 0. -1.
         22   -1    0    0    0    0 -0.00000000000E+00 -0.00000000000E+00 -0.59936885947E+03  0.59936885947E+03  0.00000000000E+00 0. -1.
        -24    2    1    2    0    0 -0.47749908829E+02 -0.30348683946E+02 -0.50221963599E+03  0.51179079203E+03  0.80648345437E+02 0.  0.
         25    2    1    2    0    0  0.14339806008E+02  0.24825593053E+02 -0.30076453983E+02  0.13181093979E+03  0.12509032999E+03 0.  0.
         24    2    1    2    0    0  0.33410102820E+02  0.55230908924E+01  0.15608961911E+03  0.17892951627E+03  0.80653971367E+02 0.  0.
        -13    1    5    5    0    0  0.37506244472E+02  0.10183050206E+02  0.21925854665E+02  0.44622370944E+02  0.00000000000E+00 0.  1.
         14    1    5    5    0    0 -0.40961416511E+01 -0.46599593139E+01  0.13416376444E+03  0.13430714533E+03  0.00000000000E+00 0. -1.
         11    1    3    3    0    0 -0.61660236465E+02 -0.34306191742E+02 -0.48077339624E+03  0.48592381922E+03  0.00000000000E+00 0. -1.
        -12    1    3    3    0    0  0.13910327636E+02  0.39575077958E+01 -0.21446239747E+02  0.25866972807E+02  0.00000000000E+00 0.  1.
          5    1    4    4  501    0 -0.27994450488E+02  0.56537254770E+02  0.11673533036E+02  0.64295366930E+02  0.41800000000E+01 0.  1.
         -5    1    4    4    0  501  0.42334256497E+02 -0.31711661717E+02 -0.41749987019E+02  0.67515572856E+02  0.41800000000E+01 0.  1.
</event>
<event>
11    1  0.8037748E-009  0.1296301E+03  0.7561462E-02  0.1119724E+00
         22   -1    0    0    0    0  0.00000000000E+00  0.00000000000E+00  0.97584333913E+03  0.97584333913E+03  0.00000000000E+00 0. -1.
         22   -1    0    0    0    0 -0.00000000000E+00 -0.00000000000E+00 -0.14582717598E+03  0.14582717598E+03  0.00000000000E+00 0.  1.
        -24    2    1    2    0    0  0.22215651997E+02 -0.23013732014E+02 -0.89618061302E+02  0.12470957706E+03  0.80609643624E+02 0.  0.
         25    2    1    2    0    0 -0.47249368976E+02  0.20596111264E+02  0.88007127537E+02  0.16139909059E+03  0.12509080413E+03 0.  0.
         24    2    1    2    0    0  0.25033716979E+02  0.24176207498E+01  0.83162709691E+03  0.83556184746E+03  0.76989874290E+02 0.  0.
        -11    1    5    5    0    0  0.21060360546E+01  0.21819020891E+02  0.70204479237E+02  0.73547086723E+02  0.00000000000E+00 0.  1.
         12    1    5    5    0    0  0.22927680924E+02 -0.19401400141E+02  0.76142261767E+03  0.76201476074E+03  0.00000000000E+00 0. -1.
         13    1    3    3    0    0  0.47751502945E+02  0.55513408451E+01 -0.55280199638E+02  0.73259292180E+02  0.00000000000E+00 0. -1.
        -14    1    3    3    0    0 -0.25535850948E+02 -0.28565072859E+02 -0.34337861663E+02  0.51450284884E+02  0.00000000000E+00 0.  1.
          5    1    4    4  501    0 -0.68424113944E+02  0.62659603977E+01  0.10841252751E+03  0.12842067649E+03  0.41800000000E+01 0. -1.
         -5    1    4    4    0  501  0.21174744968E+02  0.14330150866E+02 -0.20405399974E+02  0.32978414098E+02  0.41800000000E+01 0. -1.
</event>
<event>
11    1  0.8037748E-009  0.1488365E+03  0.7561462E-02  0.1098074E+00
         22   -1    0    0    0    0  0.00000000000E+00  0.00000000000E+00  0.12711304203E+03  0.12711304203E+03  0.00000000000E+00 0.  1.
         22   -1    0    0    0    0 -0.00000000000E+00 -0.00000000000E+00 -0.18365888112E+04  0.18365888112E+04  0.00000000000E+00 0. -1.
         24    2    1    2    0    0  0.39480892264E+02 -0.49395517898E+02 -0.16405481695E+04  0.16438450333E+04  0.82641026221E+02 0.  0.
         25    2    1    2    0    0 -0.59156877454E+02 -0.36090933651E+02 -0.12387002087E+03  0.18919214729E+03  0.12509114631E+03 0.  0.
        -24    2    1    2    0    0  0.19675985190E+02  0.85486451549E+02  0.54942421223E+02  0.13066467256E+03  0.79746531053E+02 0.  0.
        -11    1    3    3    0    0 -0.19795440366E+01 -0.53227679290E+02 -0.56883415955E+03  0.57132250569E+03  0.00000000000E+00 0.  1.
         12    1    3    3    0    0  0.41460436300E+02  0.38321613919E+01 -0.10717140099E+04  0.10725225277E+04  0.00000000000E+00 0. -1.
         11    1    5    5    0    0  0.18320915035E+02 -0.91160891253E+01 -0.14608097366E+01  0.20515676292E+02  0.00000000000E+00 0. -1.
        -12    1    5    5    0    0  0.13550701557E+01  0.94602540674E+02  0.56403230959E+02  0.11014899627E+03  0.00000000000E+00 0.  1.
          5    1    4    4  501    0 -0.36054289542E+02 -0.85194089794E+01  0.18971598633E+02  0.41831639681E+02  0.41800000000E+01 0. -1.
         -5    1    4    4    0  501 -0.23102587912E+02 -0.27571524672E+02 -0.14284161950E+03  0.14736050761E+03  0.41800000000E+01 0. -1.
</event>
<event>
11    1  0.8037748E-009  0.1586321E+03  0.7561462E-02  0.1088371E+00
         22   -1    0    0    0    0  0.00000000000E+00  0.00000000000E+00  0.19050349167E+03  0.19050349167E+03  0.00000000000E+00 0.  1.
         22   -1    0    0    0    0 -0.00000000000E+00 -0.00000000000E+00 -0.16166388983E+04  0.16166388983E+04  0.00000000000E+00 0. -1.
         24    2    1    2    0    0 -0.63649041026E+01  0.59524697549E+01 -0.92264935736E+03  0.92621085545E+03  0.80676937285E+02 0.  0.
         25    2    1    2    0    0  0.20674470697E+02 -0.10223776541E+03 -0.66029633737E+03  0.68008633896E+03  0.12508469485E+03 0.  0.
        -24    2    1    2    0    0 -0.14309566595E+02  0.96285295659E+02  0.15681028810E+03  0.20084519555E+03  0.79206718564E+02 0.  0.
        -13    1    3    3    0    0  0.20157889068E+02  0.32353552847E+02 -0.29590559346E+03  0.29835082221E+03  0.00000000000E+00 0.  1.
         14    1    3    3    0    0 -0.26522793170E+02 -0.26401083092E+02 -0.62674376391E+03  0.62786003324E+03  0.00000000000E+00 0. -1.
         11    1    5    5    0    0  0.13842278190E+02 -0.68357777355E+01  0.73643111245E+01  0.17104666062E+02  0.00000000000E+00 0. -1.
        -12    1    5    5    0    0 -0.28151844785E+02  0.10312107339E+03  0.14944597698E+03  0.18374052949E+03  0.00000000000E+00 0.  1.
          5    1    4    4  501    0 -0.38504669113E+02  0.51638705630E+01 -0.12796418455E+03  0.13379678632E+03  0.41800000000E+01 0.  1.
         -5    1    4    4    0  501  0.59179139810E+02 -0.10740163598E+03 -0.53233215282E+03  0.54628955264E+03  0.41800000000E+01 0.  1.
</event>
<event>
11    1  0.8037748E-009  0.1592213E+03  0.7561462E-02  0.1087812E+00
         22   -1    0    0    0    0  0.00000000000E+00  0.00000000000E+00  0.47142103178E+03  0.47142103178E+03  0.00000000000E+00 0.  1.
         22   -1    0    0    0    0 -0.00000000000E+00 -0.00000000000E+00 -0.71239680579E+03  0.71239680579E+03  0.00000000000E+00 0.  1.
         24    2    1    2    0    0 -0.88939355529E+01  0.65146926166E+02 -0.63605898645E+03  0.64460003373E+03  0.81332313188E+02 0.  0.
         25    2    1    2    0    0  0.58618533521E+02  0.28969225811E+02  0.20336331808E+02  0.14260618509E+03  0.12509040378E+03 0.  0.
        -24    2    1    2    0    0 -0.49724597968E+02 -0.94116151977E+02  0.37474688063E+03  0.39661161875E+03  0.74398695410E+02 0.  0.
        -11    1    3    3    0    0 -0.34163542525E+02  0.69396213418E+02 -0.52188086983E+03  0.52758186509E+03  0.00000000000E+00 0.  1.
         12    1    3    3    0    0  0.25269606972E+02 -0.42492872515E+01 -0.11417811661E+03  0.11701816864E+03  0.00000000000E+00 0. -1.
         13    1    5    5    0    0 -0.63943679026E+01 -0.11132762816E+02  0.29003288888E+01  0.13162000473E+02  0.00000000000E+00 0. -1.
        -14    1    5    5    0    0 -0.43330230065E+02 -0.82983389161E+02  0.37184655174E+03  0.38344961827E+03  0.00000000000E+00 0.  1.
          5    1    4    4  501    0  0.57996370492E+02 -0.33258268364E+02 -0.18042126282E+02  0.69373497285E+02  0.41800000000E+01 0. -1.
         -5    1    4    4    0  501  0.62216302837E+00  0.62227494174E+02  0.38378458090E+02  0.73232687807E+02  0.41800000000E+01 0. -1.
</event>
<event>
11    1  0.8037748E-009  0.2011667E+03  0.7561462E-02  0.1053702E+00
         22   -1    0    0    0    0  0.00000000000E+00  0.00000000000E+00  0.10452382994E+03  0.10452382994E+03  0.00000000000E+00 0.  1.
         22   -1    0    0    0    0 -0.00000000000E+00 -0.00000000000E+00 -0.12712804668E+04  0.12712804668E+04  0.00000000000E+00 0. -1.
         24    2    1    2    0    0  0.21269428007E+02 -0.93319863802E+01 -0.52601677901E+03  0.53274080150E+03  0.81114950826E+02 0.  0.
         25    2    1    2    0    0 -0.12075339921E+03  0.12807948795E+03 -0.63026812491E+03  0.66623654107E+03  0.12508989057E+03 0.  0.
        -24    2    1    2    0    0  0.99483971200E+02 -0.11874750157E+03 -0.10471732983E+02  0.17682695421E+03  0.84617284816E+02 0.  0.
        -13    1    3    3    0    0 -0.29996115074E+02 -0.45388676930E+01 -0.26196078287E+03  0.26371162281E+03  0.00000000000E+00 0.  1.
         14    1    3    3    0    0  0.51265543081E+02 -0.47931186873E+01 -0.26405599614E+03  0.26902917870E+03  0.00000000000E+00 0. -1.
         13    1    5    5    0    0  0.28131681505E+02  0.14801157994E+01  0.18959206060E+02  0.33956350532E+02  0.00000000000E+00 0. -1.
        -14    1    5    5    0    0  0.71352289695E+02 -0.12022761737E+03 -0.29430939042E+02  0.14287060368E+03  0.00000000000E+00 0.  1.
          5    1    4    4  501    0 -0.97838368224E+02  0.14987084966E+02 -0.25342272106E+03  0.27209834061E+03  0.41800000000E+01 0. -1.
         -5    1    4    4    0  501 -0.22915030983E+02  0.11309240298E+03 -0.37684540385E+03  0.39413820046E+03  0.41800000000E+01 0. -1.
</event>
<event>
11    1  0.8037748E-009  0.1389225E+03  0.7561462E-02  0.1108768E+00
         22   -1    0    0    0    0  0.00000000000E+00  0.00000000000E+00  0.47036538325E+03  0.47036538325E+03  0.00000000000E+00 0.  1.
         22   -1    0    0    0    0 -0.00000000000E+00 -0.00000000000E+00 -0.92646844586E+03  0.92646844586E+03  0.00000000000E+00 0.  1.
        -24    2    1    2    0    0  0.84852429956E+00  0.42920109069E+02 -0.70045819793E+03  0.70639635063E+03  0.80692387422E+02 0.  0.
         25    2    1    2    0    0  0.40949780038E+02 -0.85455117536E+02 -0.18876579281E+03  0.24547669486E+03  0.12508725590E+03 0.  0.
         24    2    1    2    0    0 -0.41798304338E+02  0.42535008466E+02  0.43312092813E+03  0.44496078361E+03  0.82704506397E+02 0.  0.
        -13    1    5    5    0    0  0.16443266290E+01 -0.23749396057E+01  0.27394702700E+03  0.27396225607E+03  0.00000000000E+00 0.  1.
         14    1    5    5    0    0 -0.43442630967E+02  0.44909948072E+02  0.15917390112E+03  0.17099852754E+03  0.00000000000E+00 0. -1.
         13    1    3    3    0    0  0.37168671476E+02  0.38071049423E+02 -0.34888029730E+03  0.35291412098E+03  0.00000000000E+00 0. -1.
        -14    1    3    3    0    0 -0.36320147176E+02  0.48490596462E+01 -0.35157790063E+03  0.35348222965E+03  0.00000000000E+00 0.  1.
          5    1    4    4  501    0  0.61567386909E+02 -0.64656554053E+02 -0.47636822987E+02  0.10128056288E+03  0.41800000000E+01 0. -1.
         -5    1    4    4    0  501 -0.20617606870E+02 -0.20798563482E+02 -0.14112896982E+03  0.14419613198E+03  0.41800000000E+01 0. -1.
</event>
<event>
11    1  0.8037748E-009  0.1393725E+03  0.7561462E-02  0.1108261E+00
         22   -1    0    0    0    0  0.00000000000E+00  0.00000000000E+00  0.56851798771E+03  0.56851798771E+03  0.00000000000E+00 0. -1.
         22   -1    0    0    0    0 -0.00000000000E+00 -0.00000000000E+00 -0.25170966160E+03  0.25170966160E+03  0.00000000000E+00 0.  1.
         24    2    1    2    0    0  0.62343600674E+02 -0.12059653270E+02 -0.20127507681E+03  0.22932739194E+03  0.89706389761E+02 0.  0.
         25    2    1    2    0    0 -0.41616936290E+02  0.53525274786E+01  0.10195999390E+03  0.16674631181E+03  0.12509145938E+03 0.  0.
        -24    2    1    2    0    0 -0.20726664384E+02  0.67071257916E+01  0.41612340903E+03  0.42415394557E+03  0.79204152967E+02 0.  0.
        -11    1    3    3    0    0  0.68352412434E+02  0.10296183479E+02 -0.19256187140E+03  0.20459261472E+03  0.00000000000E+00 0.  1.
         12    1    3    3    0    0 -0.60088117600E+01 -0.22355836749E+02 -0.87132054144E+01  0.24734777220E+02  0.00000000000E+00 0. -1.
         11    1    5    5    0    0  0.71410728871E+01  0.38887212454E+02  0.19390264412E+03  0.19789251024E+03  0.00000000000E+00 0. -1.
        -12    1    5    5    0    0 -0.27867737271E+02 -0.32180086662E+02  0.22222076491E+03  0.22626143532E+03  0.00000000000E+00 0.  1.
          5    1    4    4  501    0 -0.78097037673E+01  0.54906450131E+02  0.94551706717E+01  0.56414381069E+02  0.41800000000E+01 0. -1.
         -5    1    4    4    0  501 -0.33807232523E+02 -0.49553922653E+02  0.92504823230E+02  0.11033193075E+03  0.41800000000E+01 0. -1.
</event>
<event>
11    1  0.8037748E-009  0.1922487E+03  0.7561462E-02  0.1060144E+00
         22   -1    0    0    0    0  0.00000000000E+00  0.00000000000E+00  0.11650717166E+04  0.11650717166E+04  0.00000000000E+00 0. -1.
         22   -1    0    0    0    0 -0.00000000000E+00 -0.00000000000E+00 -0.13144350706E+04  0.13144350706E+04  0.00000000000E+00 0. -1.
         24    2    1    2    0    0 -0.14212371645E+02  0.98675556243E+02 -0.12701255384E+04  0.12765560767E+04  0.80235134385E+02 0.  0.
         25    2    1    2    0    0 -0.13407104836E+03 -0.91820219542E+02  0.29068810822E+03  0.35575106890E+03  0.12511294112E+03 0.  0.
        -24    2    1    2    0    0  0.14828342001E+03 -0.68553367010E+01  0.83007407624E+03  0.84719964155E+03  0.81788093906E+02 0.  0.
        -13    1    3    3    0    0 -0.46576595313E+02  0.68910192388E+02 -0.75944995441E+03  0.76399098627E+03  0.00000000000E+00 0.  1.
         14    1    3    3    0    0  0.32364223669E+02  0.29765363855E+02 -0.51067558402E+03  0.51256509048E+03  0.00000000000E+00 0. -1.
         13    1    5    5    0    0  0.18391947170E+02 -0.31377049317E+02  0.14519859256E+03  0.14968438204E+03  0.00000000000E+00 0. -1.
        -14    1    5    5    0    0  0.12989147284E+03  0.24521712616E+02  0.68487548368E+03  0.69751525951E+03  0.00000000000E+00 0.  1.
          5    1    4    4  501    0  0.21689539685E+01  0.25075892500E+02  0.36945383139E+02  0.44899203571E+02  0.41800000000E+01 0. -1.
         -5    1    4    4    0  501 -0.13624000233E+03 -0.11689611204E+03  0.25374272508E+03  0.31085186532E+03  0.41800000000E+01 0. -1.
</event>
<event>
11    1  0.8037748E-009  0.1838526E+03  0.7561462E-02  0.1066568E+00
         22   -1    0    0    0    0  0.00000000000E+00  0.00000000000E+00  0.39345875082E+03  0.39345875082E+03  0.00000000000E+00 0.  1.
         22   -1    0    0    0    0 -0.00000000000E+00 -0.00000000000E+00 -0.17009332253E+04  0.17009332253E+04  0.00000000000E+00 0. -1.
        -24    2    1    2    0    0 -0.25610476135E+02  0.61515537117E+01 -0.14003229123E+04  0.14029475200E+04  0.81631777605E+02 0.  0.
         25    2    1    2    0    0  0.59737331676E+02 -0.13576253005E+03 -0.24908398560E+03  0.31573749380E+03  0.12508924712E+03 0.  0.
         24    2    1    2    0    0 -0.34126855541E+02  0.12961097633E+03  0.34193242341E+03  0.37570696232E+03  0.79210427984E+02 0.  0.
        -13    1    5    5    0    0 -0.37818399856E+02  0.13981141497E+03  0.31852696382E+03  0.34990983096E+03  0.00000000000E+00 0.  1.
         14    1    5    5    0    0  0.36915443153E+01 -0.10200438633E+02  0.23405459595E+02  0.25797131363E+02  0.00000000000E+00 0. -1.
         13    1    3    3    0    0 -0.22167262144E+02 -0.20250102124E+02 -0.12447954403E+04  0.12451574769E+04  0.00000000000E+00 0. -1.
        -14    1    3    3    0    0 -0.34432139916E+01  0.26401655836E+02 -0.15552747200E+03  0.15779004310E+03  0.00000000000E+00 0.  1.
          5    1    4    4  501    0  0.94234931916E+02 -0.12585062377E+03 -0.19223143393E+03  0.24837270077E+03  0.41800000000E+01 0.  1.
         -5    1    4    4    0  501 -0.34497600240E+02 -0.99119062792E+01 -0.56852551667E+02  0.67364793026E+02  0.41800000000E+01 0.  1.
</event>
<event>
11    1  0.8037748E-009  0.1404455E+03  0.7561462E-02  0.1107062E+00
         22   -1    0    0    0    0  0.00000000000E+00  0.00000000000E+00  0.13471253921E+03  0.13471253921E+03  0.00000000000E+00 0. -1.
         22   -1    0    0    0    0 -0.00000000000E+00 -0.00000000000E+00 -0.23263961007E+04  0.23263961007E+04  0.00000000000E+00 0. -1.
         24    2    1    2    0    0  0.16411815651E+02 -0.64490454499E+02 -0.20438794028E+04  0.20460995325E+04  0.68204966179E+02 0.  0.
         25    2    1    2    0    0  0.22754936782E+02  0.30699135306E+02 -0.24614682989E+03  0.27873666952E+03  0.12508255280E+03 0.  0.
        -24    2    1    2    0    0 -0.39166752433E+02  0.33791319193E+02  0.98342671218E+02  0.13627243784E+03  0.78886048094E+02 0.  0.
        -11    1    3    3    0    0 -0.25614445847E+02 -0.16032120955E+02 -0.79480433413E+03  0.79537856288E+03  0.00000000000E+00 0.  1.
         12    1    3    3    0    0  0.42026261499E+02 -0.48458333543E+02 -0.12490750687E+04  0.12507209697E+04  0.00000000000E+00 0. -1.
         13    1    5    5    0    0  0.14396636010E+02  0.21975625664E+02  0.69501318958E+02  0.74300905705E+02  0.00000000000E+00 0. -1.
        -14    1    5    5    0    0 -0.53563388443E+02  0.11815693529E+02  0.28841352260E+02  0.61971532136E+02  0.00000000000E+00 0.  1.
          5    1    4    4  501    0 -0.36426950469E+02  0.51191273916E+02 -0.16161839076E+03  0.17345156637E+03  0.41800000000E+01 0. -1.
         -5    1    4    4    0  501  0.59181887251E+02 -0.20492138610E+02 -0.84528439133E+02  0.10528510315E+03  0.41800000000E+01 0. -1.
</event>
<event>
11    1  0.8037748E-009  0.1919915E+03  0.7561462E-02  0.1060336E+00
         22   -1    0    0    0    0  0.00000000000E+00  0.00000000000E+00  0.39418657023E+03  0.39418657023E+03  0.00000000000E+00 0. -1.
         22   -1    0    0    0    0 -0.00000000000E+00 -0.00000000000E+00 -0.16048708135E+04  0.16048708135E+04  0.00000000000E+00 0. -1.
        -24    2    1    2    0    0 -0.19796672128E+02 -0.32264301270E+02 -0.10439236975E+04  0.10475438877E+04  0.78349326452E+02 0.  0.
         25    2    1    2    0    0  0.52124588474E+02  0.17296510313E+03 -0.51679597867E+03  0.56156866448E+03  0.12508949489E+03 0.  0.
         24    2    1    2    0    0 -0.32327916347E+02 -0.14070080186E+03  0.35003543291E+03  0.38994483162E+03  0.93222087482E+02 0.  0.
        -13    1    5    5    0    0 -0.79247970324E+01 -0.11867868439E+03  0.17337920172E+03  0.21025646274E+03  0.00000000000E+00 0.  1.
         14    1    5    5    0    0 -0.24403119314E+02 -0.22022117467E+02  0.17665623119E+03  0.17968836887E+03  0.00000000000E+00 0. -1.
         11    1    3    3    0    0 -0.95196091295E-01 -0.74655996861E+01 -0.90598524788E+03  0.90601601179E+03  0.00000000000E+00 0. -1.
        -12    1    3    3    0    0 -0.19701476036E+02 -0.24798701584E+02 -0.13793844966E+03  0.14152787589E+03  0.00000000000E+00 0.  1.
          5    1    4    4  501    0 -0.39826936264E+02  0.66264322009E+02 -0.15403749167E+03  0.17240117883E+03  0.41800000000E+01 0.  1.
         -5    1    4    4    0  501  0.91951524738E+02  0.10670078112E+03 -0.36275848700E+03  0.38916748565E+03  0.41800000000E+01 0.  1.
</event>
<event>
11    1  0.8037748E-009  0.6495951E+03  0.7561462E-02  0.9110069E-01
         22   -1    0    0    0    0  0.00000000000E+00  0.00000000000E+00  0.57011891313E+03  0.57011891313E+03  0.00000000000E+00 0. -1.
         22   -1    0    0    0    0 -0.00000000000E+00 -0.00000000000E+00 -0.99392843486E+03  0.99392843486E+03  0.00000000000E+00 0. -1.
         24    2    1    2    0    0  0.61114984794E+03  0.14424425706E+03 -0.47787793358E+03  0.79319992859E+03  0.80549767097E+02 0.  0.
         25    2    1    2    0    0 -0.63715840726E+03 -0.84042718918E+02  0.92230104197E+02  0.66120228849E+03  0.12509220460E+03 0.  0.
        -24    2    1    2    0    0  0.26008559318E+02 -0.60201538143E+02 -0.38161692347E+02  0.10964513091E+03  0.79152192747E+02 0.  0.
        -13    1    3    3    0    0  0.42722592242E+03  0.13799167268E+03 -0.33257141997E+03  0.55871946440E+03  0.00000000000E+00 0.  1.
         14    1    3    3    0    0  0.18392392552E+03  0.62525843835E+01 -0.14530651361E+03  0.23448046419E+03  0.00000000000E+00 0. -1.
         13    1    5    5    0    0  0.16846961769E+02  0.17650768099E+02 -0.90050390142E+01  0.26008853550E+02  0.00000000000E+00 0. -1.
        -14    1    5    5    0    0  0.91615975490E+01 -0.77852306242E+02 -0.29156653333E+02  0.83636277358E+02  0.00000000000E+00 0.  1.
          5    1    4    4  501    0 -0.50905687322E+03 -0.10104117761E+03  0.11046703944E+03  0.53063043537E+03  0.41800000000E+01 0. -1.
         -5    1    4    4    0  501 -0.12810153404E+03  0.16998458690E+02 -0.18236935239E+02  0.13057185312E+03  0.41800000000E+01 0. -1.
</event>
<event>
11    1  0.8037748E-009  0.1418756E+03  0.7561462E-02  0.1105482E+00
         22   -1    0    0    0    0  0.00000000000E+00  0.00000000000E+00  0.53460803127E+03  0.53460803127E+03  0.00000000000E+00 0. -1.
         22   -1    0    0    0    0 -0.00000000000E+00 -0.00000000000E+00 -0.10387153720E+04  0.10387153720E+04  0.00000000000E+00 0. -1.
         24    2    1    2    0    0 -0.69420635891E+02 -0.19809666884E+02 -0.99349412972E+03  0.99943912692E+03  0.81463703817E+02 0.  0.
         25    2    1    2    0    0  0.30014896639E+02 -0.45167224686E+02  0.10000130967E+03  0.16908402480E+03  0.12509265886E+03 0.  0.
        -24    2    1    2    0    0  0.39405739252E+02  0.64976891570E+02  0.38938547932E+03  0.40480025155E+03  0.80420043704E+02 0.  0.
        -11    1    3    3    0    0  0.11476904290E+02  0.15091153029E+02 -0.11677476312E+03  0.11830387793E+03  0.00000000000E+00 0.  1.
         12    1    3    3    0    0 -0.80897540181E+02 -0.34900819913E+02 -0.87671936661E+03  0.88113524900E+03  0.00000000000E+00 0. -1.
         13    1    5    5    0    0  0.64094581656E+02  0.40714871435E+02  0.27518048113E+03  0.28546473223E+03  0.00000000000E+00 0. -1.
        -14    1    5    5    0    0 -0.24688842404E+02  0.24262020136E+02  0.11420499819E+03  0.11933551932E+03  0.00000000000E+00 0.  1.
          5    1    4    4  501    0 -0.37999844224E+02 -0.50883303230E+02  0.69407343763E+02  0.94169795991E+02  0.41800000000E+01 0.  1.
         -5    1    4    4    0  501  0.68014740863E+02  0.57160785441E+01  0.30593965903E+02  0.74914228810E+02  0.41800000000E+01 0.  1.
</event>
<event>
11    1  0.8037748E-009  0.1403304E+03  0.7561462E-02  0.1107190E+00
         22   -1    0    0    0    0  0.00000000000E+00  0.00000000000E+00  0.18868508837E+04  0.18868508837E+04  0.00000000000E+00 0. -1.
         22   -1    0    0    0    0 -0.00000000000E+00 -0.00000000000E+00 -0.44590613533E+03  0.44590613533E+03  0.00000000000E+00 0.  1.
        -24    2    1    2    0    0 -0.63569098213E+02 -0.10292205570E+02 -0.39856165412E+03  0.41163711161E+03  0.80291716723E+02 0.  0.
         25    2    1    2    0    0  0.46605810856E+02  0.21780226691E+02  0.75027754989E+02  0.15467223624E+03  0.12509139365E+03 0.  0.
         24    2    1    2    0    0  0.16963287357E+02 -0.11488021121E+02  0.17644786475E+04  0.17664476712E+04  0.80825428091E+02 0.  0.
        -11    1    5    5    0    0 -0.23914829695E+02  0.93023665806E+00  0.20632433119E+03  0.20770776120E+03  0.00000000000E+00 0.  1.
         12    1    5    5    0    0  0.40878117052E+02 -0.12418257779E+02  0.15581543163E+04  0.15587399100E+04  0.00000000000E+00 0. -1.
         13    1    3    3    0    0  0.50343471582E+01  0.23875014113E+02 -0.66203765992E+02  0.70557066136E+02  0.00000000000E+00 0. -1.
        -14    1    3    3    0    0 -0.68603445371E+02 -0.34167219683E+02 -0.33235788813E+03  0.34108004547E+03  0.00000000000E+00 0.  1.
          5    1    4    4  501    0  0.88146851737E+02  0.31074640365E+00  0.51203121862E+02  0.10202546801E+03  0.41800000000E+01 0.  1.
         -5    1    4    4    0  501 -0.41541040881E+02  0.21469480287E+02  0.23824633126E+02  0.52646768229E+02  0.41800000000E+01 0.  1.
</event>
<event>
11    1  0.8037748E-009  0.1377701E+03  0.7561462E-02  0.1110074E+00
         22   -1    0    0    0    0  0.00000000000E+00  0.00000000000E+00  0.13309794158E+04  0.13309794158E+04  0.00000000000E+00 0. -1.
         22   -1    0    0    0    0 -0.00000000000E+00 -0.00000000000E+00 -0.66027435760E+03  0.66027435760E+03  0.00000000000E+00 0.  1.
         24    2    1    2    0    0  0.42487342775E+02 -0.47683339740E+02 -0.61200337855E+03  0.62041743509E+03  0.79314457811E+02 0.  0.
         25    2    1    2    0    0  0.97897845830E+01  0.16417227912E+02  0.54100679376E+02  0.13762051448E+03  0.12508859757E+03 0.  0.
        -24    2    1    2    0    0 -0.52277127358E+02  0.31266111828E+02  0.12286077574E+04  0.12332158238E+04  0.87371499138E+02 0.  0.
        -13    1    3    3    0    0  0.37602509534E+02 -0.46206707429E+02 -0.61240755020E+03  0.61529831470E+03  0.00000000000E+00 0.  1.
         14    1    3    3    0    0  0.48848332413E+01 -0.14766323111E+01  0.40417164990E+00  0.51191203834E+01  0.00000000000E+00 0. -1.
         11    1    5    5    0    0 -0.41667663799E+02  0.47819470759E+02  0.11629272074E+04  0.11646555653E+04  0.00000000000E+00 0. -1.
        -12    1    5    5    0    0 -0.10609463559E+02 -0.16553358931E+02  0.65680549929E+02  0.68560258517E+02  0.00000000000E+00 0.  1.
          5    1    4    4  501    0  0.40628366029E+02  0.49114116409E+02  0.65052876141E+02  0.91171320332E+02  0.41800000000E+01 0.  1.
         -5    1    4    4    0  501 -0.30838581446E+02 -0.32696888497E+02 -0.10952196765E+02  0.46449194148E+02  0.41800000000E+01 0.  1.
</event>
<event>
11    1  0.8037748E-009  0.2560964E+03  0.7561462E-02  0.1020701E+00
         22   -1    0    0    0    0  0.00000000000E+00  0.00000000000E+00  0.51880715574E+03  0.51880715574E+03  0.00000000000E+00 0. -1.
         22   -1    0    0    0    0 -0.00000000000E+00 -0.00000000000E+00 -0.10600889312E+04  0.10600889312E+04  0.00000000000E+00 0. -1.
         24    2    1    2    0    0 -0.19735712707E+03 -0.98446022915E+02 -0.92242583690E+03  0.95177825368E+03  0.79818322211E+02 0.  0.
         25    2    1    2    0    0  0.19845856171E+03  0.19332343697E+03  0.97716476648E+02  0.31930590261E+03  0.12509195673E+03 0.  0.
        -24    2    1    2    0    0 -0.11014346407E+01 -0.94877414056E+02  0.28342758484E+03  0.30781193061E+03  0.73580241385E+02 0.  0.
        -11    1    3    3    0    0 -0.10305746402E+03 -0.76640690654E+01 -0.38284693287E+03  0.39654930696E+03  0.00000000000E+00 0.  1.
         12    1    3    3    0    0 -0.94299663048E+02 -0.90781953850E+02 -0.53957890403E+03  0.55522894671E+03  0.00000000000E+00 0. -1.
         11    1    5    5    0    0  0.28678317397E+02 -0.47304802281E+02  0.19811445238E+03  0.20569279630E+03  0.00000000000E+00 0. -1.
        -12    1    5    5    0    0 -0.29779752038E+02 -0.47572611776E+02  0.85313132462E+02  0.10211913431E+03  0.00000000000E+00 0.  1.
          5    1    4    4  501    0  0.83111774577E+02  0.16345842240E+03  0.73770741023E+02  0.19770133423E+03  0.41800000000E+01 0.  1.
         -5    1    4    4    0  501  0.11534678713E+03  0.29865014575E+02  0.23945735625E+02  0.12160456838E+03  0.41800000000E+01 0.  1.
</event>
<event>
11    1  0.8037748E-009  0.1363884E+03  0.7561462E-02  0.1111660E+00
         22   -1    0    0    0    0  0.00000000000E+00  0.00000000000E+00  0.49465289710E+03  0.49465289710E+03  0.00000000000E+00 0.  1.
         22   -1    0    0    0    0 -0.00000000000E+00 -0.00000000000E+00 -0.61998999820E+03  0.61998999820E+03  0.00000000000E+00 0. -1.
         24    2    1    2    0    0  0.24239263101E+02  0.46520956943E+02 -0.53020421011E+03  0.53868657705E+03  0.79466864541E+02 0.  0.
         25    2    1    2    0    0 -0.72666982972E+02 -0.61563565776E+02 -0.29282057129E+01  0.15724811416E+03  0.12509129455E+03 0.  0.
        -24    2    1    2    0    0  0.48427719870E+02  0.15042608832E+02  0.40779531473E+03  0.41870820409E+03  0.80299547458E+02 0.  0.
        -13    1    3    3    0    0 -0.13544298890E+01  0.43077404572E+02 -0.11715801717E+03  0.12483388263E+03  0.00000000000E+00 0.  1.
         14    1    3    3    0    0  0.25593692990E+02  0.34435523717E+01 -0.41304619294E+03  0.41385269442E+03  0.00000000000E+00 0. -1.
         13    1    5    5    0    0 -0.58955727177E-01 -0.25526567970E+02  0.59854555444E+02  0.65070553675E+02  0.00000000000E+00 0. -1.
        -14    1    5    5    0    0  0.48486675598E+02  0.40569176803E+02  0.34794075929E+03  0.35363765041E+03  0.00000000000E+00 0.  1.
          5    1    4    4  501    0 -0.93992077407E+02 -0.10689885355E+02  0.20972881835E+02  0.96985145443E+02  0.41800000000E+01 0.  1.
         -5    1    4    4    0  501  0.21325094435E+02 -0.50873680421E+02 -0.23901087548E+02  0.60262968714E+02  0.41800000000E+01 0.  1.
</event>
<event>
11    1  0.8037748E-009  0.2245285E+03  0.7561462E-02  0.1038417E+00
         22   -1    0    0    0    0  0.00000000000E+00  0.00000000000E+00  0.30747539181E+03  0.30747539181E+03  0.00000000000E+00 0. -1.
         22   -1    0    0    0    0 -0.00000000000E+00 -0.00000000000E+00 -0.93369695544E+03  0.93369695544E+03  0.00000000000E+00 0. -1.
         24    2    1    2    0    0 -0.71547414267E+02  0.14231581449E+03 -0.69164348652E+03  0.71418515274E+03  0.79478905416E+02 0.  0.
         25    2    1    2    0    0  0.23931117466E+03 -0.79510381756E+02 -0.67826652987E+02  0.28955067748E+03  0.12508957131E+03 0.  0.
        -24    2    1    2    0    0 -0.16776376039E+03 -0.62805432737E+02  0.13324857588E+03  0.23743651703E+03  0.80819026007E+02 0.  0.
        -13    1    3    3    0    0 -0.76663958735E+02  0.73472965512E+02 -0.35520661813E+03  0.37073896584E+03  0.00000000000E+00 0.  1.
         14    1    3    3    0    0  0.51165444679E+01  0.68842848981E+02 -0.33643686839E+03  0.34344618690E+03  0.00000000000E+00 0. -1.
         13    1    5    5    0    0 -0.22015951335E+02  0.85341834145E+01  0.49467330288E+02  0.54813786273E+02  0.00000000000E+00 0. -1.
        -14    1    5    5    0    0 -0.14574780906E+03 -0.71339616151E+02  0.83781245592E+02  0.18262273076E+03  0.00000000000E+00 0.  1.
          5    1    4    4  501    0  0.21406822842E+03 -0.31651070657E+02 -0.20253411420E+02  0.21738139242E+03  0.41800000000E+01 0. -1.
         -5    1    4    4    0  501  0.25242946233E+02 -0.47859311099E+02 -0.47573241567E+02  0.72169285063E+02  0.41800000000E+01 0. -1.
</event>
<event>
11    1  0.8037748E-009  0.1346408E+03  0.7561462E-02  0.1113695E+00
         22   -1    0    0    0    0  0.00000000000E+00  0.00000000000E+00  0.72257939924E+03  0.72257939924E+03  0.00000000000E+00 0. -1.
         22   -1    0    0    0    0 -0.00000000000E+00 -0.00000000000E+00 -0.16484425713E+04  0.16484425713E+04  0.00000000000E+00 0. -1.
         24    2    1    2    0    0  0.44789213270E+01 -0.33995460732E+00 -0.16096411524E+04  0.16116392722E+04  0.80101983915E+02 0.  0.
         25    2    1    2    0    0  0.27727875974E+02 -0.38055636908E+02  0.97379153936E+02  0.16537192656E+03  0.12509239731E+03 0.  0.
        -24    2    1    2    0    0 -0.32206797301E+02  0.38395591515E+02  0.58639882642E+03  0.59401077180E+03  0.80459394380E+02 0.  0.
        -13    1    3    3    0    0  0.70790201287E+01 -0.39492946763E+02 -0.93167119193E+03  0.93253472602E+03  0.00000000000E+00 0.  1.
         14    1    3    3    0    0 -0.26000988017E+01  0.39152992156E+02 -0.67796996048E+03  0.67910454617E+03  0.00000000000E+00 0. -1.
         11    1    5    5    0    0 -0.55568609976E+02  0.21340576716E+02  0.28044291574E+03  0.28669063399E+03  0.00000000000E+00 0. -1.
        -12    1    5    5    0    0  0.23361812675E+02  0.17055014799E+02  0.30595591068E+03  0.30732013781E+03  0.00000000000E+00 0.  1.
          5    1    4    4  501    0 -0.23568233615E+02 -0.68442236047E+02  0.41457553229E+02  0.83522466622E+02  0.41800000000E+01 0. -1.
         -5    1    4    4    0  501  0.51296109589E+02  0.30386599139E+02  0.55921600707E+02  0.81849459936E+02  0.41800000000E+01 0. -1.
</event>
<event>
11    1  0.8037748E-009  0.1782485E+03  0.7561462E-02  0.1071068E+00
         22   -1    0    0    0    0  0.00000000000E+00  0.00000000000E+00  0.23013542721E+03  0.23013542721E+03  0.00000000000E+00 0. -1.
         22   -1    0    0    0    0 -0.00000000000E+00 -0.00000000000E+00 -0.97029404838E+03  0.97029404838E+03  0.00000000000E+00 0.  1.
         24    2    1    2    0    0 -0.62556677783E+01 -0.41394690090E+02 -0.82290214544E+03  0.82800917531E+03  0.81722699894E+02 0.  0.
         25    2    1    2    0    0  0.45302749576E+01  0.15768404919E+03 -0.12926671835E+02  0.20172441996E+03  0.12506342392E+03 0.  0.
        -24    2    1    2    0    0  0.17253928206E+01 -0.11628935910E+03  0.95670196111E+02  0.17069588033E+03  0.80362336443E+02 0.  0.
        -11    1    3    3    0    0  0.80732378817E+00 -0.65984542898E+02 -0.61933657968E+03  0.62284220362E+03  0.00000000000E+00 0.  1.
         12    1    3    3    0    0 -0.70629915664E+01  0.24589852808E+02 -0.20356556576E+03  0.20516697169E+03  0.00000000000E+00 0. -1.
         13    1    5    5    0    0 -0.90958999012E+01 -0.62850230257E+02  0.97250969902E+02  0.11614920570E+03  0.00000000000E+00 0. -1.
        -14    1    5    5    0    0  0.10821292722E+02 -0.53439128839E+02 -0.15807737912E+01  0.54546674628E+02  0.00000000000E+00 0.  1.
          5    1    4    4  501    0  0.45445956867E+02  0.77126635938E+02  0.38657178322E+02  0.97599706980E+02  0.41800000000E+01 0.  1.
         -5    1    4    4    0  501 -0.40915681910E+02  0.80557413247E+02 -0.51583850158E+02  0.10412471298E+03  0.41800000000E+01 0.  1.
</event>
<event>
11    1  0.8037748E-009  0.2046410E+03  0.7561462E-02  0.1051289E+00
         22   -1    0    0    0    0  0.00000000000E+00  0.00000000000E+00  0.91814185801E+03  0.91814185801E+03  0.00000000000E+00 0.  1.
         22   -1    0    0    0    0 -0.00000000000E+00 -0.00000000000E+00 -0.50298619847E+03  0.50298619847E+03  0.00000000000E+00 0. -1.
        -24    2    1    2    0    0 -0.10551193152E+03 -0.64985023634E+01 -0.32151923697E+03  0.34783144747E+03  0.80231526748E+02 0.  0.
         25    2    1    2    0    0  0.16568995906E+03 -0.14169115259E+03 -0.59235059697E+02  0.25823560876E+03  0.12508913652E+03 0.  0.
         24    2    1    2    0    0 -0.60178027545E+02  0.14818965495E+03  0.79590995620E+03  0.81506100026E+03  0.72596190826E+02 0.  0.
        -13    1    5    5    0    0 -0.29003124714E+02  0.29497431993E+02  0.35464650815E+03  0.35705101243E+03  0.00000000000E+00 0.  1.
         14    1    5    5    0    0 -0.31174902830E+02  0.11869222296E+03  0.44126344806E+03  0.45800998782E+03  0.00000000000E+00 0. -1.
         11    1    3    3    0    0 -0.11421213419E+03  0.61017735816E+01 -0.25346377292E+03  0.27807467958E+03  0.00000000000E+00 0. -1.
        -12    1    3    3    0    0  0.87002026781E+01 -0.12600275945E+02 -0.68055464045E+02  0.69756767894E+02  0.00000000000E+00 0.  1.
          5    1    4    4  501    0  0.12122803812E+03 -0.29532919636E+02 -0.57629420136E+02  0.13750292010E+03  0.41800000000E+01 0.  1.
         -5    1    4    4    0  501  0.44461920937E+02 -0.11215823295E+03 -0.16056395608E+01  0.12073268866E+03  0.41800000000E+01 0.  1.
</event>
<event>
11    1  0.8037748E-009  0.1398893E+03  0.7561462E-02  0.1107682E+00
         22   -1    0    0    0    0  0.00000000000E+00  0.00000000000E+00  0.47733930419E+03  0.47733930419E+03  0.00000000000E+00 0.  1.
         22   -1    0    0    0    0 -0.00000000000E+00 -0.00000000000E+00 -0.33607873778E+03  0.33607873778E+03  0.00000000000E+00 0. -1.
        -24    2    1    2    0    0  0.64636765049E+00  0.21304186517E+02 -0.22851911780E+03  0.24349895649E+03  0.81341677245E+02 0.  0.
         25    2    1    2    0    0  0.37855478063E+02  0.29441062265E+02 -0.46025945196E+02  0.14165342793E+03  0.12508993823E+03 0.  0.
         24    2    1    2    0    0 -0.38501845713E+02 -0.50745248782E+02  0.41580562941E+03  0.42826565755E+03  0.80372131921E+02 0.  0.
        -13    1    5    5    0    0 -0.79703841103E+01 -0.53650663103E+02  0.36433614080E+03  0.36835138681E+03  0.00000000000E+00 0.  1.
         14    1    5    5    0    0 -0.30531461603E+02  0.29054143209E+01  0.51469488608E+02  0.59914270734E+02  0.00000000000E+00 0. -1.
         13    1    3    3    0    0 -0.32597933968E+02  0.25951089865E+02 -0.17823287074E+03  0.18303835821E+03  0.00000000000E+00 0. -1.
        -14    1    3    3    0    0  0.33244301618E+02 -0.46469033479E+01 -0.50286247055E+02  0.60460598274E+02  0.00000000000E+00 0.  1.
          5    1    4    4  501    0 -0.14221202079E+02 -0.15616157630E+02  0.31321870083E+02  0.38008405823E+02  0.41800000000E+01 0.  1.
         -5    1    4    4    0  501  0.52076680142E+02  0.45057219894E+02 -0.77347815279E+02  0.10364502211E+03  0.41800000000E+01 0.  1.
</event>
<event>
11    1  0.8037748E-009  0.2194027E+03  0.7561462E-02  0.1041592E+00
         22   -1    0    0    0    0  0.00000000000E+00  0.00000000000E+00  0.14412617965E+04  0.14412617965E+04  0.00000000000E+00 0. -1.
         22   -1    0    0    0    0 -0.00000000000E+00 -0.00000000000E+00 -0.10997005133E+03  0.10997005133E+03  0.00000000000E+00 0. -1.
        -24    2    1    2    0    0  0.86131992074E+02 -0.66717799706E+01 -0.33844004126E+01  0.11194971718E+03  0.71119985257E+02 0.  0.
         25    2    1    2    0    0  0.98685067748E+02 -0.54724498118E+02  0.12087477291E+03  0.20734554524E+03  0.12509177078E+03 0.  0.
         24    2    1    2    0    0 -0.18481705982E+03  0.61396278089E+02  0.12138013727E+04  0.12319365854E+04  0.80169380643E+02 0.  0.
        -13    1    5    5    0    0 -0.27080590854E+02  0.44314030237E+02  0.30493113192E+03  0.30932197932E+03  0.00000000000E+00 0.  1.
         14    1    5    5    0    0 -0.15773646897E+03  0.17082247852E+02  0.90887024074E+03  0.92261460607E+03  0.00000000000E+00 0. -1.
         13    1    3    3    0    0  0.86646313931E+02 -0.26858496149E+02  0.30238722748E+01  0.90764014548E+02  0.00000000000E+00 0. -1.
        -14    1    3    3    0    0 -0.51432185728E+00  0.20186716178E+02 -0.64082726875E+01  0.21185702628E+02  0.00000000000E+00 0.  1.
          5    1    4    4  501    0  0.95151734299E+02 -0.79455456838E+02  0.13069204294E+03  0.18018020049E+03  0.41800000000E+01 0.  1.
         -5    1    4    4    0  501  0.35333334487E+01  0.24730958720E+02 -0.98172700357E+01  0.27165344750E+02  0.41800000000E+01 0.  1.
</event>
<event>
11    1  0.8037748E-009  0.1360919E+03  0.7561462E-02  0.1112003E+00
         22   -1    0    0    0    0  0.00000000000E+00  0.00000000000E+00  0.63956611995E+03  0.63956611995E+03  0.00000000000E+00 0.  1.
         22   -1    0    0    0    0 -0.00000000000E+00 -0.00000000000E+00 -0.78403080397E+02  0.78403080397E+02  0.00000000000E+00 0. -1.
        -24    2    1    2    0    0  0.15792655734E+01  0.54651806722E+02 -0.19557308105E+02  0.98889257825E+02  0.80045505527E+02 0.  0.
         25    2    1    2    0    0 -0.15458022635E+02 -0.42815680173E+02  0.37281818243E+03  0.39586770605E+03  0.12508281500E+03 0.  0.
         24    2    1    2    0    0  0.13878757061E+02 -0.11836126549E+02  0.20790216523E+03  0.22321223647E+03  0.79168670670E+02 0.  0.
        -13    1    5    5    0    0 -0.31816012878E+02 -0.12456153522E+02  0.10969572789E+03  0.11489372112E+03  0.00000000000E+00 0.  1.
         14    1    5    5    0    0  0.45694769939E+02  0.62002697305E+00  0.98206437334E+02  0.10831851535E+03  0.00000000000E+00 0. -1.
         13    1    3    3    0    0 -0.29656658214E+01  0.54322535923E+02 -0.46497493573E+02  0.71566402672E+02  0.00000000000E+00 0. -1.
        -14    1    3    3    0    0  0.45449313949E+01  0.32927079837E+00  0.26940185468E+02  0.27322855153E+02  0.00000000000E+00 0.  1.
          5    1    4    4  501    0  0.38595863392E+02 -0.43594738213E+02  0.85813186903E+02  0.10378592061E+03  0.41800000000E+01 0. -1.
         -5    1    4    4    0  501 -0.54053886027E+02  0.77905804050E+00  0.28700499553E+03  0.29208178544E+03  0.41800000000E+01 0. -1.
</event>
<event>
11    1  0.8037748E-009  0.1342538E+03  0.7561462E-02  0.1114150E+00
         22   -1    0    0    0    0  0.00000000000E+00  0.00000000000E+00  0.60725553811E+03  0.60725553811E+03  0.00000000000E+00 0. -1.
         22   -1    0    0    0    0 -0.00000000000E+00 -0.00000000000E+00 -0.28633585126E+03  0.28633585126E+03  0.00000000000E+00 0. -1.
         24    2    1    2    0    0 -0.14238011878E+02  0.82814502326E+01 -0.25002008189E+03  0.26294617888E+03  0.79745521740E+02 0.  0.
         25    2    1    2    0    0  0.60188081264E+02 -0.12571991716E+01  0.17056059173E+03  0.21991738496E+03  0.12509418483E+03 0.  0.
        -24    2    1    2    0    0 -0.45950069386E+02 -0.70242510610E+01  0.40037917700E+03  0.41072782553E+03  0.78950062144E+02 0.  0.
        -13    1    3    3    0    0 -0.36650343650E+02  0.45392921720E+01 -0.52870220974E+02  0.64491186444E+02  0.00000000000E+00 0.  1.
         14    1    3    3    0    0  0.22412331772E+02  0.37421580606E+01 -0.19714986091E+03  0.19845499243E+03  0.00000000000E+00 0. -1.
         13    1    5    5    0    0 -0.40120175199E+02 -0.48070270904E+00  0.39994566523E+03  0.40195322448E+03  0.00000000000E+00 0. -1.
        -14    1    5    5    0    0 -0.58298941862E+01 -0.65435483519E+01  0.43351177349E+00  0.87746010573E+01  0.00000000000E+00 0.  1.
          5    1    4    4  501    0  0.36207751555E+02 -0.54905650005E+02  0.41061591234E+02  0.77647655147E+02  0.41800000000E+01 0.  1.
         -5    1    4    4    0  501  0.23980329709E+02  0.53648450834E+02  0.12949900050E+03  0.14226972981E+03  0.41800000000E+01 0.  1.
</event>
<event>
11    1  0.8037748E-009  0.1333259E+03  0.7561462E-02  0.1115249E+00
         22   -1    0    0    0    0  0.00000000000E+00  0.00000000000E+00  0.90538053406E+03  0.90538053406E+03  0.00000000000E+00 0. -1.
         22   -1    0    0    0    0 -0.00000000000E+00 -0.00000000000E+00 -0.10006083817E+04  0.10006083817E+04  0.00000000000E+00 0.  1.
         24    2    1    2    0    0 -0.98960667768E+01  0.40076764579E+02 -0.91865780200E+03  0.92318556350E+03  0.81457647203E+02 0.  0.
         25    2    1    2    0    0 -0.31354323764E+02 -0.17415079541E+02 -0.21933162606E+02  0.13197132025E+03  0.12509591174E+03 0.  0.
        -24    2    1    2    0    0  0.41250390540E+02 -0.22661685039E+02  0.84536311692E+03  0.85083203204E+03  0.84030950373E+02 0.  0.
        -11    1    3    3    0    0 -0.44460622674E+02  0.27075908683E+02 -0.63576459318E+03  0.63789220856E+03  0.00000000000E+00 0.  1.
         12    1    3    3    0    0  0.34564555897E+02  0.13000855896E+02 -0.28289320881E+03  0.28529335494E+03  0.00000000000E+00 0. -1.
         13    1    5    5    0    0  0.63253692335E+02 -0.28902710511E+02  0.72401951969E+03  0.72735181389E+03  0.00000000000E+00 0. -1.
        -14    1    5    5    0    0 -0.22003301795E+02  0.62410254719E+01  0.12134359722E+03  0.12348021815E+03  0.00000000000E+00 0.  1.
          5    1    4    4  501    0 -0.56630341689E+02 -0.55994621204E+02  0.21390187959E+01  0.79777446719E+02  0.41800000000E+01 0.  1.
         -5    1    4    4    0  501  0.25276017925E+02  0.38579541664E+02 -0.24072181401E+02  0.52193873535E+02  0.41800000000E+01 0.  1.
</event>
<event>
11    1  0.8037748E-009  0.2081071E+03  0.7561462E-02  0.1048934E+00
         22   -1    0    0    0    0  0.00000000000E+00  0.00000000000E+00  0.14908462784E+04  0.14908462784E+04  0.00000000000E+00 0. -1.
         22   -1    0    0    0    0 -0.00000000000E+00 -0.00000000000E+00 -0.25787854854E+03  0.25787854854E+03  0.00000000000E+00 0. -1.
        -24    2    1    2    0    0 -0.15711801428E+03  0.65562244143E+01 -0.14832851171E+03  0.22963337169E+03  0.77466660683E+02 0.  0.
         25    2    1    2    0    0  0.23366984274E+03  0.83696998720E+02  0.23524744782E+03  0.36413721811E+03  0.12509104247E+03 0.  0.
         24    2    1    2    0    0 -0.76551828463E+02 -0.90253223134E+02  0.11460487937E+04  0.11549542371E+04  0.80533381373E+02 0.  0.
        -11    1    5    5    0    0 -0.65522399282E+01 -0.28197154095E+01  0.57338937160E+01  0.91520587965E+01  0.00000000000E+00 0.  1.
         12    1    5    5    0    0 -0.69999588534E+02 -0.87433507725E+02  0.11403149000E+04  0.11458021783E+04  0.00000000000E+00 0. -1.
         11    1    3    3    0    0 -0.78390035554E+02 -0.20354226473E+02 -0.11351071664E+03  0.13944165447E+03  0.00000000000E+00 0. -1.
        -12    1    3    3    0    0 -0.78727978727E+02  0.26910450887E+02 -0.34817795069E+02  0.90191717218E+02  0.00000000000E+00 0.  1.
          5    1    4    4  501    0  0.22137028278E+02  0.56866532090E+02  0.29920704271E+02  0.68092374294E+02  0.41800000000E+01 0.  1.
         -5    1    4    4    0  501  0.21153281447E+03  0.26830466630E+02  0.20532674355E+03  0.29604484382E+03  0.41800000000E+01 0.  1.
</event>
<event>
11    1  0.8037748E-009  0.1472180E+03  0.7561462E-02  0.1099756E+00
         22   -1    0    0    0    0  0.00000000000E+00  0.00000000000E+00  0.94652920401E+03  0.94652920401E+03  0.00000000000E+00 0.  1.
         22   -1    0    0    0    0 -0.00000000000E+00 -0.00000000000E+00 -0.13621278276E+04  0.13621278276E+04  0.00000000000E+00 0. -1.
         24    2    1    2    0    0  0.54952642058E+02  0.43959608458E+02 -0.11077862291E+04  0.11128708671E+04  0.79617821340E+02 0.  0.
         25    2    1    2    0    0 -0.49731373178E+02 -0.12082052225E+03 -0.21542544107E+03  0.28130401303E+03  0.12511202584E+03 0.  0.
        -24    2    1    2    0    0 -0.52212688804E+01  0.76860913793E+02  0.90761304659E+03  0.91448215144E+03  0.81125219565E+02 0.  0.
        -13    1    3    3    0    0  0.71504311760E+02  0.17850048890E+02 -0.86280374626E+03  0.86594560765E+03  0.00000000000E+00 0.  1.
         14    1    3    3    0    0 -0.16551669702E+02  0.26109559568E+02 -0.24498248282E+03  0.24692525946E+03  0.00000000000E+00 0. -1.
         11    1    5    5    0    0 -0.86335748724E+01  0.60277792154E+02  0.27579511762E+03  0.28243742270E+03  0.00000000000E+00 0. -1.
        -12    1    5    5    0    0  0.34123059920E+01  0.16583121639E+02  0.63181792897E+03  0.63204472874E+03  0.00000000000E+00 0.  1.
          5    1    4    4  501    0 -0.72552208310E+02 -0.33626405389E+02 -0.14937369306E+03  0.16948312792E+03  0.41800000000E+01 0. -1.
         -5    1    4    4    0  501  0.22820835132E+02 -0.87194116863E+02 -0.66051748014E+02  0.11182088511E+03  0.41800000000E+01 0. -1.
</event>
<event>
11    1  0.8286415E-009  0.2368273E+03  0.7561462E-02  0.1031160E+00
         22   -1    0    0    0    0  0.00000000000E+00  0.00000000000E+00  0.43979841155E+03  0.43979841155E+03  0.00000000000E+00 0. -1.
         22   -1    0    0    0    0 -0.00000000000E+00 -0.00000000000E+00 -0.80255293275E+03  0.80255293275E+03  0.00000000000E+00 0. -1.
        -24    2    1    2    0    0  0.61737865324E+02 -0.13547004140E+02 -0.32799277396E+03  0.34371838943E+03  0.81043112749E+02 0.  0.
         25    2    1    2    0    0 -0.18742314115E+03  0.16646245049E+03 -0.39232689424E+03  0.48208548032E+03  0.12509531217E+03 0.  0.
         24    2    1    2    0    0  0.12568527583E+03 -0.15291544635E+03  0.35756514700E+03  0.41654747455E+03  0.80492495989E+02 0.  0.
        -11    1    5    5    0    0  0.21603033616E+02  0.66615727428E+01  0.47912925468E+02  0.52978448823E+02  0.00000000000E+00 0.  1.
         12    1    5    5    0    0  0.10408224221E+03 -0.15957701909E+03  0.30965222153E+03  0.36356902572E+03  0.00000000000E+00 0. -1.
         11    1    3    3    0    0  0.68517319704E+02 -0.49615961346E+01 -0.14554346783E+03  0.16094142277E+03  0.00000000000E+00 0. -1.
        -12    1    3    3    0    0 -0.67794543799E+01 -0.85854080056E+01 -0.18244930614E+03  0.18277696666E+03  0.00000000000E+00 0.  1.
          5    1    4    4  501    0 -0.41902325668E+02  0.11824244334E+03 -0.15387810450E+03  0.19857750061E+03  0.41800000000E+01 0. -1.
         -5    1    4    4    0  501 -0.14552081549E+03  0.48220007147E+02 -0.23844878975E+03  0.28350797971E+03  0.41800000000E+01 0. -1.
</event>
<event>
11    1  0.8037748E-009  0.1632772E+03  0.7561462E-02  0.1084035E+00
         22   -1    0    0    0    0  0.00000000000E+00  0.00000000000E+00  0.17293003080E+03  0.17293003080E+03  0.00000000000E+00 0. -1.
         22   -1    0    0    0    0 -0.00000000000E+00 -0.00000000000E+00 -0.61233751652E+03  0.61233751652E+03  0.00000000000E+00 0.  1.
         24    2    1    2    0    0  0.78717260346E+02  0.16882786853E+02 -0.36970693464E+03  0.38676265574E+03  0.80129262983E+02 0.  0.
         25    2    1    2    0    0  0.95298199499E+01 -0.86691767432E+02 -0.16797535364E+03  0.22686784306E+03  0.12508804411E+03 0.  0.
        -24    2    1    2    0    0 -0.88247080296E+02  0.69808980579E+02  0.98274802549E+02  0.17163704851E+03  0.84501471326E+02 0.  0.
        -11    1    3    3    0    0  0.71111881606E+02  0.42604839646E+02 -0.31651034727E+03  0.32718629555E+03  0.00000000000E+00 0.  1.
         12    1    3    3    0    0  0.76053787403E+01 -0.25722052793E+02 -0.53196587366E+02  0.59576360186E+02  0.00000000000E+00 0. -1.
         11    1    5    5    0    0 -0.52828281475E+02  0.24111814591E+02  0.97891115504E+02  0.11381949491E+03  0.00000000000E+00 0. -1.
        -12    1    5    5    0    0 -0.35418798821E+02  0.45697165988E+02  0.38368704511E+00  0.57817553606E+02  0.00000000000E+00 0.  1.
          5    1    4    4  501    0  0.79998034137E+01  0.12689337715E+02 -0.11128255698E+03  0.11236679240E+03  0.41800000000E+01 0. -1.
         -5    1    4    4    0  501  0.15300165363E+01 -0.99381105147E+02 -0.56692796656E+02  0.11450105067E+03  0.41800000000E+01 0. -1.
</event>
<event>
11    1  0.8037748E-009  0.1834674E+03  0.7561462E-02  0.1066872E+00
         22   -1    0    0    0    0  0.00000000000E+00  0.00000000000E+00  0.15442951665E+04  0.15442951665E+04  0.00000000000E+00 0.  1.
         22   -1    0    0    0    0 -0.00000000000E+00 -0.00000000000E+00 -0.85041934886E+03  0.85041934886E+03  0.00000000000E+00 0.  1.
        -24    2    1    2    0    0 -0.12671744595E+03 -0.84781311815E+01 -0.61876195636E+03  0.63669359328E+03  0.79894826313E+02 0.  0.
         25    2    1    2    0    0  0.17572966490E+03  0.23324428276E+02 -0.16821718533E+03  0.27453496537E+03  0.12508989443E+03 0.  0.
         24    2    1    2    0    0 -0.49012218943E+02 -0.14846297094E+02  0.14808549593E+04  0.14834859567E+04  0.71948335698E+02 0.  0.
        -11    1    5    5    0    0 -0.61135163906E+02 -0.84575930239E+01  0.76034491627E+03  0.76284561403E+03  0.00000000000E+00 0.  1.
         12    1    5    5    0    0  0.12122944963E+02 -0.63887040703E+01  0.72051004306E+03  0.72064034267E+03  0.00000000000E+00 0. -1.
         13    1    3    3    0    0 -0.70542774274E+02 -0.42092925062E+02 -0.28651089864E+03  0.29805468019E+03  0.00000000000E+00 0. -1.
        -14    1    3    3    0    0 -0.56174671680E+02  0.33614793880E+02 -0.33225105772E+03  0.33863891309E+03  0.00000000000E+00 0.  1.
          5    1    4    4  501    0  0.14820824978E+03  0.19156992754E+02 -0.18795211412E+03  0.24015858360E+03  0.41800000000E+01 0. -1.
         -5    1    4    4    0  501  0.27521415114E+02  0.41674355215E+01  0.19734928792E+02  0.34376381763E+02  0.41800000000E+01 0. -1.
</event>
<event>
11    1  0.8037748E-009  0.3109322E+03  0.7561462E-02  0.9956678E-01
         22   -1    0    0    0    0  0.00000000000E+00  0.00000000000E+00  0.20534567894E+03  0.20534567894E+03  0.00000000000E+00 0.  1.
         22   -1    0    0    0    0 -0.00000000000E+00 -0.00000000000E+00 -0.19738392828E+04  0.19738392828E+04  0.00000000000E+00 0.  1.
        -24    2    1    2    0    0  0.22578439373E+01 -0.26526955487E+03 -0.13744341013E+04  0.14017374268E+04  0.73659218296E+02 0.  0.
         25    2    1    2    0    0 -0.39266149016E+01  0.41029007559E+03 -0.43133573438E+03  0.60831719330E+03  0.12508368187E+03 0.  0.
         24    2    1    2    0    0  0.16687709643E+01 -0.14502052072E+03  0.37276231752E+02  0.16913034165E+03  0.78624543157E+02 0.  0.
        -13    1    5    5    0    0 -0.33137023899E+02 -0.10357156525E+03  0.12028193575E+02  0.10940662193E+03  0.00000000000E+00 0.  1.
         14    1    5    5    0    0  0.34805794863E+02 -0.41448955474E+02  0.25248038177E+02  0.59723719725E+02  0.00000000000E+00 0. -1.
         11    1    3    3    0    0  0.50729845499E+01 -0.22940546031E+02 -0.27034629752E+03  0.27136529698E+03  0.00000000000E+00 0. -1.
        -12    1    3    3    0    0 -0.28151406127E+01 -0.24232900884E+03 -0.11040878037E+04  0.11303721298E+04  0.00000000000E+00 0.  1.
          5    1    4    4  501    0  0.14380243582E+02  0.17431835755E+03 -0.10131414500E+03  0.20217742100E+03  0.41800000000E+01 0. -1.
         -5    1    4    4    0  501 -0.18306858484E+02  0.23597171804E+03 -0.33002158939E+03  0.40613977230E+03  0.41800000000E+01 0. -1.
</event>
<event>
11    1  0.8037748E-009  0.1566595E+03  0.7561462E-02  0.1090262E+00
         22   -1    0    0    0    0  0.00000000000E+00  0.00000000000E+00  0.54870928134E+02  0.54870928134E+02  0.00000000000E+00 0.  1.
         22   -1    0    0    0    0 -0.00000000000E+00 -0.00000000000E+00 -0.20314268048E+04  0.20314268048E+04  0.00000000000E+00 0.  1.
         24    2    1    2    0    0  0.91350323332E+02  0.27389618748E+02 -0.10706340337E+04  0.10778459271E+04  0.79997097971E+02 0.  0.
         25    2    1    2    0    0 -0.78366231553E+02 -0.54448865571E+02 -0.90771004301E+03  0.92124432457E+03  0.12509051984E+03 0.  0.
        -24    2    1    2    0    0 -0.12984091779E+02  0.27059246823E+02  0.17881999741E+01  0.87207481326E+02  0.81860598960E+02 0.  0.
        -13    1    3    3    0    0  0.63536380367E+02  0.33499521005E+02 -0.98470414540E+03  0.98732028415E+03  0.00000000000E+00 0.  1.
         14    1    3    3    0    0  0.27813942965E+02 -0.61099022574E+01 -0.85929888273E+02  0.90525642928E+02  0.00000000000E+00 0. -1.
         11    1    5    5    0    0  0.16685657646E+02 -0.16684018133E+01 -0.30486157751E+02  0.34793685492E+02  0.00000000000E+00 0. -1.
        -12    1    5    5    0    0 -0.29669749425E+02  0.28727648636E+02  0.32274357725E+02  0.52413795834E+02  0.00000000000E+00 0.  1.
          5    1    4    4  501    0 -0.22326227995E+02  0.19095636393E+02 -0.57877898187E+03  0.57953920147E+03  0.41800000000E+01 0. -1.
         -5    1    4    4    0  501 -0.56040003558E+02 -0.73544501963E+02 -0.32893106114E+03  0.34170512310E+03  0.41800000000E+01 0. -1.
</event>
<event>
11    1  0.8037748E-009  0.2186446E+03  0.7561462E-02  0.1042070E+00
         22   -1    0    0    0    0  0.00000000000E+00  0.00000000000E+00  0.30124164530E+03  0.30124164530E+03  0.00000000000E+00 0. -1.
         22   -1    0    0    0    0 -0.00000000000E+00 -0.00000000000E+00 -0.58821424679E+03  0.58821424679E+03  0.00000000000E+00 0.  1.
         24    2    1    2    0    0 -0.47114806013E+02 -0.16581661933E+03 -0.33022847600E+03  0.38125749839E+03  0.81187914916E+02 0.  0.
         25    2    1    2    0    0  0.10272310148E+03  0.17296539509E+03 -0.15782314257E+03  0.28464952597E+03  0.12509254507E+03 0.  0.
        -24    2    1    2    0    0 -0.55608295462E+02 -0.71487757594E+01  0.20107901707E+03  0.22354886773E+03  0.79987109197E+02 0.  0.
        -11    1    3    3    0    0 -0.54591508358E+02 -0.16495986059E+03 -0.33085366015E+03  0.37370594433E+03  0.00000000000E+00 0.  1.
         12    1    3    3    0    0  0.74767023454E+01 -0.85675874444E+00  0.62518415830E+00  0.75515540612E+01  0.00000000000E+00 0. -1.
         13    1    5    5    0    0 -0.75767806459E+02 -0.12570568608E+02  0.15786657156E+03  0.17555806477E+03  0.00000000000E+00 0. -1.
        -14    1    5    5    0    0  0.20159510997E+02  0.54217928489E+01  0.43212445509E+02  0.47990802954E+02  0.00000000000E+00 0.  1.
          5    1    4    4  501    0  0.29203630896E+02  0.63436896934E+02 -0.13310817932E+03  0.15037403949E+03  0.41800000000E+01 0.  1.
         -5    1    4    4    0  501  0.73519470579E+02  0.10952849816E+03 -0.24714963246E+02  0.13427548649E+03  0.41800000000E+01 0.  1.
</event>
<event>
11    1  0.8037748E-009  0.2545258E+03  0.7561462E-02  0.1021515E+00
         22   -1    0    0    0    0  0.00000000000E+00  0.00000000000E+00  0.25206506402E+04  0.25206506402E+04  0.00000000000E+00 0. -1.
         22   -1    0    0    0    0 -0.00000000000E+00 -0.00000000000E+00 -0.32062474487E+03  0.32062474487E+03  0.00000000000E+00 0. -1.
         24    2    1    2    0    0  0.99822153758E+02  0.18570023151E+03 -0.21014753499E+03  0.30857985222E+03  0.81304983651E+02 0.  0.
         25    2    1    2    0    0 -0.17684049946E+03 -0.32145791982E+03  0.60240728946E+03  0.71634428117E+03  0.12508729072E+03 0.  0.
        -24    2    1    2    0    0  0.77018345703E+02  0.13575768831E+03  0.18077661409E+04  0.18163512517E+04  0.82167353099E+02 0.  0.
        -13    1    3    3    0    0  0.20354115240E+02  0.11023399835E+03 -0.76350057238E+02  0.13562874194E+03  0.00000000000E+00 0.  1.
         14    1    3    3    0    0  0.79468038518E+02  0.75466233165E+02 -0.13379747776E+03  0.17295111028E+03  0.00000000000E+00 0. -1.
         11    1    5    5    0    0  0.91982827393E+02  0.11148490969E+03  0.13545945088E+04  0.13622833805E+04  0.00000000000E+00 0. -1.
        -12    1    5    5    0    0 -0.14964481690E+02  0.24272778617E+02  0.45317163209E+03  0.45406787117E+03  0.00000000000E+00 0.  1.
          5    1    4    4  501    0 -0.16681516666E+03 -0.31259360361E+03  0.49912865094E+03  0.61211840638E+03  0.41800000000E+01 0.  1.
         -5    1    4    4    0  501 -0.10025332802E+02 -0.88643162153E+01  0.10327863853E+03  0.10422587479E+03  0.41800000000E+01 0.  1.
</event>
<event>
11    1  0.8037748E-009  0.1320738E+03  0.7561462E-02  0.1116747E+00
         22   -1    0    0    0    0  0.00000000000E+00  0.00000000000E+00  0.12252797732E+03  0.12252797732E+03  0.00000000000E+00 0.  1.
         22   -1    0    0    0    0 -0.00000000000E+00 -0.00000000000E+00 -0.75951326982E+03  0.75951326982E+03  0.00000000000E+00 0. -1.
         24    2    1    2    0    0  0.39441512433E+02  0.20614358522E+02 -0.57403469844E+03  0.58119603351E+03  0.79324710395E+02 0.  0.
         25    2    1    2    0    0 -0.25319895728E+02 -0.10851653360E+02 -0.13867554610E+03  0.18877951438E+03  0.12509173618E+03 0.  0.
        -24    2    1    2    0    0 -0.14121616705E+02 -0.97627051618E+01  0.75724952044E+02  0.11206569926E+03  0.80806695994E+02 0.  0.
        -13    1    3    3    0    0  0.17817978895E+02 -0.15663781361E+02 -0.48749569559E+02  0.54215818269E+02  0.00000000000E+00 0.  1.
         14    1    3    3    0    0  0.21623533538E+02  0.36278139883E+02 -0.52528512888E+03  0.52698021524E+03  0.00000000000E+00 0. -1.
         13    1    5    5    0    0 -0.32477293000E+02 -0.84454223092E+01 -0.59063904896E+00  0.33562606768E+02  0.00000000000E+00 0. -1.
        -14    1    5    5    0    0  0.18355676295E+02 -0.13172828526E+01  0.76315591093E+02  0.78503092488E+02  0.00000000000E+00 0.  1.
          5    1    4    4  501    0 -0.31625326397E+02  0.53120834531E+02 -0.52668986961E+02  0.81323298744E+02  0.41800000000E+01 0.  1.
         -5    1    4    4    0  501  0.63054306696E+01 -0.63972487891E+02 -0.86006559140E+02  0.10745621563E+03  0.41800000000E+01 0.  1.
</event>
<event>
11    1  0.8037748E-009  0.1392163E+03  0.7561462E-02  0.1108437E+00
         22   -1    0    0    0    0  0.00000000000E+00  0.00000000000E+00  0.37828662654E+03  0.37828662654E+03  0.00000000000E+00 0. -1.
         22   -1    0    0    0    0 -0.00000000000E+00 -0.00000000000E+00 -0.69956873912E+03  0.69956873912E+03  0.00000000000E+00 0.  1.
        -24    2    1    2    0    0 -0.31058527287E+02 -0.55130010234E+02 -0.60573794983E+03  0.61470665323E+03  0.83317798289E+02 0.  0.
         25    2    1    2    0    0  0.13998416661E+01  0.40512081210E+02 -0.32072940396E+02  0.13534446028E+03  0.12508501565E+03 0.  0.
         24    2    1    2    0    0  0.29658685621E+02  0.14617929024E+02  0.31652877765E+03  0.32780425216E+03  0.78561053783E+02 0.  0.
        -11    1    5    5    0    0  0.78562993478E+01  0.82898174812E+01  0.10055126034E+01  0.11465320271E+02  0.00000000000E+00 0.  1.
         12    1    5    5    0    0  0.21802386273E+02  0.63281115426E+01  0.31552326505E+03  0.31633893189E+03  0.00000000000E+00 0. -1.
         13    1    3    3    0    0 -0.34983527150E+02 -0.17519696898E+01 -0.96438958897E+02  0.10260306702E+03  0.00000000000E+00 0. -1.
        -14    1    3    3    0    0  0.39249998631E+01 -0.53378040544E+02 -0.50929899094E+03  0.51210358620E+03  0.00000000000E+00 0.  1.
          5    1    4    4  501    0  0.51659117338E+01  0.26878381931E+02 -0.80285869921E+02  0.84926011141E+02  0.41800000000E+01 0. -1.
         -5    1    4    4    0  501 -0.37660700676E+01  0.13633699279E+02  0.48212929525E+02  0.50418449135E+02  0.41800000000E+01 0. -1.
</event>
<event>
11    1  0.8037748E-009  0.3188796E+03  0.7561462E-02  0.9925031E-01
         22   -1    0    0    0    0  0.00000000000E+00  0.00000000000E+00  0.94147696159E+03  0.94147696159E+03  0.00000000000E+00 0. -1.
         22   -1    0    0    0    0 -0.00000000000E+00 -0.00000000000E+00 -0.10008721631E+03  0.10008721631E+03  0.00000000000E+00 0.  1.
        -24    2    1    2    0    0 -0.12010138476E+03  0.10272056960E+03  0.64579958266E+02  0.18833334046E+03  0.79517407402E+02 0.  0.
         25    2    1    2    0    0 -0.17506983270E+02  0.96869151879E+01  0.14847853444E+03  0.19517428456E+03  0.12508715111E+03 0.  0.
         24    2    1    2    0    0  0.13760836803E+03 -0.11240748479E+03  0.62833125257E+03  0.65805655288E+03  0.81650218841E+02 0.  0.
        -11    1    5    5    0    0  0.54869595541E+02 -0.30985899274E+02  0.10894638830E+03  0.12585751464E+03  0.00000000000E+00 0.  1.
         12    1    5    5    0    0  0.82738772486E+02 -0.81421585517E+02  0.51938486428E+03  0.53219903824E+03  0.00000000000E+00 0. -1.
         13    1    3    3    0    0 -0.28892958657E+01  0.37141291722E+01  0.30891470956E+02  0.31247812146E+02  0.00000000000E+00 0. -1.
        -14    1    3    3    0    0 -0.11721208889E+03  0.99006440431E+02  0.33688487309E+02  0.15708552832E+03  0.00000000000E+00 0.  1.
          5    1    4    4  501    0 -0.43391405889E+02  0.12036959813E+02  0.16012465467E+03  0.16638834076E+03  0.41800000000E+01 0. -1.
         -5    1    4    4    0  501  0.25884422619E+02 -0.23500446248E+01 -0.11646120228E+02  0.28785943800E+02  0.41800000000E+01 0. -1.
</event>
<event>
11    1  0.8037748E-009  0.1286133E+03  0.7561462E-02  0.1120985E+00
         22   -1    0    0    0    0  0.00000000000E+00  0.00000000000E+00  0.17658908201E+04  0.17658908201E+04  0.00000000000E+00 0.  1.
         22   -1    0    0    0    0 -0.00000000000E+00 -0.00000000000E+00 -0.16210804358E+03  0.16210804358E+03  0.00000000000E+00 0. -1.
        -24    2    1    2    0    0  0.25257789364E+02 -0.18665333055E+02 -0.13394488525E+03  0.16122611860E+03  0.84061158996E+02 0.  0.
         25    2    1    2    0    0  0.42915353517E+01  0.89846076306E+00  0.28249037487E+03  0.30897867533E+03  0.12509110842E+03 0.  0.
         24    2    1    2    0    0 -0.29549324716E+02  0.17766872292E+02  0.14552372869E+04  0.14577940698E+04  0.79114880055E+02 0.  0.
        -13    1    5    5    0    0  0.84167822671E+01 -0.15033100780E+02  0.93144949581E+03  0.93160882327E+03  0.00000000000E+00 0.  1.
         14    1    5    5    0    0 -0.37966106983E+02  0.32799973072E+02  0.52378779111E+03  0.52618524649E+03  0.00000000000E+00 0. -1.
         11    1    3    3    0    0  0.27175789029E+02  0.18383911083E+02 -0.11496275304E+03  0.11955302708E+03  0.00000000000E+00 0. -1.
        -12    1    3    3    0    0 -0.19179996645E+01 -0.37049244138E+02 -0.18982132213E+02  0.41673091525E+02  0.00000000000E+00 0.  1.
          5    1    4    4  501    0  0.35282675469E+02  0.32683041830E+02  0.40793037872E+02  0.63202790685E+02  0.41800000000E+01 0. -1.
         -5    1    4    4    0  501 -0.30991140118E+02 -0.31784581067E+02  0.24169733700E+03  0.24577588464E+03  0.41800000000E+01 0. -1.
</event>
<event>
11    1  0.8037748E-009  0.1438924E+03  0.7561462E-02  0.1103288E+00
         22   -1    0    0    0    0  0.00000000000E+00  0.00000000000E+00  0.28044819520E+03  0.28044819520E+03  0.00000000000E+00 0. -1.
         22   -1    0    0    0    0 -0.00000000000E+00 -0.00000000000E+00 -0.15154712045E+04  0.15154712045E+04  0.00000000000E+00 0. -1.
        -24    2    1    2    0    0 -0.42723505953E+01 -0.44460379224E+02 -0.13822097402E+04  0.13852251321E+04  0.79686399677E+02 0.  0.
         25    2    1    2    0    0  0.72526227903E+01 -0.30762533810E+02 -0.84478097976E+02  0.15421706021E+03  0.12508964225E+03 0.  0.
         24    2    1    2    0    0 -0.29802721950E+01  0.75222913035E+02  0.23166482890E+03  0.25647720741E+03  0.80278243035E+02 0.  0.
        -11    1    5    5    0    0 -0.19739931617E+02  0.71151286950E+02  0.10339987991E+03  0.12705788327E+03  0.00000000000E+00 0.  1.
         12    1    5    5    0    0  0.16759659422E+02  0.40716260847E+01  0.12826494899E+03  0.12941932414E+03  0.00000000000E+00 0. -1.
         11    1    3    3    0    0  0.14932368469E+01 -0.16728374662E+01 -0.10743927286E+04  0.10743950686E+04  0.00000000000E+00 0. -1.
        -12    1    3    3    0    0 -0.57655874422E+01 -0.42787541758E+02 -0.30781701162E+03  0.31083006349E+03  0.00000000000E+00 0.  1.
          5    1    4    4  501    0 -0.51021220225E+01 -0.55909452068E+02 -0.10506572878E+03  0.11919806309E+03  0.41800000000E+01 0.  1.
         -5    1    4    4    0  501  0.12354744813E+02  0.25146918258E+02  0.20587630803E+02  0.35018997121E+02  0.41800000000E+01 0.  1.
</event>
<event>
11    1  0.8037748E-009  0.1596667E+03  0.7561462E-02  0.1087391E+00
         22   -1    0    0    0    0  0.00000000000E+00  0.00000000000E+00  0.53094821356E+03  0.53094821356E+03  0.00000000000E+00 0.  1.
         22   -1    0    0    0    0 -0.00000000000E+00 -0.00000000000E+00 -0.95490548990E+03  0.95490548990E+03  0.00000000000E+00 0. -1.
        -24    2    1    2    0    0  0.63808131150E+02 -0.76353723345E+02 -0.92197271340E+03  0.93018101936E+03  0.72812607784E+02 0.  0.
         25    2    1    2    0    0 -0.51440428639E+02  0.65121010780E+02  0.21079777373E+03  0.25878784090E+03  0.12509429023E+03 0.  0.
         24    2    1    2    0    0 -0.12367702510E+02  0.11232712566E+02  0.28721766334E+03  0.29688484320E+03  0.73263156461E+02 0.  0.
        -13    1    5    5    0    0 -0.18189572033E+02 -0.97044059664E+01  0.26501934956E+03  0.26582003624E+03  0.00000000000E+00 0.  1.
         14    1    5    5    0    0  0.58218695223E+01  0.20937118532E+02  0.22198313779E+02  0.31064806965E+02  0.00000000000E+00 0. -1.
         13    1    3    3    0    0  0.21717382897E+02 -0.46406474990E+02 -0.71594382575E+03  0.71777487227E+03  0.00000000000E+00 0. -1.
        -14    1    3    3    0    0  0.42090748253E+02 -0.29947248356E+02 -0.20602888766E+03  0.21240614709E+03  0.00000000000E+00 0.  1.
          5    1    4    4  501    0 -0.92491455545E+02  0.53967664293E+02  0.14442390454E+03  0.17984135993E+03  0.41800000000E+01 0. -1.
         -5    1    4    4    0  501  0.41051026905E+02  0.11153346486E+02  0.66373869181E+02  0.78946480972E+02  0.41800000000E+01 0. -1.
</event>
<event>
11    1  0.8037748E-009  0.1877430E+03  0.7561462E-02  0.1063546E+00
         22   -1    0    0    0    0  0.00000000000E+00  0.00000000000E+00  0.30423625059E+03  0.30423625059E+03  0.00000000000E+00 0. -1.
         22   -1    0    0    0    0 -0.00000000000E+00 -0.00000000000E+00 -0.93602476749E+03  0.93602476749E+03  0.00000000000E+00 0. -1.
         24    2    1    2    0    0  0.41045760576E+00  0.23366337735E+02 -0.82621610182E+03  0.82901918807E+03  0.63981349378E+02 0.  0.
         25    2    1    2    0    0 -0.32159250414E+01  0.12489804164E+03  0.41849477358E+02  0.18168347530E+03  0.12509054106E+03 0.  0.
        -24    2    1    2    0    0  0.28054674356E+01 -0.14826437938E+03  0.15257810756E+03  0.22955835472E+03  0.86178666007E+02 0.  0.
        -13    1    3    3    0    0  0.93555334037E+01  0.31830931164E+02 -0.20392534096E+03  0.20660657993E+03  0.00000000000E+00 0.  1.
         14    1    3    3    0    0 -0.89450757980E+01 -0.84645934287E+01 -0.62229076085E+03  0.62241260814E+03  0.00000000000E+00 0. -1.
         13    1    5    5    0    0  0.23675060470E+02 -0.14601550340E+03  0.14528423418E+03  0.20733678984E+03  0.00000000000E+00 0. -1.
        -14    1    5    5    0    0 -0.20869593034E+02 -0.22488759793E+01  0.72938733753E+01  0.22221564873E+02  0.00000000000E+00 0.  1.
          5    1    4    4  501    0 -0.43465212914E+02  0.63510416140E+02  0.68860508683E+02  0.10335395371E+03  0.41800000000E+01 0. -1.
         -5    1    4    4    0  501  0.40249287872E+02  0.61387625502E+02 -0.27011031325E+02  0.78329521588E+02  0.41800000000E+01 0. -1.
</event>
<event>
11    1  0.8037748E-009  0.1682760E+03  0.7561462E-02  0.1079542E+00
         22   -1    0    0    0    0  0.00000000000E+00  0.00000000000E+00  0.66369106546E+03  0.66369106546E+03  0.00000000000E+00 0.  1.
         22   -1    0    0    0    0 -0.00000000000E+00 -0.00000000000E+00 -0.51600908214E+03  0.51600908214E+03  0.00000000000E+00 0.  1.
        -24    2    1    2    0    0 -0.10420618402E+02  0.29067619382E+02 -0.44731691132E+03  0.45546566211E+03  0.80018962919E+02 0.  0.
         25    2    1    2    0    0  0.10738850576E+03  0.29598165689E+02  0.70535705877E+02  0.18174511404E+03  0.12509059953E+03 0.  0.
         24    2    1    2    0    0 -0.96967887360E+02 -0.58665785071E+02  0.52446318876E+03  0.54248937145E+03  0.79928945089E+02 0.  0.
        -13    1    5    5    0    0 -0.89018735726E+02 -0.13521661907E+02  0.29267314145E+03  0.30621028458E+03  0.00000000000E+00 0.  1.
         14    1    5    5    0    0 -0.79491516338E+01 -0.45144123164E+02  0.23179004730E+03  0.23627908688E+03  0.00000000000E+00 0. -1.
         13    1    3    3    0    0  0.24068500018E+02 -0.11340884784E+02 -0.79552582037E+02  0.83883977430E+02  0.00000000000E+00 0. -1.
        -14    1    3    3    0    0 -0.34489118420E+02  0.40408504166E+02 -0.36776432928E+03  0.37158168468E+03  0.00000000000E+00 0.  1.
          5    1    4    4  501    0 -0.26244579886E+02  0.15442496322E+02  0.19048513453E+01  0.30795284131E+02  0.41800000000E+01 0. -1.
         -5    1    4    4    0  501  0.13363308565E+03  0.14155669367E+02  0.68630854532E+02  0.15094982991E+03  0.41800000000E+01 0. -1.
</event>
<event>
11    1  0.8037748E-009  0.1705818E+03  0.7561462E-02  0.1077526E+00
         22   -1    0    0    0    0  0.00000000000E+00  0.00000000000E+00  0.11132303167E+04  0.11132303167E+04  0.00000000000E+00 0.  1.
         22   -1    0    0    0    0 -0.00000000000E+00 -0.00000000000E+00 -0.31915257464E+03  0.31915257464E+03  0.00000000000E+00 0.  1.
         24    2    1    2    0    0  0.42581767124E+02  0.10415566362E+03 -0.26048876245E+03  0.29215643640E+03  0.69565643906E+02 0.  0.
         25    2    1    2    0    0 -0.41451103874E+02 -0.19522102236E+03  0.32793163434E+03  0.40374234489E+03  0.12505711762E+03 0.  0.
        -24    2    1    2    0    0 -0.11306632508E+01  0.91065358747E+02  0.72663487014E+03  0.73648411001E+03  0.78207620042E+02 0.  0.
        -11    1    3    3    0    0  0.45735258906E+02  0.83540156765E+02 -0.13659644349E+03  0.16652104994E+03  0.00000000000E+00 0.  1.
         12    1    3    3    0    0 -0.31534917817E+01  0.20615506854E+02 -0.12389231896E+03  0.12563538646E+03  0.00000000000E+00 0. -1.
         13    1    5    5    0    0 -0.12283917749E+01  0.40566038932E+02  0.57959407509E+03  0.58101325660E+03  0.00000000000E+00 0. -1.
        -14    1    5    5    0    0  0.97728524195E-01  0.50499319814E+02  0.14704079504E+03  0.15547085341E+03  0.00000000000E+00 0.  1.
          5    1    4    4  501    0  0.35280740354E+02 -0.63246441942E+02  0.55167964005E+02  0.91136270006E+02  0.41800000000E+01 0. -1.
         -5    1    4    4    0  501 -0.76731844227E+02 -0.13197458042E+03  0.27276367034E+03  0.31260607488E+03  0.41800000000E+01 0. -1.
</event>
<event>
11    1  0.8037748E-009  0.1338140E+03  0.7561462E-02  0.1114670E+00
         22   -1    0    0    0    0  0.00000000000E+00  0.00000000000E+00  0.28166006602E+04  0.28166006602E+04  0.00000000000E+00 0. -1.
         22   -1    0    0    0    0 -0.00000000000E+00 -0.00000000000E+00 -0.78987207767E+02  0.78987207767E+02  0.00000000000E+00 0.  1.
         24    2    1    2    0    0 -0.24356558631E+02  0.40538642046E+02  0.17731866665E+01  0.94205788495E+02  0.81455281890E+02 0.  0.
         25    2    1    2    0    0 -0.12725038144E+02 -0.58197722197E+02  0.11795916976E+03  0.18200142747E+03  0.12514492562E+03 0.  0.
        -24    2    1    2    0    0  0.37081596774E+02  0.17659080152E+02  0.26178810960E+04  0.26193806520E+04  0.78528206890E+02 0.  0.
        -13    1    3    3    0    0 -0.23916986910E+02  0.19043022025E+02 -0.38133691555E+02  0.48875734085E+02  0.00000000000E+00 0.  1.
         14    1    3    3    0    0 -0.43957172018E+00  0.21495620021E+02  0.39906878222E+02  0.45330054410E+02  0.00000000000E+00 0. -1.
         13    1    5    5    0    0  0.57055647920E+02 -0.53142058532E+01  0.15267564560E+04  0.15278314251E+04  0.00000000000E+00 0. -1.
        -14    1    5    5    0    0 -0.19974051146E+02  0.22973286005E+02  0.10911246401E+04  0.10915492269E+04  0.00000000000E+00 0.  1.
          5    1    4    4  501    0 -0.63061341114E+02 -0.60125560250E+02  0.84047394389E+02  0.12113320206E+03  0.41800000000E+01 0. -1.
         -5    1    4    4    0  501  0.50336302970E+02  0.19278380528E+01  0.33911775366E+02  0.60868225412E+02  0.41800000000E+01 0. -1.
</event>
<event>
11    1  0.8037748E-009  0.1336686E+03  0.7561462E-02  0.1114842E+00
         22   -1    0    0    0    0  0.00000000000E+00  0.00000000000E+00  0.15177028694E+03  0.15177028694E+03  0.00000000000E+00 0.  1.
         22   -1    0    0    0    0 -0.00000000000E+00 -0.00000000000E+00 -0.12697308770E+04  0.12697308770E+04  0.00000000000E+00 0.  1.
         24    2    1    2    0    0  0.21545435534E+02  0.42492604943E+02 -0.10917854074E+04  0.10958194930E+04  0.80963931165E+02 0.  0.
         25    2    1    2    0    0 -0.54456775692E+02 -0.14522005132E+02 -0.12849511776E+03  0.18798471156E+03  0.12510326710E+03 0.  0.
        -24    2    1    2    0    0  0.32911340158E+02 -0.27970599811E+02  0.10231993516E+03  0.13769695933E+03  0.81397621045E+02 0.  0.
        -13    1    3    3    0    0 -0.15574444451E+02  0.33955162684E+01 -0.71692553157E+03  0.71710271975E+03  0.00000000000E+00 0.  1.
         14    1    3    3    0    0  0.37119879984E+02  0.39097088675E+02 -0.37485987585E+03  0.37871677327E+03  0.00000000000E+00 0. -1.
         11    1    5    5    0    0  0.18389403613E+02  0.12692524613E+02 -0.42204467269E+01  0.22739448473E+02  0.00000000000E+00 0. -1.
        -12    1    5    5    0    0  0.14521936545E+02 -0.40663124424E+02  0.10654038189E+03  0.11495751085E+03  0.00000000000E+00 0.  1.
          5    1    4    4  501    0 -0.31649816531E+02  0.40197499826E+02 -0.11656835830E+03  0.12737034362E+03  0.41800000000E+01 0. -1.
         -5    1    4    4    0  501 -0.22806959161E+02 -0.54719504958E+02 -0.11926759464E+02  0.60614367936E+02  0.41800000000E+01 0. -1.
</event>
<event>
11    1  0.8037748E-009  0.1530386E+03  0.7561462E-02  0.1093814E+00
         22   -1    0    0    0    0  0.00000000000E+00  0.00000000000E+00  0.39914749499E+03  0.39914749499E+03  0.00000000000E+00 0. -1.
         22   -1    0    0    0    0 -0.00000000000E+00 -0.00000000000E+00 -0.96741704083E+03  0.96741704083E+03  0.00000000000E+00 0. -1.
         24    2    1    2    0    0  0.28405519178E+02  0.38273292444E+02 -0.89274456072E+03  0.89786329360E+03  0.83029662541E+02 0.  0.
         25    2    1    2    0    0  0.10416754915E+02  0.49576774099E+02  0.16199589101E+02  0.13592702307E+03  0.12508942241E+03 0.  0.
        -24    2    1    2    0    0 -0.38822274093E+02 -0.87850066543E+02  0.30827542578E+03  0.33277421916E+03  0.80499314567E+02 0.  0.
        -13    1    3    3    0    0  0.55632056529E+02  0.27073792294E+02 -0.71754679819E+03  0.72020922206E+03  0.00000000000E+00 0.  1.
         14    1    3    3    0    0 -0.27226537351E+02  0.11199500150E+02 -0.17519776253E+03  0.17765407154E+03  0.00000000000E+00 0. -1.
         13    1    5    5    0    0 -0.60132746134E+02 -0.39420033302E+02  0.19216779094E+03  0.20517881484E+03  0.00000000000E+00 0. -1.
        -14    1    5    5    0    0  0.21310472040E+02 -0.48430033241E+02  0.11610763484E+03  0.12759540433E+03  0.00000000000E+00 0.  1.
          5    1    4    4  501    0  0.41991451459E+02  0.39912670590E+02  0.58274970284E+02  0.82278477325E+02  0.41800000000E+01 0. -1.
         -5    1    4    4    0  501 -0.31574696544E+02  0.96641035083E+01 -0.42075381184E+02  0.53648545742E+02  0.41800000000E+01 0. -1.
</event>
<event>
11    1  0.8037748E-009  0.1349227E+03  0.7561462E-02  0.1113364E+00
         22   -1    0    0    0    0  0.00000000000E+00  0.00000000000E+00  0.17160901933E+03  0.17160901933E+03  0.00000000000E+00 0. -1.
         22   -1    0    0    0    0 -0.00000000000E+00 -0.00000000000E+00 -0.20968930417E+04  0.20968930417E+04  0.00000000000E+00 0.  1.
        -24    2    1    2    0    0 -0.28001562211E+02 -0.42549144183E+02 -0.19033610219E+04  0.19057744607E+04  0.81231756606E+02 0.  0.
         25    2    1    2    0    0 -0.14124682888E+02  0.70160329780E+02 -0.14567803942E+03  0.20491877610E+03  0.12509050758E+03 0.  0.
         24    2    1    2    0    0  0.42126245100E+02 -0.27611185597E+02  0.12375503895E+03  0.15780882421E+03  0.83972121792E+02 0.  0.
        -13    1    5    5    0    0  0.23551174450E+02  0.37028748916E+01 -0.46950579507E+01  0.24298408787E+02  0.00000000000E+00 0.  1.
         14    1    5    5    0    0  0.18575070650E+02 -0.31314060488E+02  0.12845009690E+03  0.13351041543E+03  0.00000000000E+00 0. -1.
         13    1    3    3    0    0  0.23945605963E+02 -0.24201133542E+02 -0.41499683418E+03  0.41639099328E+03  0.00000000000E+00 0. -1.
        -14    1    3    3    0    0 -0.51947168174E+02 -0.18348010641E+02 -0.14883641877E+04  0.14893834675E+04  0.00000000000E+00 0.  1.
          5    1    4    4  501    0 -0.17227766785E+02  0.79038241726E+02 -0.26396988320E+02  0.85194559661E+02  0.41800000000E+01 0. -1.
         -5    1    4    4    0  501  0.31030838971E+01 -0.88779119457E+01 -0.11928105110E+03  0.11972421644E+03  0.41800000000E+01 0. -1.
</event>
<event>
11    1  0.8037748E-009  0.1590082E+03  0.7561462E-02  0.1088014E+00
         22   -1    0    0    0    0  0.00000000000E+00  0.00000000000E+00  0.16476193492E+03  0.16476193492E+03  0.00000000000E+00 0. -1.
         22   -1    0    0    0    0 -0.00000000000E+00 -0.00000000000E+00 -0.85809184787E+03  0.85809184787E+03  0.00000000000E+00 0. -1.
         24    2    1    2    0    0  0.37991583875E+00  0.31078025949E+02 -0.58954303609E+03  0.59577047938E+03  0.80096720753E+02 0.  0.
         25    2    1    2    0    0  0.19659628635E+02  0.68558630238E+02 -0.21305706143E+03  0.25716015057E+03  0.12510493531E+03 0.  0.
        -24    2    1    2    0    0 -0.20039544474E+02 -0.99636656187E+02  0.10927018456E+03  0.16992315284E+03  0.81270277692E+02 0.  0.
        -11    1    3    3    0    0 -0.68198531093E+00 -0.26795913217E+02 -0.14289256921E+03  0.14538491120E+03  0.00000000000E+00 0.  1.
         12    1    3    3    0    0  0.10619011497E+01  0.57873939166E+02 -0.44665046687E+03  0.45038556818E+03  0.00000000000E+00 0. -1.
         13    1    5    5    0    0 -0.28248308385E+02 -0.86422104562E+02  0.12034294086E+03  0.15082828149E+03  0.00000000000E+00 0. -1.
        -14    1    5    5    0    0  0.82087639107E+01 -0.13214551626E+02 -0.11072756296E+02  0.19094871343E+02  0.00000000000E+00 0.  1.
          5    1    4    4  501    0  0.10018689873E+01  0.48343119168E+02 -0.67686210151E+01  0.49003546227E+02  0.41800000000E+01 0. -1.
         -5    1    4    4    0  501  0.18657759648E+02  0.20215511070E+02 -0.20628844042E+03  0.20815660434E+03  0.41800000000E+01 0. -1.
</event>
<event>
11    1  0.8037748E-009  0.1335281E+03  0.7561462E-02  0.1115008E+00
         22   -1    0    0    0    0  0.00000000000E+00  0.00000000000E+00  0.24293634416E+03  0.24293634416E+03  0.00000000000E+00 0. -1.
         22   -1    0    0    0    0 -0.00000000000E+00 -0.00000000000E+00 -0.33905754633E+03  0.33905754633E+03  0.00000000000E+00 0.  1.
         24    2    1    2    0    0  0.42311913307E+00 -0.47144561416E+02 -0.22215146772E+03  0.24093994856E+03  0.80485995683E+02 0.  0.
         25    2    1    2    0    0 -0.45957202587E+02  0.31763216553E+02 -0.46694677317E+02  0.14473877882E+03  0.12509178553E+03 0.  0.
        -24    2    1    2    0    0  0.45534083454E+02  0.15381344862E+02  0.17272494287E+03  0.19631516311E+03  0.79973738515E+02 0.  0.
        -13    1    3    3    0    0  0.34201231267E+02 -0.42152136908E+02 -0.96367714008E+02  0.11060408297E+03  0.00000000000E+00 0.  1.
         14    1    3    3    0    0 -0.33778112134E+02 -0.49924245081E+01 -0.12578375371E+03  0.13033586559E+03  0.00000000000E+00 0. -1.
         11    1    5    5    0    0  0.52719917069E+02  0.17941885410E+02  0.17834667264E+03  0.18683906591E+03  0.00000000000E+00 0. -1.
        -12    1    5    5    0    0 -0.71858336151E+01 -0.25605405479E+01 -0.56217297680E+01  0.94760972043E+01  0.00000000000E+00 0.  1.
          5    1    4    4  501    0 -0.41003381042E+02  0.47795296527E+02 -0.83150539898E+02  0.10438942625E+03  0.41800000000E+01 0. -1.
         -5    1    4    4    0  501 -0.49538215447E+01 -0.16032079974E+02  0.36455862580E+02  0.40349352568E+02  0.41800000000E+01 0. -1.
</event>
<event>
11    1  0.8037748E-009  0.1403869E+03  0.7561462E-02  0.1107127E+00
         22   -1    0    0    0    0  0.00000000000E+00  0.00000000000E+00  0.41558790562E+03  0.41558790562E+03  0.00000000000E+00 0.  1.
         22   -1    0    0    0    0 -0.00000000000E+00 -0.00000000000E+00 -0.56000956908E+03  0.56000956908E+03  0.00000000000E+00 0. -1.
        -24    2    1    2    0    0 -0.10786147128E+01  0.52333911011E+02 -0.43010054982E+03  0.44067869132E+03  0.80443920694E+02 0.  0.
         25    2    1    2    0    0  0.32232253327E+02  0.63859638063E+01 -0.81362720648E+02  0.15279806187E+03  0.12509059401E+03 0.  0.
         24    2    1    2    0    0 -0.31153638614E+02 -0.58719874818E+02  0.36704160700E+03  0.38212072151E+03  0.82934502112E+02 0.  0.
        -11    1    5    5    0    0  0.11283932106E+02 -0.39957864134E+02  0.28379430618E+03  0.28681556138E+03  0.00000000000E+00 0.  1.
         12    1    5    5    0    0 -0.42437570720E+02 -0.18762010684E+02  0.83247300825E+02  0.95305160134E+02  0.00000000000E+00 0. -1.
         13    1    3    3    0    0  0.30364273000E+02  0.45447142442E+02 -0.35179370119E+03  0.35601438177E+03  0.00000000000E+00 0. -1.
        -14    1    3    3    0    0 -0.31442887713E+02  0.68867685691E+01 -0.78306848632E+02  0.84664309551E+02  0.00000000000E+00 0.  1.
          5    1    4    4  501    0  0.36939556208E+02  0.15433850698E+02 -0.11265030541E+03  0.11962565891E+03  0.41800000000E+01 0. -1.
         -5    1    4    4    0  501 -0.47073028810E+01 -0.90478868921E+01  0.31287584763E+02  0.33172402957E+02  0.41800000000E+01 0. -1.
</event>
<event>
11    1  0.8037748E-009  0.5963066E+03  0.7561462E-02  0.9200828E-01
         22   -1    0    0    0    0  0.00000000000E+00  0.00000000000E+00  0.23910754679E+04  0.23910754679E+04  0.00000000000E+00 0.  1.
         22   -1    0    0    0    0 -0.00000000000E+00 -0.00000000000E+00 -0.21023837471E+03  0.21023837471E+03  0.00000000000E+00 0.  1.
         24    2    1    2    0    0  0.93351714165E+01  0.68849889646E+02  0.21583995227E+02  0.10837315349E+03  0.80320724702E+02 0.  0.
         25    2    1    2    0    0 -0.29273349740E+03  0.46261493004E+03  0.61185578287E+03  0.83049329357E+03  0.12508452200E+03 0.  0.
        -24    2    1    2    0    0  0.28339832598E+03 -0.53146481969E+03  0.15473973151E+04  0.16624473956E+04  0.80767731803E+02 0.  0.
        -11    1    3    3    0    0 -0.79455685957E+01 -0.12029585125E+02 -0.12344121357E+02  0.18979470769E+02  0.00000000000E+00 0.  1.
         12    1    3    3    0    0  0.17280740012E+02  0.80879474772E+02  0.33928116584E+02  0.89393682716E+02  0.00000000000E+00 0. -1.
         11    1    5    5    0    0  0.15107660291E+03 -0.34025676344E+03  0.87216515018E+03  0.94829892660E+03  0.00000000000E+00 0. -1.
        -12    1    5    5    0    0  0.13232172307E+03 -0.19120805625E+03  0.67523216494E+03  0.71414846897E+03  0.00000000000E+00 0.  1.
          5    1    4    4  501    0 -0.15024866446E+03  0.23745986793E+03  0.22139921340E+03  0.35776659171E+03  0.41800000000E+01 0.  1.
         -5    1    4    4    0  501 -0.14248483294E+03  0.22515506211E+03  0.39045656947E+03  0.47272670186E+03  0.41800000000E+01 0.  1.
</event>
<event>
11    1  0.8037748E-009  0.1373158E+03  0.7561462E-02  0.1110593E+00
         22   -1    0    0    0    0  0.00000000000E+00  0.00000000000E+00  0.72846768161E+02  0.72846768161E+02  0.00000000000E+00 0.  1.
         22   -1    0    0    0    0 -0.00000000000E+00 -0.00000000000E+00 -0.13584276287E+04  0.13584276287E+04  0.00000000000E+00 0. -1.
         24    2    1    2    0    0 -0.34805519686E+02  0.43809256606E+02 -0.10322136201E+04  0.10368625803E+04  0.80550467210E+02 0.  0.
         25    2    1    2    0    0  0.40757862171E+02  0.18138962346E+02 -0.26079511506E+03  0.29266117412E+03  0.12508495320E+03 0.  0.
        -24    2    1    2    0    0 -0.59523424855E+01 -0.61948218953E+02  0.74278745844E+01  0.10175064246E+03  0.80156145786E+02 0.  0.
        -11    1    3    3    0    0  0.10838349827E+02  0.28162518623E+02 -0.13408035412E+03  0.13743412474E+03  0.00000000000E+00 0.  1.
         12    1    3    3    0    0 -0.45643869513E+02  0.15646737983E+02 -0.89813326595E+03  0.89942845554E+03  0.00000000000E+00 0. -1.
         13    1    5    5    0    0  0.14451809001E+02  0.34133513138E+01  0.26757871034E+02  0.30602114516E+02  0.00000000000E+00 0. -1.
        -14    1    5    5    0    0 -0.20404151486E+02 -0.65361570266E+02 -0.19329996449E+02  0.71148527942E+02  0.00000000000E+00 0.  1.
          5    1    4    4  501    0 -0.12201558611E+02  0.61970556860E+02 -0.11070818634E+03  0.12752647910E+03  0.41800000000E+01 0. -1.
         -5    1    4    4    0  501  0.52959420782E+02 -0.43831594514E+02 -0.15008692872E+03  0.16513469502E+03  0.41800000000E+01 0. -1.
</event>
<event>
11    1  0.1477055E-008  0.1538289E+03  0.7561462E-02  0.1093029E+00
         22   -1    0    0    0    0  0.00000000000E+00  0.00000000000E+00  0.44420428648E+03  0.44420428648E+03  0.00000000000E+00 0. -1.
         22   -1    0    0    0    0 -0.00000000000E+00 -0.00000000000E+00 -0.58647663190E+03  0.58647663190E+03  0.00000000000E+00 0. -1.
         24    2    1    2    0    0 -0.59891104039E+02 -0.16733976582E+01 -0.47911257231E+03  0.48975011838E+03  0.81954724708E+02 0.  0.
         25    2    1    2    0    0 -0.19039569966E+02 -0.50120217983E+02 -0.41968158157E+02  0.14241728035E+03  0.12508722544E+03 0.  0.
        -24    2    1    2    0    0  0.78930674005E+02  0.51793615641E+02  0.37880838505E+03  0.39851351965E+03  0.80028762613E+02 0.  0.
        -11    1    3    3    0    0  0.33490101528E+01  0.17953106759E+02 -0.25700232789E+02  0.31528271071E+02  0.00000000000E+00 0.  1.
         12    1    3    3    0    0 -0.63240114192E+02 -0.19626504417E+02 -0.45341233952E+03  0.45822184731E+03  0.00000000000E+00 0. -1.
         13    1    5    5    0    0  0.41463999232E+02  0.45053647326E+02  0.33467631052E+03  0.34023128485E+03  0.00000000000E+00 0. -1.
        -14    1    5    5    0    0  0.37466674773E+02  0.67399683148E+01  0.44132074530E+02  0.58282234804E+02  0.00000000000E+00 0.  1.
          5    1    4    4  501    0 -0.39943730447E+02 -0.30128496472E+02  0.34257817880E+02  0.60780740269E+02  0.41800000000E+01 0.  1.
         -5    1    4    4    0  501  0.20904160481E+02 -0.19991721510E+02 -0.76225976037E+02  0.81636540085E+02  0.41800000000E+01 0.  1.
</event>
<event>
11    1  0.8037748E-009  0.1975239E+03  0.7561462E-02  0.1056289E+00
         22   -1    0    0    0    0  0.00000000000E+00  0.00000000000E+00  0.11249025239E+03  0.11249025239E+03  0.00000000000E+00 0. -1.
         22   -1    0    0    0    0 -0.00000000000E+00 -0.00000000000E+00 -0.12220334062E+04  0.12220334062E+04  0.00000000000E+00 0.  1.
        -24    2    1    2    0    0 -0.69793204349E+02  0.11956281373E+03 -0.60014227630E+03  0.62107327704E+03  0.79968155279E+02 0.  0.
         25    2    1    2    0    0  0.14800407772E+02 -0.19923105508E+03 -0.53550174786E+03  0.58508228558E+03  0.12508834301E+03 0.  0.
         24    2    1    2    0    0  0.54992796577E+02  0.79668241350E+02  0.26100870334E+02  0.12836809598E+03  0.80161563592E+02 0.  0.
        -11    1    5    5    0    0  0.18607599548E+02  0.81933048124E+02  0.85396897530E+00  0.84023784721E+02  0.00000000000E+00 0.  1.
         12    1    5    5    0    0  0.36385197029E+02 -0.22648067740E+01  0.25246901359E+02  0.44344311256E+02  0.00000000000E+00 0. -1.
         13    1    3    3    0    0 -0.34378495799E+01  0.79060869767E+01 -0.20398289198E+03  0.20416499514E+03  0.00000000000E+00 0. -1.
        -14    1    3    3    0    0 -0.66355354769E+02  0.11165672675E+03 -0.39615938432E+03  0.41690828190E+03  0.00000000000E+00 0.  1.
          5    1    4    4  501    0 -0.38025308328E+02 -0.11439515661E+03 -0.18714751661E+03  0.22265183876E+03  0.41800000000E+01 0. -1.
         -5    1    4    4    0  501  0.52825716100E+02 -0.84835898465E+02 -0.34835423126E+03  0.36243044682E+03  0.41800000000E+01 0. -1.
</event>
<event>
11    1  0.8037748E-009  0.1422578E+03  0.7561462E-02  0.1105063E+00
         22   -1    0    0    0    0  0.00000000000E+00  0.00000000000E+00  0.46906146922E+03  0.46906146922E+03  0.00000000000E+00 0.  1.
         22   -1    0    0    0    0 -0.00000000000E+00 -0.00000000000E+00 -0.27576221886E+04  0.27576221886E+04  0.00000000000E+00 0. -1.
        -24    2    1    2    0    0 -0.24704283474E+02  0.30360872911E+02 -0.25697860787E+04  0.25713945246E+04  0.82080609597E+02 0.  0.
         25    2    1    2    0    0 -0.10478529366E+02 -0.87760423123E+02 -0.14862108033E+03  0.21341724082E+03  0.12508797589E+03 0.  0.
         24    2    1    2    0    0  0.35182812840E+02  0.57399550212E+02  0.42984643971E+03  0.44187189238E+03  0.77137985856E+02 0.  0.
        -11    1    5    5    0    0  0.15478689441E+02  0.26046502778E+02  0.37171509675E+03  0.37294788281E+03  0.00000000000E+00 0.  1.
         12    1    5    5    0    0  0.19704123399E+02  0.31353047434E+02  0.58131342956E+02  0.68924009577E+02  0.00000000000E+00 0. -1.
         11    1    3    3    0    0 -0.41454586737E+02  0.24509260224E+02 -0.24312429041E+04  0.24317198122E+04  0.00000000000E+00 0. -1.
        -12    1    3    3    0    0  0.16750303262E+02  0.58516126870E+01 -0.13854317469E+03  0.13967471240E+03  0.00000000000E+00 0.  1.
          5    1    4    4  501    0  0.30392441020E+01 -0.11877810000E+03 -0.11970302600E+03  0.16871206500E+03  0.41800000000E+01 0.  1.
         -5    1    4    4    0  501 -0.13517773468E+02  0.31017676873E+02 -0.28918054330E+02  0.44705175812E+02  0.41800000000E+01 0.  1.
</event>
<event>
11    1  0.8037748E-009  0.1579929E+03  0.7561462E-02  0.1088980E+00
         22   -1    0    0    0    0  0.00000000000E+00  0.00000000000E+00  0.26425354527E+03  0.26425354527E+03  0.00000000000E+00 0.  1.
         22   -1    0    0    0    0 -0.00000000000E+00 -0.00000000000E+00 -0.48955763766E+03  0.48955763766E+03  0.00000000000E+00 0.  1.
         24    2    1    2    0    0  0.34428803023E+01 -0.48771866494E+02 -0.36142476026E+03  0.37326286777E+03  0.79415129156E+02 0.  0.
         25    2    1    2    0    0 -0.70724122872E+02 -0.30632413481E+02 -0.37697923443E+02  0.15169006460E+03  0.12509394851E+03 0.  0.
        -24    2    1    2    0    0  0.67281242570E+02  0.79404279975E+02  0.17381859131E+03  0.22885825056E+03  0.10644900602E+03 0.  0.
        -11    1    3    3    0    0  0.39122488744E+01  0.17369033427E+02 -0.16592146958E+03  0.16687397365E+03  0.00000000000E+00 0.  1.
         12    1    3    3    0    0 -0.46936857218E+00 -0.66140899921E+02 -0.19550329068E+03  0.20638889412E+03  0.00000000000E+00 0. -1.
         11    1    5    5    0    0 -0.26942037738E+02  0.14195496190E+02  0.17774213850E+02  0.35260575541E+02  0.00000000000E+00 0. -1.
        -12    1    5    5    0    0  0.94223280308E+02  0.65208783785E+02  0.15604437746E+03  0.19359767502E+03  0.00000000000E+00 0.  1.
          5    1    4    4  501    0  0.26380767442E+02  0.23299243203E+02 -0.13525875656E+02  0.37937070748E+02  0.41800000000E+01 0.  1.
         -5    1    4    4    0  501 -0.97104890314E+02 -0.53931656684E+02 -0.24172047787E+02  0.11375299385E+03  0.41800000000E+01 0.  1.
</event>
<event>
11    1  0.8037748E-009  0.1963248E+03  0.7561462E-02  0.1057153E+00
         22   -1    0    0    0    0  0.00000000000E+00  0.00000000000E+00  0.16952551735E+04  0.16952551735E+04  0.00000000000E+00 0.  1.
         22   -1    0    0    0    0 -0.00000000000E+00 -0.00000000000E+00 -0.10930131055E+03  0.10930131055E+03  0.00000000000E+00 0.  1.
         24    2    1    2    0    0  0.30589138782E+02 -0.12183498108E+03  0.49718027967E+01  0.14907102285E+03  0.80112377355E+02 0.  0.
         25    2    1    2    0    0 -0.11042035544E+03  0.22723520385E+03  0.60635428681E+03  0.66868526390E+03  0.12508384492E+03 0.  0.
        -24    2    1    2    0    0  0.79831216658E+02 -0.10540022277E+03  0.97462777332E+03  0.98680019727E+03  0.79956880248E+02 0.  0.
        -11    1    3    3    0    0  0.15820868890E+02 -0.73591883390E+02 -0.36597920244E+02  0.83698703452E+02  0.00000000000E+00 0.  1.
         12    1    3    3    0    0  0.14768269892E+02 -0.48243097688E+02  0.41569723041E+02  0.65372319401E+02  0.00000000000E+00 0. -1.
         13    1    5    5    0    0  0.31393763759E+02 -0.37546165359E+02  0.14590606163E+03  0.15389561968E+03  0.00000000000E+00 0. -1.
        -14    1    5    5    0    0  0.48437452899E+02 -0.67854057411E+02  0.82872171169E+03  0.83290457759E+03  0.00000000000E+00 0.  1.
          5    1    4    4  501    0  0.19659606499E+02  0.26539481769E+02  0.30595894929E+02  0.45215322699E+02  0.41800000000E+01 0. -1.
         -5    1    4    4    0  501 -0.13007996194E+03  0.20069572208E+03  0.57575839188E+03  0.62346994120E+03  0.41800000000E+01 0. -1.
</event>
<event>
11    1  0.8037748E-009  0.1420990E+03  0.7561462E-02  0.1105237E+00
         22   -1    0    0    0    0  0.00000000000E+00  0.00000000000E+00  0.13055060583E+04  0.13055060583E+04  0.00000000000E+00 0.  1.
         22   -1    0    0    0    0 -0.00000000000E+00 -0.00000000000E+00 -0.11348497855E+04  0.11348497855E+04  0.00000000000E+00 0.  1.
         24    2    1    2    0    0  0.80565540761E+00 -0.33817912296E+02 -0.96739894337E+03  0.97127507210E+03  0.79813844558E+02 0.  0.
         25    2    1    2    0    0  0.50300290968E+02  0.77382316325E+02 -0.12627980972E+03  0.20027045914E+03  0.12507407529E+03 0.  0.
        -24    2    1    2    0    0 -0.51105946376E+02 -0.43564404029E+02  0.12643350260E+04  0.12688103126E+04  0.82624913683E+02 0.  0.
        -13    1    3    3    0    0 -0.14961432692E+02 -0.71729532601E+01 -0.84015009770E+03  0.84031391896E+03  0.00000000000E+00 0.  1.
         14    1    3    3    0    0  0.15767088100E+02 -0.26644959036E+02 -0.12724884567E+03  0.13096115314E+03  0.00000000000E+00 0. -1.
         13    1    5    5    0    0  0.13792979281E+02 -0.25027685636E+02  0.16910551566E+03  0.17150308088E+03  0.00000000000E+00 0. -1.
        -14    1    5    5    0    0 -0.64898925657E+02 -0.18536718393E+02  0.10952295103E+04  0.10973072317E+04  0.00000000000E+00 0.  1.
          5    1    4    4  501    0 -0.24316910058E+02 -0.18732177746E+01 -0.76684214386E+02  0.80577678023E+02  0.41800000000E+01 0.  1.
         -5    1    4    4    0  501  0.74617201027E+02  0.79255534100E+02 -0.49595595338E+02  0.11969278112E+03  0.41800000000E+01 0.  1.
</event>
<event>
11    1  0.8037748E-009  0.1384792E+03  0.7561462E-02  0.1109269E+00
         22   -1    0    0    0    0  0.00000000000E+00  0.00000000000E+00  0.87568582059E+03  0.87568582059E+03  0.00000000000E+00 0. -1.
         22   -1    0    0    0    0 -0.00000000000E+00 -0.00000000000E+00 -0.18488992057E+04  0.18488992057E+04  0.00000000000E+00 0.  1.
        -24    2    1    2    0    0 -0.52044528251E+02  0.19281408087E+02 -0.17183472782E+04  0.17209907171E+04  0.77532405912E+02 0.  0.
         25    2    1    2    0    0  0.10061630806E+03 -0.51128027062E+02 -0.69777296931E+02  0.18235680636E+03  0.12508963610E+03 0.  0.
         24    2    1    2    0    0 -0.48571779808E+02  0.31846618975E+02  0.81491119002E+03  0.82123750290E+03  0.83530614883E+02 0.  0.
        -13    1    5    5    0    0 -0.40582366609E+02  0.15973947536E+01  0.14456608238E+03  0.15016268619E+03  0.00000000000E+00 0.  1.
         14    1    5    5    0    0 -0.79894131997E+01  0.30249224221E+02  0.67034510764E+03  0.67107481671E+03  0.00000000000E+00 0. -1.
         11    1    3    3    0    0 -0.47422599697E+02  0.37051104495E+02 -0.73109372200E+03  0.73356643711E+03  0.00000000000E+00 0. -1.
        -12    1    3    3    0    0 -0.46219285542E+01 -0.17769696408E+02 -0.98725355625E+03  0.98742427996E+03  0.00000000000E+00 0.  1.
          5    1    4    4  501    0  0.16853729709E+02  0.40512232415E+02 -0.21997106057E+02  0.49260879563E+02  0.41800000000E+01 0.  1.
         -5    1    4    4    0  501  0.83762578350E+02 -0.91640259477E+02 -0.47780190874E+02  0.13309592679E+03  0.41800000000E+01 0.  1.
</event>
<event>
11    1  0.8037748E-009  0.2063680E+03  0.7561462E-02  0.1050110E+00
         22   -1    0    0    0    0  0.00000000000E+00  0.00000000000E+00  0.83693929986E+03  0.83693929986E+03  0.00000000000E+00 0. -1.
         22   -1    0    0    0    0 -0.00000000000E+00 -0.00000000000E+00 -0.19194896902E+04  0.19194896902E+04  0.00000000000E+00 0. -1.
         24    2    1    2    0    0 -0.58109229705E+02 -0.15167927937E+03 -0.18100664352E+04  0.18191018889E+04  0.80049335920E+02 0.  0.
         25    2    1    2    0    0  0.24527072326E+02  0.24344309246E+03  0.92813736626E+02  0.29004837429E+03  0.12509018019E+03 0.  0.
        -24    2    1    2    0    0  0.33582157379E+02 -0.91763813090E+02  0.63470230826E+03  0.64727872681E+03  0.81082497414E+02 0.  0.
        -11    1    3    3    0    0 -0.10145083750E+02  0.45636201847E+01 -0.30199752145E+03  0.30220233671E+03  0.00000000000E+00 0.  1.
         12    1    3    3    0    0 -0.47964145954E+02 -0.15624289955E+03 -0.15080689137E+04  0.15168995522E+04  0.00000000000E+00 0. -1.
         11    1    5    5    0    0  0.50835073644E+02 -0.61570965854E+02  0.54922555702E+03  0.55499900993E+03  0.00000000000E+00 0. -1.
        -12    1    5    5    0    0 -0.17252916266E+02 -0.30192847236E+02  0.85476751240E+02  0.92279716875E+02  0.00000000000E+00 0.  1.
          5    1    4    4  501    0  0.41174682198E+02  0.25066250168E+03  0.95133096162E+02  0.27128365706E+03  0.41800000000E+01 0.  1.
         -5    1    4    4    0  501 -0.16647609872E+02 -0.72194092228E+01 -0.23193595363E+01  0.18764717228E+02  0.41800000000E+01 0.  1.
</event>
<event>
11    1  0.8037748E-009  0.1295516E+03  0.7561462E-02  0.1119821E+00
         22   -1    0    0    0    0  0.00000000000E+00  0.00000000000E+00  0.18373582818E+04  0.18373582818E+04  0.00000000000E+00 0. -1.
         22   -1    0    0    0    0 -0.00000000000E+00 -0.00000000000E+00 -0.33597172674E+03  0.33597172674E+03  0.00000000000E+00 0.  1.
         24    2    1    2    0    0  0.44192169930E+01 -0.31400378605E+02 -0.31132536233E+03  0.32277342430E+03  0.79080269020E+02 0.  0.
         25    2    1    2    0    0  0.29398847909E+02  0.32806220065E+02  0.23029713436E+03  0.26575284837E+03  0.12508903224E+03 0.  0.
        -24    2    1    2    0    0 -0.33818064902E+02 -0.14058414601E+01  0.15824147830E+04  0.15848037358E+04  0.80129256922E+02 0.  0.
        -11    1    3    3    0    0  0.14299627835E+02  0.12263431525E+02 -0.22258032419E+03  0.22337607712E+03  0.00000000000E+00 0.  1.
         12    1    3    3    0    0 -0.98804108418E+01 -0.43663810130E+02 -0.88745038137E+02  0.99397347185E+02  0.00000000000E+00 0. -1.
         13    1    5    5    0    0 -0.24403109854E+02  0.16850468234E+02  0.14826355206E+04  0.14829320743E+04  0.00000000000E+00 0. -1.
        -14    1    5    5    0    0 -0.94149550479E+01 -0.18256309695E+02  0.99779262425E+02  0.10187166158E+03  0.00000000000E+00 0.  1.
          5    1    4    4  501    0  0.35216866359E+02  0.28181125643E+01  0.23215495157E+03  0.23486498967E+03  0.41800000000E+01 0.  1.
         -5    1    4    4    0  501 -0.58180184498E+01  0.29988107501E+02 -0.18578172053E+01  0.30887858698E+02  0.41800000000E+01 0.  1.
</event>
<event>
11    1  0.8037748E-009  0.1380543E+03  0.7561462E-02  0.1109751E+00
         22   -1    0    0    0    0  0.00000000000E+00  0.00000000000E+00  0.64008528572E+03  0.64008528572E+03  0.00000000000E+00 0.  1.
         22   -1    0    0    0    0 -0.00000000000E+00 -0.00000000000E+00 -0.41375980531E+03  0.41375980531E+03  0.00000000000E+00 0. -1.
         24    2    1    2    0    0 -0.23241621025E+02 -0.74401724728E+01 -0.34638088468E+03  0.35640406858E+03  0.80303260911E+02 0.  0.
         25    2    1    2    0    0 -0.26931435598E+02  0.39449234506E+02  0.19629070599E+02  0.13533352320E+03  0.12509323628E+03 0.  0.
        -24    2    1    2    0    0  0.50173056623E+02 -0.32009062033E+02  0.55307729449E+03  0.56210749925E+03  0.80798708928E+02 0.  0.
        -13    1    3    3    0    0 -0.12738558440E+02 -0.14125219504E+02 -0.13581744700E+02  0.23372130546E+02  0.00000000000E+00 0.  1.
         14    1    3    3    0    0 -0.10503062585E+02  0.66850470313E+01 -0.33279913999E+03  0.33303193804E+03  0.00000000000E+00 0. -1.
         13    1    5    5    0    0  0.66502337946E+02 -0.39278845659E+02  0.35930522503E+03  0.36751276631E+03  0.00000000000E+00 0. -1.
        -14    1    5    5    0    0 -0.16329281323E+02  0.72697836263E+01  0.19377206946E+03  0.19459473294E+03  0.00000000000E+00 0.  1.
          5    1    4    4  501    0 -0.12199847799E+02  0.84683382242E+02  0.70531759144E+01  0.85949585251E+02  0.41800000000E+01 0. -1.
         -5    1    4    4    0  501 -0.14731587799E+02 -0.45234147736E+02  0.12575894685E+02  0.49383937952E+02  0.41800000000E+01 0. -1.
</event>
<event>
11    1  0.8037748E-009  0.1429056E+03  0.7561462E-02  0.1104357E+00
         22   -1    0    0    0    0  0.00000000000E+00  0.00000000000E+00  0.24699562384E+03  0.24699562384E+03  0.00000000000E+00 0. -1.
         22   -1    0    0    0    0 -0.00000000000E+00 -0.00000000000E+00 -0.19383770397E+04  0.19383770397E+04  0.00000000000E+00 0.  1.
        -24    2    1    2    0    0  0.48025837769E+02  0.45224781629E+02 -0.15145817108E+04  0.15181328526E+04  0.80111406408E+02 0.  0.
         25    2    1    2    0    0 -0.85495238435E+02 -0.48828159710E+02 -0.39811125451E+03  0.42875819472E+03  0.12508954229E+03 0.  0.
         24    2    1    2    0    0  0.37469400665E+02  0.36033780809E+01  0.22131154952E+03  0.23848161618E+03  0.80484402133E+02 0.  0.
        -11    1    5    5    0    0  0.16286238840E+02 -0.15835146035E+02  0.93261150449E+01  0.24555444352E+02  0.00000000000E+00 0.  1.
         12    1    5    5    0    0  0.21183161825E+02  0.19438524116E+02  0.21198543447E+03  0.21392617183E+03  0.00000000000E+00 0. -1.
         11    1    3    3    0    0  0.12914048743E+01  0.35878357461E+02 -0.24097564275E+03  0.24363535182E+03  0.00000000000E+00 0. -1.
        -12    1    3    3    0    0  0.46734432895E+02  0.93464241674E+01 -0.12736060681E+04  0.12744975008E+04  0.00000000000E+00 0.  1.
          5    1    4    4  501    0 -0.35253445580E+02 -0.18906457799E+02 -0.35168027547E+03  0.35397280704E+03  0.41800000000E+01 0.  1.
         -5    1    4    4    0  501 -0.50241792854E+02 -0.29921701911E+02 -0.46430979046E+02  0.74785387674E+02  0.41800000000E+01 0.  1.
</event>
<event>
11    1  0.8037748E-009  0.1449924E+03  0.7561462E-02  0.1102108E+00
         22   -1    0    0    0    0  0.00000000000E+00  0.00000000000E+00  0.15605509438E+04  0.15605509438E+04  0.00000000000E+00 0.  1.
         22   -1    0    0    0    0 -0.00000000000E+00 -0.00000000000E+00 -0.47443445625E+03  0.47443445625E+03  0.00000000000E+00 0.  1.
        -24    2    1    2    0    0 -0.29253057288E+01 -0.69698150859E+02 -0.39459003631E+03  0.41025503901E+03  0.87985854738E+02 0.  0.
         25    2    1    2    0    0  0.53112627388E+01  0.12286573464E+03  0.38741959998E+02  0.17964372814E+03  0.12508689513E+03 0.  0.
         24    2    1    2    0    0 -0.23859570099E+01 -0.53167583785E+02  0.14419645639E+04  0.14450866329E+04  0.78619898248E+02 0.  0.
        -13    1    5    5    0    0 -0.27264060551E+02  0.84008844813E+01  0.42588977339E+03  0.42684423732E+03  0.00000000000E+00 0.  1.
         14    1    5    5    0    0  0.24878103541E+02 -0.61568468266E+02  0.10160747905E+04  0.10182423956E+04  0.00000000000E+00 0. -1.
         13    1    3    3    0    0  0.35137571667E+02 -0.62953788448E+02 -0.28749930635E+03  0.29640121386E+03  0.00000000000E+00 0. -1.
        -14    1    3    3    0    0 -0.38062877395E+02 -0.67443624103E+01 -0.10709072996E+03  0.11385382515E+03  0.00000000000E+00 0.  1.
          5    1    4    4  501    0 -0.43452443044E+02  0.10586437801E+01  0.39788183757E+01  0.43846766458E+02  0.41800000000E+01 0.  1.
         -5    1    4    4    0  501  0.48763705783E+02  0.12180709086E+03  0.34763141622E+02  0.13579696168E+03  0.41800000000E+01 0.  1.
</event>
<event>
11    1  0.8037748E-009  0.1461909E+03  0.7561462E-02  0.1100836E+00
         22   -1    0    0    0    0  0.00000000000E+00  0.00000000000E+00  0.84081205696E+03  0.84081205696E+03  0.00000000000E+00 0. -1.
         22   -1    0    0    0    0 -0.00000000000E+00 -0.00000000000E+00 -0.29948004176E+03  0.29948004176E+03  0.00000000000E+00 0. -1.
        -24    2    1    2    0    0 -0.15195702363E+02 -0.38245487602E+02 -0.18915956293E+03  0.20902280590E+03  0.78838863795E+02 0.  0.
         25    2    1    2    0    0  0.34623617099E+01  0.11155516046E+03 -0.23497468178E+02  0.16928264359E+03  0.12509172889E+03 0.  0.
         24    2    1    2    0    0  0.11733340653E+02 -0.73309672854E+02  0.75398904632E+03  0.76198664922E+03  0.81315387298E+02 0.  0.
        -13    1    5    5    0    0  0.15642350555E+02  0.30536124121E+01  0.29997112961E+02  0.33968138978E+02  0.00000000000E+00 0.  1.
         14    1    5    5    0    0 -0.39090099012E+01 -0.76363285267E+02  0.72399193335E+03  0.72801851024E+03  0.00000000000E+00 0. -1.
         11    1    3    3    0    0 -0.15459112150E+02  0.21314383891E+02 -0.85590278463E+02  0.89548773730E+02  0.00000000000E+00 0. -1.
        -12    1    3    3    0    0  0.26340978709E+00 -0.59559871494E+02 -0.10356928447E+03  0.11947403217E+03  0.00000000000E+00 0.  1.
          5    1    4    4  501    0 -0.35957127974E+02  0.94623040128E+02  0.25048275641E+02  0.10436150290E+03  0.41800000000E+01 0.  1.
         -5    1    4    4    0  501  0.39419489684E+02  0.16932120329E+02 -0.48545743819E+02  0.64921140691E+02  0.41800000000E+01 0.  1.
</event>
<event>
11    1  0.8037748E-009  0.1493215E+03  0.7561462E-02  0.1097574E+00
         22   -1    0    0    0    0  0.00000000000E+00  0.00000000000E+00  0.53595721305E+03  0.53595721305E+03  0.00000000000E+00 0. -1.
         22   -1    0    0    0    0 -0.00000000000E+00 -0.00000000000E+00 -0.20984294135E+04  0.20984294135E+04  0.00000000000E+00 0. -1.
        -24    2    1    2    0    0 -0.49961136363E+02 -0.43759202145E+02 -0.19361088942E+04  0.19386891973E+04  0.74747378021E+02 0.  0.
         25    2    1    2    0    0  0.84216507899E+02 -0.31048475232E+02 -0.11620290432E+03  0.19288724860E+03  0.12508376267E+03 0.  0.
         24    2    1    2    0    0 -0.34255371536E+02  0.74807677377E+02  0.48983959810E+03  0.50281018063E+03  0.78138510391E+02 0.  0.
        -13    1    5    5    0    0  0.10583592358E+01 -0.13614982486E+02  0.26755122823E+02  0.30038716178E+02  0.00000000000E+00 0.  1.
         14    1    5    5    0    0 -0.35313730772E+02  0.88422659863E+02  0.46308447528E+03  0.47277146446E+03  0.00000000000E+00 0. -1.
         11    1    3    3    0    0 -0.48071596138E+01 -0.45188516150E+02 -0.13801058945E+04  0.13808538630E+04  0.00000000000E+00 0. -1.
        -12    1    3    3    0    0 -0.45153976750E+02  0.14293140054E+01 -0.55600299969E+03  0.55783533433E+03  0.00000000000E+00 0.  1.
          5    1    4    4  501    0  0.79076412054E+02 -0.75194251630E+02 -0.85834293867E+02  0.13889655440E+03  0.41800000000E+01 0. -1.
         -5    1    4    4    0  501  0.51400958452E+01  0.44145776398E+02 -0.30368610448E+02  0.53990694195E+02  0.41800000000E+01 0. -1.
</event>
<event>
11    1  0.8037748E-009  0.1719823E+03  0.7561462E-02  0.1076319E+00
         22   -1    0    0    0    0  0.00000000000E+00  0.00000000000E+00  0.29048434751E+03  0.29048434751E+03  0.00000000000E+00 0.  1.
         22   -1    0    0    0    0 -0.00000000000E+00 -0.00000000000E+00 -0.17884540317E+04  0.17884540317E+04  0.00000000000E+00 0. -1.
         24    2    1    2    0    0 -0.82931598345E+01 -0.12462715229E+03 -0.15437240330E+04  0.15510437191E+04  0.83976333765E+02 0.  0.
         25    2    1    2    0    0  0.56038451883E+02  0.65619669801E+02 -0.20344406819E+03  0.25393418018E+03  0.12508728884E+03 0.  0.
        -24    2    1    2    0    0 -0.47745292048E+02  0.59007482484E+02  0.24919841704E+03  0.27396047998E+03  0.84811541872E+02 0.  0.
        -13    1    3    3    0    0 -0.31166416964E+02 -0.13466387169E+02 -0.50451414863E+03  0.50565523363E+03  0.00000000000E+00 0.  1.
         14    1    3    3    0    0  0.22873257130E+02 -0.11116076512E+03 -0.10392098844E+04  0.10453884854E+04  0.00000000000E+00 0. -1.
         13    1    5    5    0    0  0.58917082178E+01  0.21435349155E+02  0.73672951021E+01  0.23419296664E+02  0.00000000000E+00 0. -1.
        -14    1    5    5    0    0 -0.53637000266E+02  0.37572133329E+02  0.24183112194E+03  0.25054118332E+03  0.00000000000E+00 0.  1.
          5    1    4    4  501    0  0.72781064295E+01 -0.34264445412E+02 -0.81914871069E+02  0.89188236639E+02  0.41800000000E+01 0. -1.
         -5    1    4    4    0  501  0.48760345453E+02  0.99884115213E+02 -0.12152919712E+03  0.16474594354E+03  0.41800000000E+01 0. -1.
</event>
<event>
11    1  0.8037748E-009  0.1779020E+03  0.7561462E-02  0.1071353E+00
         22   -1    0    0    0    0  0.00000000000E+00  0.00000000000E+00  0.28285586563E+03  0.28285586563E+03  0.00000000000E+00 0. -1.
         22   -1    0    0    0    0 -0.00000000000E+00 -0.00000000000E+00 -0.35077596380E+03  0.35077596380E+03  0.00000000000E+00 0. -1.
         24    2    1    2    0    0  0.19102516531E+02 -0.54258892896E+02 -0.19520965711E+03  0.21998489495E+03  0.83532090725E+02 0.  0.
         25    2    1    2    0    0  0.47457133190E+02  0.15242770175E+03 -0.19869349257E+02  0.20378539693E+03  0.12508922100E+03 0.  0.
        -24    2    1    2    0    0 -0.66559649721E+02 -0.98168808850E+02  0.14715890819E+03  0.20986153756E+03  0.91207558268E+02 0.  0.
        -11    1    3    3    0    0 -0.18094440161E+02  0.14504770610E+02 -0.41739210485E+02  0.47748914407E+02  0.00000000000E+00 0.  1.
         12    1    3    3    0    0  0.37196956692E+02 -0.68763663507E+02 -0.15347044662E+03  0.17223598054E+03  0.00000000000E+00 0. -1.
         11    1    5    5    0    0 -0.44969749316E+02 -0.10144783204E+03  0.15130326438E+03  0.18763426870E+03  0.00000000000E+00 0. -1.
        -12    1    5    5    0    0 -0.21589900404E+02  0.32790231918E+01 -0.41443561914E+01  0.22227268856E+02  0.00000000000E+00 0.  1.
          5    1    4    4  501    0  0.78930858295E+02  0.15147906272E+03 -0.19944536754E+02  0.17202105621E+03  0.41800000000E+01 0.  1.
         -5    1    4    4    0  501 -0.31473725105E+02  0.94863902679E+00  0.75187497303E-01  0.31764340716E+02  0.41800000000E+01 0.  1.
</event>
<event>
11    1  0.8037748E-009  0.1435181E+03  0.7561462E-02  0.1103692E+00
         22   -1    0    0    0    0  0.00000000000E+00  0.00000000000E+00  0.72853302227E+02  0.72853302227E+02  0.00000000000E+00 0. -1.
         22   -1    0    0    0    0 -0.00000000000E+00 -0.00000000000E+00 -0.17563551368E+04  0.17563551368E+04  0.00000000000E+00 0. -1.
         24    2    1    2    0    0 -0.60669682800E+01  0.25179022475E+02 -0.15217802604E+04  0.15241253583E+04  0.80449709681E+02 0.  0.
         25    2    1    2    0    0 -0.61814030603E+02  0.70802033805E+01 -0.12999302801E+03  0.19083562943E+03  0.12509574920E+03 0.  0.
        -24    2    1    2    0    0  0.67880998883E+02 -0.32259225855E+02 -0.31728546197E+02  0.11424745127E+03  0.79983072054E+02 0.  0.
        -13    1    3    3    0    0  0.24456643754E+02 -0.95626458862E+01 -0.22606143520E+03  0.22758151091E+03  0.00000000000E+00 0.  1.
         14    1    3    3    0    0 -0.30523612034E+02  0.34741668361E+02 -0.12957188252E+04  0.12965438474E+04  0.00000000000E+00 0. -1.
         13    1    5    5    0    0  0.61472889022E+02 -0.57179602502E+02 -0.25970425548E+02  0.87879952379E+02  0.00000000000E+00 0. -1.
        -14    1    5    5    0    0  0.64081098617E+01  0.24920376647E+02 -0.57581206487E+01  0.26367498888E+02  0.00000000000E+00 0.  1.
          5    1    4    4  501    0 -0.70956779597E+02 -0.68495275494E+01 -0.14899277985E+03  0.16522137103E+03  0.41800000000E+01 0.  1.
         -5    1    4    4    0  501  0.91427489934E+01  0.13929730930E+02  0.18999751843E+02  0.25614258394E+02  0.41800000000E+01 0.  1.
</event>
<event>
11    1  0.8037748E-009  0.1860588E+03  0.7561462E-02  0.1064845E+00
         22   -1    0    0    0    0  0.00000000000E+00  0.00000000000E+00  0.10622415863E+04  0.10622415863E+04  0.00000000000E+00 0.  1.
         22   -1    0    0    0    0 -0.00000000000E+00 -0.00000000000E+00 -0.32929495680E+03  0.32929495680E+03  0.00000000000E+00 0.  1.
        -24    2    1    2    0    0  0.16454649900E+02 -0.47433732436E+02 -0.25497689882E+03  0.27211730302E+03  0.80708693421E+02 0.  0.
         25    2    1    2    0    0  0.12103559984E+03  0.19158707732E+02  0.71547126210E+02  0.18916418201E+03  0.12508966375E+03 0.  0.
         24    2    1    2    0    0 -0.13749024974E+03  0.28275024704E+02  0.91637640208E+03  0.93025505804E+03  0.76978678348E+02 0.  0.
        -13    1    5    5    0    0 -0.14516238215E+03  0.19385110805E+02  0.80060029631E+03  0.81388496372E+03  0.00000000000E+00 0.  1.
         14    1    5    5    0    0  0.76721324136E+01  0.88899138999E+01  0.11577610577E+03  0.11637009432E+03  0.00000000000E+00 0. -1.
         13    1    3    3    0    0 -0.22822463250E+02  0.84939805186E+01 -0.96641369548E+02  0.99662263881E+02  0.00000000000E+00 0. -1.
        -14    1    3    3    0    0  0.39277113150E+02 -0.55927712955E+02 -0.15833552928E+03  0.17245503914E+03  0.00000000000E+00 0.  1.
          5    1    4    4  501    0  0.14565318555E+03  0.38543436436E+01  0.57701594165E+02  0.15676942558E+03  0.41800000000E+01 0.  1.
         -5    1    4    4    0  501 -0.24617585715E+02  0.15304364088E+02  0.13845532045E+02  0.32394756431E+02  0.41800000000E+01 0.  1.
</event>
<event>
11    1  0.8037748E-009  0.2268090E+03  0.7561462E-02  0.1037034E+00
         22   -1    0    0    0    0  0.00000000000E+00  0.00000000000E+00  0.72980884029E+03  0.72980884029E+03  0.00000000000E+00 0. -1.
         22   -1    0    0    0    0 -0.00000000000E+00 -0.00000000000E+00 -0.31116997721E+03  0.31116997721E+03  0.00000000000E+00 0.  1.
         24    2    1    2    0    0 -0.11080652305E+03 -0.15611641865E+03 -0.23383671859E+03  0.31265198592E+03  0.80132587761E+02 0.  0.
         25    2    1    2    0    0  0.10271323222E+03  0.13559921822E+03  0.30294422068E+03  0.36926876467E+03  0.12508822350E+03 0.  0.
        -24    2    1    2    0    0  0.80932908276E+01  0.20517200428E+02  0.34953136099E+03  0.35905806690E+03  0.79145854129E+02 0.  0.
        -13    1    3    3    0    0 -0.11627530348E+03 -0.10778233726E+03 -0.17105208059E+03  0.23322905629E+03  0.00000000000E+00 0.  1.
         14    1    3    3    0    0  0.54687804306E+01 -0.48334081387E+02 -0.62784637998E+02  0.79422929632E+02  0.00000000000E+00 0. -1.
         11    1    5    5    0    0 -0.28352299890E+02 -0.13914830332E+02  0.15359314913E+03  0.15680666718E+03  0.00000000000E+00 0. -1.
        -12    1    5    5    0    0  0.36445590718E+02  0.34432030760E+02  0.19593821185E+03  0.20225139972E+03  0.00000000000E+00 0.  1.
          5    1    4    4  501    0  0.12740745103E+03  0.82999026285E+02  0.23272289598E+03  0.27802682542E+03  0.41800000000E+01 0.  1.
         -5    1    4    4    0  501 -0.24694218804E+02  0.52600191935E+02  0.70221324708E+02  0.91241939247E+02  0.41800000000E+01 0.  1.
</event>
<event>
11    1  0.8037748E-009  0.1522216E+03  0.7561462E-02  0.1094630E+00
         22   -1    0    0    0    0  0.00000000000E+00  0.00000000000E+00  0.38484820089E+03  0.38484820089E+03  0.00000000000E+00 0.  1.
         22   -1    0    0    0    0 -0.00000000000E+00 -0.00000000000E+00 -0.53421398076E+03  0.53421398076E+03  0.00000000000E+00 0. -1.
         24    2    1    2    0    0  0.59134570686E+02  0.61452768654E+02 -0.46639588208E+03  0.48095590975E+03  0.80747310016E+02 0.  0.
         25    2    1    2    0    0 -0.77456448609E+02 -0.85743015423E+02  0.84816553186E+02  0.19021541625E+03  0.12504675429E+03 0.  0.
        -24    2    1    2    0    0  0.18321877923E+02  0.24290246769E+02  0.23221354902E+03  0.24789085565E+03  0.81246764046E+02 0.  0.
        -11    1    3    3    0    0 -0.17756603931E+02  0.26480861442E+01 -0.42284849401E+02  0.45938195788E+02  0.00000000000E+00 0.  1.
         12    1    3    3    0    0  0.76891174616E+02  0.58804682510E+02 -0.42411103268E+03  0.43501771396E+03  0.00000000000E+00 0. -1.
         11    1    5    5    0    0  0.50641710988E+02  0.11262258484E+02  0.14214603890E+03  0.15131727507E+03  0.00000000000E+00 0. -1.
        -12    1    5    5    0    0 -0.32319833064E+02  0.13027988285E+02  0.90067510117E+02  0.96573580584E+02  0.00000000000E+00 0.  1.
          5    1    4    4  501    0  0.15814288871E+02  0.28757386964E+01  0.55855676231E+02  0.58272554198E+02  0.41800000000E+01 0. -1.
         -5    1    4    4    0  501 -0.93270737480E+02 -0.88618754119E+02  0.28960876955E+02  0.13194286205E+03  0.41800000000E+01 0. -1.
</event>
<event>
11    1  0.8037748E-009  0.1455199E+03  0.7561462E-02  0.1101546E+00
         22   -1    0    0    0    0  0.00000000000E+00  0.00000000000E+00  0.65215575754E+03  0.65215575754E+03  0.00000000000E+00 0.  1.
         22   -1    0    0    0    0 -0.00000000000E+00 -0.00000000000E+00 -0.22496382936E+04  0.22496382936E+04  0.00000000000E+00 0.  1.
        -24    2    1    2    0    0  0.66891400277E+02  0.29459981869E+02 -0.20372919175E+04  0.20402236564E+04  0.81313350227E+02 0.  0.
         25    2    1    2    0    0 -0.74520385541E+02 -0.88537765813E+02 -0.17171243003E+03  0.24191926792E+03  0.12509016638E+03 0.  0.
         24    2    1    2    0    0  0.76289852637E+01  0.59077783944E+02  0.61152181144E+03  0.61965112688E+03  0.80375414138E+02 0.  0.
        -13    1    5    5    0    0 -0.25173933644E+02  0.11085835157E+02  0.37811618502E+03  0.37911538092E+03  0.00000000000E+00 0.  1.
         14    1    5    5    0    0  0.32802918908E+02  0.47991948787E+02  0.23340562643E+03  0.24053574596E+03  0.00000000000E+00 0. -1.
         11    1    3    3    0    0 -0.38986383082E+01  0.53980475545E+01 -0.13517214093E+02  0.15068290377E+02  0.00000000000E+00 0. -1.
        -12    1    3    3    0    0  0.70790038585E+02  0.24061934314E+02 -0.20237747034E+04  0.20251553660E+04  0.00000000000E+00 0.  1.
          5    1    4    4  501    0 -0.10909458893E+03 -0.60480902526E+02 -0.13683840162E+03  0.18520742281E+03  0.41800000000E+01 0.  1.
         -5    1    4    4    0  501  0.34574203393E+02 -0.28056863287E+02 -0.34874028414E+02  0.56711845109E+02  0.41800000000E+01 0.  1.
</event>
<event>
11    1  0.8037748E-009  0.1513141E+03  0.7561462E-02  0.1095544E+00
         22   -1    0    0    0    0  0.00000000000E+00  0.00000000000E+00  0.15658269567E+04  0.15658269567E+04  0.00000000000E+00 0.  1.
         22   -1    0    0    0    0 -0.00000000000E+00 -0.00000000000E+00 -0.64600525181E+03  0.64600525181E+03  0.00000000000E+00 0. -1.
         24    2    1    2    0    0  0.84040367689E+02  0.11933201741E+02 -0.61882902802E+03  0.62991419319E+03  0.81469872691E+02 0.  0.
         25    2    1    2    0    0 -0.10093022535E+03  0.29193410325E+01  0.29736710896E+03  0.33803941049E+03  0.12509201659E+03 0.  0.
        -24    2    1    2    0    0  0.16889857663E+02 -0.14852542773E+02  0.12412836239E+04  0.12438786048E+04  0.77091394593E+02 0.  0.
        -13    1    3    3    0    0  0.41572850662E+02 -0.18647748022E+02 -0.12019247890E+03  0.12853899176E+03  0.00000000000E+00 0.  1.
         14    1    3    3    0    0  0.42467517027E+02  0.30580949763E+02 -0.49863654912E+03  0.50137520143E+03  0.00000000000E+00 0. -1.
         13    1    5    5    0    0  0.11299277088E+01  0.28179164552E+02  0.25990459975E+03  0.26143018766E+03  0.00000000000E+00 0. -1.
        -14    1    5    5    0    0  0.15759929954E+02 -0.43031707325E+02  0.98137902417E+03  0.98244841712E+03  0.00000000000E+00 0.  1.
          5    1    4    4  501    0 -0.38295098610E+02  0.22934940310E+02  0.25675631505E+03  0.26064113985E+03  0.41800000000E+01 0. -1.
         -5    1    4    4    0  501 -0.62635126742E+02 -0.20015599278E+02  0.40610793909E+02  0.77398270642E+02  0.41800000000E+01 0. -1.
</event>
<event>
11    1  0.8037748E-009  0.9191858E+03  0.7561462E-02  0.8759923E-01
         22   -1    0    0    0    0  0.00000000000E+00  0.00000000000E+00  0.28544487274E+03  0.28544487274E+03  0.00000000000E+00 0.  1.
         22   -1    0    0    0    0 -0.00000000000E+00 -0.00000000000E+00 -0.73998754592E+03  0.73998754592E+03  0.00000000000E+00 0.  1.
        -24    2    1    2    0    0 -0.56657501571E+02 -0.97637448968E+02 -0.75426973060E+02  0.15800630498E+03  0.80830812340E+02 0.  0.
         25    2    1    2    0    0  0.72689087707E+02  0.41112487671E+03 -0.31355435951E+03  0.53690966432E+03  0.12509309951E+03 0.  0.
         24    2    1    2    0    0 -0.16031586135E+02 -0.31348742774E+03 -0.65561340606E+02  0.33051644936E+03  0.80071560529E+02 0.  0.
        -13    1    5    5    0    0  0.55832389749E+01 -0.29588603666E+03 -0.57214317251E+02  0.30141864134E+03  0.00000000000E+00 0.  1.
         14    1    5    5    0    0 -0.21614825110E+02 -0.17601391088E+02 -0.83470233553E+01  0.29097808022E+02  0.00000000000E+00 0. -1.
         13    1    3    3    0    0 -0.28991575471E+02 -0.91221771618E+01 -0.55311465149E+02  0.63111676743E+02  0.00000000000E+00 0. -1.
        -14    1    3    3    0    0 -0.27665926101E+02 -0.88515271806E+02 -0.20115507911E+02  0.94894628238E+02  0.00000000000E+00 0.  1.
          5    1    4    4  501    0  0.22952276411E+02  0.15565615586E+03 -0.19578968308E+03  0.25121050585E+03  0.41800000000E+01 0.  1.
         -5    1    4    4    0  501  0.49736811296E+02  0.25546872086E+03 -0.11776467643E+03  0.28569915847E+03  0.41800000000E+01 0.  1.
</event>
<event>
11    1  0.8037748E-009  0.1848348E+03  0.7561462E-02  0.1065798E+00
         22   -1    0    0    0    0  0.00000000000E+00  0.00000000000E+00  0.20115039579E+03  0.20115039579E+03  0.00000000000E+00 0. -1.
         22   -1    0    0    0    0 -0.00000000000E+00 -0.00000000000E+00 -0.87345794133E+03  0.87345794133E+03  0.00000000000E+00 0.  1.
        -24    2    1    2    0    0 -0.20965470043E+02 -0.12795835329E+03 -0.67744920842E+03  0.69436054796E+03  0.79914012951E+02 0.  0.
         25    2    1    2    0    0  0.39355980825E+02  0.21130883132E+03 -0.44878574836E+02  0.25270742085E+03  0.12508652466E+03 0.  0.
         24    2    1    2    0    0 -0.18390510783E+02 -0.83350478031E+02  0.50020237709E+02  0.12754036831E+03  0.80492287170E+02 0.  0.
        -13    1    5    5    0    0 -0.13007706776E+02 -0.18511447245E+01  0.43685105741E+02  0.45618150291E+02  0.00000000000E+00 0.  1.
         14    1    5    5    0    0 -0.53828040063E+01 -0.81499333307E+02  0.63351319681E+01  0.81922218021E+02  0.00000000000E+00 0. -1.
         13    1    3    3    0    0  0.22640574903E+01 -0.96965167851E+02 -0.30859539102E+03  0.32347872433E+03  0.00000000000E+00 0. -1.
        -14    1    3    3    0    0 -0.23229527533E+02 -0.30993185440E+02 -0.36885381739E+03  0.37088182363E+03  0.00000000000E+00 0.  1.
          5    1    4    4  501    0  0.70802293501E+02  0.98231108372E+02  0.12856010464E+02  0.12184032511E+03  0.41800000000E+01 0. -1.
         -5    1    4    4    0  501 -0.31446312676E+02  0.11307772295E+03 -0.57734585300E+02  0.13086709574E+03  0.41800000000E+01 0. -1.
</event>
<event>
11    1  0.8037748E-009  0.1363350E+03  0.7561462E-02  0.1111721E+00
         22   -1    0    0    0    0  0.00000000000E+00  0.00000000000E+00  0.35825175215E+03  0.35825175215E+03  0.00000000000E+00 0. -1.
         22   -1    0    0    0    0 -0.00000000000E+00 -0.00000000000E+00 -0.33660799979E+03  0.33660799979E+03  0.00000000000E+00 0.  1.
        -24    2    1    2    0    0  0.46237823011E+02 -0.28703888198E+02 -0.27337692854E+03  0.28997595885E+03  0.79932860437E+02 0.  0.
         25    2    1    2    0    0 -0.40635433860E+02  0.33069973823E+02  0.44882212725E+02  0.14284978504E+03  0.12508711530E+03 0.  0.
         24    2    1    2    0    0 -0.56023891513E+01 -0.43660856253E+01  0.25013846817E+03  0.26203400805E+03  0.77731066149E+02 0.  0.
        -11    1    5    5    0    0 -0.85261739348E+01  0.34211208826E+02  0.77952464289E+02  0.85555181842E+02  0.00000000000E+00 0.  1.
         12    1    5    5    0    0  0.29237847835E+01 -0.38577294451E+02  0.17218600389E+03  0.17647882620E+03  0.00000000000E+00 0. -1.
         13    1    3    3    0    0  0.49653114771E+01 -0.10403914365E+02  0.13111633592E+01  0.11602366204E+02  0.00000000000E+00 0. -1.
        -14    1    3    3    0    0  0.41272511534E+02 -0.18299973833E+02 -0.27468809190E+03  0.27837359264E+03  0.00000000000E+00 0.  1.
          5    1    4    4  501    0 -0.60247557934E+02 -0.23959956695E+02  0.50282745589E+02  0.82156403681E+02  0.41800000000E+01 0.  1.
         -5    1    4    4    0  501  0.19612124074E+02  0.57029930519E+02 -0.54005328646E+01  0.60693381360E+02  0.41800000000E+01 0.  1.
</event>
<event>
11    1  0.8037748E-009  0.1386874E+03  0.7561462E-02  0.1109033E+00
         22   -1    0    0    0    0  0.00000000000E+00  0.00000000000E+00  0.37926851114E+03  0.37926851114E+03  0.00000000000E+00 0.  1.
         22   -1    0    0    0    0 -0.00000000000E+00 -0.00000000000E+00 -0.35339951529E+03  0.35339951529E+03  0.00000000000E+00 0. -1.
        -24    2    1    2    0    0  0.51462868288E+01 -0.72426535840E+02 -0.28404399265E+03  0.30186677513E+03  0.71905999802E+02 0.  0.
         25    2    1    2    0    0  0.52505453605E+02  0.41886432843E+02  0.48568244479E+02  0.15005761718E+03  0.12508844147E+03 0.  0.
         24    2    1    2    0    0 -0.57651740434E+02  0.30540102997E+02  0.26134474402E+03  0.28074363411E+03  0.79116950153E+02 0.  0.
        -11    1    5    5    0    0 -0.50212390856E+02 -0.26643516377E+01  0.22659869398E+03  0.23211064404E+03  0.00000000000E+00 0.  1.
         12    1    5    5    0    0 -0.74393495782E+01  0.33204454635E+02  0.34746050047E+02  0.48632990074E+02  0.00000000000E+00 0. -1.
         13    1    3    3    0    0 -0.63254380690E+01 -0.73636479301E+02 -0.28008315085E+03  0.28967035340E+03  0.00000000000E+00 0. -1.
        -14    1    3    3    0    0  0.11471724898E+02  0.12099434608E+01 -0.39608418016E+01  0.12196421733E+02  0.00000000000E+00 0.  1.
          5    1    4    4  501    0 -0.15594804165E+02  0.35499089634E+02 -0.27466273684E+02  0.47699600333E+02  0.41800000000E+01 0. -1.
         -5    1    4    4    0  501  0.68100257770E+02  0.63873432088E+01  0.76034518163E+02  0.10235801685E+03  0.41800000000E+01 0. -1.
</event>
<event>
11    1  0.8037748E-009  0.2140393E+03  0.7561462E-02  0.1045017E+00
         22   -1    0    0    0    0  0.00000000000E+00  0.00000000000E+00  0.20864213248E+03  0.20864213248E+03  0.00000000000E+00 0. -1.
         22   -1    0    0    0    0 -0.00000000000E+00 -0.00000000000E+00 -0.16631935217E+04  0.16631935217E+04  0.00000000000E+00 0. -1.
        -24    2    1    2    0    0  0.15016585926E+01 -0.51941522800E+02 -0.12506890340E+04  0.12553498936E+04  0.94763487853E+02 0.  0.
         25    2    1    2    0    0 -0.17077486187E+03  0.76175056045E+01 -0.32927234775E+03  0.39152833339E+03  0.12510826117E+03 0.  0.
         24    2    1    2    0    0  0.16927320328E+03  0.44324017195E+02  0.12540999260E+03  0.22495742721E+03  0.65269763014E+02 0.  0.
        -13    1    5    5    0    0  0.99103602768E+02  0.57937471579E+02  0.85070666253E+02  0.14288209458E+03  0.00000000000E+00 0.  1.
         14    1    5    5    0    0  0.70169600513E+02 -0.13613454384E+02  0.40339326344E+02  0.82075332630E+02  0.00000000000E+00 0. -1.
         11    1    3    3    0    0 -0.75049691151E+01 -0.78023538138E+02 -0.80487160405E+03  0.80867935306E+03  0.00000000000E+00 0. -1.
        -12    1    3    3    0    0  0.90066277078E+01  0.26082015339E+02 -0.44581742999E+03  0.44667054050E+03  0.00000000000E+00 0.  1.
          5    1    4    4  501    0 -0.13469410307E+03 -0.29795456555E+02 -0.14568145250E+03  0.20067592938E+03  0.41800000000E+01 0.  1.
         -5    1    4    4    0  501 -0.36080758804E+02  0.37412962159E+02 -0.18359089526E+03  0.19085240400E+03  0.41800000000E+01 0.  1.
</event>
<event>
11    1  0.8037748E-009  0.3029680E+03  0.7561462E-02  0.9989429E-01
         22   -1    0    0    0    0  0.00000000000E+00  0.00000000000E+00  0.17973253307E+04  0.17973253307E+04  0.00000000000E+00 0. -1.
         22   -1    0    0    0    0 -0.00000000000E+00 -0.00000000000E+00 -0.20277857206E+03  0.20277857206E+03  0.00000000000E+00 0. -1.
        -24    2    1    2    0    0  0.24829795695E+03  0.10738714008E+03 -0.46822486804E+02  0.29323926174E+03  0.10301963926E+03 0.  0.
         25    2    1    2    0    0 -0.28653612203E+03 -0.14438672954E+03  0.98729572386E+03  0.10456404838E+04  0.12514271095E+03 0.  0.
         24    2    1    2    0    0  0.38238165073E+02  0.36999589457E+02  0.65407352158E+03  0.66122415723E+03  0.81080747311E+02 0.  0.
        -13    1    5    5    0    0  0.26493406156E+01  0.55713709581E+02  0.33237959323E+03  0.33702704704E+03  0.00000000000E+00 0.  1.
         14    1    5    5    0    0  0.35588824457E+02 -0.18714120123E+02  0.32169392835E+03  0.32419711019E+03  0.00000000000E+00 0. -1.
         11    1    3    3    0    0  0.24257635525E+03  0.72029887801E+02 -0.47256430761E+02  0.25741943033E+03  0.00000000000E+00 0. -1.
        -12    1    3    3    0    0  0.57216017045E+01  0.35357252280E+02  0.43394395696E+00  0.35819831410E+02  0.00000000000E+00 0.  1.
          5    1    4    4  501    0 -0.27978373308E+03 -0.13597750264E+03  0.98610123389E+03  0.10340125407E+04  0.41800000000E+01 0.  1.
         -5    1    4    4    0  501 -0.67523889503E+01 -0.84092268948E+01  0.11944899712E+01  0.11627943060E+02  0.41800000000E+01 0.  1.
</event>
<event>
11    1  0.8037748E-009  0.1274550E+03  0.7561462E-02  0.1122436E+00
         22   -1    0    0    0    0  0.00000000000E+00  0.00000000000E+00  0.80256505847E+03  0.80256505847E+03  0.00000000000E+00 0.  1.
         22   -1    0    0    0    0 -0.00000000000E+00 -0.00000000000E+00 -0.13008046450E+03  0.13008046450E+03  0.00000000000E+00 0.  1.
         24    2    1    2    0    0 -0.85851351893E+01 -0.24901330672E+02 -0.99095050607E+02  0.13022949048E+03  0.80287672289E+02 0.  0.
         25    2    1    2    0    0  0.16492641703E+02  0.39073190236E+02  0.40187625464E+03  0.42302702094E+03  0.12509442424E+03 0.  0.
        -24    2    1    2    0    0 -0.79075065135E+01 -0.14171859564E+02  0.36970338993E+03  0.37938901154E+03  0.83618510465E+02 0.  0.
        -11    1    3    3    0    0  0.28618356345E+01 -0.16816526976E+02 -0.11071691925E+03  0.11202330959E+03  0.00000000000E+00 0.  1.
         12    1    3    3    0    0 -0.11446970824E+02 -0.80848036959E+01  0.11621868647E+02  0.18206180893E+02  0.00000000000E+00 0. -1.
         13    1    5    5    0    0 -0.10620111830E+02  0.34643457186E+02  0.15076059786E+03  0.15505390601E+03  0.00000000000E+00 0. -1.
        -14    1    5    5    0    0  0.27126053166E+01 -0.48815316750E+02  0.21894279207E+03  0.22433510553E+03  0.00000000000E+00 0.  1.
          5    1    4    4  501    0  0.49486245742E+02  0.46497194772E+02  0.11120002081E+03  0.13036024957E+03  0.41800000000E+01 0. -1.
         -5    1    4    4    0  501 -0.32993604039E+02 -0.74240045362E+01  0.29067623383E+03  0.29266677137E+03  0.41800000000E+01 0. -1.
</event>
<event>
11    1  0.8037748E-009  0.1903755E+03  0.7561462E-02  0.1061546E+00
         22   -1    0    0    0    0  0.00000000000E+00  0.00000000000E+00  0.11670358106E+04  0.11670358106E+04  0.00000000000E+00 0. -1.
         22   -1    0    0    0    0 -0.00000000000E+00 -0.00000000000E+00 -0.99651620495E+02  0.99651620495E+02  0.00000000000E+00 0. -1.
        -24    2    1    2    0    0 -0.88019827169E+02 -0.10519359235E+03  0.31374395057E+02  0.16190481825E+03  0.80097663267E+02 0.  0.
         25    2    1    2    0    0  0.10583432856E+03  0.12750078194E+03  0.30552352708E+03  0.36938905736E+03  0.12508515339E+03 0.  0.
         24    2    1    2    0    0 -0.17814501393E+02 -0.22307189596E+02  0.73048626794E+03  0.73539355546E+03  0.79865678464E+02 0.  0.
        -13    1    5    5    0    0 -0.72637725923E+01  0.29079527040E+02  0.18768398476E+03  0.19006225144E+03  0.00000000000E+00 0.  1.
         14    1    5    5    0    0 -0.10550728800E+02 -0.51386716636E+02  0.54280228318E+03  0.54533130402E+03  0.00000000000E+00 0. -1.
         13    1    3    3    0    0 -0.71701174985E+02 -0.10100859692E+03 -0.26932304989E+01  0.12389934881E+03  0.00000000000E+00 0. -1.
        -14    1    3    3    0    0 -0.16318652184E+02 -0.41849954272E+01  0.34067625556E+02  0.38005469434E+02  0.00000000000E+00 0.  1.
          5    1    4    4  501    0  0.45954914418E+02  0.42784005744E+02  0.20719881667E+02  0.66250367569E+02  0.41800000000E+01 0.  1.
         -5    1    4    4    0  501  0.59879414143E+02  0.84716776199E+02  0.28480364541E+03  0.30313868979E+03  0.41800000000E+01 0.  1.
</event>
<event>
11    1  0.8037748E-009  0.1639215E+03  0.7561462E-02  0.1083446E+00
         22   -1    0    0    0    0  0.00000000000E+00  0.00000000000E+00  0.35033043944E+04  0.35033043944E+04  0.00000000000E+00 0.  1.
         22   -1    0    0    0    0 -0.00000000000E+00 -0.00000000000E+00 -0.12700758084E+03  0.12700758084E+03  0.00000000000E+00 0. -1.
        -24    2    1    2    0    0  0.39738503790E+01 -0.52918901482E+02 -0.81904498749E+02  0.12666306435E+03  0.80740221295E+02 0.  0.
         25    2    1    2    0    0  0.92191936005E+02  0.46615275831E+01  0.26238362075E+03  0.30498594863E+03  0.12510068552E+03 0.  0.
         24    2    1    2    0    0 -0.96165786384E+02  0.48257373899E+02  0.31958176915E+04  0.31986629622E+04  0.81347377731E+02 0.  0.
        -13    1    5    5    0    0 -0.11018570049E+03  0.35113732362E+02  0.27603797319E+04  0.27628011378E+04  0.00000000000E+00 0.  1.
         14    1    5    5    0    0  0.14019914107E+02  0.13143641536E+02  0.43543795962E+03  0.43586182441E+03  0.00000000000E+00 0. -1.
         13    1    3    3    0    0  0.51675131308E+01 -0.48996566207E+02 -0.98196453911E+02  0.10986314329E+03  0.00000000000E+00 0. -1.
        -14    1    3    3    0    0 -0.11936627518E+01 -0.39223352749E+01  0.16291955162E+02  0.16799921065E+02  0.00000000000E+00 0.  1.
          5    1    4    4  501    0  0.77120901778E+02  0.25674114460E+01  0.50054822290E+02  0.92071617380E+02  0.41800000000E+01 0. -1.
         -5    1    4    4    0  501  0.15071034227E+02  0.20941161372E+01  0.21232879846E+03  0.21291433124E+03  0.41800000000E+01 0. -1.
</event>
<event>
11    1  0.8037748E-009  0.2012271E+03  0.7561462E-02  0.1053659E+00
         22   -1    0    0    0    0  0.00000000000E+00  0.00000000000E+00  0.48689021933E+03  0.48689021933E+03  0.00000000000E+00 0. -1.
         22   -1    0    0    0    0 -0.00000000000E+00 -0.00000000000E+00 -0.18651489988E+04  0.18651489988E+04  0.00000000000E+00 0.  1.
         24    2    1    2    0    0 -0.25096981778E+02 -0.15349302306E+03 -0.17135447400E+04  0.17224301392E+04  0.79624379090E+02 0.  0.
         25    2    1    2    0    0  0.85658950130E+02  0.19878822746E+03 -0.26689380884E+02  0.25142825242E+03  0.12509847300E+03 0.  0.
        -24    2    1    2    0    0 -0.60561968353E+02 -0.45295204403E+02  0.36197534147E+03  0.37818082649E+03  0.79216047246E+02 0.  0.
        -11    1    3    3    0    0 -0.42779354195E+02 -0.11463646644E+03 -0.97421003974E+03  0.98186393869E+03  0.00000000000E+00 0.  1.
         12    1    3    3    0    0  0.17682372417E+02 -0.38856556620E+02 -0.73933470030E+03  0.74056620052E+03  0.00000000000E+00 0. -1.
         13    1    5    5    0    0 -0.32734431812E+02 -0.56879808852E+02  0.31904844065E+03  0.32572805093E+03  0.00000000000E+00 0. -1.
        -14    1    5    5    0    0 -0.27827536541E+02  0.11584604449E+02  0.42926900816E+02  0.52452775558E+02  0.00000000000E+00 0.  1.
          5    1    4    4  501    0 -0.20960151208E+02  0.75466028314E+02 -0.39560222986E+02  0.87846075672E+02  0.41800000000E+01 0.  1.
         -5    1    4    4    0  501  0.10661910134E+03  0.12332219915E+03  0.12870842102E+02  0.16358217675E+03  0.41800000000E+01 0.  1.
</event>
<event>
11    1  0.8037748E-009  0.9391584E+03  0.7561462E-02  0.8739138E-01
         22   -1    0    0    0    0  0.00000000000E+00  0.00000000000E+00  0.19279171055E+04  0.19279171055E+04  0.00000000000E+00 0. -1.
         22   -1    0    0    0    0 -0.00000000000E+00 -0.00000000000E+00 -0.63059247126E+03  0.63059247126E+03  0.00000000000E+00 0. -1.
        -24    2    1    2    0    0  0.82584026702E+03  0.51963444198E+03  0.31732984923E+03  0.10291790393E+04  0.80493241238E+02 0.  0.
         25    2    1    2    0    0 -0.84597165938E+03 -0.27197139094E+03  0.64831646384E+03  0.11070678621E+04  0.12509407663E+03 0.  0.
         24    2    1    2    0    0  0.20131392358E+02 -0.24766305104E+03  0.33167832119E+03  0.42226267535E+03  0.80950592522E+02 0.  0.
        -13    1    5    5    0    0  0.37066084996E+02 -0.48111747010E+02  0.68423787364E+02  0.91490160862E+02  0.00000000000E+00 0.  1.
         14    1    5    5    0    0 -0.16934692637E+02 -0.19955130404E+03  0.26325453383E+03  0.33077251448E+03  0.00000000000E+00 0. -1.
         13    1    3    3    0    0  0.65921358085E+03  0.42040564986E+03  0.22017222663E+03  0.81226797610E+03  0.00000000000E+00 0. -1.
        -14    1    3    3    0    0  0.16662668617E+03  0.99228792118E+02  0.97157622596E+02  0.21691106324E+03  0.00000000000E+00 0.  1.
          5    1    4    4  501    0 -0.46496248592E+03 -0.16043106541E+03  0.43356831915E+03  0.65568834047E+03  0.41800000000E+01 0. -1.
         -5    1    4    4    0  501 -0.38100917347E+03 -0.11154032553E+03  0.21474814468E+03  0.45137952161E+03  0.41800000000E+01 0. -1.
</event>
<event>
11    1  0.8037748E-009  0.1298073E+03  0.7561462E-02  0.1119506E+00
         22   -1    0    0    0    0  0.00000000000E+00  0.00000000000E+00  0.51931731538E+03  0.51931731538E+03  0.00000000000E+00 0.  1.
         22   -1    0    0    0    0 -0.00000000000E+00 -0.00000000000E+00 -0.35660840379E+03  0.35660840379E+03  0.00000000000E+00 0.  1.
        -24    2    1    2    0    0  0.32210145219E+02  0.13747381969E+02 -0.31762319274E+03  0.32949955528E+03  0.80367782107E+02 0.  0.
         25    2    1    2    0    0 -0.22776269013E+02 -0.13696911815E+02  0.11350218217E+03  0.17098781264E+03  0.12509085855E+03 0.  0.
         24    2    1    2    0    0 -0.94338762065E+01 -0.50470154722E-01  0.36682992216E+03  0.37543835124E+03  0.79377347047E+02 0.  0.
        -11    1    5    5    0    0 -0.77560517802E+01  0.21883927424E+02  0.33978053995E+03  0.34057286731E+03  0.00000000000E+00 0.  1.
         12    1    5    5    0    0 -0.16778244263E+01 -0.21934397579E+02  0.27049382211E+02  0.34865483934E+02  0.00000000000E+00 0. -1.
         11    1    3    3    0    0  0.10705071088E+02 -0.33667456678E+02 -0.14138022335E+03  0.14572736099E+03  0.00000000000E+00 0. -1.
        -12    1    3    3    0    0  0.21505074131E+02  0.47414838647E+02 -0.17624296938E+03  0.18377219429E+03  0.00000000000E+00 0.  1.
          5    1    4    4  501    0  0.56790191353E+01 -0.41299505374E+02  0.12305836862E+03  0.12999513410E+03  0.41800000000E+01 0.  1.
         -5    1    4    4    0  501 -0.28455288148E+02  0.27602593559E+02 -0.95561864502E+01  0.40992678544E+02  0.41800000000E+01 0.  1.
</event>
<event>
11    1  0.8037748E-009  0.1516118E+03  0.7561462E-02  0.1095243E+00
         22   -1    0    0    0    0  0.00000000000E+00  0.00000000000E+00  0.21083104070E+04  0.21083104070E+04  0.00000000000E+00 0.  1.
         22   -1    0    0    0    0 -0.00000000000E+00 -0.00000000000E+00 -0.89803035905E+02  0.89803035905E+02  0.00000000000E+00 0. -1.
         24    2    1    2    0    0  0.74222426427E+02 -0.43127063756E+02 -0.30646808012E+02  0.12164879323E+03  0.80562335120E+02 0.  0.
         25    2    1    2    0    0 -0.10327257019E+03 -0.15182550553E+02  0.54288542702E+03  0.56680466128E+03  0.12508878279E+03 0.  0.
        -24    2    1    2    0    0  0.29050143766E+02  0.58309614309E+02  0.15062687521E+04  0.15096599884E+04  0.77355058527E+02 0.  0.
        -11    1    3    3    0    0  0.49972846720E+01  0.21883840584E+02 -0.93950151428E+01  0.24333960680E+02  0.00000000000E+00 0.  1.
         12    1    3    3    0    0  0.69225141755E+02 -0.65010904340E+02 -0.21251792870E+02  0.97314832550E+02  0.00000000000E+00 0. -1.
         11    1    5    5    0    0 -0.23352967976E+02  0.49643170954E+01  0.23981613014E+03  0.24100162205E+03  0.00000000000E+00 0. -1.
        -12    1    5    5    0    0  0.52403111742E+02  0.53345297213E+02  0.12664526220E+04  0.12686583664E+04  0.00000000000E+00 0.  1.
          5    1    4    4  501    0 -0.12374140514E+03  0.15584176547E+02  0.44220687508E+03  0.45947708830E+03  0.41800000000E+01 0. -1.
         -5    1    4    4    0  501  0.20468834947E+02 -0.30766727101E+02  0.10067855194E+03  0.10732757298E+03  0.41800000000E+01 0. -1.
</event>
<event>
11    1  0.8037748E-009  0.1305076E+03  0.7561462E-02  0.1118647E+00
         22   -1    0    0    0    0  0.00000000000E+00  0.00000000000E+00  0.29284733619E+03  0.29284733619E+03  0.00000000000E+00 0.  1.
         22   -1    0    0    0    0 -0.00000000000E+00 -0.00000000000E+00 -0.22209759176E+03  0.22209759176E+03  0.00000000000E+00 0.  1.
        -24    2    1    2    0    0 -0.57936566248E+01 -0.37248291920E+02 -0.16554748380E+03  0.18812143246E+03  0.81010507026E+02 0.  0.
         25    2    1    2    0    0  0.12340128688E+02  0.30631459438E+02  0.84097848824E+02  0.15430384716E+03  0.12508662594E+03 0.  0.
         24    2    1    2    0    0 -0.65464720632E+01  0.66168324822E+01  0.15219937941E+03  0.17251964833E+03  0.80695348066E+02 0.  0.
        -13    1    5    5    0    0 -0.10956484229E+02 -0.26309829204E+02  0.12872473780E+03  0.13184198793E+03  0.00000000000E+00 0.  1.
         14    1    5    5    0    0  0.44100121660E+01  0.32926661686E+02  0.23474641606E+02  0.40677660400E+02  0.00000000000E+00 0. -1.
         13    1    3    3    0    0  0.94429470017E+01 -0.40533186422E+02 -0.29091602464E+02  0.50778241241E+02  0.00000000000E+00 0. -1.
        -14    1    3    3    0    0 -0.15236603627E+02  0.32848945011E+01 -0.13645588134E+03  0.13734319122E+03  0.00000000000E+00 0.  1.
          5    1    4    4  501    0 -0.12427145615E+02 -0.19526035777E+02 -0.23320116455E+02  0.33120994139E+02  0.41800000000E+01 0. -1.
         -5    1    4    4    0  501  0.24767274304E+02  0.50157495215E+02  0.10741796528E+03  0.12118285303E+03  0.41800000000E+01 0. -1.
</event>
<event>
11    1  0.8037748E-009  0.2308070E+03  0.7561462E-02  0.1034651E+00
         22   -1    0    0    0    0  0.00000000000E+00  0.00000000000E+00  0.36052040285E+03  0.36052040285E+03  0.00000000000E+00 0. -1.
         22   -1    0    0    0    0 -0.00000000000E+00 -0.00000000000E+00 -0.88485672812E+03  0.88485672812E+03  0.00000000000E+00 0.  1.
        -24    2    1    2    0    0  0.12722529277E+03 -0.14516390959E+03 -0.77957395805E+03  0.80725715903E+03  0.81668408568E+02 0.  0.
         25    2    1    2    0    0 -0.98382913912E+02  0.18979293959E+03  0.13048081238E+03  0.27995104570E+03  0.12508712131E+03 0.  0.
         24    2    1    2    0    0 -0.28842378858E+02 -0.44629029998E+02  0.12475682041E+03  0.15816892625E+03  0.81421814372E+02 0.  0.
        -13    1    5    5    0    0 -0.12236569966E+02  0.21531544325E+02  0.15035886545E+02  0.28972727344E+02  0.00000000000E+00 0.  1.
         14    1    5    5    0    0 -0.16605808892E+02 -0.66160574323E+02  0.10972093386E+03  0.12919619890E+03  0.00000000000E+00 0. -1.
         11    1    3    3    0    0 -0.73845271892E+01 -0.17481052490E+02 -0.33919452520E+02  0.38867051563E+02  0.00000000000E+00 0. -1.
        -12    1    3    3    0    0  0.13460981996E+03 -0.12768285710E+03 -0.74565450553E+03  0.76839010746E+03  0.00000000000E+00 0.  1.
          5    1    4    4  501    0 -0.77519386650E+02  0.25307229842E+02  0.48022195965E+02  0.94727582542E+02  0.41800000000E+01 0. -1.
         -5    1    4    4    0  501 -0.20863527262E+02  0.16448570975E+03  0.82458616414E+02  0.18522346315E+03  0.41800000000E+01 0. -1.
</event>
<event>
11    1  0.8037748E-009  0.1290256E+03  0.7561462E-02  0.1120472E+00
         22   -1    0    0    0    0  0.00000000000E+00  0.00000000000E+00  0.47750516291E+03  0.47750516291E+03  0.00000000000E+00 0.  1.
         22   -1    0    0    0    0 -0.00000000000E+00 -0.00000000000E+00 -0.83447239347E+03  0.83447239347E+03  0.00000000000E+00 0. -1.
         24    2    1    2    0    0  0.55919425684E+00  0.31751687866E+02 -0.56941483124E+03  0.57553562393E+03  0.77456581327E+02 0.  0.
         25    2    1    2    0    0 -0.31664342360E+02 -0.36993678269E+02 -0.24041304107E+03  0.27534736060E+03  0.12508627368E+03 0.  0.
        -24    2    1    2    0    0  0.31105148103E+02  0.52419904026E+01  0.45286064176E+03  0.46109457185E+03  0.80811104630E+02 0.  0.
        -11    1    3    3    0    0  0.31598839894E+01  0.23942949024E+02 -0.45125047759E+02  0.51181242756E+02  0.00000000000E+00 0.  1.
         12    1    3    3    0    0 -0.26006897326E+01  0.78087388421E+01 -0.52428978348E+03  0.52435438117E+03  0.00000000000E+00 0. -1.
         11    1    5    5    0    0  0.32131463622E+02 -0.12875007704E+01  0.59131065066E+02  0.67309519896E+02  0.00000000000E+00 0. -1.
        -12    1    5    5    0    0 -0.10263155186E+01  0.65294911730E+01  0.39372957669E+03  0.39378505195E+03  0.00000000000E+00 0.  1.
          5    1    4    4  501    0 -0.24942310984E+02  0.43573336739E+02 -0.65728565649E+02  0.82815887933E+02  0.41800000000E+01 0. -1.
         -5    1    4    4    0  501 -0.67220313760E+01 -0.80567015008E+02 -0.17468447542E+03  0.19253147267E+03  0.41800000000E+01 0. -1.
</event>
<event>
11    1  0.8037748E-009  0.1682369E+03  0.7561462E-02  0.1079576E+00
         22   -1    0    0    0    0  0.00000000000E+00  0.00000000000E+00  0.74408022276E+03  0.74408022276E+03  0.00000000000E+00 0.  1.
         22   -1    0    0    0    0 -0.00000000000E+00 -0.00000000000E+00 -0.21118644191E+03  0.21118644191E+03  0.00000000000E+00 0. -1.
        -24    2    1    2    0    0  0.95049592830E+02 -0.66051723638E+02 -0.15737463456E+03  0.21139567961E+03  0.80771916304E+02 0.  0.
         25    2    1    2    0    0 -0.93869904211E+02 -0.68013166300E+01  0.29717747297E+03  0.33588714914E+03  0.12509160519E+03 0.  0.
         24    2    1    2    0    0 -0.11796886181E+01  0.72853040268E+02  0.39309094243E+03  0.40798383592E+03  0.81371765426E+02 0.  0.
        -11    1    5    5    0    0 -0.13408802348E+02  0.45965101020E+02  0.36179487628E+03  0.36494947458E+03  0.00000000000E+00 0.  1.
         12    1    5    5    0    0  0.12229113730E+02  0.26887939248E+02  0.31296066155E+02  0.43034361346E+02  0.00000000000E+00 0. -1.
         11    1    3    3    0    0  0.10955423443E+03 -0.59504444026E+02 -0.13309545687E+03  0.18236586791E+03  0.00000000000E+00 0. -1.
        -12    1    3    3    0    0 -0.14504641596E+02 -0.65472796122E+01 -0.24279177692E+02  0.29029811703E+02  0.00000000000E+00 0.  1.
          5    1    4    4  501    0 -0.10585413662E+03 -0.35302016886E+02  0.15939473384E+03  0.19461624858E+03  0.41800000000E+01 0. -1.
         -5    1    4    4    0  501  0.11984232405E+02  0.28500700256E+02  0.13778273913E+03  0.14127090055E+03  0.41800000000E+01 0. -1.
</event>
<event>
11    1  0.8037748E-009  0.1302377E+03  0.7561462E-02  0.1118977E+00
         22   -1    0    0    0    0  0.00000000000E+00  0.00000000000E+00  0.39259595304E+03  0.39259595304E+03  0.00000000000E+00 0.  1.
         22   -1    0    0    0    0 -0.00000000000E+00 -0.00000000000E+00 -0.24199816808E+03  0.24199816808E+03  0.00000000000E+00 0. -1.
        -24    2    1    2    0    0 -0.19690550383E+02  0.93605220855E+01 -0.17778899136E+03  0.19650840673E+03  0.80816405010E+02 0.  0.
         25    2    1    2    0    0 -0.58965736373E+01 -0.36019536265E+02  0.40529184407E+02  0.13648264215E+03  0.12511083185E+03 0.  0.
         24    2    1    2    0    0  0.25587124020E+02  0.26659014180E+02  0.28785759191E+03  0.30160307224E+03  0.82079327572E+02 0.  0.
        -13    1    5    5    0    0  0.16127061872E+02  0.11674338888E+01  0.26659854652E+03  0.26708843111E+03  0.00000000000E+00 0.  1.
         14    1    5    5    0    0  0.94600621479E+01  0.25491580291E+02  0.21259045383E+02  0.34514641128E+02  0.00000000000E+00 0. -1.
         13    1    3    3    0    0 -0.31518006842E+02  0.15892565088E+02 -0.17945606727E+03  0.18289461026E+03  0.00000000000E+00 0. -1.
        -14    1    3    3    0    0  0.11827456460E+02 -0.65320430024E+01  0.16670759198E+01  0.13613796466E+02  0.00000000000E+00 0.  1.
          5    1    4    4  501    0 -0.57025053028E+02 -0.39230464157E+02 -0.25917911017E+01  0.69390747020E+02  0.41800000000E+01 0. -1.
         -5    1    4    4    0  501  0.51128479391E+02  0.32109278920E+01  0.43120975508E+02  0.67091895126E+02  0.41800000000E+01 0. -1.
</event>
<event>
11    1  0.8037748E-009  0.1316420E+03  0.7561462E-02  0.1117268E+00
         22   -1    0    0    0    0  0.00000000000E+00  0.00000000000E+00  0.55692582597E+03  0.55692582597E+03  0.00000000000E+00 0. -1.
         22   -1    0    0    0    0 -0.00000000000E+00 -0.00000000000E+00 -0.43428311667E+03  0.43428311667E+03  0.00000000000E+00 0. -1.
         24    2    1    2    0    0 -0.43861441784E+01 -0.39611344987E+02 -0.38453701720E+03  0.39546431136E+03  0.83276689742E+02 0.  0.
         25    2    1    2    0    0  0.94311874009E+01  0.67228450766E+02  0.86765599146E+02  0.16668713929E+03  0.12509085226E+03 0.  0.
        -24    2    1    2    0    0 -0.50450432224E+01 -0.27617105779E+02  0.42041412735E+03  0.42905749199E+03  0.80957618326E+02 0.  0.
        -11    1    3    3    0    0 -0.37808419826E+02 -0.42612518473E+02 -0.20251584532E+03  0.21037578507E+03  0.00000000000E+00 0.  1.
         12    1    3    3    0    0  0.33422275648E+02  0.30011734861E+01 -0.18202117188E+03  0.18508852629E+03  0.00000000000E+00 0. -1.
         13    1    5    5    0    0  0.34244693601E+02 -0.30149229111E+02  0.19831748965E+03  0.20349816156E+03  0.00000000000E+00 0. -1.
        -14    1    5    5    0    0 -0.39289736823E+02  0.25321233322E+01  0.22209663770E+03  0.22555933043E+03  0.00000000000E+00 0.  1.
          5    1    4    4  501    0 -0.42183537930E+02 -0.14719181239E+02  0.20984312798E+02  0.49537046261E+02  0.41800000000E+01 0. -1.
         -5    1    4    4    0  501  0.51614725331E+02  0.81947632005E+02  0.65781286348E+02  0.11715009302E+03  0.41800000000E+01 0. -1.
</event>
<event>
11    1  0.8037748E-009  0.1498827E+03  0.7561462E-02  0.1096999E+00
         22   -1    0    0    0    0  0.00000000000E+00  0.00000000000E+00  0.63642400670E+03  0.63642400670E+03  0.00000000000E+00 0.  1.
         22   -1    0    0    0    0 -0.00000000000E+00 -0.00000000000E+00 -0.63913352707E+03  0.63913352707E+03  0.00000000000E+00 0.  1.
        -24    2    1    2    0    0  0.50792084189E+02  0.34729725721E+02 -0.55385347754E+03  0.56316517631E+03  0.81334811507E+02 0.  0.
         25    2    1    2    0    0 -0.12852585670E+03 -0.47525592995E+02  0.39305578017E+02  0.18965793414E+03  0.12509047001E+03 0.  0.
         24    2    1    2    0    0  0.77733772515E+02  0.12795867274E+02  0.51183837915E+03  0.52273442332E+03  0.71179191789E+02 0.  0.
        -13    1    5    5    0    0  0.28258366059E+02 -0.95064072398E+00  0.38296900900E+03  0.38401132903E+03  0.00000000000E+00 0.  1.
         14    1    5    5    0    0  0.49475406456E+02  0.13746507998E+02  0.12886937016E+03  0.13872309429E+03  0.00000000000E+00 0. -1.
         13    1    3    3    0    0  0.77762649897E-01  0.16755000257E+00  0.29670135352E+01  0.29727578696E+01  0.00000000000E+00 0. -1.
        -14    1    3    3    0    0  0.50714321539E+02  0.34562175718E+02 -0.55682049107E+03  0.56019241844E+03  0.00000000000E+00 0.  1.
          5    1    4    4  501    0 -0.24054234315E+02  0.41066503838E+02  0.29027033348E+01  0.47863994950E+02  0.41800000000E+01 0. -1.
         -5    1    4    4    0  501 -0.10447162239E+03 -0.88592096832E+02  0.36402874682E+02  0.14179393919E+03  0.41800000000E+01 0. -1.
</event>
<event>
11    1  0.8037748E-009  0.2131850E+03  0.7561462E-02  0.1045573E+00
         22   -1    0    0    0    0  0.00000000000E+00  0.00000000000E+00  0.25554706467E+04  0.25554706467E+04  0.00000000000E+00 0. -1.
         22   -1    0    0    0    0 -0.00000000000E+00 -0.00000000000E+00 -0.17965233974E+03  0.17965233974E+03  0.00000000000E+00 0.  1.
         24    2    1    2    0    0 -0.17431134118E+03  0.16708541575E+02 -0.63083100583E+02  0.20255495960E+03  0.79908792098E+02 0.  0.
         25    2    1    2    0    0  0.16260567536E+03 -0.25651416542E+02  0.18581060660E+03  0.27797700315E+03  0.12508809666E+03 0.  0.
        -24    2    1    2    0    0  0.11705665817E+02  0.89428749676E+01  0.22530908010E+04  0.22545910237E+04  0.80904444576E+02 0.  0.
        -13    1    3    3    0    0 -0.17604378432E+03  0.34781146037E+01 -0.67390172222E+02  0.18853367495E+03  0.00000000000E+00 0.  1.
         14    1    3    3    0    0  0.17324431419E+01  0.13230426971E+02  0.43070716386E+01  0.14021284648E+02  0.00000000000E+00 0. -1.
         13    1    5    5    0    0 -0.16702039919E+02  0.20934336864E+02  0.18910134244E+04  0.18912030499E+04  0.00000000000E+00 0. -1.
        -14    1    5    5    0    0  0.28407705736E+02 -0.11991461897E+02  0.36207737658E+03  0.36338797384E+03  0.00000000000E+00 0.  1.
          5    1    4    4  501    0  0.18122620816E+03 -0.36301980091E+02  0.16491023612E+03  0.24773701916E+03  0.41800000000E+01 0. -1.
         -5    1    4    4    0  501 -0.18620532803E+02  0.10650563549E+02  0.20900370485E+02  0.30239983998E+02  0.41800000000E+01 0. -1.
</event>
<event>
11    1  0.8702887E-009  0.1511994E+03  0.7561462E-02  0.1095660E+00
         22   -1    0    0    0    0  0.00000000000E+00  0.00000000000E+00  0.16842963344E+03  0.16842963344E+03  0.00000000000E+00 0.  1.
         22   -1    0    0    0    0 -0.00000000000E+00 -0.00000000000E+00 -0.18635569507E+04  0.18635569507E+04  0.00000000000E+00 0. -1.
        -24    2    1    2    0    0 -0.75413033694E+02  0.18430752515E+02 -0.12655122672E+04  0.12703031843E+04  0.78243614841E+02 0.  0.
         25    2    1    2    0    0  0.13658545237E+03 -0.73610505511E+02 -0.55619633260E+03  0.59082654884E+03  0.12509019983E+03 0.  0.
         24    2    1    2    0    0 -0.61172418679E+02  0.55179752996E+02  0.12658128257E+03  0.17085685100E+03  0.79889752099E+02 0.  0.
        -13    1    5    5    0    0 -0.57897482658E+02  0.53664907574E+02  0.48414270224E+02  0.92606600004E+02  0.00000000000E+00 0.  1.
         14    1    5    5    0    0 -0.32749360212E+01  0.15148454221E+01  0.78167012345E+02  0.78250250999E+02  0.00000000000E+00 0. -1.
         13    1    3    3    0    0  0.13135939863E+02 -0.56400291940E+01 -0.32785820811E+03  0.32816972357E+03  0.00000000000E+00 0. -1.
        -14    1    3    3    0    0 -0.88548973557E+02  0.24070781709E+02 -0.93765405911E+03  0.94213346073E+03  0.00000000000E+00 0.  1.
          5    1    4    4  501    0  0.12250872857E+03 -0.19340196454E+02 -0.24547472411E+03  0.27505952874E+03  0.41800000000E+01 0.  1.
         -5    1    4    4    0  501  0.14076723802E+02 -0.54270309057E+02 -0.31072160850E+03  0.31576702010E+03  0.41800000000E+01 0.  1.
</event>
<event>
11    1  0.8037748E-009  0.1445134E+03  0.7561462E-02  0.1102621E+00
         22   -1    0    0    0    0  0.00000000000E+00  0.00000000000E+00  0.46016369881E+03  0.46016369881E+03  0.00000000000E+00 0. -1.
         22   -1    0    0    0    0 -0.00000000000E+00 -0.00000000000E+00 -0.40834195582E+03  0.40834195582E+03  0.00000000000E+00 0.  1.
         24    2    1    2    0    0 -0.64703379748E+02  0.32005320341E+02 -0.35791323064E+03  0.37352608752E+03  0.78797141504E+02 0.  0.
         25    2    1    2    0    0  0.45249619709E+02 -0.79093416122E+02  0.13924579966E+03  0.20818207584E+03  0.12508831848E+03 0.  0.
        -24    2    1    2    0    0  0.19453760039E+02  0.47088095781E+02  0.27048917397E+03  0.28679749128E+03  0.80577107333E+02 0.  0.
        -13    1    3    3    0    0 -0.78810565687E+02  0.41834653435E+02 -0.31164580984E+03  0.32416717027E+03  0.00000000000E+00 0.  1.
         14    1    3    3    0    0  0.14107185939E+02 -0.98293330944E+01 -0.46267420796E+02  0.49358917242E+02  0.00000000000E+00 0. -1.
         13    1    5    5    0    0  0.36245553406E+02  0.49251373043E+02  0.25951269550E+03  0.26662009867E+03  0.00000000000E+00 0. -1.
        -14    1    5    5    0    0 -0.16791793367E+02 -0.21632772624E+01  0.10976478467E+02  0.20177392609E+02  0.00000000000E+00 0.  1.
          5    1    4    4  501    0 -0.21821719699E+02 -0.11726129720E+02  0.10354744975E+03  0.10655156647E+03  0.41800000000E+01 0. -1.
         -5    1    4    4    0  501  0.67071339408E+02 -0.67367286402E+02  0.35698349912E+02  0.10163050936E+03  0.41800000000E+01 0. -1.
</event>
<event>
11    1  0.8037748E-009  0.1782807E+03  0.7561462E-02  0.1071042E+00
         22   -1    0    0    0    0  0.00000000000E+00  0.00000000000E+00  0.66400973919E+03  0.66400973919E+03  0.00000000000E+00 0.  1.
         22   -1    0    0    0    0 -0.00000000000E+00 -0.00000000000E+00 -0.17361189144E+04  0.17361189144E+04  0.00000000000E+00 0. -1.
         24    2    1    2    0    0 -0.38808898498E+02 -0.11942274303E+03 -0.16286109184E+04  0.16352782313E+04  0.77417362648E+02 0.  0.
         25    2    1    2    0    0  0.55665568911E+02  0.17062961527E+03  0.20200137613E+02  0.21970210807E+03  0.12509136486E+03 0.  0.
        -24    2    1    2    0    0 -0.16856670413E+02 -0.51206872240E+02  0.53630160558E+03  0.54514831423E+03  0.81614834809E+02 0.  0.
        -11    1    3    3    0    0  0.18547829465E+02 -0.47506314668E+01 -0.23802917658E+03  0.23879798864E+03  0.00000000000E+00 0.  1.
         12    1    3    3    0    0 -0.57356727963E+02 -0.11467211156E+03 -0.13905817419E+04  0.13964802427E+04  0.00000000000E+00 0. -1.
         11    1    5    5    0    0  0.86577733694E+01 -0.11163924541E+02  0.11536478566E+02  0.18239533672E+02  0.00000000000E+00 0. -1.
        -12    1    5    5    0    0 -0.25514443783E+02 -0.40042947700E+02  0.52476512701E+03  0.52690878056E+03  0.00000000000E+00 0.  1.
          5    1    4    4  501    0  0.78727551547E+02  0.45294717673E+02  0.23748793574E+01  0.90954666036E+02  0.41800000000E+01 0. -1.
         -5    1    4    4    0  501 -0.23061982636E+02  0.12533489760E+03  0.17825258256E+02  0.12874744204E+03  0.41800000000E+01 0. -1.
</event>
<event>
11    1  0.8037748E-009  0.1405984E+03  0.7561462E-02  0.1106892E+00
         22   -1    0    0    0    0  0.00000000000E+00  0.00000000000E+00  0.76090937776E+03  0.76090937776E+03  0.00000000000E+00 0. -1.
         22   -1    0    0    0    0 -0.00000000000E+00 -0.00000000000E+00 -0.10601223817E+04  0.10601223817E+04  0.00000000000E+00 0. -1.
         24    2    1    2    0    0  0.23186956318E+02  0.58325490732E+02 -0.90425985175E+03  0.90988445423E+03  0.79147601010E+02 0.  0.
         25    2    1    2    0    0 -0.20471580522E+02 -0.81469237532E+02 -0.11280686833E+03  0.18822562426E+03  0.12508866381E+03 0.  0.
        -24    2    1    2    0    0 -0.27153757958E+01  0.23143746800E+02  0.71785371609E+03  0.72292168101E+03  0.82211878061E+02 0.  0.
        -11    1    3    3    0    0  0.36817056877E+01  0.26553983042E+01 -0.93379330261E+00  0.46344435326E+01  0.00000000000E+00 0.  1.
         12    1    3    3    0    0  0.19505250630E+02  0.55670092428E+02 -0.90332605845E+03  0.90525001070E+03  0.00000000000E+00 0. -1.
         11    1    5    5    0    0  0.22797919184E+02 -0.10252703744E+02  0.52253919179E+03  0.52313676034E+03  0.00000000000E+00 0. -1.
        -12    1    5    5    0    0 -0.25513294980E+02  0.33396450544E+02  0.19531452430E+03  0.19978492068E+03  0.00000000000E+00 0.  1.
          5    1    4    4  501    0 -0.22480853413E+02 -0.94187889378E+02 -0.13259932171E+03  0.16424615610E+03  0.41800000000E+01 0. -1.
         -5    1    4    4    0  501  0.20092728904E+01  0.12718651846E+02  0.19792453383E+02  0.23979468160E+02  0.41800000000E+01 0. -1.
</event>
<event>
11    1  0.8037748E-009  0.3649854E+03  0.7561462E-02  0.9759123E-01
         22   -1    0    0    0    0  0.00000000000E+00  0.00000000000E+00  0.25924209419E+04  0.25924209419E+04  0.00000000000E+00 0.  1.
         22   -1    0    0    0    0 -0.00000000000E+00 -0.00000000000E+00 -0.77992370271E+02  0.77992370271E+02  0.00000000000E+00 0.  1.
         24    2    1    2    0    0 -0.31562388971E+03  0.18693033394E+03  0.72679577319E+03  0.81807325667E+03  0.80314182208E+02 0.  0.
         25    2    1    2    0    0  0.30140444275E+03 -0.93367065362E+02  0.10257157919E+04  0.10804181985E+04  0.12509416762E+03 0.  0.
        -24    2    1    2    0    0  0.14219446957E+02 -0.93563268579E+02  0.76191700651E+03  0.77192185702E+03  0.79934664820E+02 0.  0.
        -11    1    3    3    0    0 -0.11244753542E+03  0.10491526263E+03  0.25314097288E+03  0.29619590258E+03  0.00000000000E+00 0.  1.
         12    1    3    3    0    0 -0.20317635429E+03  0.82015071313E+02  0.47365480031E+03  0.52187735410E+03  0.00000000000E+00 0. -1.
         13    1    5    5    0    0  0.17223937479E+02  0.45240112767E+01  0.46283087052E+02  0.49590874638E+02  0.00000000000E+00 0. -1.
        -14    1    5    5    0    0 -0.30044905218E+01 -0.98087279856E+02  0.71563391946E+03  0.72233098238E+03  0.00000000000E+00 0.  1.
          5    1    4    4  501    0  0.13779576335E+03 -0.10361789736E+03  0.45407656806E+03  0.48572352538E+03  0.41800000000E+01 0. -1.
         -5    1    4    4    0  501  0.16360867940E+03  0.10250832000E+02  0.57163922388E+03  0.59469467310E+03  0.41800000000E+01 0. -1.
</event>
<event>
11    1  0.8037748E-009  0.3375775E+03  0.7561462E-02  0.9854330E-01
         22   -1    0    0    0    0  0.00000000000E+00  0.00000000000E+00  0.90716733740E+03  0.90716733740E+03  0.00000000000E+00 0.  1.
         22   -1    0    0    0    0 -0.00000000000E+00 -0.00000000000E+00 -0.19019207503E+03  0.19019207503E+03  0.00000000000E+00 0.  1.
        -24    2    1    2    0    0 -0.27073677537E+02  0.11104622584E+03  0.46675179436E+02  0.14754224888E+03  0.80783008992E+02 0.  0.
         25    2    1    2    0    0 -0.24340032840E+03  0.11645973452E+03  0.20984911378E+03  0.36399272785E+03  0.12508983068E+03 0.  0.
         24    2    1    2    0    0  0.27047400594E+03 -0.22750596036E+03  0.46045096915E+03  0.58582443571E+03  0.79120317193E+02 0.  0.
        -11    1    5    5    0    0  0.24071806583E+03 -0.16570644817E+03  0.35197359495E+03  0.45748139386E+03  0.00000000000E+00 0.  1.
         12    1    5    5    0    0  0.29755940112E+02 -0.61799512188E+02  0.10847737420E+03  0.12834304185E+03  0.00000000000E+00 0. -1.
         13    1    3    3    0    0  0.26910956348E+02  0.44217308631E+02  0.30633066177E+02  0.60147773837E+02  0.00000000000E+00 0. -1.
        -14    1    3    3    0    0 -0.53984633885E+02  0.66828917206E+02  0.16042113260E+02  0.87394475045E+02  0.00000000000E+00 0.  1.
          5    1    4    4  501    0 -0.34302352660E+02 -0.26018178489E+02  0.42246024778E+02  0.60463179039E+02  0.41800000000E+01 0. -1.
         -5    1    4    4    0  501 -0.20909797574E+03  0.14247791301E+03  0.16760308901E+03  0.30352954881E+03  0.41800000000E+01 0. -1.
</event>
<event>
11    1  0.8037748E-009  0.1364708E+03  0.7561462E-02  0.1111565E+00
         22   -1    0    0    0    0  0.00000000000E+00  0.00000000000E+00  0.29111008306E+03  0.29111008306E+03  0.00000000000E+00 0.  1.
         22   -1    0    0    0    0 -0.00000000000E+00 -0.00000000000E+00 -0.50629239511E+03  0.50629239511E+03  0.00000000000E+00 0.  1.
         24    2    1    2    0    0  0.26291789839E+02 -0.33567055353E+02 -0.41663386322E+03  0.42528352936E+03  0.73920896508E+02 0.  0.
         25    2    1    2    0    0  0.14871314790E+02 -0.12460050920E+02 -0.14402980290E+02  0.12740409862E+03  0.12509176485E+03 0.  0.
        -24    2    1    2    0    0 -0.41163104629E+02  0.46027106273E+02  0.21585453146E+03  0.24471485018E+03  0.97361611814E+02 0.  0.
        -11    1    3    3    0    0  0.64881661304E+01  0.43203251860E+01 -0.31406781149E+03  0.31416452970E+03  0.00000000000E+00 0.  1.
         12    1    3    3    0    0  0.19803623709E+02 -0.37887380539E+02 -0.10256605173E+03  0.11111899965E+03  0.00000000000E+00 0. -1.
         13    1    5    5    0    0  0.93518579967E+01  0.19004825046E+02 -0.21230888997E+00  0.21182202390E+02  0.00000000000E+00 0. -1.
        -14    1    5    5    0    0 -0.50514962626E+02  0.27022281226E+02  0.21606684035E+03  0.22353264779E+03  0.00000000000E+00 0.  1.
          5    1    4    4  501    0  0.25242376957E+02  0.31476548467E+02  0.39739742077E+02  0.56786179641E+02  0.41800000000E+01 0. -1.
         -5    1    4    4    0  501 -0.10371062167E+02 -0.43936599387E+02 -0.54142722367E+02  0.70617918983E+02  0.41800000000E+01 0. -1.
</event>
<event>
11    1  0.8037748E-009  0.3068687E+03  0.7561462E-02  0.9973254E-01
         22   -1    0    0    0    0  0.00000000000E+00  0.00000000000E+00  0.85535221405E+03  0.85535221405E+03  0.00000000000E+00 0. -1.
         22   -1    0    0    0    0 -0.00000000000E+00 -0.00000000000E+00 -0.10335203471E+04  0.10335203471E+04  0.00000000000E+00 0. -1.
         24    2    1    2    0    0 -0.23416123467E+01  0.26109192543E+02 -0.71035520773E+03  0.71552070339E+03  0.81720148997E+02 0.  0.
         25    2    1    2    0    0 -0.27440048930E+03  0.21365989660E+02 -0.21506619467E+03  0.37101637426E+03  0.12509015884E+03 0.  0.
        -24    2    1    2    0    0  0.27674210165E+03 -0.47475182204E+02  0.74725326939E+03  0.80233548345E+03  0.80713664520E+02 0.  0.
        -11    1    3    3    0    0  0.17565371571E+02 -0.19742759805E+02 -0.42497010600E+03  0.42579092268E+03  0.00000000000E+00 0.  1.
         12    1    3    3    0    0 -0.19906983918E+02  0.45851952348E+02 -0.28538510173E+03  0.28972978072E+03  0.00000000000E+00 0. -1.
         13    1    5    5    0    0  0.14092587196E+03  0.88430432133E+01  0.43177838535E+03  0.45428061246E+03  0.00000000000E+00 0. -1.
        -14    1    5    5    0    0  0.13581622969E+03 -0.56318225417E+02  0.31547488403E+03  0.34805487099E+03  0.00000000000E+00 0.  1.
          5    1    4    4  501    0 -0.25882380170E+03  0.55288774322E+02 -0.18574331056E+03  0.32336459100E+03  0.41800000000E+01 0. -1.
         -5    1    4    4    0  501 -0.15576687600E+02 -0.33922784662E+02 -0.29322884107E+02  0.47651783264E+02  0.41800000000E+01 0. -1.
</event>
<event>
11    1  0.8037748E-009  0.1318046E+03  0.7561462E-02  0.1117071E+00
         22   -1    0    0    0    0  0.00000000000E+00  0.00000000000E+00  0.30592961571E+03  0.30592961571E+03  0.00000000000E+00 0.  1.
         22   -1    0    0    0    0 -0.00000000000E+00 -0.00000000000E+00 -0.87824574396E+03  0.87824574396E+03  0.00000000000E+00 0. -1.
        -24    2    1    2    0    0 -0.34999671956E+02 -0.16041048057E+02 -0.59660554343E+03  0.60301956302E+03  0.78817045564E+02 0.  0.
         25    2    1    2    0    0  0.74290181339E+02  0.51122490883E+01 -0.25190665155E+03  0.29094686066E+03  0.12509176031E+03 0.  0.
         24    2    1    2    0    0 -0.39290509383E+02  0.10928798968E+02  0.27619606673E+03  0.29020893599E+03  0.79207174410E+02 0.  0.
        -11    1    5    5    0    0 -0.44998882969E+02  0.64338441206E+01  0.27880705717E+03  0.28248835187E+03  0.00000000000E+00 0.  1.
         12    1    5    5    0    0  0.57083735857E+01  0.44949548478E+01 -0.26109904359E+01  0.77205841187E+01  0.00000000000E+00 0. -1.
         11    1    3    3    0    0 -0.47066664350E+02  0.12019563628E+02 -0.48100155809E+03  0.48344828026E+03  0.00000000000E+00 0. -1.
        -12    1    3    3    0    0  0.12066992394E+02 -0.28060611685E+02 -0.11560398534E+03  0.11957128275E+03  0.00000000000E+00 0.  1.
          5    1    4    4  501    0  0.10897953099E+03  0.90420797420E+01 -0.17525628968E+03  0.20661688424E+03  0.41800000000E+01 0. -1.
         -5    1    4    4    0  501 -0.34689349650E+02 -0.39298306537E+01 -0.76650361871E+02  0.84329976421E+02  0.41800000000E+01 0. -1.
</event>
<event>
11    1  0.8037748E-009  0.1415394E+03  0.7561462E-02  0.1105852E+00
         22   -1    0    0    0    0  0.00000000000E+00  0.00000000000E+00  0.30099615003E+04  0.30099615003E+04  0.00000000000E+00 0.  1.
         22   -1    0    0    0    0 -0.00000000000E+00 -0.00000000000E+00 -0.21680145860E+03  0.21680145860E+03  0.00000000000E+00 0. -1.
        -24    2    1    2    0    0  0.43643360896E+02 -0.10551521064E+02 -0.18492629886E+03  0.20622567384E+03  0.79468326967E+02 0.  0.
         25    2    1    2    0    0 -0.59350615100E+02  0.73862850040E+02  0.28436164937E+03  0.32478313769E+03  0.12507726717E+03 0.  0.
         24    2    1    2    0    0  0.15707254204E+02 -0.63311328976E+02  0.26937246912E+04  0.26957541474E+04  0.81747592715E+02 0.  0.
        -11    1    5    5    0    0  0.35609979278E+02 -0.73645490384E+02  0.20176302272E+04  0.20192878603E+04  0.00000000000E+00 0.  1.
         12    1    5    5    0    0 -0.19902725075E+02  0.10334161408E+02  0.67609446399E+03  0.67646628711E+03  0.00000000000E+00 0. -1.
         13    1    3    3    0    0  0.60197698866E+02  0.13613668232E+02 -0.13257357930E+03  0.14623559361E+03  0.00000000000E+00 0. -1.
        -14    1    3    3    0    0 -0.16554337970E+02 -0.24165189296E+02 -0.52352719568E+02  0.59990080226E+02  0.00000000000E+00 0.  1.
          5    1    4    4  501    0 -0.18371333195E+01  0.50097880677E+02  0.24701706901E+03  0.25208744017E+03  0.41800000000E+01 0.  1.
         -5    1    4    4    0  501 -0.57513481781E+02  0.23764969363E+02  0.37344580364E+02  0.72695697520E+02  0.41800000000E+01 0.  1.
</event>
<event>
11    1  0.8037748E-009  0.1572003E+03  0.7561462E-02  0.1089740E+00
         22   -1    0    0    0    0  0.00000000000E+00  0.00000000000E+00  0.84033814608E+03  0.84033814608E+03  0.00000000000E+00 0.  1.
         22   -1    0    0    0    0 -0.00000000000E+00 -0.00000000000E+00 -0.31187797488E+03  0.31187797488E+03  0.00000000000E+00 0. -1.
         24    2    1    2    0    0  0.76048466595E+02 -0.62550867897E+02 -0.17104710289E+03  0.21256610885E+03  0.78938323246E+02 0.  0.
         25    2    1    2    0    0 -0.80515670248E+02  0.38553113403E+02 -0.67538667252E+02  0.16785529137E+03  0.12507922112E+03 0.  0.
        -24    2    1    2    0    0  0.44672036534E+01  0.23997754494E+02  0.76704594134E+03  0.77179472075E+03  0.81925372828E+02 0.  0.
        -13    1    3    3    0    0  0.14085298851E+02 -0.49151340025E+01  0.61987187773E+01  0.16154822824E+02  0.00000000000E+00 0.  1.
         14    1    3    3    0    0  0.61963167744E+02 -0.57635733895E+02 -0.17724582167E+03  0.19641128602E+03  0.00000000000E+00 0. -1.
         11    1    5    5    0    0  0.12253118796E+02  0.96106200628E+01  0.24255483880E+02  0.28824146760E+02  0.00000000000E+00 0. -1.
        -12    1    5    5    0    0 -0.77859151426E+01  0.14387134431E+02  0.74279045746E+03  0.74297057399E+03  0.00000000000E+00 0.  1.
          5    1    4    4  501    0 -0.17652800294E+02  0.75136199409E+02 -0.16869370941E+02  0.79114587124E+02  0.41800000000E+01 0.  1.
         -5    1    4    4    0  501 -0.62862869954E+02 -0.36583086006E+02 -0.50669296310E+02  0.88740704241E+02  0.41800000000E+01 0.  1.
</event>
<event>
11    1  0.8037748E-009  0.1453725E+03  0.7561462E-02  0.1101703E+00
         22   -1    0    0    0    0  0.00000000000E+00  0.00000000000E+00  0.52869075315E+03  0.52869075315E+03  0.00000000000E+00 0.  1.
         22   -1    0    0    0    0 -0.00000000000E+00 -0.00000000000E+00 -0.19216476917E+03  0.19216476917E+03  0.00000000000E+00 0. -1.
         24    2    1    2    0    0 -0.19390873900E+02 -0.71417477185E+02 -0.13001507861E+03  0.17035251115E+03  0.81483712187E+02 0.  0.
         25    2    1    2    0    0 -0.13948255730E+01  0.77191542816E+02  0.10785989151E+03  0.18232318541E+03  0.12508999928E+03 0.  0.
        -24    2    1    2    0    0  0.20785699473E+02 -0.57740656313E+01  0.35868117108E+03  0.36817982575E+03  0.80242236158E+02 0.  0.
        -13    1    3    3    0    0 -0.17280270973E+02 -0.39234574216E+02 -0.73232153124E+01  0.43492402340E+02  0.00000000000E+00 0.  1.
         14    1    3    3    0    0 -0.21106029270E+01 -0.32182902969E+02 -0.12269186330E+03  0.12686010881E+03  0.00000000000E+00 0. -1.
         13    1    5    5    0    0  0.11603693505E+02 -0.23926406330E+02  0.35479599034E+02  0.44338702850E+02  0.00000000000E+00 0. -1.
        -14    1    5    5    0    0  0.91820059683E+01  0.18152340698E+02  0.32320157205E+03  0.32384112290E+03  0.00000000000E+00 0.  1.
          5    1    4    4  501    0 -0.57990702833E+02  0.63769719045E+02  0.80085007945E+02  0.11773096271E+03  0.41800000000E+01 0.  1.
         -5    1    4    4    0  501  0.56595877260E+02  0.13421823771E+02  0.27774883567E+02  0.64592222700E+02  0.41800000000E+01 0.  1.
</event>
<event>
11    1  0.8037748E-009  0.1445126E+03  0.7561462E-02  0.1102621E+00
         22   -1    0    0    0    0  0.00000000000E+00  0.00000000000E+00  0.11626514656E+04  0.11626514656E+04  0.00000000000E+00 0. -1.
         22   -1    0    0    0    0 -0.00000000000E+00 -0.00000000000E+00 -0.42825212108E+03  0.42825212108E+03  0.00000000000E+00 0. -1.
        -24    2    1    2    0    0  0.78763669285E+00  0.66431141003E+02 -0.26083646404E+03  0.28075666340E+03  0.79843135003E+02 0.  0.
         25    2    1    2    0    0 -0.24970751463E+02 -0.95653981351E+02 -0.11438028468E+03  0.19622341643E+03  0.12509019567E+03 0.  0.
         24    2    1    2    0    0  0.24183114770E+02  0.29222840348E+02  0.11096160932E+04  0.11139235068E+04  0.90215892863E+02 0.  0.
        -13    1    5    5    0    0  0.48666158134E+02  0.24098769788E+02  0.37811716093E+03  0.38199703277E+03  0.00000000000E+00 0.  1.
         14    1    5    5    0    0 -0.24483043363E+02  0.51240705594E+01  0.73149893228E+03  0.73192647407E+03  0.00000000000E+00 0. -1.
         11    1    3    3    0    0 -0.13068161706E+02  0.15925075205E+02 -0.19750135699E+03  0.19857283521E+03  0.00000000000E+00 0. -1.
        -12    1    3    3    0    0  0.13855798399E+02  0.50506065798E+02 -0.63335107048E+02  0.82183828193E+02  0.00000000000E+00 0.  1.
          5    1    4    4  501    0 -0.44077707723E+01 -0.60967178434E+02 -0.13680240370E+03  0.14989594841E+03  0.41800000000E+01 0. -1.
         -5    1    4    4    0  501 -0.20562980691E+02 -0.34686802917E+02  0.22422119025E+02  0.46327468019E+02  0.41800000000E+01 0. -1.
</event>
<event>
11    1  0.8037748E-009  0.3937831E+03  0.7561462E-02  0.9668281E-01
         22   -1    0    0    0    0  0.00000000000E+00  0.00000000000E+00  0.73085090265E+03  0.73085090265E+03  0.00000000000E+00 0.  1.
         22   -1    0    0    0    0 -0.00000000000E+00 -0.00000000000E+00 -0.11168951084E+04  0.11168951084E+04  0.00000000000E+00 0. -1.
        -24    2    1    2    0    0  0.86188955885E+02 -0.30811281607E+02 -0.71032567548E+03  0.72053591988E+03  0.78940328052E+02 0.  0.
         25    2    1    2    0    0 -0.37569869809E+03 -0.19281286045E+03 -0.19932024966E+03  0.48342686330E+03  0.12508660735E+03 0.  0.
         24    2    1    2    0    0  0.28950974220E+03  0.22362414206E+03  0.52360171940E+03  0.64378322786E+03  0.80463881218E+02 0.  0.
        -11    1    5    5    0    0  0.23541292127E+03  0.20387054456E+03  0.47719362253E+03  0.56982119636E+03  0.00000000000E+00 0.  1.
         12    1    5    5    0    0  0.54096820931E+02  0.19753597504E+02  0.46408096869E+02  0.73962031504E+02  0.00000000000E+00 0. -1.
         13    1    3    3    0    0  0.69694033814E+02 -0.12089077281E+02 -0.66537424364E+03  0.66912352241E+03  0.00000000000E+00 0. -1.
        -14    1    3    3    0    0  0.16494922071E+02 -0.18722204327E+02 -0.44951431843E+02  0.51412397471E+02  0.00000000000E+00 0.  1.
          5    1    4    4  501    0 -0.32474432513E+03 -0.15593393792E+03 -0.11505680567E+03  0.37819282202E+03  0.41800000000E+01 0.  1.
         -5    1    4    4    0  501 -0.50954372959E+02 -0.36878922530E+02 -0.84263443992E+02  0.10523404128E+03  0.41800000000E+01 0.  1.
</event>
<event>
11    1  0.8037748E-009  0.1607553E+03  0.7561462E-02  0.1086369E+00
         22   -1    0    0    0    0  0.00000000000E+00  0.00000000000E+00  0.27317282195E+04  0.27317282195E+04  0.00000000000E+00 0. -1.
         22   -1    0    0    0    0 -0.00000000000E+00 -0.00000000000E+00 -0.30945922796E+03  0.30945922796E+03  0.00000000000E+00 0.  1.
        -24    2    1    2    0    0 -0.53868647844E+02 -0.12636401116E+03 -0.23419777778E+03  0.28292166167E+03  0.79538500025E+02 0.  0.
         25    2    1    2    0    0 -0.24221209989E+02  0.12764824134E+02  0.36199397476E+02  0.13307024403E+03  0.12509070996E+03 0.  0.
         24    2    1    2    0    0  0.78089857833E+02  0.11359918703E+03  0.26202673718E+04  0.26251955417E+04  0.82751020198E+02 0.  0.
        -13    1    5    5    0    0  0.14019941468E+02  0.90422187905E+02  0.13444791140E+04  0.13475892619E+04  0.00000000000E+00 0.  1.
         14    1    5    5    0    0  0.64069916365E+02  0.23176999124E+02  0.12757882578E+04  0.12776062798E+04  0.00000000000E+00 0. -1.
         11    1    3    3    0    0 -0.90387077901E+01 -0.74509111094E+01  0.44626891063E+01  0.12535146945E+02  0.00000000000E+00 0. -1.
        -12    1    3    3    0    0 -0.44829940054E+02 -0.11891310005E+03 -0.23866046689E+03  0.27038651473E+03  0.00000000000E+00 0.  1.
          5    1    4    4  501    0  0.10856909079E+02  0.50934275675E+01 -0.43628147605E+02  0.45439004639E+02  0.41800000000E+01 0.  1.
         -5    1    4    4    0  501 -0.35078119068E+02  0.76713965662E+01  0.79827545081E+02  0.87631239386E+02  0.41800000000E+01 0.  1.
</event>
<event>
11    1  0.8037748E-009  0.1384720E+03  0.7561462E-02  0.1109277E+00
         22   -1    0    0    0    0  0.00000000000E+00  0.00000000000E+00  0.16000647574E+04  0.16000647574E+04  0.00000000000E+00 0.  1.
         22   -1    0    0    0    0 -0.00000000000E+00 -0.00000000000E+00 -0.21836442268E+04  0.21836442268E+04  0.00000000000E+00 0.  1.
        -24    2    1    2    0    0  0.45667493037E+02  0.23638123389E+01 -0.21310506534E+04  0.21330206729E+04  0.79430448261E+02 0.  0.
         25    2    1    2    0    0 -0.10269180028E+03 -0.12819099698E+02  0.81795844541E+02  0.18179025903E+03  0.12508878020E+03 0.  0.
         24    2    1    2    0    0  0.57024307242E+02  0.10455287359E+02  0.14656753395E+04  0.14688980522E+04  0.78078181151E+02 0.  0.
        -11    1    5    5    0    0  0.47149253212E+02  0.42611227042E+02  0.93374037314E+03  0.93590055731E+03  0.00000000000E+00 0.  1.
         12    1    5    5    0    0  0.98750540303E+01 -0.32155939683E+02  0.53193496638E+03  0.53299749493E+03  0.00000000000E+00 0. -1.
         13    1    3    3    0    0  0.47062409130E+02 -0.25611067519E+02 -0.86357129448E+03  0.86523186360E+03  0.00000000000E+00 0. -1.
        -14    1    3    3    0    0 -0.13949160935E+01  0.27974879858E+02 -0.12674793589E+04  0.12677888093E+04  0.00000000000E+00 0.  1.
          5    1    4    4  501    0  0.12444494528E+02 -0.39309512565E+02  0.73670127945E+01  0.42093330821E+02  0.41800000000E+01 0.  1.
         -5    1    4    4    0  501 -0.11513629481E+03  0.26490412867E+02  0.74428831747E+02  0.13969692821E+03  0.41800000000E+01 0.  1.
</event>
<event>
11    1  0.8037748E-009  0.2576019E+03  0.7561462E-02  0.1019926E+00
         22   -1    0    0    0    0  0.00000000000E+00  0.00000000000E+00  0.25306110447E+03  0.25306110447E+03  0.00000000000E+00 0.  1.
         22   -1    0    0    0    0 -0.00000000000E+00 -0.00000000000E+00 -0.13400605596E+04  0.13400605596E+04  0.00000000000E+00 0.  1.
        -24    2    1    2    0    0  0.23751180894E+02 -0.97518011392E+02 -0.77927190539E+03  0.78993885697E+03  0.81638312619E+02 0.  0.
         25    2    1    2    0    0 -0.23987089259E+03  0.13768538000E+03 -0.43946876304E+03  0.53411064273E+03  0.12508427562E+03 0.  0.
         24    2    1    2    0    0  0.21611971170E+03 -0.40167368613E+02  0.13174121330E+03  0.26907216436E+03  0.81993506250E+02 0.  0.
        -11    1    5    5    0    0  0.19658887200E+03 -0.50488992600E+02  0.90381292521E+02  0.22218258484E+03  0.00000000000E+00 0.  1.
         12    1    5    5    0    0  0.19530839698E+02  0.10321623988E+02  0.41359920778E+02  0.46889579523E+02  0.00000000000E+00 0. -1.
         11    1    3    3    0    0  0.22522621331E+02 -0.43442634570E+02 -0.13854260290E+03  0.14693054069E+03  0.00000000000E+00 0. -1.
        -12    1    3    3    0    0  0.12285595636E+01 -0.54075376822E+02 -0.64072930249E+03  0.64300831628E+03  0.00000000000E+00 0.  1.
          5    1    4    4  501    0 -0.21908409760E+03  0.88978312507E+02 -0.41010927830E+03  0.47341532978E+03  0.41800000000E+01 0.  1.
         -5    1    4    4    0  501 -0.20786794998E+02  0.48707067498E+02 -0.29359484740E+02  0.60695312955E+02  0.41800000000E+01 0.  1.
</event>
<event>
11    1  0.8037748E-009  0.1392335E+03  0.7561462E-02  0.1108417E+00
         22   -1    0    0    0    0  0.00000000000E+00  0.00000000000E+00  0.53892813970E+03  0.53892813970E+03  0.00000000000E+00 0. -1.
         22   -1    0    0    0    0 -0.00000000000E+00 -0.00000000000E+00 -0.13559730626E+04  0.13559730626E+04  0.00000000000E+00 0. -1.
        -24    2    1    2    0    0  0.17058464363E+02  0.56795827685E+02 -0.85643804345E+03  0.86230266276E+03  0.81012361324E+02 0.  0.
         25    2    1    2    0    0 -0.63890058934E+02 -0.48259160812E+02 -0.48126977640E+03  0.50365931648E+03  0.12506487584E+03 0.  0.
         24    2    1    2    0    0  0.46831594571E+02 -0.85366668735E+01  0.52066289692E+03  0.52893922310E+03  0.80129748398E+02 0.  0.
        -13    1    5    5    0    0  0.34295170961E+01 -0.37913933719E+02  0.15871923638E+03  0.16322078285E+03  0.00000000000E+00 0.  1.
         14    1    5    5    0    0  0.43402077475E+02  0.29377266845E+02  0.36194366054E+03  0.36571844025E+03  0.00000000000E+00 0. -1.
         11    1    3    3    0    0  0.42276729608E+02  0.43289491278E+02 -0.73727562223E+03  0.73975444916E+03  0.00000000000E+00 0. -1.
        -12    1    3    3    0    0 -0.25218265245E+02  0.13506336407E+02 -0.11916242122E+03  0.12254821360E+03  0.00000000000E+00 0.  1.
          5    1    4    4  501    0  0.10680044461E+02 -0.23926902086E+02 -0.14324932792E+02  0.30153541958E+02  0.41800000000E+01 0.  1.
         -5    1    4    4    0  501 -0.74570103395E+02 -0.24332258726E+02 -0.46694484361E+03  0.47350577452E+03  0.41800000000E+01 0.  1.
</event>
<event>
11    1  0.8037748E-009  0.1573911E+03  0.7561462E-02  0.1089557E+00
         22   -1    0    0    0    0  0.00000000000E+00  0.00000000000E+00  0.78575471423E+03  0.78575471423E+03  0.00000000000E+00 0.  1.
         22   -1    0    0    0    0 -0.00000000000E+00 -0.00000000000E+00 -0.10656392695E+04  0.10656392695E+04  0.00000000000E+00 0. -1.
        -24    2    1    2    0    0 -0.95993608481E+02 -0.11984809179E+02 -0.92767922327E+03  0.93612676893E+03  0.79913563914E+02 0.  0.
         25    2    1    2    0    0  0.85137447899E+02 -0.15628943216E+02 -0.87128031214E+02  0.17530216048E+03  0.12508758829E+03 0.  0.
         24    2    1    2    0    0  0.10856160581E+02  0.27613752395E+02  0.73492269923E+03  0.73996505430E+03  0.80972416301E+02 0.  0.
        -11    1    5    5    0    0  0.32495142668E+02  0.19426260092E+02  0.66954161787E+03  0.67061113318E+03  0.00000000000E+00 0.  1.
         12    1    5    5    0    0 -0.21638982086E+02  0.81874923031E+01  0.65381081356E+02  0.69353921123E+02  0.00000000000E+00 0. -1.
         11    1    3    3    0    0 -0.69164497902E+02  0.19626213968E+02 -0.37076414117E+03  0.37767044420E+03  0.00000000000E+00 0. -1.
        -12    1    3    3    0    0 -0.26829110579E+02 -0.31611023147E+02 -0.55691508210E+03  0.55845632473E+03  0.00000000000E+00 0.  1.
          5    1    4    4  501    0  0.87000135237E+02 -0.56165121082E+02 -0.35603635497E+02  0.10958392044E+03  0.41800000000E+01 0. -1.
         -5    1    4    4    0  501 -0.18626873376E+01  0.40536177866E+02 -0.51524395717E+02  0.65718240041E+02  0.41800000000E+01 0. -1.
</event>
<event>
11    1  0.8037748E-009  0.1386271E+03  0.7561462E-02  0.1109101E+00
         22   -1    0    0    0    0  0.00000000000E+00  0.00000000000E+00  0.20759745038E+04  0.20759745038E+04  0.00000000000E+00 0.  1.
         22   -1    0    0    0    0 -0.00000000000E+00 -0.00000000000E+00 -0.20886723416E+03  0.20886723416E+03  0.00000000000E+00 0.  1.
        -24    2    1    2    0    0  0.21035052597E+02  0.19776425773E+02 -0.18006582549E+03  0.20360495084E+03  0.90541117965E+02 0.  0.
         25    2    1    2    0    0 -0.41063763011E+01 -0.75892315893E+02  0.32801599631E+03  0.35919232870E+03  0.12509248269E+03 0.  0.
         24    2    1    2    0    0 -0.16928676295E+02  0.56115890120E+02  0.17191570988E+04  0.17220444584E+04  0.80625139917E+02 0.  0.
        -11    1    5    5    0    0  0.22875084159E+02  0.23327242672E+02  0.11737835870E+04  0.11742381951E+04  0.00000000000E+00 0.  1.
         12    1    5    5    0    0 -0.39803760455E+02  0.32788647448E+02  0.54537351172E+03  0.54780626323E+03  0.00000000000E+00 0. -1.
         11    1    3    3    0    0  0.37673230152E+01  0.47563421012E+02 -0.48508130698E+02  0.68040506207E+02  0.00000000000E+00 0. -1.
        -12    1    3    3    0    0  0.17267729581E+02 -0.27786995239E+02 -0.13155769479E+03  0.13556444463E+03  0.00000000000E+00 0.  1.
          5    1    4    4  501    0  0.47535687311E+02 -0.76751436738E+02  0.16488501962E+03  0.18802916451E+03  0.41800000000E+01 0. -1.
         -5    1    4    4    0  501 -0.51642063612E+02  0.85912084514E+00  0.16313097669E+03  0.17116316420E+03  0.41800000000E+01 0. -1.
</event>
<event>
11    1  0.8037748E-009  0.2131612E+03  0.7561462E-02  0.1045588E+00
         22   -1    0    0    0    0  0.00000000000E+00  0.00000000000E+00  0.94190088977E+03  0.94190088977E+03  0.00000000000E+00 0. -1.
         22   -1    0    0    0    0 -0.00000000000E+00 -0.00000000000E+00 -0.20859822274E+03  0.20859822274E+03  0.00000000000E+00 0. -1.
         24    2    1    2    0    0  0.55330187734E+01 -0.21317101827E+02 -0.41571052739E+02  0.92070976368E+02  0.79144672193E+02 0.  0.
         25    2    1    2    0    0 -0.29057094535E+02  0.19060047770E+03 -0.29943593794E+02  0.23177174358E+03  0.12509462606E+03 0.  0.
        -24    2    1    2    0    0  0.23524075762E+02 -0.16928337587E+03  0.80481731356E+03  0.82665639256E+03  0.80122653888E+02 0.  0.
        -11    1    3    3    0    0 -0.21708225564E+02 -0.36128734999E+02 -0.25443183544E+01  0.42225656959E+02  0.00000000000E+00 0.  1.
         12    1    3    3    0    0  0.27241244337E+02  0.14811633172E+02 -0.39026734384E+02  0.49845319409E+02  0.00000000000E+00 0. -1.
         11    1    5    5    0    0  0.27749386121E+02 -0.17537485199E+03  0.79353131211E+03  0.81315331300E+03  0.00000000000E+00 0. -1.
        -12    1    5    5    0    0 -0.42253103591E+01  0.60914761178E+01  0.11286001454E+02  0.13503079565E+02  0.00000000000E+00 0.  1.
          5    1    4    4  501    0 -0.51087376970E+02  0.15627506538E+03 -0.65958238968E+02  0.17719982459E+03  0.41800000000E+01 0.  1.
         -5    1    4    4    0  501  0.22030282435E+02  0.34325412317E+02  0.36014645174E+02  0.54571918987E+02  0.41800000000E+01 0.  1.
</event>
<event>
11    1  0.8037748E-009  0.2506776E+03  0.7561462E-02  0.1023539E+00
         22   -1    0    0    0    0  0.00000000000E+00  0.00000000000E+00  0.72507639093E+03  0.72507639093E+03  0.00000000000E+00 0.  1.
         22   -1    0    0    0    0 -0.00000000000E+00 -0.00000000000E+00 -0.54701759099E+03  0.54701759099E+03  0.00000000000E+00 0.  1.
         24    2    1    2    0    0  0.15774866213E+03  0.14414606505E+03 -0.45075441425E+03  0.50534550604E+03  0.80819614140E+02 0.  0.
         25    2    1    2    0    0 -0.22470178317E+03 -0.18663718564E+03  0.52673842466E+03  0.61515725393E+03  0.12506297862E+03 0.  0.
        -24    2    1    2    0    0  0.66953121042E+02  0.42491120585E+02  0.10207478953E+03  0.15159122195E+03  0.79198612178E+02 0.  0.
        -11    1    3    3    0    0  0.11998017591E+03  0.14464756541E+03 -0.34222021076E+03  0.39042647636E+03  0.00000000000E+00 0.  1.
         12    1    3    3    0    0  0.37768486222E+02 -0.50150035844E+00 -0.10853420349E+03  0.11491902968E+03  0.00000000000E+00 0. -1.
         13    1    5    5    0    0  0.48463971479E+02  0.65252136686E+02  0.63549859734E+02  0.10317549392E+03  0.00000000000E+00 0. -1.
        -14    1    5    5    0    0  0.18489149564E+02 -0.22761016101E+02  0.38524929793E+02  0.48415728034E+02  0.00000000000E+00 0.  1.
          5    1    4    4  501    0 -0.22491923686E+03 -0.16173292875E+03  0.40419017079E+03  0.49003404975E+03  0.41800000000E+01 0.  1.
         -5    1    4    4    0  501  0.21745368456E+00 -0.24904256894E+02  0.12254825387E+03  0.12512320418E+03  0.41800000000E+01 0.  1.
</event>
<event>
11    1  0.8037748E-009  0.1277616E+03  0.7561462E-02  0.1122050E+00
         22   -1    0    0    0    0  0.00000000000E+00  0.00000000000E+00  0.50867399705E+03  0.50867399705E+03  0.00000000000E+00 0. -1.
         22   -1    0    0    0    0 -0.00000000000E+00 -0.00000000000E+00 -0.73183514035E+03  0.73183514035E+03  0.00000000000E+00 0. -1.
         24    2    1    2    0    0 -0.64385056116E+01 -0.24790929223E+01 -0.69953405006E+03  0.70369297709E+03  0.76080999975E+02 0.  0.
         25    2    1    2    0    0 -0.28668547621E+01 -0.22548978575E+02  0.13378935146E+03  0.18456462735E+03  0.12509130991E+03 0.  0.
        -24    2    1    2    0    0  0.93053603737E+01  0.25028071498E+02  0.34258355531E+03  0.35225153296E+03  0.77489715501E+02 0.  0.
        -13    1    3    3    0    0  0.30204936520E+02  0.30141742332E+01 -0.15778837175E+03  0.16068165326E+03  0.00000000000E+00 0.  1.
         14    1    3    3    0    0 -0.36643442131E+02 -0.54932671556E+01 -0.54174567832E+03  0.54301132383E+03  0.00000000000E+00 0. -1.
         13    1    5    5    0    0  0.31930864046E+02  0.15505694914E+02  0.30686359835E+03  0.30890981636E+03  0.00000000000E+00 0. -1.
        -14    1    5    5    0    0 -0.22625503672E+02  0.95223765835E+01  0.35719956961E+02  0.43341716596E+02  0.00000000000E+00 0.  1.
          5    1    4    4  501    0 -0.55207480074E+02  0.13309081881E+02  0.34246206718E+02  0.66447517570E+02  0.41800000000E+01 0.  1.
         -5    1    4    4    0  501  0.52340625312E+02 -0.35858060457E+02  0.99543144739E+02  0.11811710978E+03  0.41800000000E+01 0.  1.
</event>
<event>
11    1  0.8037748E-009  0.1350963E+03  0.7561462E-02  0.1113161E+00
         22   -1    0    0    0    0  0.00000000000E+00  0.00000000000E+00  0.10306494894E+04  0.10306494894E+04  0.00000000000E+00 0. -1.
         22   -1    0    0    0    0 -0.00000000000E+00 -0.00000000000E+00 -0.76883935766E+02  0.76883935766E+02  0.00000000000E+00 0.  1.
        -24    2    1    2    0    0  0.28448867166E+01  0.27409205733E+02 -0.31317704030E+02  0.89959229162E+02  0.79702612168E+02 0.  0.
         25    2    1    2    0    0  0.19319521226E+02  0.24420851440E+02  0.30823483776E+03  0.33410327618E+03  0.12508661825E+03 0.  0.
         24    2    1    2    0    0 -0.22164407943E+02 -0.51830057173E+02  0.67684841989E+03  0.68347091980E+03  0.76361632379E+02 0.  0.
        -13    1    5    5    0    0  0.94970222289E+01 -0.50640341813E+02  0.23965340431E+03  0.24512933698E+03  0.00000000000E+00 0.  1.
         14    1    5    5    0    0 -0.31661430171E+02 -0.11897153603E+01  0.43719501557E+03  0.43834158282E+03  0.00000000000E+00 0. -1.
         13    1    3    3    0    0  0.83744899836E+01  0.38167994986E+01  0.26079959200E+02  0.27656180372E+02  0.00000000000E+00 0. -1.
        -14    1    3    3    0    0 -0.55296032670E+01  0.23592406234E+02 -0.57397663231E+02  0.62303048790E+02  0.00000000000E+00 0.  1.
          5    1    4    4  501    0 -0.29521416432E+02 -0.38761395013E+02  0.12069402825E+03  0.13022473124E+03  0.41800000000E+01 0. -1.
         -5    1    4    4    0  501  0.48840937658E+02  0.63182246453E+02  0.18754080950E+03  0.20387854494E+03  0.41800000000E+01 0. -1.
</event>
<event>
11    1  0.8037748E-009  0.1547195E+03  0.7561462E-02  0.1092152E+00
         22   -1    0    0    0    0  0.00000000000E+00  0.00000000000E+00  0.18312536666E+04  0.18312536666E+04  0.00000000000E+00 0. -1.
         22   -1    0    0    0    0 -0.00000000000E+00 -0.00000000000E+00 -0.26104909166E+03  0.26104909166E+03  0.00000000000E+00 0.  1.
        -24    2    1    2    0    0 -0.86486739376E+02  0.35893151448E+02 -0.20444990709E+03  0.23890676596E+03  0.80674679437E+02 0.  0.
         25    2    1    2    0    0  0.43856390422E+02 -0.70368651351E+02  0.11025013289E+03  0.18621921185E+03  0.12508945994E+03 0.  0.
         24    2    1    2    0    0  0.42630348954E+02  0.34475499903E+02  0.16644043491E+04  0.16671767804E+04  0.78934612596E+02 0.  0.
        -13    1    5    5    0    0 -0.16580474062E+02  0.25625950261E+02  0.86288081099E+03  0.86342046270E+03  0.00000000000E+00 0.  1.
         14    1    5    5    0    0  0.59210823016E+02  0.88495496419E+01  0.80152353813E+03  0.80375631772E+03  0.00000000000E+00 0. -1.
         13    1    3    3    0    0 -0.50170015764E+02 -0.10225465396E+02 -0.42155350107E+02  0.66322425822E+02  0.00000000000E+00 0. -1.
        -14    1    3    3    0    0 -0.36316723612E+02  0.46118616844E+02 -0.16229455698E+03  0.17258434013E+03  0.00000000000E+00 0.  1.
          5    1    4    4  501    0 -0.11172685701E+02  0.23932591564E+02 -0.52230335352E+01  0.27246106585E+02  0.41800000000E+01 0. -1.
         -5    1    4    4    0  501  0.55029076122E+02 -0.94301242916E+02  0.11547316643E+03  0.15897310527E+03  0.41800000000E+01 0. -1.
</event>
<event>
11    1  0.8037748E-009  0.1376936E+03  0.7561462E-02  0.1110162E+00
         22   -1    0    0    0    0  0.00000000000E+00  0.00000000000E+00  0.37165802269E+03  0.37165802269E+03  0.00000000000E+00 0.  1.
         22   -1    0    0    0    0 -0.00000000000E+00 -0.00000000000E+00 -0.21953755879E+03  0.21953755879E+03  0.00000000000E+00 0.  1.
         24    2    1    2    0    0  0.11257506238E+02  0.42369580637E+02 -0.13574671357E+03  0.16328340078E+03  0.79450524959E+02 0.  0.
         25    2    1    2    0    0 -0.17691359981E+02 -0.94001296621E+02  0.40275443530E+02  0.16253835804E+03  0.12508948197E+03 0.  0.
        -24    2    1    2    0    0  0.64338537434E+01  0.51631715984E+02  0.24759173394E+03  0.26537382265E+03  0.80089765040E+02 0.  0.
        -11    1    3    3    0    0  0.14429779907E+02  0.22641734126E+02 -0.14025344235E+03  0.14280019175E+03  0.00000000000E+00 0.  1.
         12    1    3    3    0    0 -0.31722736689E+01  0.19727846512E+02  0.45067287770E+01  0.20483209038E+02  0.00000000000E+00 0. -1.
         13    1    5    5    0    0  0.36038795095E+02  0.40276218985E+02  0.92999921364E+02  0.10756372038E+03  0.00000000000E+00 0. -1.
        -14    1    5    5    0    0 -0.29604941352E+02  0.11355496999E+02  0.15459181258E+03  0.15781010228E+03  0.00000000000E+00 0.  1.
          5    1    4    4  501    0 -0.20907633752E+02 -0.22812838470E+02  0.76399901095E+02  0.82534671717E+02  0.41800000000E+01 0.  1.
         -5    1    4    4    0  501  0.32162737708E+01 -0.71188458151E+02 -0.36124457565E+02  0.80003686323E+02  0.41800000000E+01 0.  1.
</event>
<event>
11    1  0.8037748E-009  0.1473825E+03  0.7561462E-02  0.1099584E+00
         22   -1    0    0    0    0  0.00000000000E+00  0.00000000000E+00  0.10013756424E+04  0.10013756424E+04  0.00000000000E+00 0. -1.
         22   -1    0    0    0    0 -0.00000000000E+00 -0.00000000000E+00 -0.51266855276E+03  0.51266855276E+03  0.00000000000E+00 0. -1.
         24    2    1    2    0    0 -0.36780279655E+02  0.70542723789E+02 -0.46590150745E+03  0.47884733240E+03  0.76821144562E+02 0.  0.
         25    2    1    2    0    0  0.20595514256E+02 -0.43850392982E+02  0.79681968037E+02  0.15602628036E+03  0.12509177416E+03 0.  0.
        -24    2    1    2    0    0  0.16184765399E+02 -0.26692330807E+02  0.87492662900E+03  0.87917058236E+03  0.80435561785E+02 0.  0.
        -11    1    3    3    0    0 -0.31888999050E+02 -0.72019633189E+01 -0.13667749571E+03  0.14053296541E+03  0.00000000000E+00 0.  1.
         12    1    3    3    0    0 -0.48912806044E+01  0.77744687108E+02 -0.32922401174E+03  0.33831436698E+03  0.00000000000E+00 0. -1.
         11    1    5    5    0    0 -0.10736474667E+02 -0.47968838685E+02  0.61989361270E+03  0.62183950698E+03  0.00000000000E+00 0. -1.
        -12    1    5    5    0    0  0.26921240066E+02  0.21276507877E+02  0.25503301630E+03  0.25733107538E+03  0.00000000000E+00 0.  1.
          5    1    4    4  501    0  0.29297721859E+02 -0.46949951653E+02  0.11046140287E+03  0.12361977346E+03  0.41800000000E+01 0.  1.
         -5    1    4    4    0  501 -0.87022076033E+01  0.30995586707E+01 -0.30779434832E+02  0.32406506904E+02  0.41800000000E+01 0.  1.
</event>
<event>
11    1  0.8037748E-009  0.1563441E+03  0.7561462E-02  0.1090567E+00
         22   -1    0    0    0    0  0.00000000000E+00  0.00000000000E+00  0.34829739912E+03  0.34829739912E+03  0.00000000000E+00 0. -1.
         22   -1    0    0    0    0 -0.00000000000E+00 -0.00000000000E+00 -0.57791392744E+03  0.57791392744E+03  0.00000000000E+00 0. -1.
        -24    2    1    2    0    0  0.14482757849E+01  0.81606623980E+02 -0.37958282908E+03  0.39701766528E+03  0.82934696172E+02 0.  0.
         25    2    1    2    0    0  0.13912433291E+02  0.16525167733E+02 -0.15380819440E+03  0.19942625716E+03  0.12508890603E+03 0.  0.
         24    2    1    2    0    0 -0.15360709076E+02 -0.98131791713E+02  0.30377449516E+03  0.32976740413E+03  0.81251442983E+02 0.  0.
        -11    1    5    5    0    0 -0.10606298238E+02 -0.83721140336E+02  0.12785551205E+03  0.15319515287E+03  0.00000000000E+00 0.  1.
         12    1    5    5    0    0 -0.47544108380E+01 -0.14410651376E+02  0.17591898310E+03  0.17657225125E+03  0.00000000000E+00 0. -1.
         11    1    3    3    0    0  0.55744615746E+01  0.91135665981E+02 -0.37447457189E+03  0.38544518317E+03  0.00000000000E+00 0. -1.
        -12    1    3    3    0    0 -0.41261857897E+01 -0.95290420014E+01 -0.51082571914E+01  0.11572482109E+02  0.00000000000E+00 0.  1.
          5    1    4    4  501    0  0.31543395472E+02 -0.49100361602E+02 -0.78503071769E+02  0.97908303961E+02  0.41800000000E+01 0. -1.
         -5    1    4    4    0  501 -0.17630962181E+02  0.65625529334E+02 -0.75305122626E+02  0.10151795320E+03  0.41800000000E+01 0. -1.
</event>
<event>
11    1  0.8037748E-009  0.1834931E+03  0.7561462E-02  0.1066852E+00
         22   -1    0    0    0    0  0.00000000000E+00  0.00000000000E+00  0.67100343895E+03  0.67100343895E+03  0.00000000000E+00 0.  1.
         22   -1    0    0    0    0 -0.00000000000E+00 -0.00000000000E+00 -0.12169013630E+04  0.12169013630E+04  0.00000000000E+00 0. -1.
         24    2    1    2    0    0  0.67958495506E+02 -0.10807876173E+03 -0.88420137134E+03  0.89679879030E+03  0.78336641197E+02 0.  0.
         25    2    1    2    0    0 -0.10998273011E+03  0.13232953488E+03 -0.28782556297E+03  0.35790718905E+03  0.12508674810E+03 0.  0.
        -24    2    1    2    0    0  0.42024234605E+02 -0.24250773145E+02  0.62612901025E+03  0.63319882262E+03  0.80926356632E+02 0.  0.
        -13    1    3    3    0    0 -0.13290019550E+02 -0.35449130673E+02 -0.31424394549E+03  0.31651622828E+03  0.00000000000E+00 0.  1.
         14    1    3    3    0    0  0.81248515056E+02 -0.72629631057E+02 -0.56995742585E+03  0.58028256202E+03  0.00000000000E+00 0. -1.
         11    1    5    5    0    0  0.29106907333E+02  0.24322135409E+02  0.16323583581E+03  0.16758495284E+03  0.00000000000E+00 0. -1.
        -12    1    5    5    0    0  0.12917327272E+02 -0.48572908554E+02  0.46289317444E+03  0.46561386978E+03  0.00000000000E+00 0.  1.
          5    1    4    4  501    0 -0.90405793497E+02  0.15683196646E+03 -0.24665619979E+03  0.30598402981E+03  0.41800000000E+01 0.  1.
         -5    1    4    4    0  501 -0.19576936615E+02 -0.24502431588E+02 -0.41169363179E+02  0.51923159240E+02  0.41800000000E+01 0.  1.
</event>
<event>
11    1  0.8037748E-009  0.1576112E+04  0.7561462E-02  0.8267159E-01
         22   -1    0    0    0    0  0.00000000000E+00  0.00000000000E+00  0.43130574847E+03  0.43130574847E+03  0.00000000000E+00 0.  1.
         22   -1    0    0    0    0 -0.00000000000E+00 -0.00000000000E+00 -0.14398878430E+04  0.14398878430E+04  0.00000000000E+00 0.  1.
        -24    2    1    2    0    0  0.20775779688E+03  0.49455266507E+03 -0.86907197545E+03  0.10243645913E+04  0.79316307634E+02 0.  0.
         25    2    1    2    0    0 -0.25951362216E+03 -0.58228843059E+03  0.90423750064E+01  0.64972254252E+03  0.12510188339E+03 0.  0.
         24    2    1    2    0    0  0.51755825276E+02  0.87735765519E+02 -0.14855249411E+03  0.19710645771E+03  0.80043001950E+02 0.  0.
        -13    1    5    5    0    0 -0.43321976292E+01  0.64876687919E+02 -0.52581812236E+02  0.83621764809E+02  0.00000000000E+00 0.  1.
         14    1    5    5    0    0  0.56088022905E+02  0.22859077599E+02 -0.95970681878E+02  0.11348469290E+03  0.00000000000E+00 0. -1.
         11    1    3    3    0    0  0.58866551906E+02  0.17584659186E+03 -0.36881774041E+03  0.41281208854E+03  0.00000000000E+00 0. -1.
        -12    1    3    3    0    0  0.14889124498E+03  0.31870607320E+03 -0.50025423504E+03  0.61155250273E+03  0.00000000000E+00 0.  1.
          5    1    4    4  501    0 -0.26185689123E+03 -0.47674001234E+03  0.10973417412E+02  0.54404775446E+03  0.41800000000E+01 0.  1.
         -5    1    4    4    0  501  0.23432690744E+01 -0.10554841825E+03 -0.19310424061E+01  0.10567478805E+03  0.41800000000E+01 0.  1.
</event>
<event>
11    1  0.8037748E-009  0.2206393E+03  0.7561462E-02  0.1040818E+00
         22   -1    0    0    0    0  0.00000000000E+00  0.00000000000E+00  0.63327945143E+03  0.63327945143E+03  0.00000000000E+00 0. -1.
         22   -1    0    0    0    0 -0.00000000000E+00 -0.00000000000E+00 -0.17309295402E+03  0.17309295402E+03  0.00000000000E+00 0. -1.
         24    2    1    2    0    0 -0.25735811262E+02  0.24386259499E+01 -0.45472298040E+02  0.95695839026E+02  0.80135415641E+02 0.  0.
         25    2    1    2    0    0 -0.40804182400E+02  0.16920418622E+03  0.60028535665E+02  0.22258784387E+03  0.12508751021E+03 0.  0.
        -24    2    1    2    0    0  0.66539993662E+02 -0.17164281217E+03  0.44563025978E+03  0.48808872255E+03  0.75864661861E+02 0.  0.
        -13    1    3    3    0    0  0.10048025574E+02  0.33549193624E+02 -0.29094705211E+02  0.45530353415E+02  0.00000000000E+00 0.  1.
         14    1    3    3    0    0 -0.35783836836E+02 -0.31110567674E+02 -0.16377592829E+02  0.50165485611E+02  0.00000000000E+00 0. -1.
         13    1    5    5    0    0  0.64556130706E+02 -0.17886392786E+03  0.43747969629E+03  0.47702021274E+03  0.00000000000E+00 0. -1.
        -14    1    5    5    0    0  0.19838629558E+01  0.72211156902E+01  0.81505634945E+01  0.11068509806E+02  0.00000000000E+00 0.  1.
          5    1    4    4  501    0  0.40460999084E+02  0.88922985694E+02  0.43748912119E+02  0.10712529833E+03  0.41800000000E+01 0.  1.
         -5    1    4    4    0  501 -0.81265181483E+02  0.80281200523E+02  0.16279623546E+02  0.11546254554E+03  0.41800000000E+01 0.  1.
</event>
<event>
11    1  0.8037748E-009  0.1481444E+03  0.7561462E-02  0.1098790E+00
         22   -1    0    0    0    0  0.00000000000E+00  0.00000000000E+00  0.17638631997E+03  0.17638631997E+03  0.00000000000E+00 0.  1.
         22   -1    0    0    0    0 -0.00000000000E+00 -0.00000000000E+00 -0.85082063211E+03  0.85082063211E+03  0.00000000000E+00 0.  1.
         24    2    1    2    0    0  0.58067449403E+02  0.55078945307E+02 -0.73539470455E+03  0.74401401537E+03  0.79661563494E+02 0.  0.
         25    2    1    2    0    0 -0.34070326344E+02 -0.65854649032E+02 -0.40490908834E+02  0.15096540034E+03  0.12511361422E+03 0.  0.
        -24    2    1    2    0    0 -0.23997123058E+02  0.10775703724E+02  0.10145130124E+03  0.13222753637E+03  0.80621195385E+02 0.  0.
        -13    1    3    3    0    0  0.58275559014E+02  0.38961219092E+02 -0.29089677694E+03  0.29922391650E+03  0.00000000000E+00 0.  1.
         14    1    3    3    0    0 -0.20810961074E+00  0.16117726216E+02 -0.44449792761E+03  0.44479009887E+03  0.00000000000E+00 0. -1.
         13    1    5    5    0    0 -0.97155465724E+01 -0.32377443361E+02  0.20919875272E+02  0.39753388097E+02  0.00000000000E+00 0. -1.
        -14    1    5    5    0    0 -0.14281576486E+02  0.43153147085E+02  0.80531425967E+02  0.92474148272E+02  0.00000000000E+00 0.  1.
          5    1    4    4  501    0 -0.28179612061E+02 -0.51930585105E+02 -0.85097083117E+02  0.10368154204E+03  0.41800000000E+01 0.  1.
         -5    1    4    4    0  501 -0.58907142834E+01 -0.13924063926E+02  0.44606174282E+02  0.47283858293E+02  0.41800000000E+01 0.  1.
</event>
<event>
11    1  0.8037748E-009  0.1943082E+03  0.7561462E-02  0.1058623E+00
         22   -1    0    0    0    0  0.00000000000E+00  0.00000000000E+00  0.47462523979E+03  0.47462523979E+03  0.00000000000E+00 0. -1.
         22   -1    0    0    0    0 -0.00000000000E+00 -0.00000000000E+00 -0.79571801889E+03  0.79571801889E+03  0.00000000000E+00 0. -1.
        -24    2    1    2    0    0  0.21476308405E+02 -0.15103051784E+03 -0.60052670081E+03  0.62421906731E+03  0.75800240547E+02 0.  0.
         25    2    1    2    0    0  0.14287148698E+02  0.13566916956E+03 -0.13054400192E+03  0.22649469642E+03  0.12509142610E+03 0.  0.
         24    2    1    2    0    0 -0.35763457103E+02  0.15361348277E+02  0.40997792364E+03  0.41962949494E+03  0.80573067883E+02 0.  0.
        -13    1    5    5    0    0 -0.34849145450E+02 -0.25232331265E+02  0.13556168473E+03  0.14222553866E+03  0.00000000000E+00 0.  1.
         14    1    5    5    0    0 -0.91431165342E+00  0.40593679542E+02  0.27441623891E+03  0.27740395629E+03  0.00000000000E+00 0. -1.
         11    1    3    3    0    0  0.26917155798E+02 -0.12401044504E+03 -0.56594404375E+03  0.57999636586E+03  0.00000000000E+00 0. -1.
        -12    1    3    3    0    0 -0.54408473935E+01 -0.27020072795E+02 -0.34582657064E+02  0.44222701453E+02  0.00000000000E+00 0.  1.
          5    1    4    4  501    0  0.46599154043E+02  0.88546105578E+02 -0.20198279009E+02  0.10216328521E+03  0.41800000000E+01 0.  1.
         -5    1    4    4    0  501 -0.32312005345E+02  0.47123063982E+02 -0.11034572291E+03  0.12433141121E+03  0.41800000000E+01 0.  1.
</event>
<event>
11    1  0.8037748E-009  0.1737080E+03  0.7561462E-02  0.1074849E+00
         22   -1    0    0    0    0  0.00000000000E+00  0.00000000000E+00  0.24769086416E+04  0.24769086416E+04  0.00000000000E+00 0. -1.
         22   -1    0    0    0    0 -0.00000000000E+00 -0.00000000000E+00 -0.15054133847E+03  0.15054133847E+03  0.00000000000E+00 0. -1.
        -24    2    1    2    0    0 -0.81355179011E+02 -0.77723721436E+02 -0.14714955227E+02  0.13957089798E+03  0.81264159566E+02 0.  0.
         25    2    1    2    0    0  0.49637526709E+02  0.13795478563E+03  0.56518406444E+02  0.20084190324E+03  0.12509089852E+03 0.  0.
         24    2    1    2    0    0  0.31717652303E+02 -0.60231064199E+02  0.22845638519E+04  0.22870371788E+04  0.81690105837E+02 0.  0.
        -13    1    5    5    0    0 -0.23120586312E+02  0.18267489530E+01  0.57790915253E+03  0.57837434859E+03  0.00000000000E+00 0.  1.
         14    1    5    5    0    0  0.54838238615E+02 -0.62057813152E+02  0.17066546993E+04  0.17086628302E+04  0.00000000000E+00 0. -1.
         13    1    3    3    0    0 -0.80178961050E+02 -0.91533521107E+02 -0.34875835219E+01  0.12173419618E+03  0.00000000000E+00 0. -1.
        -14    1    3    3    0    0 -0.11762179609E+01  0.13809799671E+02 -0.11227371705E+02  0.17836701798E+02  0.00000000000E+00 0.  1.
          5    1    4    4  501    0 -0.40888733444E+02  0.58052315555E+02  0.12291824097E+02  0.72183940067E+02  0.41800000000E+01 0. -1.
         -5    1    4    4    0  501  0.90526260153E+02  0.79902470080E+02  0.44226582348E+02  0.12865796318E+03  0.41800000000E+01 0. -1.
</event>
<event>
11    1  0.9029364E-009  0.1959910E+03  0.7561462E-02  0.1057395E+00
         22   -1    0    0    0    0  0.00000000000E+00  0.00000000000E+00  0.15942987417E+04  0.15942987417E+04  0.00000000000E+00 0. -1.
         22   -1    0    0    0    0 -0.00000000000E+00 -0.00000000000E+00 -0.14570175744E+04  0.14570175744E+04  0.00000000000E+00 0. -1.
        -24    2    1    2    0    0 -0.14599180277E+03 -0.32515375068E+02 -0.13830057482E+04  0.13934030261E+04  0.80599240062E+02 0.  0.
         25    2    1    2    0    0  0.19437989446E+03  0.12688166926E+03  0.20018201209E+03  0.33106463768E+03  0.12509378480E+03 0.  0.
         24    2    1    2    0    0 -0.48388091684E+02 -0.94366294192E+02  0.13201049034E+04  0.13268486523E+04  0.81264908585E+02 0.  0.
        -11    1    5    5    0    0 -0.85838413534E+01 -0.56492676819E+01  0.15329988449E+02  0.18455489795E+02  0.00000000000E+00 0.  1.
         12    1    5    5    0    0 -0.39804250330E+02 -0.88717026510E+02  0.13047749149E+04  0.13083931625E+04  0.00000000000E+00 0. -1.
         11    1    3    3    0    0 -0.11701525283E+03 -0.27206156391E+02 -0.12957748030E+04  0.13013320423E+04  0.00000000000E+00 0. -1.
        -12    1    3    3    0    0 -0.28976549942E+02 -0.53092186773E+01 -0.87230945208E+02  0.92070983765E+02  0.00000000000E+00 0.  1.
          5    1    4    4  501    0  0.17896068192E+03  0.55405976408E+02  0.16558378653E+03  0.25006441302E+03  0.41800000000E+01 0.  1.
         -5    1    4    4    0  501  0.15419212534E+02  0.71475692852E+02  0.34598225558E+02  0.81000224664E+02  0.41800000000E+01 0.  1.
</event>
<event>
11    1  0.8037748E-009  0.2150662E+03  0.7561462E-02  0.1044353E+00
         22   -1    0    0    0    0  0.00000000000E+00  0.00000000000E+00  0.57707828809E+03  0.57707828809E+03  0.00000000000E+00 0.  1.
         22   -1    0    0    0    0 -0.00000000000E+00 -0.00000000000E+00 -0.20925406038E+04  0.20925406038E+04  0.00000000000E+00 0. -1.
        -24    2    1    2    0    0  0.13835837016E+03 -0.10688139903E+03 -0.20142826354E+04  0.20234477137E+04  0.80246138560E+02 0.  0.
         25    2    1    2    0    0 -0.12148738220E+03  0.13871232406E+03  0.11148337263E+03  0.24912226723E+03  0.12503227094E+03 0.  0.
         24    2    1    2    0    0 -0.16870987958E+02 -0.31830925032E+02  0.38733694706E+03  0.39704891097E+03  0.79498988158E+02 0.  0.
        -13    1    5    5    0    0  0.20903631149E+02 -0.58786974740E+01  0.27309341436E+03  0.27395535010E+03  0.00000000000E+00 0.  1.
         14    1    5    5    0    0 -0.37774619107E+02 -0.25952227558E+02  0.11424353270E+03  0.12309356087E+03  0.00000000000E+00 0. -1.
         11    1    3    3    0    0  0.13068843471E+03 -0.10127240058E+03 -0.19960673102E+04  0.20029029614E+04  0.00000000000E+00 0. -1.
        -12    1    3    3    0    0  0.76699354488E+01 -0.56089984484E+01 -0.18215325197E+02  0.20544752260E+02  0.00000000000E+00 0.  1.
          5    1    4    4  501    0 -0.13500159161E+03  0.81941672831E+02  0.53608258668E+02  0.16682681224E+03  0.41800000000E+01 0.  1.
         -5    1    4    4    0  501  0.13514209406E+02  0.56770651233E+02  0.57875113960E+02  0.82295454997E+02  0.41800000000E+01 0.  1.
</event>
<event>
11    1  0.8037748E-009  0.1609004E+03  0.7561462E-02  0.1086233E+00
         22   -1    0    0    0    0  0.00000000000E+00  0.00000000000E+00  0.24741943008E+03  0.24741943008E+03  0.00000000000E+00 0.  1.
         22   -1    0    0    0    0 -0.00000000000E+00 -0.00000000000E+00 -0.31115415039E+04  0.31115415039E+04  0.00000000000E+00 0. -1.
        -24    2    1    2    0    0 -0.10038719676E+03  0.24841320239E+01 -0.29134017373E+04  0.29162336856E+04  0.80159003758E+02 0.  0.
         25    2    1    2    0    0  0.12397650742E+03 -0.38354575091E+01 -0.14718172394E+03  0.22955230615E+03  0.12508763436E+03 0.  0.
         24    2    1    2    0    0 -0.23589310656E+02  0.13513254851E+01  0.19646138745E+03  0.21317494222E+03  0.79298156190E+02 0.  0.
        -13    1    5    5    0    0 -0.42504290533E+02 -0.14521764796E+02  0.17430448359E+03  0.17999874823E+03  0.00000000000E+00 0.  1.
         14    1    5    5    0    0  0.18914979878E+02  0.15873090281E+02  0.22156903858E+02  0.33176193987E+02  0.00000000000E+00 0. -1.
         11    1    3    3    0    0 -0.72997323137E+02 -0.15239270541E+02 -0.10935802070E+04  0.10961197534E+04  0.00000000000E+00 0. -1.
        -12    1    3    3    0    0 -0.27389873623E+02  0.17723402564E+02 -0.18198215303E+04  0.18201139322E+04  0.00000000000E+00 0.  1.
          5    1    4    4  501    0  0.12880125237E+03  0.89250635803E+01 -0.62184778066E+02  0.14336609918E+03  0.41800000000E+01 0. -1.
         -5    1    4    4    0  501 -0.48247449535E+01 -0.12760521089E+02 -0.84996945876E+02  0.86186206963E+02  0.41800000000E+01 0. -1.
</event>
<event>
11    1  0.8037748E-009  0.1440180E+03  0.7561462E-02  0.1103153E+00
         22   -1    0    0    0    0  0.00000000000E+00  0.00000000000E+00  0.63190999714E+03  0.63190999714E+03  0.00000000000E+00 0.  1.
         22   -1    0    0    0    0 -0.00000000000E+00 -0.00000000000E+00 -0.14007524920E+04  0.14007524920E+04  0.00000000000E+00 0. -1.
         24    2    1    2    0    0 -0.70948765168E+02  0.90610748578E+01 -0.13445648775E+04  0.13488781887E+04  0.80633912582E+02 0.  0.
         25    2    1    2    0    0  0.61241441833E+02 -0.27868609995E+02  0.47662695943E+02  0.14982056946E+03  0.12508915552E+03 0.  0.
        -24    2    1    2    0    0  0.97073233354E+01  0.18807535137E+02  0.52805968666E+03  0.53396373099E+03  0.76303852044E+02 0.  0.
        -13    1    3    3    0    0 -0.25673420683E+02  0.27345311535E+02 -0.10172554803E+04  0.10179467583E+04  0.00000000000E+00 0.  1.
         14    1    3    3    0    0 -0.45275344486E+02 -0.18284236677E+02 -0.32730939718E+03  0.33093143038E+03  0.00000000000E+00 0. -1.
         11    1    5    5    0    0  0.41238192324E+02  0.15737192877E+02  0.22775387299E+03  0.23199153952E+03  0.00000000000E+00 0. -1.
        -12    1    5    5    0    0 -0.31530868989E+02  0.30703422600E+01  0.30030581366E+03  0.30197219147E+03  0.00000000000E+00 0.  1.
          5    1    4    4  501    0 -0.27241773519E+02 -0.42850840039E+02  0.78332557980E+01  0.51547463691E+02  0.41800000000E+01 0.  1.
         -5    1    4    4    0  501  0.88483215352E+02  0.14982230044E+02  0.39829440145E+02  0.98273105774E+02  0.41800000000E+01 0.  1.
</event>
<event>
11    1  0.8037748E-009  0.1745950E+03  0.7561462E-02  0.1074101E+00
         22   -1    0    0    0    0  0.00000000000E+00  0.00000000000E+00  0.41382613221E+03  0.41382613221E+03  0.00000000000E+00 0.  1.
         22   -1    0    0    0    0 -0.00000000000E+00 -0.00000000000E+00 -0.34115251344E+03  0.34115251344E+03  0.00000000000E+00 0.  1.
         24    2    1    2    0    0 -0.12030195479E+03 -0.12466501900E+02 -0.23478654199E+03  0.27553575040E+03  0.78531875398E+02 0.  0.
         25    2    1    2    0    0  0.12347556434E+03  0.28707511474E+02  0.18940392322E+02  0.17910086315E+03  0.12509214409E+03 0.  0.
        -24    2    1    2    0    0 -0.31736095573E+01 -0.16241009574E+02  0.28851976844E+03  0.30034203210E+03  0.81779198320E+02 0.  0.
        -11    1    3    3    0    0 -0.13016277461E+03 -0.82798688210E+01 -0.22853218388E+03  0.26313088605E+03  0.00000000000E+00 0.  1.
         12    1    3    3    0    0  0.98608198289E+01 -0.41866330792E+01 -0.62543581116E+01  0.12404864353E+02  0.00000000000E+00 0. -1.
         11    1    5    5    0    0 -0.31748027614E+02 -0.72616243404E+00  0.47492021276E+02  0.57131048075E+02  0.00000000000E+00 0. -1.
        -12    1    5    5    0    0  0.28574418057E+02 -0.15514847140E+02  0.24102774716E+03  0.24321098403E+03  0.00000000000E+00 0.  1.
          5    1    4    4  501    0  0.11391199317E+03 -0.29132041421E+02  0.24119902038E+02  0.12009937593E+03  0.41800000000E+01 0. -1.
         -5    1    4    4    0  501  0.95635711772E+01  0.57839552895E+02 -0.51795097163E+01  0.59001487216E+02  0.41800000000E+01 0. -1.
</event>
<event>
11    1  0.8037748E-009  0.1300867E+03  0.7561462E-02  0.1119162E+00
         22   -1    0    0    0    0  0.00000000000E+00  0.00000000000E+00  0.13476716166E+04  0.13476716166E+04  0.00000000000E+00 0.  1.
         22   -1    0    0    0    0 -0.00000000000E+00 -0.00000000000E+00 -0.80731767316E+02  0.80731767316E+02  0.00000000000E+00 0.  1.
        -24    2    1    2    0    0  0.21541366899E+02 -0.85423777932E+01 -0.35309046742E+02  0.91659927794E+02  0.81349928550E+02 0.  0.
         25    2    1    2    0    0 -0.18407937559E+02  0.42850741521E+02  0.29546212407E+03  0.32422012704E+03  0.12508311559E+03 0.  0.
         24    2    1    2    0    0 -0.31334293404E+01 -0.34308363728E+02  0.10067867719E+04  0.10125233291E+04  0.10196570770E+03 0.  0.
        -13    1    5    5    0    0  0.69333937422E+00 -0.60677259096E+02  0.91329714632E+03  0.91531081495E+03  0.00000000000E+00 0.  1.
         14    1    5    5    0    0 -0.38267687146E+01  0.26368895369E+02  0.93489625632E+02  0.97212514125E+02  0.00000000000E+00 0. -1.
         11    1    3    3    0    0 -0.16265294564E+02 -0.15716709703E+02  0.15868225819E+02  0.27629248303E+02  0.00000000000E+00 0. -1.
        -12    1    3    3    0    0  0.37806661463E+02  0.71743319099E+01 -0.51177272561E+02  0.64030679491E+02  0.00000000000E+00 0.  1.
          5    1    4    4  501    0 -0.10374703526E+02  0.87295553852E+02  0.18817435045E+03  0.20773831318E+03  0.41800000000E+01 0.  1.
         -5    1    4    4    0  501 -0.80332340328E+01 -0.44444812331E+02  0.10728777362E+03  0.11648181386E+03  0.41800000000E+01 0.  1.
</event>
<event>
11    1  0.8037748E-009  0.1390832E+03  0.7561462E-02  0.1108586E+00
         22   -1    0    0    0    0  0.00000000000E+00  0.00000000000E+00  0.50900206049E+03  0.50900206049E+03  0.00000000000E+00 0. -1.
         22   -1    0    0    0    0 -0.00000000000E+00 -0.00000000000E+00 -0.23251773073E+03  0.23251773073E+03  0.00000000000E+00 0.  1.
        -24    2    1    2    0    0  0.28886893489E+02  0.14517118354E+02 -0.17829321473E+03  0.19770125839E+03  0.79070334572E+02 0.  0.
         25    2    1    2    0    0 -0.47451411649E+02  0.43980159682E+02  0.93358116890E+02  0.16896696329E+03  0.12509278869E+03 0.  0.
         24    2    1    2    0    0  0.18564518160E+02 -0.58497278037E+02  0.36141942760E+03  0.37485156954E+03  0.78250390840E+02 0.  0.
        -11    1    5    5    0    0  0.33304529693E+02 -0.98363851333E+00  0.71054060573E+02  0.78478269392E+02  0.00000000000E+00 0.  1.
         12    1    5    5    0    0 -0.14740011534E+02 -0.57513639523E+02  0.29036536703E+03  0.29637330014E+03  0.00000000000E+00 0. -1.
         13    1    3    3    0    0 -0.96197281238E+01  0.31390811100E+02 -0.33410515825E+02  0.46842125895E+02  0.00000000000E+00 0. -1.
        -14    1    3    3    0    0  0.38506621613E+02 -0.16873692746E+02 -0.14488269891E+03  0.15085913250E+03  0.00000000000E+00 0.  1.
          5    1    4    4  501    0 -0.24866917649E+02  0.44108869373E+02  0.12205652340E+03  0.13220901352E+03  0.41800000000E+01 0. -1.
         -5    1    4    4    0  501 -0.22584494000E+02 -0.12870969035E+00 -0.28698406510E+02  0.36757949774E+02  0.41800000000E+01 0. -1.
</event>
<event>
11    1  0.8037748E-009  0.1479985E+03  0.7561462E-02  0.1098942E+00
         22   -1    0    0    0    0  0.00000000000E+00  0.00000000000E+00  0.19687111041E+03  0.19687111041E+03  0.00000000000E+00 0. -1.
         22   -1    0    0    0    0 -0.00000000000E+00 -0.00000000000E+00 -0.48143998487E+03  0.48143998487E+03  0.00000000000E+00 0.  1.
        -24    2    1    2    0    0  0.18343911039E+02 -0.38580850965E+02 -0.32600354209E+03  0.33659050895E+03  0.72040822628E+02 0.  0.
         25    2    1    2    0    0  0.62574159081E+02  0.44365831949E+02 -0.86567955718E+02  0.17037103632E+03  0.12509367143E+03 0.  0.
         24    2    1    2    0    0 -0.80918070120E+02 -0.57849809842E+01  0.12800262334E+03  0.17134955001E+03  0.79967472322E+02 0.  0.
        -13    1    5    5    0    0  0.41038532554E+01  0.18145079233E+02  0.38721399876E+01  0.19002078308E+02  0.00000000000E+00 0.  1.
         14    1    5    5    0    0 -0.85021923376E+02 -0.23930060218E+02  0.12413048335E+03  0.15234747170E+03  0.00000000000E+00 0. -1.
         11    1    3    3    0    0 -0.39293626568E+01  0.11903515607E+01  0.25873308442E+01  0.48529484465E+01  0.00000000000E+00 0. -1.
        -12    1    3    3    0    0  0.22273273696E+02 -0.39771202526E+02 -0.32859087293E+03  0.33173756050E+03  0.00000000000E+00 0.  1.
          5    1    4    4  501    0  0.35539571433E+02 -0.28290390774E+00 -0.10801327909E+03  0.11378700291E+03  0.41800000000E+01 0.  1.
         -5    1    4    4    0  501  0.27034587648E+02  0.44648735857E+02  0.21445323368E+02  0.56584033413E+02  0.41800000000E+01 0.  1.
</event>
<event>
11    1  0.8037748E-009  0.1311329E+03  0.7561462E-02  0.1117885E+00
         22   -1    0    0    0    0  0.00000000000E+00  0.00000000000E+00  0.53807258129E+02  0.53807258129E+02  0.00000000000E+00 0.  1.
         22   -1    0    0    0    0 -0.00000000000E+00 -0.00000000000E+00 -0.20159924209E+04  0.20159924209E+04  0.00000000000E+00 0. -1.
        -24    2    1    2    0    0  0.28914316660E+02  0.19914963206E+02 -0.93850014898E+03  0.94249915076E+03  0.79306217181E+02 0.  0.
         25    2    1    2    0    0 -0.52940879161E+02 -0.42234653197E+01 -0.10322503050E+04  0.10411573096E+04  0.12508907527E+03 0.  0.
         24    2    1    2    0    0  0.24026562501E+02 -0.15691497886E+02  0.85652912064E+01  0.86143218700E+02  0.80769988876E+02 0.  0.
        -13    1    5    5    0    0  0.43495542323E+02 -0.15512076733E+02  0.31620099179E+02  0.55967109972E+02  0.00000000000E+00 0.  1.
         14    1    5    5    0    0 -0.19468979823E+02 -0.17942115279E+00 -0.23054807973E+02  0.30176108728E+02  0.00000000000E+00 0. -1.
         11    1    3    3    0    0  0.18867714128E+02 -0.27039132940E+02 -0.22717499781E+03  0.22955518939E+03  0.00000000000E+00 0. -1.
        -12    1    3    3    0    0  0.10046602532E+02  0.46954096145E+02 -0.71132515117E+03  0.71294396137E+03  0.00000000000E+00 0.  1.
          5    1    4    4  501    0  0.26809821541E+02 -0.25265268347E+02 -0.59643018367E+03  0.59758140593E+03  0.41800000000E+01 0.  1.
         -5    1    4    4    0  501 -0.79750700702E+02  0.21041803028E+02 -0.43582012134E+03  0.44357590365E+03  0.41800000000E+01 0.  1.
</event>
<event>
11    1  0.8037748E-009  0.2255453E+03  0.7561462E-02  0.1037798E+00
         22   -1    0    0    0    0  0.00000000000E+00  0.00000000000E+00  0.50656639719E+03  0.50656639719E+03  0.00000000000E+00 0.  1.
         22   -1    0    0    0    0 -0.00000000000E+00 -0.00000000000E+00 -0.10954768600E+04  0.10954768600E+04  0.00000000000E+00 0. -1.
         24    2    1    2    0    0 -0.20729436094E+02 -0.98624167742E+02 -0.97221555852E+03  0.97991659074E+03  0.69835496731E+02 0.  0.
         25    2    1    2    0    0 -0.56334742860E+02  0.24663844819E+03  0.13603106840E+03  0.31329864401E+03  0.12508981330E+03 0.  0.
        -24    2    1    2    0    0  0.77064178954E+02 -0.14801428045E+03  0.24727402732E+03  0.30882802241E+03  0.79894855555E+02 0.  0.
        -11    1    3    3    0    0 -0.27854867434E+02 -0.54867638004E+02 -0.30026590979E+03  0.30650606507E+03  0.00000000000E+00 0.  1.
         12    1    3    3    0    0  0.71254313401E+01 -0.43756529738E+02 -0.67194964872E+03  0.67341052567E+03  0.00000000000E+00 0. -1.
         13    1    5    5    0    0  0.23425012646E+02 -0.53998603283E+02  0.29954310624E+02  0.66044235925E+02  0.00000000000E+00 0. -1.
        -14    1    5    5    0    0  0.53639166308E+02 -0.94015677166E+02  0.21731971670E+03  0.24278378649E+03  0.00000000000E+00 0.  1.
          5    1    4    4  501    0 -0.49576530314E+01  0.19944547181E+03  0.56440069938E+02  0.20737894889E+03  0.41800000000E+01 0. -1.
         -5    1    4    4    0  501 -0.51377089829E+02  0.47192976384E+02  0.79590998462E+02  0.10591969513E+03  0.41800000000E+01 0. -1.
</event>
<event>
11    1  0.8037748E-009  0.1733199E+03  0.7561462E-02  0.1075178E+00
         22   -1    0    0    0    0  0.00000000000E+00  0.00000000000E+00  0.42428301588E+03  0.42428301588E+03  0.00000000000E+00 0.  1.
         22   -1    0    0    0    0 -0.00000000000E+00 -0.00000000000E+00 -0.78982903324E+03  0.78982903324E+03  0.00000000000E+00 0. -1.
        -24    2    1    2    0    0 -0.10448401138E+02 -0.18261607583E+02 -0.72291115799E+03  0.72763394359E+03  0.80049722868E+02 0.  0.
         25    2    1    2    0    0  0.11765093081E+03  0.58726251096E+02  0.14607027417E+03  0.23296795849E+03  0.12508809135E+03 0.  0.
         24    2    1    2    0    0 -0.10720252967E+03 -0.40464643513E+02  0.21129486646E+03  0.25351014704E+03  0.80573595676E+02 0.  0.
        -11    1    5    5    0    0 -0.10614590743E+03 -0.49804293014E+02  0.21374962184E+03  0.24379565645E+03  0.00000000000E+00 0.  1.
         12    1    5    5    0    0 -0.10566222338E+01  0.93396495008E+01 -0.24547553877E+01  0.97144905865E+01  0.00000000000E+00 0. -1.
         11    1    3    3    0    0 -0.18332749796E+02 -0.30106172013E+02 -0.69842439669E+03  0.69931331262E+03  0.00000000000E+00 0. -1.
        -12    1    3    3    0    0  0.78843486576E+01  0.11844564430E+02 -0.24486761295E+02  0.28320630979E+02  0.00000000000E+00 0.  1.
          5    1    4    4  501    0 -0.22447684468E+02  0.11254894811E+02  0.60795690604E+00  0.25463958977E+02  0.41800000000E+01 0. -1.
         -5    1    4    4    0  501  0.14009861527E+03  0.47471356285E+02  0.14546231727E+03  0.20750399951E+03  0.41800000000E+01 0. -1.
</event>
<event>
11    1  0.8037748E-009  0.2768205E+03  0.7561462E-02  0.1010508E+00
         22   -1    0    0    0    0  0.00000000000E+00  0.00000000000E+00  0.14029572617E+04  0.14029572617E+04  0.00000000000E+00 0. -1.
         22   -1    0    0    0    0 -0.00000000000E+00 -0.00000000000E+00 -0.15941182113E+04  0.15941182113E+04  0.00000000000E+00 0.  1.
         24    2    1    2    0    0  0.46877233428E+02  0.15852595610E+02 -0.13216961262E+04  0.13251742600E+04  0.82203343155E+02 0.  0.
         25    2    1    2    0    0  0.16585737054E+03 -0.14417610027E+03 -0.19599861620E+03  0.31993432254E+03  0.12508836051E+03 0.  0.
        -24    2    1    2    0    0 -0.21273460396E+03  0.12832350466E+03  0.13265337928E+04  0.13519668905E+04  0.79997724826E+02 0.  0.
        -11    1    3    3    0    0  0.15309901066E+02  0.46531029533E+01 -0.11567970475E+04  0.11569077117E+04  0.00000000000E+00 0.  1.
         12    1    3    3    0    0  0.31567332362E+02  0.11199492657E+02 -0.16489907875E+03  0.16826654831E+03  0.00000000000E+00 0. -1.
         13    1    5    5    0    0 -0.16738367638E+03  0.13479883090E+03  0.10687720406E+04  0.10901659023E+04  0.00000000000E+00 0. -1.
        -14    1    5    5    0    0 -0.45350927588E+02 -0.64753262438E+01  0.25776175219E+03  0.26180098811E+03  0.00000000000E+00 0.  1.
          5    1    4    4  501    0  0.13052175381E+02 -0.81448857758E+02 -0.96653559586E+02  0.12713637832E+03  0.41800000000E+01 0.  1.
         -5    1    4    4    0  501  0.15280519516E+03 -0.62727242512E+02 -0.99345056615E+02  0.19279794421E+03  0.41800000000E+01 0.  1.
</event>
<event>
11    1  0.8037748E-009  0.1392611E+03  0.7561462E-02  0.1108386E+00
         22   -1    0    0    0    0  0.00000000000E+00  0.00000000000E+00  0.47786345783E+03  0.47786345783E+03  0.00000000000E+00 0.  1.
         22   -1    0    0    0    0 -0.00000000000E+00 -0.00000000000E+00 -0.90195349551E+03  0.90195349551E+03  0.00000000000E+00 0. -1.
        -24    2    1    2    0    0 -0.63753367378E+02  0.53274136033E+01 -0.78852813415E+03  0.79532766217E+03  0.81710456301E+02 0.  0.
         25    2    1    2    0    0  0.18602137082E+02 -0.52741620159E+02 -0.58540440761E+02  0.14900230500E+03  0.12508791184E+03 0.  0.
         24    2    1    2    0    0  0.45151230296E+02  0.47414206555E+02  0.42297853723E+03  0.43548698618E+03  0.80320181734E+02 0.  0.
        -11    1    5    5    0    0  0.31603890305E+02 -0.78275738315E+01  0.27554947716E+03  0.27746637843E+03  0.00000000000E+00 0.  1.
         12    1    5    5    0    0  0.13547339991E+02  0.55241780387E+02  0.14742906007E+03  0.15802060775E+03  0.00000000000E+00 0. -1.
         13    1    3    3    0    0 -0.39925643838E+02  0.44576298751E+01 -0.74162099611E+03  0.74270830705E+03  0.00000000000E+00 0. -1.
        -14    1    3    3    0    0 -0.23827723540E+02  0.86978372822E+00 -0.46907138045E+02  0.52619355112E+02  0.00000000000E+00 0.  1.
          5    1    4    4  501    0 -0.70666507225E+01 -0.47801553095E+02  0.29702752486E+02  0.56874000527E+02  0.41800000000E+01 0. -1.
         -5    1    4    4    0  501  0.25668787804E+02 -0.49400670641E+01 -0.88243193247E+02  0.92128304469E+02  0.41800000000E+01 0. -1.
</event>
<event>
11    1  0.8037748E-009  0.1296282E+03  0.7561462E-02  0.1119727E+00
         22   -1    0    0    0    0  0.00000000000E+00  0.00000000000E+00  0.31953212990E+03  0.31953212990E+03  0.00000000000E+00 0. -1.
         22   -1    0    0    0    0 -0.00000000000E+00 -0.00000000000E+00 -0.51274841406E+03  0.51274841406E+03  0.00000000000E+00 0.  1.
         24    2    1    2    0    0  0.45634928562E+02 -0.12853970855E+01 -0.38271047738E+03  0.39246068589E+03  0.73985684616E+02 0.  0.
         25    2    1    2    0    0 -0.11263088860E+02  0.13301151575E+02 -0.84472046260E+02  0.15193182935E+03  0.12507588243E+03 0.  0.
        -24    2    1    2    0    0 -0.34371839701E+02 -0.12015754489E+02  0.27396623948E+03  0.28788802872E+03  0.80599100394E+02 0.  0.
        -13    1    3    3    0    0  0.52688272854E+02 -0.20147437571E+02 -0.34619461697E+03  0.35076015474E+03  0.00000000000E+00 0.  1.
         14    1    3    3    0    0 -0.70533442926E+01  0.18862040485E+02 -0.36515860409E+02  0.41700531153E+02  0.00000000000E+00 0. -1.
         11    1    5    5    0    0 -0.27326312941E+02  0.10029527587E+02  0.25831264770E+03  0.25994757695E+03  0.00000000000E+00 0. -1.
        -12    1    5    5    0    0 -0.70455267601E+01 -0.22045282077E+02  0.15653591779E+02  0.27940451764E+02  0.00000000000E+00 0.  1.
          5    1    4    4  501    0  0.32569327358E+01  0.39215779978E+02  0.19216432686E+02  0.43991234301E+02  0.41800000000E+01 0.  1.
         -5    1    4    4    0  501 -0.14520021596E+02 -0.25914628403E+02 -0.10368847895E+03  0.10794059504E+03  0.41800000000E+01 0.  1.
</event>
<event>
11    1  0.8037748E-009  0.1442123E+03  0.7561462E-02  0.1102944E+00
         22   -1    0    0    0    0  0.00000000000E+00  0.00000000000E+00  0.68213314908E+03  0.68213314908E+03  0.00000000000E+00 0.  1.
         22   -1    0    0    0    0 -0.00000000000E+00 -0.00000000000E+00 -0.32047123346E+03  0.32047123346E+03  0.00000000000E+00 0. -1.
        -24    2    1    2    0    0 -0.10509890287E+02  0.70138729658E+01 -0.19412470855E+03  0.21093478223E+03  0.81544022951E+02 0.  0.
         25    2    1    2    0    0 -0.56761048912E+02  0.19334326364E+02 -0.70767393392E+02  0.15573040871E+03  0.12509317879E+03 0.  0.
         24    2    1    2    0    0  0.67270939199E+02 -0.26348199330E+02  0.62655401755E+03  0.63593919160E+03  0.81419356622E+02 0.  0.
        -13    1    5    5    0    0  0.51797010419E+02 -0.49723575454E+02  0.54483203200E+03  0.54954281666E+03  0.00000000000E+00 0.  1.
         14    1    5    5    0    0  0.15473928780E+02  0.23375376124E+02  0.81721985549E+02  0.86396374941E+02  0.00000000000E+00 0. -1.
         11    1    3    3    0    0  0.22456878809E+02  0.21145933652E+02 -0.15424031042E+03  0.15729442226E+03  0.00000000000E+00 0. -1.
        -12    1    3    3    0    0 -0.32966769096E+02 -0.14132060686E+02 -0.39884398124E+02  0.53640359968E+02  0.00000000000E+00 0.  1.
          5    1    4    4  501    0  0.37043342980E+02  0.52328414344E+01 -0.42255697545E+02  0.56591591811E+02  0.41800000000E+01 0. -1.
         -5    1    4    4    0  501 -0.93804391893E+02  0.14101484930E+02 -0.28511695847E+02  0.99138816896E+02  0.41800000000E+01 0. -1.
</event>
<event>
11    1  0.8037748E-009  0.1589037E+03  0.7561462E-02  0.1088113E+00
         22   -1    0    0    0    0  0.00000000000E+00  0.00000000000E+00  0.13111003809E+04  0.13111003809E+04  0.00000000000E+00 0.  1.
         22   -1    0    0    0    0 -0.00000000000E+00 -0.00000000000E+00 -0.15992874404E+03  0.15992874404E+03  0.00000000000E+00 0. -1.
         24    2    1    2    0    0 -0.41913852670E+02 -0.20786217646E+02 -0.12517640269E+03  0.15622684916E+03  0.80925019111E+02 0.  0.
         25    2    1    2    0    0  0.11149754093E+03  0.72445214124E+02  0.56013839205E+03  0.58913460869E+03  0.12507820842E+03 0.  0.
        -24    2    1    2    0    0 -0.69583688261E+02 -0.51658996478E+02  0.71620964747E+03  0.72566766706E+03  0.78273637246E+02 0.  0.
        -11    1    3    3    0    0 -0.24258214065E+02 -0.31528602318E+02 -0.12540537203E+02  0.41710655558E+02  0.00000000000E+00 0.  1.
         12    1    3    3    0    0 -0.17655638605E+02  0.10742384671E+02 -0.11263586549E+03  0.11451619360E+03  0.00000000000E+00 0. -1.
         11    1    5    5    0    0  0.79796016015E+01 -0.20621490941E+02  0.56227426480E+02  0.60418899518E+02  0.00000000000E+00 0. -1.
        -12    1    5    5    0    0 -0.77563289863E+02 -0.31037505537E+02  0.65998222099E+03  0.66524876754E+03  0.00000000000E+00 0.  1.
          5    1    4    4  501    0  0.50890909735E+01  0.51116655637E+02  0.33757245052E+03  0.34148417692E+03  0.41800000000E+01 0.  1.
         -5    1    4    4    0  501  0.10640844996E+03  0.21328558488E+02  0.22256594152E+03  0.24765043177E+03  0.41800000000E+01 0.  1.
</event>
<event>
11    1  0.8037748E-009  0.1359444E+03  0.7561462E-02  0.1112174E+00
         22   -1    0    0    0    0  0.00000000000E+00  0.00000000000E+00  0.14995310337E+04  0.14995310337E+04  0.00000000000E+00 0. -1.
         22   -1    0    0    0    0 -0.00000000000E+00 -0.00000000000E+00 -0.12493783160E+04  0.12493783160E+04  0.00000000000E+00 0. -1.
         24    2    1    2    0    0 -0.16216664527E+02 -0.50272172959E+02 -0.11923760031E+04  0.11962883340E+04  0.80962792364E+02 0.  0.
         25    2    1    2    0    0  0.40649366253E+01  0.76197180765E+02  0.46199749565E+02  0.15363844977E+03  0.12509125598E+03 0.  0.
        -24    2    1    2    0    0  0.12151727901E+02 -0.25925007807E+02  0.13963289712E+04  0.13989825660E+04  0.81227173310E+02 0.  0.
        -11    1    3    3    0    0 -0.68444643828E+01 -0.32821652368E+02 -0.14905252717E+03  0.15277684187E+03  0.00000000000E+00 0.  1.
         12    1    3    3    0    0 -0.93722001437E+01 -0.17450520590E+02 -0.10433234759E+04  0.10435114921E+04  0.00000000000E+00 0. -1.
         11    1    5    5    0    0 -0.98599241877E+00  0.10721115564E+02  0.11063153455E+04  0.11063677319E+04  0.00000000000E+00 0. -1.
        -12    1    5    5    0    0  0.13137720320E+02 -0.36646123371E+02  0.29001362569E+03  0.29261483411E+03  0.00000000000E+00 0.  1.
          5    1    4    4  501    0 -0.40491950147E+02  0.52053507755E+01 -0.21026611629E+02  0.46111652540E+02  0.41800000000E+01 0. -1.
         -5    1    4    4    0  501  0.44556886772E+02  0.70991829990E+02  0.67226361194E+02  0.10752679723E+03  0.41800000000E+01 0. -1.
</event>
<event>
11    1  0.8037748E-009  0.1486080E+03  0.7561462E-02  0.1098310E+00
         22   -1    0    0    0    0  0.00000000000E+00  0.00000000000E+00  0.13126580871E+04  0.13126580871E+04  0.00000000000E+00 0. -1.
         22   -1    0    0    0    0 -0.00000000000E+00 -0.00000000000E+00 -0.78221361971E+03  0.78221361971E+03  0.00000000000E+00 0.  1.
         24    2    1    2    0    0  0.21608952889E+02 -0.65743664636E+01 -0.66185573558E+03  0.66719950929E+03  0.81191140765E+02 0.  0.
         25    2    1    2    0    0  0.41558700637E+02  0.56526616328E+02 -0.70110021680E+02  0.15964323384E+03  0.12509261776E+03 0.  0.
        -24    2    1    2    0    0 -0.63167653526E+02 -0.49952249864E+02  0.12624102246E+04  0.12680289637E+04  0.87934621892E+02 0.  0.
        -13    1    3    3    0    0 -0.46691248561E+01 -0.66092658349E+01 -0.59922134453E+03  0.59927598222E+03  0.00000000000E+00 0.  1.
         14    1    3    3    0    0  0.26278077745E+02  0.34899371285E-01 -0.62634391047E+02  0.67923527071E+02  0.00000000000E+00 0. -1.
         11    1    5    5    0    0 -0.81863666208E+02 -0.47866755970E+02  0.86685315213E+03  0.87202481245E+03  0.00000000000E+00 0. -1.
        -12    1    5    5    0    0  0.18696012682E+02 -0.20854938940E+01  0.39555707251E+03  0.39600415123E+03  0.00000000000E+00 0.  1.
          5    1    4    4  501    0 -0.74241814776E+01 -0.36004682432E+02 -0.80535307852E+01  0.37865385060E+02  0.41800000000E+01 0. -1.
         -5    1    4    4    0  501  0.48982882115E+02  0.92531298760E+02 -0.62056490895E+02  0.12177784878E+03  0.41800000000E+01 0. -1.
</event>
<event>
11    1  0.8037748E-009  0.1274216E+03  0.7561462E-02  0.1122478E+00
         22   -1    0    0    0    0  0.00000000000E+00  0.00000000000E+00  0.18468610594E+03  0.18468610594E+03  0.00000000000E+00 0. -1.
         22   -1    0    0    0    0 -0.00000000000E+00 -0.00000000000E+00 -0.52473288216E+03  0.52473288216E+03  0.00000000000E+00 0. -1.
         24    2    1    2    0    0  0.18963320305E+02  0.16604063190E+02 -0.41380772285E+03  0.42210652138E+03  0.79383760750E+02 0.  0.
         25    2    1    2    0    0 -0.12011168408E+02 -0.94335309735E+01 -0.59217221879E+02  0.13923784030E+03  0.12508891690E+03 0.  0.
        -24    2    1    2    0    0 -0.69521518977E+01 -0.71705322166E+01  0.13297816851E+03  0.14807462641E+03  0.64367326646E+02 0.  0.
        -13    1    3    3    0    0 -0.23274981462E+02  0.14004192755E+02 -0.61058949937E+02  0.66828418687E+02  0.00000000000E+00 0.  1.
         14    1    3    3    0    0  0.42238301767E+02  0.25998704355E+01 -0.35274877291E+03  0.35527810270E+03  0.00000000000E+00 0. -1.
         13    1    5    5    0    0  0.10973573114E+02 -0.30307979723E+02  0.93708359906E+02  0.99097172806E+02  0.00000000000E+00 0. -1.
        -14    1    5    5    0    0 -0.17925725011E+02  0.23137447507E+02  0.39269808602E+02  0.48977453608E+02  0.00000000000E+00 0.  1.
          5    1    4    4  501    0  0.38881566979E+02  0.36756285270E+02 -0.42301695941E+02  0.68335251789E+02  0.41800000000E+01 0. -1.
         -5    1    4    4    0  501 -0.50892735387E+02 -0.46189816243E+02 -0.16915525938E+02  0.70902588511E+02  0.41800000000E+01 0. -1.
</event>
<event>
11    1  0.8037748E-009  0.1541801E+03  0.7561462E-02  0.1092682E+00
         22   -1    0    0    0    0  0.00000000000E+00  0.00000000000E+00  0.40503369956E+03  0.40503369956E+03  0.00000000000E+00 0.  1.
         22   -1    0    0    0    0 -0.00000000000E+00 -0.00000000000E+00 -0.61002531665E+03  0.61002531665E+03  0.00000000000E+00 0. -1.
        -24    2    1    2    0    0 -0.35384993042E+02  0.17877345867E+02 -0.31916493658E+03  0.33166682005E+03  0.81024228184E+02 0.  0.
         25    2    1    2    0    0  0.39961013454E+01  0.67669898627E+02 -0.25643944313E+03  0.29326349018E+03  0.12508837945E+03 0.  0.
         24    2    1    2    0    0  0.31388891697E+02 -0.85547244494E+02  0.37061276263E+03  0.39012870598E+03  0.80888774507E+02 0.  0.
        -11    1    5    5    0    0  0.37742690330E+02 -0.13439190727E+02  0.21235810103E+03  0.21610433960E+03  0.00000000000E+00 0.  1.
         12    1    5    5    0    0 -0.63537986334E+01 -0.72108053767E+02  0.15825466160E+03  0.17402436638E+03  0.00000000000E+00 0. -1.
         13    1    3    3    0    0 -0.21632903725E+02 -0.24906708651E+02 -0.22409583770E+03  0.22651108391E+03  0.00000000000E+00 0. -1.
        -14    1    3    3    0    0 -0.13752089317E+02  0.42784054518E+02 -0.95069098877E+02  0.10515573614E+03  0.00000000000E+00 0.  1.
          5    1    4    4  501    0 -0.11851025022E+02  0.31364331463E+02 -0.39889394363E-01  0.33788194290E+02  0.41800000000E+01 0.  1.
         -5    1    4    4    0  501  0.15847126367E+02  0.36305567164E+02 -0.25639955374E+03  0.25947529589E+03  0.41800000000E+01 0.  1.
</event>
<event>
11    1  0.8037748E-009  0.1473743E+03  0.7561462E-02  0.1099592E+00
         22   -1    0    0    0    0  0.00000000000E+00  0.00000000000E+00  0.24793775742E+03  0.24793775742E+03  0.00000000000E+00 0. -1.
         22   -1    0    0    0    0 -0.00000000000E+00 -0.00000000000E+00 -0.90763269418E+03  0.90763269418E+03  0.00000000000E+00 0.  1.
         24    2    1    2    0    0 -0.15364802737E+02  0.75282709420E+02 -0.70686500583E+03  0.71485613156E+03  0.73875495593E+02 0.  0.
         25    2    1    2    0    0  0.58233888508E+02 -0.75509357981E+02 -0.15413184764E+03  0.22022244237E+03  0.12509375985E+03 0.  0.
        -24    2    1    2    0    0 -0.42869085771E+02  0.22664856118E+00  0.20130191672E+03  0.22049187767E+03  0.79097386545E+02 0.  0.
        -13    1    3    3    0    0 -0.36117888230E+02  0.46755179297E+02 -0.58534589624E+03  0.58831995282E+03  0.00000000000E+00 0.  1.
         14    1    3    3    0    0  0.20753085493E+02  0.28527530123E+02 -0.12151910959E+03  0.12653617873E+03  0.00000000000E+00 0. -1.
         11    1    5    5    0    0 -0.30282630510E+02  0.38748639251E+02  0.10190902415E+03  0.11315451364E+03  0.00000000000E+00 0. -1.
        -12    1    5    5    0    0 -0.12586455261E+02 -0.38521990689E+02  0.99392892575E+02  0.10733736403E+03  0.00000000000E+00 0.  1.
          5    1    4    4  501    0 -0.36773269826E+02 -0.19582715692E+01 -0.35339579125E+02  0.51210022984E+02  0.41800000000E+01 0. -1.
         -5    1    4    4    0  501  0.95007158335E+02 -0.73551086412E+02 -0.11879226852E+03  0.16901241939E+03  0.41800000000E+01 0. -1.
</event>
<event>
11    1  0.8037748E-009  0.1930607E+03  0.7561462E-02  0.1059542E+00
         22   -1    0    0    0    0  0.00000000000E+00  0.00000000000E+00  0.11940955471E+04  0.11940955471E+04  0.00000000000E+00 0. -1.
         22   -1    0    0    0    0 -0.00000000000E+00 -0.00000000000E+00 -0.57603518530E+03  0.57603518530E+03  0.00000000000E+00 0. -1.
         24    2    1    2    0    0 -0.14475618985E+03  0.22351620327E+02 -0.51948382187E+03  0.54567360683E+03  0.80263905801E+02 0.  0.
         25    2    1    2    0    0  0.16790689741E+03  0.44838233504E+02  0.24409123720E+03  0.32469926315E+03  0.12508351623E+03 0.  0.
        -24    2    1    2    0    0 -0.23150707560E+02 -0.67189853831E+02  0.89345294642E+03  0.89975786238E+03  0.79092425299E+02 0.  0.
        -11    1    3    3    0    0 -0.34480852210E+02 -0.29098080296E+02 -0.12847101845E+03  0.13616324771E+03  0.00000000000E+00 0.  1.
         12    1    3    3    0    0 -0.11027533764E+03  0.51449700623E+02 -0.39101280341E+03  0.40951035911E+03  0.00000000000E+00 0. -1.
         11    1    5    5    0    0  0.21585434536E+02 -0.37348529622E+02  0.59015731763E+03  0.59173178316E+03  0.00000000000E+00 0. -1.
        -12    1    5    5    0    0 -0.44736142096E+02 -0.29841324209E+02  0.30329562878E+03  0.30802607922E+03  0.00000000000E+00 0.  1.
          5    1    4    4  501    0  0.18295326560E+03  0.59769855991E+02  0.21889389218E+03  0.29150701794E+03  0.41800000000E+01 0. -1.
         -5    1    4    4    0  501 -0.15046368188E+02 -0.14931622487E+02  0.25197345019E+02  0.33192245205E+02  0.41800000000E+01 0. -1.
</event>
<event>
11    1  0.8037748E-009  0.1595307E+03  0.7561462E-02  0.1087520E+00
         22   -1    0    0    0    0  0.00000000000E+00  0.00000000000E+00  0.62899117773E+03  0.62899117773E+03  0.00000000000E+00 0. -1.
         22   -1    0    0    0    0 -0.00000000000E+00 -0.00000000000E+00 -0.29556488614E+03  0.29556488614E+03  0.00000000000E+00 0. -1.
         24    2    1    2    0    0 -0.37359319835E+02 -0.68309181654E+02 -0.15467799547E+03  0.19139603996E+03  0.81518701847E+02 0.  0.
         25    2    1    2    0    0 -0.32255239168E+02  0.13674764104E+03 -0.38289667354E+02  0.19197384118E+03  0.12509012465E+03 0.  0.
        -24    2    1    2    0    0  0.69614559003E+02 -0.68438459390E+02  0.52639395441E+03  0.54118618274E+03  0.79132038973E+02 0.  0.
        -13    1    3    3    0    0  0.20829570360E+02 -0.12188473252E+02 -0.10970031040E+02  0.26509837092E+02  0.00000000000E+00 0.  1.
         14    1    3    3    0    0 -0.58188890196E+02 -0.56120708402E+02 -0.14370796443E+03  0.16488620287E+03  0.00000000000E+00 0. -1.
         13    1    5    5    0    0  0.59913371631E+02 -0.51394778369E+01  0.29670144371E+03  0.30273383200E+03  0.00000000000E+00 0. -1.
        -14    1    5    5    0    0  0.97011873719E+01 -0.63298981553E+02  0.22969251070E+03  0.23845235074E+03  0.00000000000E+00 0.  1.
          5    1    4    4  501    0  0.78612654014E+01  0.98632784686E+02 -0.76038476240E+02  0.12485811138E+03  0.41800000000E+01 0.  1.
         -5    1    4    4    0  501 -0.40116504569E+02  0.38114856358E+02  0.37748808885E+02  0.67115729798E+02  0.41800000000E+01 0.  1.
</event>
<event>
11    1  0.8037748E-009  0.1391096E+03  0.7561462E-02  0.1108557E+00
         22   -1    0    0    0    0  0.00000000000E+00  0.00000000000E+00  0.81771542379E+02  0.81771542379E+02  0.00000000000E+00 0.  1.
         22   -1    0    0    0    0 -0.00000000000E+00 -0.00000000000E+00 -0.16483246056E+04  0.16483246056E+04  0.00000000000E+00 0.  1.
        -24    2    1    2    0    0 -0.22218755550E+02 -0.58191348307E+02 -0.12236367625E+04  0.12278483633E+04  0.80279328936E+02 0.  0.
         25    2    1    2    0    0  0.60350523402E+02  0.30066109359E+02 -0.37736222934E+03  0.40323318839E+03  0.12509434632E+03 0.  0.
         24    2    1    2    0    0 -0.38131767852E+02  0.28125238948E+02  0.34445928603E+02  0.99014596280E+02  0.79826734205E+02 0.  0.
        -13    1    5    5    0    0  0.10751023379E+02  0.40369232165E+02  0.97654460826E+01  0.42902486484E+02  0.00000000000E+00 0.  1.
         14    1    5    5    0    0 -0.48882791230E+02 -0.12243993217E+02  0.24680482520E+02  0.56112109796E+02  0.00000000000E+00 0. -1.
         11    1    3    3    0    0 -0.19770636576E+02 -0.14779843332E+02 -0.88468453955E+02  0.91847641150E+02  0.00000000000E+00 0. -1.
        -12    1    3    3    0    0 -0.24481189734E+01 -0.43411504975E+02 -0.11351683085E+04  0.11360007222E+04  0.00000000000E+00 0.  1.
          5    1    4    4  501    0  0.22990707183E+02  0.61328913666E+02 -0.32512847539E+03  0.33168630689E+03  0.41800000000E+01 0.  1.
         -5    1    4    4    0  501  0.37359816218E+02 -0.31262804307E+02 -0.52233753945E+02  0.71546881498E+02  0.41800000000E+01 0.  1.
</event>
<event>
11    1  0.8037748E-009  0.1377749E+03  0.7561462E-02  0.1110069E+00
         22   -1    0    0    0    0  0.00000000000E+00  0.00000000000E+00  0.59526150589E+03  0.59526150589E+03  0.00000000000E+00 0.  1.
         22   -1    0    0    0    0 -0.00000000000E+00 -0.00000000000E+00 -0.26823350307E+03  0.26823350307E+03  0.00000000000E+00 0. -1.
        -24    2    1    2    0    0 -0.16925264612E+02 -0.52545005811E+02 -0.18138313784E+03  0.20733541558E+03  0.83908817431E+02 0.  0.
         25    2    1    2    0    0  0.36232218139E+02  0.64045256585E+02  0.38658107804E+01  0.14517828590E+03  0.12508885515E+03 0.  0.
         24    2    1    2    0    0 -0.19306953527E+02 -0.11500250774E+02  0.50454532988E+03  0.51098130748E+03  0.77658820899E+02 0.  0.
        -13    1    5    5    0    0 -0.42290745182E+02 -0.13158772121E+02  0.44392432543E+03  0.44612830791E+03  0.00000000000E+00 0.  1.
         14    1    5    5    0    0  0.22983791655E+02  0.16585213473E+01  0.60621004453E+02  0.64852999567E+02  0.00000000000E+00 0. -1.
         13    1    3    3    0    0 -0.15868905881E+02 -0.70164609198E+02 -0.17384703939E+03  0.18814273215E+03  0.00000000000E+00 0. -1.
        -14    1    3    3    0    0 -0.10563587310E+01  0.17619603387E+02 -0.75360984544E+01  0.19192683429E+02  0.00000000000E+00 0.  1.
          5    1    4    4  501    0  0.65486701051E+02 -0.17091292721E+01  0.24704405306E+02  0.70137074212E+02  0.41800000000E+01 0.  1.
         -5    1    4    4    0  501 -0.29254482912E+02  0.65754385857E+02 -0.20838594526E+02  0.75041211688E+02  0.41800000000E+01 0.  1.
</event>
<event>
11    1  0.8037748E-009  0.1412526E+03  0.7561462E-02  0.1106168E+00
         22   -1    0    0    0    0  0.00000000000E+00  0.00000000000E+00  0.41224944068E+03  0.41224944068E+03  0.00000000000E+00 0. -1.
         22   -1    0    0    0    0 -0.00000000000E+00 -0.00000000000E+00 -0.86752712190E+03  0.86752712190E+03  0.00000000000E+00 0. -1.
         24    2    1    2    0    0 -0.62016206467E+02 -0.87040992879E+01 -0.75407160883E+03  0.76427813439E+03  0.10758858794E+03 0.  0.
         25    2    1    2    0    0  0.11343686087E+03 -0.33749272739E+02 -0.25911128760E+02  0.17414695175E+03  0.12509532123E+03 0.  0.
        -24    2    1    2    0    0 -0.51420654405E+02  0.42453372027E+02  0.32470505637E+03  0.34135147644E+03  0.81492848398E+02 0.  0.
        -11    1    3    3    0    0 -0.93355773603E+01 -0.55119606543E+01 -0.28564930913E+01  0.11211345489E+02  0.00000000000E+00 0.  1.
         12    1    3    3    0    0 -0.52680629107E+02 -0.31921386337E+01 -0.75121511574E+03  0.75306678890E+03  0.00000000000E+00 0. -1.
         13    1    5    5    0    0 -0.55971880682E+02  0.54001692263E+02  0.17960834470E+03  0.19572478555E+03  0.00000000000E+00 0. -1.
        -14    1    5    5    0    0  0.45512262776E+01 -0.11548320236E+02  0.14509671168E+03  0.14562669089E+03  0.00000000000E+00 0.  1.
          5    1    4    4  501    0  0.12386167151E+03  0.53102851459E+00  0.85902694970E+01  0.12423067572E+03  0.41800000000E+01 0.  1.
         -5    1    4    4    0  501 -0.10424810634E+02 -0.34280301254E+02 -0.34501398257E+02  0.49916276028E+02  0.41800000000E+01 0.  1.
</event>
<event>
11    1  0.8037748E-009  0.2951381E+03  0.7561462E-02  0.1002270E+00
         22   -1    0    0    0    0  0.00000000000E+00  0.00000000000E+00  0.11599914292E+03  0.11599914292E+03  0.00000000000E+00 0. -1.
         22   -1    0    0    0    0 -0.00000000000E+00 -0.00000000000E+00 -0.28242589759E+04  0.28242589759E+04  0.00000000000E+00 0.  1.
        -24    2    1    2    0    0 -0.78169578173E+02 -0.25315768134E+03 -0.22268783093E+04  0.22439560526E+04  0.78437664200E+02 0.  0.
         25    2    1    2    0    0  0.55132465974E+02  0.27462834357E+03 -0.51962099287E+03  0.60341893863E+03  0.12509245927E+03 0.  0.
         24    2    1    2    0    0  0.23037112200E+02 -0.21470662237E+02  0.38239469213E+02  0.92883127535E+02  0.78570481095E+02 0.  0.
        -13    1    5    5    0    0  0.47436914146E+02 -0.32538774791E+02  0.29848406908E+02  0.64807099021E+02  0.00000000000E+00 0.  1.
         14    1    5    5    0    0 -0.24399801946E+02  0.11068112554E+02  0.83910623047E+01  0.28076028514E+02  0.00000000000E+00 0. -1.
         13    1    3    3    0    0 -0.22274561061E+01 -0.12278404024E+03 -0.11551643698E+04  0.11616736217E+04  0.00000000000E+00 0. -1.
        -14    1    3    3    0    0 -0.75942122067E+02 -0.13037364110E+03 -0.10717139395E+04  0.10822824310E+04  0.00000000000E+00 0.  1.
          5    1    4    4  501    0  0.50014888494E+02  0.77362915272E+02 -0.82223518410E+02  0.12355035051E+03  0.41800000000E+01 0. -1.
         -5    1    4    4    0  501  0.51175774798E+01  0.19726542830E+03 -0.43739747446E+03  0.47986858812E+03  0.41800000000E+01 0. -1.
</event>
<event>
11    1  0.8037748E-009  0.1340770E+03  0.7561462E-02  0.1114359E+00
         22   -1    0    0    0    0  0.00000000000E+00  0.00000000000E+00  0.35209291672E+03  0.35209291672E+03  0.00000000000E+00 0. -1.
         22   -1    0    0    0    0 -0.00000000000E+00 -0.00000000000E+00 -0.12672538401E+04  0.12672538401E+04  0.00000000000E+00 0.  1.
        -24    2    1    2    0    0  0.44721686141E+02  0.18230678085E+02 -0.12042628524E+04  0.12079158902E+04  0.80494678415E+02 0.  0.
         25    2    1    2    0    0 -0.35926963495E+02 -0.36619929576E+02  0.28936642941E+02  0.13825934268E+03  0.12508617264E+03 0.  0.
         24    2    1    2    0    0 -0.87947226459E+01  0.18389251492E+02  0.26016528605E+03  0.27317152399E+03  0.80753908492E+02 0.  0.
        -11    1    5    5    0    0  0.33840877057E+02  0.68227231167E+01  0.71425936954E+02  0.79331071974E+02  0.00000000000E+00 0.  1.
         12    1    5    5    0    0 -0.42635599703E+02  0.11566528375E+02  0.18873934909E+03  0.19384045201E+03  0.00000000000E+00 0. -1.
         13    1    3    3    0    0  0.12559203825E+02  0.36165712220E+02 -0.24739818697E+03  0.25034287539E+03  0.00000000000E+00 0. -1.
        -14    1    3    3    0    0  0.32162482316E+02 -0.17935034136E+02 -0.95686466541E+03  0.95757301477E+03  0.00000000000E+00 0.  1.
          5    1    4    4  501    0  0.11708262105E+01 -0.61428272007E+01 -0.47394378741E+02  0.47987547304E+02  0.41800000000E+01 0. -1.
         -5    1    4    4    0  501 -0.37097789706E+02 -0.30477102376E+02  0.76331021682E+02  0.90271795381E+02  0.41800000000E+01 0. -1.
</event>
<event>
11    1  0.8037748E-009  0.1275224E+03  0.7561462E-02  0.1122351E+00
         22   -1    0    0    0    0  0.00000000000E+00  0.00000000000E+00  0.79215102121E+03  0.79215102121E+03  0.00000000000E+00 0.  1.
         22   -1    0    0    0    0 -0.00000000000E+00 -0.00000000000E+00 -0.58163606529E+02  0.58163606529E+02  0.00000000000E+00 0. -1.
         24    2    1    2    0    0  0.27089951092E+02  0.20142844817E+02  0.20600152506E+02  0.88573069960E+02  0.79254165766E+02 0.  0.
         25    2    1    2    0    0 -0.17753273433E+02 -0.40519850770E+02  0.20369926610E+03  0.24313179286E+03  0.12515047210E+03 0.  0.
        -24    2    1    2    0    0 -0.93366776595E+01  0.20377005953E+02  0.50968799608E+03  0.51860976492E+03  0.93122709390E+02 0.  0.
        -13    1    3    3    0    0 -0.22611447168E+02  0.93070914994E+01  0.27994290877E+02  0.37169608780E+02  0.00000000000E+00 0.  1.
         14    1    3    3    0    0  0.49701398260E+02  0.10835753318E+02 -0.73941383704E+01  0.51403461179E+02  0.00000000000E+00 0. -1.
         11    1    5    5    0    0 -0.42795995631E+02 -0.12834861431E+02  0.32231364712E+03  0.32539563308E+03  0.00000000000E+00 0. -1.
        -12    1    5    5    0    0  0.33459317972E+02  0.33211867385E+02  0.18737434896E+03  0.19321413184E+03  0.00000000000E+00 0.  1.
          5    1    4    4  501    0  0.49541595231E+02 -0.12461717681E+02  0.12831852669E+03  0.13817662884E+03  0.41800000000E+01 0.  1.
         -5    1    4    4    0  501 -0.67294868664E+02 -0.28058133090E+02  0.75380739407E+02  0.10495516402E+03  0.41800000000E+01 0.  1.
</event>
<event>
11    1  0.8037748E-009  0.3204824E+03  0.7561462E-02  0.9918769E-01
         22   -1    0    0    0    0  0.00000000000E+00  0.00000000000E+00  0.92638944156E+03  0.92638944156E+03  0.00000000000E+00 0. -1.
         22   -1    0    0    0    0 -0.00000000000E+00 -0.00000000000E+00 -0.10394060496E+04  0.10394060496E+04  0.00000000000E+00 0.  1.
         24    2    1    2    0    0  0.16142019034E+02 -0.64005551565E+01 -0.12568226953E+03  0.14976064866E+03  0.79565615237E+02 0.  0.
         25    2    1    2    0    0 -0.19217713809E+03 -0.23023103971E+03 -0.84511983188E+03  0.90543580356E+03  0.12509228623E+03 0.  0.
        -24    2    1    2    0    0  0.17603511905E+03  0.23663159487E+03  0.85778549335E+03  0.91059903897E+03  0.80073605797E+02 0.  0.
        -13    1    3    3    0    0  0.24032805321E+02  0.19408945890E+02 -0.11759705832E+03  0.12158680454E+03  0.00000000000E+00 0.  1.
         14    1    3    3    0    0 -0.78907862863E+01 -0.25809501047E+02 -0.80852112149E+01  0.28173844127E+02  0.00000000000E+00 0. -1.
         13    1    5    5    0    0  0.46751499221E+02  0.16425403398E+02  0.16349374121E+03  0.17083822749E+03  0.00000000000E+00 0. -1.
        -14    1    5    5    0    0  0.12928361983E+03  0.22020619147E+03  0.69429175213E+03  0.73976081148E+03  0.00000000000E+00 0.  1.
          5    1    4    4  501    0 -0.77178444268E+02 -0.54083108032E+02 -0.42777147270E+03  0.43804954068E+03  0.41800000000E+01 0. -1.
         -5    1    4    4    0  501 -0.11499869382E+03 -0.17614793168E+03 -0.41734835919E+03  0.46738626288E+03  0.41800000000E+01 0. -1.
</event>
<event>
11    1  0.8037748E-009  0.1316390E+03  0.7561462E-02  0.1117271E+00
         22   -1    0    0    0    0  0.00000000000E+00  0.00000000000E+00  0.16112903310E+04  0.16112903310E+04  0.00000000000E+00 0. -1.
         22   -1    0    0    0    0 -0.00000000000E+00 -0.00000000000E+00 -0.55434298085E+03  0.55434298085E+03  0.00000000000E+00 0. -1.
        -24    2    1    2    0    0  0.34548538195E+02  0.20522733836E+02 -0.47920851235E+03  0.48754517072E+03  0.80278957920E+02 0.  0.
         25    2    1    2    0    0 -0.36124968285E+02 -0.45059810888E+02 -0.19207733016E+01  0.13779185761E+03  0.12508999466E+03 0.  0.
         24    2    1    2    0    0  0.15764300893E+01  0.24537077052E+02  0.15380766358E+04  0.15402962835E+04  0.78919896846E+02 0.  0.
        -13    1    5    5    0    0  0.20040119961E+02  0.46640234979E+02  0.76436256957E+03  0.76604637960E+03  0.00000000000E+00 0.  1.
         14    1    5    5    0    0 -0.18463689871E+02 -0.22103157927E+02  0.77371406620E+03  0.77424990388E+03  0.00000000000E+00 0. -1.
         13    1    3    3    0    0  0.30331504217E+02  0.45237771105E+02 -0.41592514289E+03  0.41947607866E+03  0.00000000000E+00 0. -1.
        -14    1    3    3    0    0  0.42170339783E+01 -0.24715037269E+02 -0.63283369462E+02  0.68069092055E+02  0.00000000000E+00 0.  1.
          5    1    4    4  501    0 -0.78171268053E+02 -0.41074256966E+02 -0.21608252175E+02  0.91006761817E+02  0.41800000000E+01 0.  1.
         -5    1    4    4    0  501  0.42046299769E+02 -0.39855539228E+01  0.19687478874E+02  0.46785095797E+02  0.41800000000E+01 0.  1.
</event>
<event>
11    1  0.8037748E-009  0.1587917E+03  0.7561462E-02  0.1088219E+00
         22   -1    0    0    0    0  0.00000000000E+00  0.00000000000E+00  0.13300488650E+04  0.13300488650E+04  0.00000000000E+00 0.  1.
         22   -1    0    0    0    0 -0.00000000000E+00 -0.00000000000E+00 -0.35075082068E+03  0.35075082068E+03  0.00000000000E+00 0. -1.
        -24    2    1    2    0    0 -0.87259363765E+01  0.96179680392E+02 -0.30872801947E+03  0.33587941361E+03  0.90417462888E+02 0.  0.
         25    2    1    2    0    0  0.19434082378E+02 -0.12324401783E+03  0.26576158837E+03  0.31912885762E+03  0.12508890608E+03 0.  0.
         24    2    1    2    0    0 -0.10708146002E+02  0.27064337434E+02  0.10222644754E+04  0.10257914145E+04  0.79851271293E+02 0.  0.
        -13    1    5    5    0    0 -0.38188724557E+02 -0.47934026182E+01  0.65397412559E+03  0.65510572607E+03  0.00000000000E+00 0.  1.
         14    1    5    5    0    0  0.27480578556E+02  0.31857740052E+02  0.36829034985E+03  0.37068568841E+03  0.00000000000E+00 0. -1.
         13    1    3    3    0    0 -0.60257138603E+01  0.57779503301E+02 -0.28455399805E+03  0.29042341165E+03  0.00000000000E+00 0. -1.
        -14    1    3    3    0    0 -0.27002225162E+01  0.38400177091E+02 -0.24174021416E+02  0.45456001954E+02  0.00000000000E+00 0.  1.
          5    1    4    4  501    0  0.63709992020E+02 -0.10547930541E+03  0.15215015792E+03  0.19583664087E+03  0.41800000000E+01 0.  1.
         -5    1    4    4    0  501 -0.44275909642E+02 -0.17764712420E+02  0.11361143044E+03  0.12329221674E+03  0.41800000000E+01 0.  1.
</event>
<event>
11    1  0.9599928E-009  0.2011817E+03  0.7561462E-02  0.1053691E+00
         22   -1    0    0    0    0  0.00000000000E+00  0.00000000000E+00  0.15153361787E+04  0.15153361787E+04  0.00000000000E+00 0.  1.
         22   -1    0    0    0    0 -0.00000000000E+00 -0.00000000000E+00 -0.12664934180E+04  0.12664934180E+04  0.00000000000E+00 0. -1.
         24    2    1    2    0    0 -0.24273782228E+02 -0.14369067576E+03 -0.84057949838E+03  0.85744833022E+03  0.86066945434E+02 0.  0.
         25    2    1    2    0    0  0.84034210666E+02  0.19669289656E+03 -0.37837129165E+03  0.45228628458E+03  0.12509278460E+03 0.  0.
        -24    2    1    2    0    0 -0.59760428438E+02 -0.53002220792E+02  0.14677935507E+04  0.14720949818E+04  0.79152914539E+02 0.  0.
        -11    1    3    3    0    0 -0.32446916653E+02 -0.69812856164E+02 -0.23415637478E+03  0.24648700805E+03  0.00000000000E+00 0.  1.
         12    1    3    3    0    0  0.81731344253E+01 -0.73877819601E+02 -0.60642312359E+03  0.61096132217E+03  0.00000000000E+00 0. -1.
         13    1    5    5    0    0  0.52475169527E+01 -0.27896338900E+00  0.62883408732E+01  0.81949670945E+01  0.00000000000E+00 0. -1.
        -14    1    5    5    0    0 -0.65007945391E+02 -0.52723257403E+02  0.14615052098E+04  0.14639000147E+04  0.00000000000E+00 0.  1.
          5    1    4    4  501    0 -0.15604654248E+02  0.10633031990E+03 -0.21679282599E+03  0.24200463625E+03  0.41800000000E+01 0. -1.
         -5    1    4    4    0  501  0.99638864914E+02  0.90362576661E+02 -0.16157846566E+03  0.21028164833E+03  0.41800000000E+01 0. -1.
</event>
<event>
11    1  0.8037748E-009  0.1494167E+03  0.7561462E-02  0.1097476E+00
         22   -1    0    0    0    0  0.00000000000E+00  0.00000000000E+00  0.14955075039E+03  0.14955075039E+03  0.00000000000E+00 0. -1.
         22   -1    0    0    0    0 -0.00000000000E+00 -0.00000000000E+00 -0.52494679616E+03  0.52494679616E+03  0.00000000000E+00 0. -1.
         24    2    1    2    0    0 -0.16610238022E+02  0.27851720059E+02 -0.29924396858E+03  0.31019303405E+03  0.74974311101E+02 0.  0.
         25    2    1    2    0    0  0.90268820365E+02  0.62014310665E+01 -0.15930499306E+03  0.22183775340E+03  0.12508793046E+03 0.  0.
        -24    2    1    2    0    0 -0.73658582343E+02 -0.34053151126E+02  0.83152915859E+02  0.14246675910E+03  0.82444928149E+02 0.  0.
        -13    1    3    3    0    0 -0.20131361289E+02  0.23150749137E+02 -0.37801139156E+02  0.48684237844E+02  0.00000000000E+00 0.  1.
         14    1    3    3    0    0  0.35211232673E+01  0.47009709224E+01 -0.26144282942E+03  0.26150879621E+03  0.00000000000E+00 0. -1.
         13    1    5    5    0    0 -0.42973087966E+02  0.14582893965E+02  0.70084272808E+02  0.83493427171E+02  0.00000000000E+00 0. -1.
        -14    1    5    5    0    0 -0.30685494377E+02 -0.48636045091E+02  0.13068643051E+02  0.58973331926E+02  0.00000000000E+00 0.  1.
          5    1    4    4  501    0  0.11149095398E+03  0.35934684557E+02 -0.12786382659E+03  0.17345940425E+03  0.41800000000E+01 0.  1.
         -5    1    4    4    0  501 -0.21222133611E+02 -0.29733253491E+02 -0.31441166469E+02  0.48378349156E+02  0.41800000000E+01 0.  1.
</event>
<event>
11    1  0.8037748E-009  0.1871283E+03  0.7561462E-02  0.1064018E+00
         22   -1    0    0    0    0  0.00000000000E+00  0.00000000000E+00  0.86485725618E+03  0.86485725618E+03  0.00000000000E+00 0. -1.
         22   -1    0    0    0    0 -0.00000000000E+00 -0.00000000000E+00 -0.18776755439E+03  0.18776755439E+03  0.00000000000E+00 0.  1.
        -24    2    1    2    0    0 -0.17893518508E+02  0.88127174772E+01 -0.12401883525E+03  0.14948339925E+03  0.81035628961E+02 0.  0.
         25    2    1    2    0    0 -0.62985181482E+01 -0.14469501737E+03  0.18318981976E+03  0.26491987220E+03  0.12509080397E+03 0.  0.
         24    2    1    2    0    0  0.24192036656E+02  0.13588229990E+03  0.61791871728E+03  0.63822153911E+03  0.80336403673E+02 0.  0.
        -11    1    5    5    0    0 -0.15728448361E+02  0.10719887509E+03  0.37293979251E+03  0.38835946202E+03  0.00000000000E+00 0.  1.
         12    1    5    5    0    0  0.39920485017E+02  0.28683424810E+02  0.24497892478E+03  0.24986207709E+03  0.00000000000E+00 0. -1.
         13    1    3    3    0    0 -0.46820323722E+02 -0.93834348441E+00 -0.10074452149E+03  0.11109672277E+03  0.00000000000E+00 0. -1.
        -14    1    3    3    0    0  0.28926805214E+02  0.97510609617E+01 -0.23274313768E+02  0.38386676479E+02  0.00000000000E+00 0.  1.
          5    1    4    4  501    0  0.47826047063E+02 -0.12035226031E+03  0.14380971252E+03  0.19357350841E+03  0.41800000000E+01 0.  1.
         -5    1    4    4    0  501 -0.54124565211E+02 -0.24342757061E+02  0.39380107234E+02  0.71346363792E+02  0.41800000000E+01 0.  1.
</event>
<event>
11    1  0.8037748E-009  0.1775105E+03  0.7561462E-02  0.1071675E+00
         22   -1    0    0    0    0  0.00000000000E+00  0.00000000000E+00  0.17691988873E+04  0.17691988873E+04  0.00000000000E+00 0.  1.
         22   -1    0    0    0    0 -0.00000000000E+00 -0.00000000000E+00 -0.53969375259E+03  0.53969375259E+03  0.00000000000E+00 0. -1.
         24    2    1    2    0    0 -0.66758610027E+02  0.10815427197E+03 -0.48723232817E+03  0.50851325208E+03  0.70967086465E+02 0.  0.
         25    2    1    2    0    0  0.11706182681E+02 -0.11689282502E+03  0.14236500081E+03  0.22297043174E+03  0.12508817978E+03 0.  0.
        -24    2    1    2    0    0  0.55052427346E+02  0.87385530475E+01  0.15743724621E+04  0.15774089561E+04  0.80394236905E+02 0.  0.
        -11    1    3    3    0    0  0.10322837019E+02  0.43367507506E+02 -0.16490630213E+03  0.17082561329E+03  0.00000000000E+00 0.  1.
         12    1    3    3    0    0 -0.77081447046E+02  0.64786764465E+02 -0.32232602604E+03  0.33768763879E+03  0.00000000000E+00 0. -1.
         11    1    5    5    0    0  0.11250114063E+02 -0.33121699675E+02  0.42321835831E+03  0.42466150151E+03  0.00000000000E+00 0. -1.
        -12    1    5    5    0    0  0.43802313283E+02  0.41860252723E+02  0.11511541038E+04  0.11527474546E+04  0.00000000000E+00 0.  1.
          5    1    4    4  501    0  0.17129787950E+02 -0.13442342289E+03  0.79094714890E+02  0.15696028982E+03  0.41800000000E+01 0.  1.
         -5    1    4    4    0  501 -0.54236052691E+01  0.17530597870E+02  0.63270285923E+02  0.66010141922E+02  0.41800000000E+01 0.  1.
</event>
<event>
11    1  0.8037748E-009  0.1346457E+03  0.7561462E-02  0.1113689E+00
         22   -1    0    0    0    0  0.00000000000E+00  0.00000000000E+00  0.10090110105E+04  0.10090110105E+04  0.00000000000E+00 0. -1.
         22   -1    0    0    0    0 -0.00000000000E+00 -0.00000000000E+00 -0.19561316882E+04  0.19561316882E+04  0.00000000000E+00 0.  1.
         24    2    1    2    0    0  0.42988742137E+02 -0.24014047323E+02 -0.18304821308E+04  0.18328111956E+04  0.78149480148E+02 0.  0.
         25    2    1    2    0    0 -0.54406676159E+02  0.47916309087E+02 -0.80047735367E+02  0.16526133515E+03  0.12509040680E+03 0.  0.
        -24    2    1    2    0    0  0.11417934023E+02 -0.23902261763E+02  0.96340918842E+03  0.96707016790E+03  0.79785700309E+02 0.  0.
        -13    1    3    3    0    0  0.13814954743E+02  0.33226189337E+01 -0.14781042344E+04  0.14781725274E+04  0.00000000000E+00 0.  1.
         14    1    3    3    0    0  0.29173787394E+02 -0.27336666257E+02 -0.35237789633E+03  0.35463866825E+03  0.00000000000E+00 0. -1.
         11    1    5    5    0    0  0.25333138938E+02 -0.88482252411E+01  0.90060906501E+03  0.90100873858E+03  0.00000000000E+00 0. -1.
        -12    1    5    5    0    0 -0.13915204915E+02 -0.15054036522E+02  0.62800123410E+02  0.66061429320E+02  0.00000000000E+00 0.  1.
          5    1    4    4  501    0  0.86836971869E+01  0.33699296616E+02  0.24142327019E+02  0.42560234294E+02  0.41800000000E+01 0. -1.
         -5    1    4    4    0  501 -0.63090373346E+02  0.14217012471E+02 -0.10419006239E+03  0.12270110086E+03  0.41800000000E+01 0. -1.
</event>
<event>
11    1  0.8037748E-009  0.1241635E+04  0.7561462E-02  0.8478010E-01
         22   -1    0    0    0    0  0.00000000000E+00  0.00000000000E+00  0.12075950824E+04  0.12075950824E+04  0.00000000000E+00 0.  1.
         22   -1    0    0    0    0 -0.00000000000E+00 -0.00000000000E+00 -0.31915851540E+03  0.31915851540E+03  0.00000000000E+00 0.  1.
        -24    2    1    2    0    0 -0.15534863480E+03  0.43404225552E+02  0.30743298736E+00  0.18007593960E+03  0.80063252364E+02 0.  0.
         25    2    1    2    0    0  0.52653853588E+03 -0.22469524284E+03  0.58503319374E+03  0.82803512999E+03  0.12509019465E+03 0.  0.
         24    2    1    2    0    0 -0.37118990108E+03  0.18129101729E+03  0.30309594024E+03  0.51864252817E+03  0.80464572436E+02 0.  0.
        -13    1    5    5    0    0 -0.24224531239E+03  0.14446242376E+03  0.16801271688E+03  0.32829933945E+03  0.00000000000E+00 0.  1.
         14    1    5    5    0    0 -0.12894458869E+03  0.36828593528E+02  0.13508322337E+03  0.19034318872E+03  0.00000000000E+00 0. -1.
         13    1    3    3    0    0 -0.14656655339E+03  0.58587913099E+02 -0.12530593622E+02  0.15833923680E+03  0.00000000000E+00 0. -1.
        -14    1    3    3    0    0 -0.87820814042E+01 -0.15183687547E+02  0.12838026609E+02  0.21736702798E+02  0.00000000000E+00 0.  1.
          5    1    4    4  501    0  0.23944567853E+03 -0.62443841153E+02  0.18166798945E+03  0.30700846414E+03  0.41800000000E+01 0.  1.
         -5    1    4    4    0  501  0.28709285735E+03 -0.16225140169E+03  0.40336520429E+03  0.52102666585E+03  0.41800000000E+01 0.  1.
</event>
<event>
11    1  0.8171207E-009  0.1823092E+03  0.7561462E-02  0.1067790E+00
         22   -1    0    0    0    0  0.00000000000E+00  0.00000000000E+00  0.15219348932E+03  0.15219348932E+03  0.00000000000E+00 0. -1.
         22   -1    0    0    0    0 -0.00000000000E+00 -0.00000000000E+00 -0.15539814869E+04  0.15539814869E+04  0.00000000000E+00 0.  1.
        -24    2    1    2    0    0  0.29121344083E+02 -0.21914434747E+02 -0.10835933778E+04  0.10881107396E+04  0.92098198499E+02 0.  0.
         25    2    1    2    0    0 -0.15882796948E+03  0.22689819717E+02 -0.39724757576E+03  0.44631228700E+03  0.12509144367E+03 0.  0.
         24    2    1    2    0    0  0.12970662540E+03 -0.77538496958E+00  0.79052955977E+02  0.17175194957E+03  0.80155801032E+02 0.  0.
        -13    1    5    5    0    0  0.42536217203E+02  0.22345095897E+02 -0.52075662246E+01  0.48329616495E+02  0.00000000000E+00 0.  1.
         14    1    5    5    0    0  0.87170408195E+02 -0.23120480867E+02  0.84260522202E+02  0.12342233308E+03  0.00000000000E+00 0. -1.
         11    1    3    3    0    0  0.19155903578E+02  0.88309899865E+00 -0.41455393251E+02  0.45675793757E+02  0.00000000000E+00 0. -1.
        -12    1    3    3    0    0  0.99654405045E+01 -0.22797533746E+02 -0.10421379845E+04  0.10424349458E+04  0.00000000000E+00 0.  1.
          5    1    4    4  501    0 -0.15532496950E+03 -0.19256909485E+02 -0.26875247402E+03  0.31103382357E+03  0.41800000000E+01 0. -1.
         -5    1    4    4    0  501 -0.35029999845E+01  0.41946729202E+02 -0.12849510174E+03  0.13527846344E+03  0.41800000000E+01 0. -1.
</event>
<event>
11    1  0.8037748E-009  0.1501306E+03  0.7561462E-02  0.1096745E+00
         22   -1    0    0    0    0  0.00000000000E+00  0.00000000000E+00  0.16535190578E+03  0.16535190578E+03  0.00000000000E+00 0.  1.
         22   -1    0    0    0    0 -0.00000000000E+00 -0.00000000000E+00 -0.11016414551E+04  0.11016414551E+04  0.00000000000E+00 0. -1.
         24    2    1    2    0    0  0.15604520517E+02  0.80332072409E+02 -0.96746661563E+03  0.97449978602E+03  0.83435230356E+02 0.  0.
         25    2    1    2    0    0 -0.17793610574E+02 -0.10084218564E+03 -0.56294752033E+02  0.17117786668E+03  0.12508798485E+03 0.  0.
        -24    2    1    2    0    0  0.21890900574E+01  0.20510113234E+02  0.87471818321E+02  0.12131570820E+03  0.81490644834E+02 0.  0.
        -13    1    3    3    0    0 -0.15948881554E+02 -0.69839333679E+01 -0.65751593069E+02  0.68017748708E+02  0.00000000000E+00 0.  1.
         14    1    3    3    0    0  0.31553402071E+02  0.87316005777E+02 -0.90171502256E+03  0.90648203731E+03  0.00000000000E+00 0. -1.
         11    1    5    5    0    0  0.80974554894E+01  0.26388023217E+02 -0.53536414633E+01  0.28116863829E+02  0.00000000000E+00 0. -1.
        -12    1    5    5    0    0 -0.59083654321E+01 -0.58779099828E+01  0.92825459784E+02  0.93198844370E+02  0.00000000000E+00 0.  1.
          5    1    4    4  501    0 -0.29528531570E+02 -0.43296974185E+02 -0.89339248926E+02  0.10366067697E+03  0.41800000000E+01 0. -1.
         -5    1    4    4    0  501  0.11734920996E+02 -0.57545211458E+02  0.33044496893E+02  0.67517189718E+02  0.41800000000E+01 0. -1.
</event>
<event>
11    1  0.8037748E-009  0.1939958E+03  0.7561462E-02  0.1058853E+00
         22   -1    0    0    0    0  0.00000000000E+00  0.00000000000E+00  0.37091814694E+03  0.37091814694E+03  0.00000000000E+00 0. -1.
         22   -1    0    0    0    0 -0.00000000000E+00 -0.00000000000E+00 -0.70833737600E+03  0.70833737600E+03  0.00000000000E+00 0.  1.
        -24    2    1    2    0    0  0.38946139525E+02 -0.97648744754E+01 -0.45353354550E+03  0.46231555456E+03  0.80192521712E+02 0.  0.
         25    2    1    2    0    0 -0.16937503252E+02 -0.13828002098E+03 -0.18854604693E+03  0.26571565251E+03  0.12508778102E+03 0.  0.
         24    2    1    2    0    0 -0.22008636274E+02  0.14804489546E+03  0.30466036337E+03  0.35122431587E+03  0.90215918264E+02 0.  0.
        -11    1    5    5    0    0 -0.20044400344E+02 -0.57872318981E+01  0.33700760505E+02  0.39635984873E+02  0.00000000000E+00 0.  1.
         12    1    5    5    0    0 -0.19642359302E+01  0.15383212735E+03  0.27095960286E+03  0.31158833100E+03  0.00000000000E+00 0. -1.
         11    1    3    3    0    0  0.90780604102E+01  0.77448073276E+01 -0.58400391754E+01  0.13285303117E+02  0.00000000000E+00 0. -1.
        -12    1    3    3    0    0  0.29868079115E+02 -0.17509681803E+02 -0.44769350632E+03  0.44903025144E+03  0.00000000000E+00 0.  1.
          5    1    4    4  501    0 -0.22079588346E+02 -0.10115287912E+03 -0.37759858102E+02  0.11028459756E+03  0.41800000000E+01 0.  1.
         -5    1    4    4    0  501  0.51420850942E+01 -0.37127141859E+02 -0.15078618883E+03  0.15543105495E+03  0.41800000000E+01 0.  1.
</event>
<event>
11    1  0.9560111E-009  0.2192207E+03  0.7561462E-02  0.1041707E+00
         22   -1    0    0    0    0  0.00000000000E+00  0.00000000000E+00  0.17341302670E+04  0.17341302670E+04  0.00000000000E+00 0.  1.
         22   -1    0    0    0    0 -0.00000000000E+00 -0.00000000000E+00 -0.57335957772E+03  0.57335957772E+03  0.00000000000E+00 0.  1.
         24    2    1    2    0    0 -0.30013434564E+02 -0.42805069341E+02 -0.40613986616E+03  0.41731466423E+03  0.80429210371E+02 0.  0.
         25    2    1    2    0    0 -0.14139394490E+03 -0.17107366987E+02 -0.98038129296E+02  0.21341050889E+03  0.12509061056E+03 0.  0.
        -24    2    1    2    0    0  0.17140737946E+03  0.59912436327E+02  0.16649486847E+04  0.16767646716E+04  0.80719584526E+02 0.  0.
        -13    1    3    3    0    0 -0.29429984252E+02 -0.52841051423E+02 -0.40186400461E+03  0.40639018060E+03  0.00000000000E+00 0.  1.
         14    1    3    3    0    0 -0.58345031190E+00  0.10035982082E+02 -0.42758615567E+01  0.10924483634E+02  0.00000000000E+00 0. -1.
         11    1    5    5    0    0  0.47054473128E+02 -0.18699790212E+02  0.35831583746E+03  0.36187573139E+03  0.00000000000E+00 0. -1.
        -12    1    5    5    0    0  0.12435290633E+03  0.78612226539E+02  0.13066328473E+04  0.13148889402E+04  0.00000000000E+00 0.  1.
          5    1    4    4  501    0 -0.12223692470E+03 -0.64495673580E+02 -0.71011658543E+02  0.15544029631E+03  0.41800000000E+01 0. -1.
         -5    1    4    4    0  501 -0.19157020202E+02  0.47388306593E+02 -0.27026470753E+02  0.57970212577E+02  0.41800000000E+01 0. -1.
</event>
<event>
11    1  0.8037748E-009  0.1288790E+03  0.7561462E-02  0.1120654E+00
         22   -1    0    0    0    0  0.00000000000E+00  0.00000000000E+00  0.17153151639E+04  0.17153151639E+04  0.00000000000E+00 0. -1.
         22   -1    0    0    0    0 -0.00000000000E+00 -0.00000000000E+00 -0.66799772827E+02  0.66799772827E+02  0.00000000000E+00 0. -1.
         24    2    1    2    0    0 -0.37466021240E+01 -0.17658252320E+01 -0.55706852836E+01  0.81859929911E+02  0.81565068653E+02 0.  0.
         25    2    1    2    0    0  0.34423834026E+02  0.45629021908E+01  0.17143904684E+03  0.21504580111E+03  0.12509008501E+03 0.  0.
        -24    2    1    2    0    0 -0.30677231902E+02 -0.27970769588E+01  0.14826470296E+04  0.14852092058E+04  0.81579742461E+02 0.  0.
        -13    1    3    3    0    0  0.28599978351E+02 -0.20328820497E+02  0.16230458906E+02  0.38660671241E+02  0.00000000000E+00 0.  1.
         14    1    3    3    0    0 -0.32346580475E+02  0.18562995265E+02 -0.21801144190E+02  0.43199258670E+02  0.00000000000E+00 0. -1.
         11    1    5    5    0    0 -0.47914649526E+02  0.16892880460E+02  0.12609376544E+04  0.12619607566E+04  0.00000000000E+00 0. -1.
        -12    1    5    5    0    0  0.17237417625E+02 -0.19689957419E+02  0.22170937518E+03  0.22324844911E+03  0.00000000000E+00 0.  1.
          5    1    4    4  501    0 -0.19254497776E+02 -0.28552147141E+02  0.26293997415E+01  0.34790040730E+02  0.41800000000E+01 0.  1.
         -5    1    4    4    0  501  0.53678331801E+02  0.33115049332E+02  0.16880964710E+03  0.18025576038E+03  0.41800000000E+01 0.  1.
</event>
<event>
11    1  0.8037748E-009  0.1565722E+03  0.7561462E-02  0.1090346E+00
         22   -1    0    0    0    0  0.00000000000E+00  0.00000000000E+00  0.54508298898E+03  0.54508298898E+03  0.00000000000E+00 0. -1.
         22   -1    0    0    0    0 -0.00000000000E+00 -0.00000000000E+00 -0.12709578966E+04  0.12709578966E+04  0.00000000000E+00 0.  1.
        -24    2    1    2    0    0  0.68337659482E+02  0.54638938970E+02 -0.62617461796E+03  0.63740945237E+03  0.80874646456E+02 0.  0.
         25    2    1    2    0    0  0.18660063858E+02 -0.91978830062E+02 -0.62215124222E+03  0.64149913250E+03  0.12506264685E+03 0.  0.
         24    2    1    2    0    0 -0.86997723341E+02  0.37339891092E+02  0.52245095254E+03  0.53713230073E+03  0.81198764420E+02 0.  0.
        -11    1    5    5    0    0 -0.17487992527E+02  0.43191654008E+02  0.12092996182E+03  0.12959708533E+03  0.00000000000E+00 0.  1.
         12    1    5    5    0    0 -0.69509730814E+02 -0.58517629160E+01  0.40152099072E+03  0.40753521540E+03  0.00000000000E+00 0. -1.
         11    1    3    3    0    0  0.75650318387E+02  0.15449070705E+02 -0.35335182370E+03  0.36168930834E+03  0.00000000000E+00 0. -1.
        -12    1    3    3    0    0 -0.73126589047E+01  0.39189868265E+02 -0.27282279426E+03  0.27572014403E+03  0.00000000000E+00 0.  1.
          5    1    4    4  501    0  0.69031809955E+02 -0.38679376231E+02 -0.25330537668E+03  0.26541019420E+03  0.41800000000E+01 0. -1.
         -5    1    4    4    0  501 -0.50371746096E+02 -0.53299453831E+02 -0.36884586554E+03  0.37608893830E+03  0.41800000000E+01 0. -1.
</event>
<event>
11    1  0.8037748E-009  0.2939496E+03  0.7561462E-02  0.1002785E+00
         22   -1    0    0    0    0  0.00000000000E+00  0.00000000000E+00  0.19708212414E+04  0.19708212414E+04  0.00000000000E+00 0. -1.
         22   -1    0    0    0    0 -0.00000000000E+00 -0.00000000000E+00 -0.77393467880E+02  0.77393467880E+02  0.00000000000E+00 0. -1.
         24    2    1    2    0    0  0.44863281159E+02 -0.26354590193E+03  0.40650232353E+03  0.49341416328E+03  0.82123328421E+02 0.  0.
         25    2    1    2    0    0  0.65005133146E+02  0.26423026270E+03  0.12049599888E+04  0.12416188597E+04  0.12508204919E+03 0.  0.
        -24    2    1    2    0    0 -0.10986841431E+03 -0.68436076642E+00  0.28196546119E+03  0.31318168632E+03  0.80664183708E+02 0.  0.
        -13    1    3    3    0    0 -0.81147629558E+01  0.22718725475E+01  0.15681684147E+02  0.17802415577E+02  0.00000000000E+00 0.  1.
         14    1    3    3    0    0  0.52978044115E+02 -0.26581777448E+03  0.39082063938E+03  0.47561174770E+03  0.00000000000E+00 0. -1.
         13    1    5    5    0    0  0.23816282283E+01 -0.88427394340E+01 -0.44773198343E+00  0.91687871414E+01  0.00000000000E+00 0. -1.
        -14    1    5    5    0    0 -0.11225004253E+03  0.81583786676E+01  0.28241319317E+03  0.30401289918E+03  0.00000000000E+00 0.  1.
          5    1    4    4  501    0  0.61252423806E+02  0.35979289266E+02  0.28577467381E+03  0.29450128228E+03  0.41800000000E+01 0. -1.
         -5    1    4    4    0  501  0.37527093403E+01  0.22825097343E+03  0.91918531499E+03  0.94711757739E+03  0.41800000000E+01 0. -1.
</event>
<event>
11    1  0.8037748E-009  0.2001822E+03  0.7561462E-02  0.1054395E+00
         22   -1    0    0    0    0  0.00000000000E+00  0.00000000000E+00  0.41632800952E+03  0.41632800952E+03  0.00000000000E+00 0.  1.
         22   -1    0    0    0    0 -0.00000000000E+00 -0.00000000000E+00 -0.54863065492E+03  0.54863065492E+03  0.00000000000E+00 0.  1.
         24    2    1    2    0    0  0.14646538424E+03 -0.80748984695E+02 -0.42880722339E+03  0.46785229180E+03  0.83890552516E+02 0.  0.
         25    2    1    2    0    0 -0.76105665755E+02  0.89480626631E+02 -0.10488877222E+02  0.17192447769E+03  0.12509658102E+03 0.  0.
        -24    2    1    2    0    0 -0.70359718483E+02 -0.87316419368E+01  0.30699345521E+03  0.32518189495E+03  0.80445955158E+02 0.  0.
        -11    1    3    3    0    0  0.90606740561E+02 -0.60349968912E+02 -0.36384134479E+03  0.37977917842E+03  0.00000000000E+00 0.  1.
         12    1    3    3    0    0  0.55858643678E+02 -0.20399015782E+02 -0.64965878608E+02  0.88073113387E+02  0.00000000000E+00 0. -1.
         13    1    5    5    0    0  0.96160899357E+01  0.72475985896E+01  0.62314270030E+01  0.13558302012E+02  0.00000000000E+00 0. -1.
        -14    1    5    5    0    0 -0.79975808419E+02 -0.15979240526E+02  0.30076202821E+03  0.31162359293E+03  0.00000000000E+00 0.  1.
          5    1    4    4  501    0  0.33821060538E+02  0.29003697073E+02  0.65949588583E+01  0.45233222992E+02  0.41800000000E+01 0. -1.
         -5    1    4    4    0  501 -0.10992672629E+03  0.60476929558E+02 -0.17083836080E+02  0.12669125470E+03  0.41800000000E+01 0. -1.
</event>
<event>
11    1  0.8037748E-009  0.1365693E+03  0.7561462E-02  0.1111451E+00
         22   -1    0    0    0    0  0.00000000000E+00  0.00000000000E+00  0.46824092998E+03  0.46824092998E+03  0.00000000000E+00 0.  1.
         22   -1    0    0    0    0 -0.00000000000E+00 -0.00000000000E+00 -0.37270276280E+03  0.37270276280E+03  0.00000000000E+00 0.  1.
         24    2    1    2    0    0 -0.37900372714E+02  0.86926556608E+01 -0.33072434737E+03  0.34215762209E+03  0.78620887178E+02 0.  0.
         25    2    1    2    0    0 -0.24199021932E+02  0.46153975043E+01  0.11620867184E+03  0.17250600398E+03  0.12508785489E+03 0.  0.
        -24    2    1    2    0    0  0.62099394646E+02 -0.13308053165E+02  0.31005384271E+03  0.32628006671E+03  0.79321229547E+02 0.  0.
        -11    1    3    3    0    0 -0.23011844410E+02  0.41945744282E+02 -0.13903330503E+03  0.14703486101E+03  0.00000000000E+00 0.  1.
         12    1    3    3    0    0 -0.14888528304E+02 -0.33253088621E+02 -0.19169104234E+03  0.19512276108E+03  0.00000000000E+00 0. -1.
         13    1    5    5    0    0  0.17547638973E+02 -0.52194659302E+01  0.65911062154E+01  0.19457778374E+02  0.00000000000E+00 0. -1.
        -14    1    5    5    0    0  0.44551755673E+02 -0.80885872349E+01  0.30346273650E+03  0.30682228834E+03  0.00000000000E+00 0.  1.
          5    1    4    4  501    0 -0.49424505637E+02  0.41097421769E+02  0.11007237831E+03  0.12753501754E+03  0.41800000000E+01 0.  1.
         -5    1    4    4    0  501  0.25225483705E+02 -0.36482024264E+02  0.61362935330E+01  0.44970986435E+02  0.41800000000E+01 0.  1.
</event>
<event>
11    1  0.8037748E-009  0.2262814E+03  0.7561462E-02  0.1037352E+00
         22   -1    0    0    0    0  0.00000000000E+00  0.00000000000E+00  0.61307765837E+03  0.61307765837E+03  0.00000000000E+00 0. -1.
         22   -1    0    0    0    0 -0.00000000000E+00 -0.00000000000E+00 -0.34190410344E+03  0.34190410344E+03  0.00000000000E+00 0.  1.
         24    2    1    2    0    0  0.64850928558E+02  0.40068567389E+02 -0.13154020257E+03  0.17310252030E+03  0.82767896033E+02 0.  0.
         25    2    1    2    0    0 -0.89422175330E+02  0.15020544803E+03 -0.10047799629E+03  0.23727050906E+03  0.12507383690E+03 0.  0.
        -24    2    1    2    0    0  0.24571246772E+02 -0.19027401541E+03  0.50319175379E+03  0.54460873244E+03  0.81171320470E+02 0.  0.
        -13    1    3    3    0    0  0.83665327353E+02  0.34833893738E+02 -0.12014211433E+03  0.15049058040E+03  0.00000000000E+00 0.  1.
         14    1    3    3    0    0 -0.18814398795E+02  0.52346736511E+01 -0.11398088235E+02  0.22611939891E+02  0.00000000000E+00 0. -1.
         11    1    5    5    0    0  0.17816789232E+02 -0.19609949500E+03  0.45782634616E+03  0.49837477179E+03  0.00000000000E+00 0. -1.
        -12    1    5    5    0    0  0.67544575398E+01  0.58254795810E+01  0.45365407620E+02  0.46233960652E+02  0.00000000000E+00 0.  1.
          5    1    4    4  501    0 -0.10282217981E+03  0.10806334755E+03 -0.11726507944E+03  0.18978582402E+03  0.41800000000E+01 0. -1.
         -5    1    4    4    0  501  0.13400004479E+02  0.42142100477E+02  0.16787083151E+02  0.47484685040E+02  0.41800000000E+01 0. -1.
</event>
<event>
11    1  0.8037748E-009  0.1806841E+03  0.7561462E-02  0.1069091E+00
         22   -1    0    0    0    0  0.00000000000E+00  0.00000000000E+00  0.43241074574E+03  0.43241074574E+03  0.00000000000E+00 0. -1.
         22   -1    0    0    0    0 -0.00000000000E+00 -0.00000000000E+00 -0.43977558231E+03  0.43977558231E+03  0.00000000000E+00 0.  1.
         24    2    1    2    0    0 -0.43380255076E+02  0.14857644905E+02 -0.23581932175E+03  0.25320194916E+03  0.79986738930E+02 0.  0.
         25    2    1    2    0    0 -0.73776517929E+02 -0.77494092231E+02 -0.14196396047E+03  0.21736982672E+03  0.12509023370E+03 0.  0.
        -24    2    1    2    0    0  0.11715677300E+03  0.62636447326E+02  0.37041844565E+03  0.40161455217E+03  0.80220880299E+02 0.  0.
        -13    1    3    3    0    0 -0.43953736646E+02 -0.21030594471E+02 -0.18275099193E+03  0.18913524770E+03  0.00000000000E+00 0.  1.
         14    1    3    3    0    0  0.57348157046E+00  0.35888239376E+02 -0.53068329819E+02  0.64066701464E+02  0.00000000000E+00 0. -1.
         11    1    5    5    0    0  0.80421565030E+02  0.43947484463E+02  0.33487617549E+03  0.34719023952E+03  0.00000000000E+00 0. -1.
        -12    1    5    5    0    0  0.36735207975E+02  0.18688962864E+02  0.35542270168E+02  0.54424312642E+02  0.00000000000E+00 0.  1.
          5    1    4    4  501    0 -0.72923988141E+02 -0.49507864912E+02 -0.16076231954E+03  0.18338738375E+03  0.41800000000E+01 0.  1.
         -5    1    4    4    0  501 -0.85252978812E+00 -0.27986227319E+02  0.18798359069E+02  0.33982442971E+02  0.41800000000E+01 0.  1.
</event>
<event>
11    1  0.8037748E-009  0.1583012E+03  0.7561462E-02  0.1088686E+00
         22   -1    0    0    0    0  0.00000000000E+00  0.00000000000E+00  0.25507888492E+04  0.25507888492E+04  0.00000000000E+00 0. -1.
         22   -1    0    0    0    0 -0.00000000000E+00 -0.00000000000E+00 -0.55846561489E+03  0.55846561489E+03  0.00000000000E+00 0.  1.
         24    2    1    2    0    0  0.88332327041E+02  0.39458144898E+02 -0.53829384417E+03  0.55273896528E+03  0.80003474091E+02 0.  0.
         25    2    1    2    0    0 -0.15627458563E+03  0.24368254568E+02  0.95489599654E+03  0.97595565453E+03  0.12509003739E+03 0.  0.
        -24    2    1    2    0    0  0.67942258592E+02 -0.63826399466E+02  0.15757210819E+04  0.15805598443E+04  0.81132814135E+02 0.  0.
        -13    1    3    3    0    0  0.51209469681E+02  0.60823384594E+02 -0.28651181290E+03  0.29733972629E+03  0.00000000000E+00 0.  1.
         14    1    3    3    0    0  0.37122857360E+02 -0.21365239696E+02 -0.25178203127E+03  0.25539923899E+03  0.00000000000E+00 0. -1.
         11    1    5    5    0    0  0.26131120335E+02  0.13744660670E+02  0.64526822776E+03  0.64594336973E+03  0.00000000000E+00 0. -1.
        -12    1    5    5    0    0  0.41811138257E+02 -0.77571060136E+02  0.93045285415E+03  0.93461647452E+03  0.00000000000E+00 0.  1.
          5    1    4    4  501    0 -0.69812023489E+02  0.63303275156E+02  0.64464147339E+03  0.65150681108E+03  0.41800000000E+01 0. -1.
         -5    1    4    4    0  501 -0.86462562144E+02 -0.38935020588E+02  0.31025452314E+03  0.32444884344E+03  0.41800000000E+01 0. -1.
</event>
<event>
11    1  0.8037748E-009  0.5763422E+03  0.7561462E-02  0.9237451E-01
         22   -1    0    0    0    0  0.00000000000E+00  0.00000000000E+00  0.27404213882E+04  0.27404213882E+04  0.00000000000E+00 0. -1.
         22   -1    0    0    0    0 -0.00000000000E+00 -0.00000000000E+00 -0.33377118665E+03  0.33377118665E+03  0.00000000000E+00 0. -1.
        -24    2    1    2    0    0 -0.30986117879E+02  0.99835585215E+01 -0.17262660380E+03  0.19321889862E+03  0.80459850248E+02 0.  0.
         25    2    1    2    0    0 -0.28147700149E+03 -0.48063341642E+03  0.63073423078E+03  0.85071211028E+03  0.12509053264E+03 0.  0.
         24    2    1    2    0    0  0.31246311937E+03  0.47064985789E+03  0.19485425746E+04  0.20302615660E+04  0.77455610307E+02 0.  0.
        -11    1    5    5    0    0  0.13076759863E+03  0.15695150053E+03  0.59909427902E+03  0.63296752960E+03  0.00000000000E+00 0.  1.
         12    1    5    5    0    0  0.18169552075E+03  0.31369835737E+03  0.13494482956E+04  0.13972940364E+04  0.00000000000E+00 0. -1.
         11    1    3    3    0    0 -0.18035204223E+02  0.45450527413E+02 -0.91920424255E+02  0.10411716203E+03  0.00000000000E+00 0. -1.
        -12    1    3    3    0    0 -0.12950913656E+02 -0.35466968891E+02 -0.80706179543E+02  0.89101736589E+02  0.00000000000E+00 0.  1.
          5    1    4    4  501    0 -0.21670257742E+02 -0.14335337435E+03  0.15503830011E+03  0.21230670481E+03  0.41800000000E+01 0. -1.
         -5    1    4    4    0  501 -0.25980674375E+03 -0.33728004207E+03  0.47569593067E+03  0.63840540547E+03  0.41800000000E+01 0. -1.
</event>
<event>
11    1  0.8037748E-009  0.3804621E+03  0.7561462E-02  0.9709232E-01
         22   -1    0    0    0    0  0.00000000000E+00  0.00000000000E+00  0.53640914920E+03  0.53640914920E+03  0.00000000000E+00 0. -1.
         22   -1    0    0    0    0 -0.00000000000E+00 -0.00000000000E+00 -0.35315631463E+03  0.35315631463E+03  0.00000000000E+00 0. -1.
         24    2    1    2    0    0 -0.11426911266E+02 -0.41977824916E+02 -0.58249805881E+01  0.90601783899E+02  0.79259326020E+02 0.  0.
         25    2    1    2    0    0  0.28505858290E+03 -0.20125288809E+03 -0.15731977409E+02  0.37101806370E+03  0.12508312367E+03 0.  0.
        -24    2    1    2    0    0 -0.27363167163E+03  0.24323071300E+03  0.20480979257E+03  0.42794561623E+03  0.84586806576E+02 0.  0.
        -11    1    3    3    0    0 -0.45079205436E+02 -0.30542239920E+02  0.74940067543E+00  0.54456632135E+02  0.00000000000E+00 0.  1.
         12    1    3    3    0    0  0.33652294170E+02 -0.11435584996E+02 -0.65743812635E+01  0.36145151764E+02  0.00000000000E+00 0. -1.
         13    1    5    5    0    0 -0.24632839760E+03  0.22138253464E+03  0.15151833884E+03  0.36420559182E+03  0.00000000000E+00 0. -1.
        -14    1    5    5    0    0 -0.27303274030E+02  0.21848178363E+02  0.53291453730E+02  0.63740024406E+02  0.00000000000E+00 0.  1.
          5    1    4    4  501    0  0.28381063241E+03 -0.19136620911E+03  0.10668009161E+02  0.34249201433E+03  0.41800000000E+01 0.  1.
         -5    1    4    4    0  501  0.12479504872E+01 -0.98866789760E+01 -0.26399986570E+02  0.28526049367E+02  0.41800000000E+01 0.  1.
</event>
<event>
11    1  0.8037748E-009  0.1433503E+03  0.7561462E-02  0.1103874E+00
         22   -1    0    0    0    0  0.00000000000E+00  0.00000000000E+00  0.43407800050E+03  0.43407800050E+03  0.00000000000E+00 0. -1.
         22   -1    0    0    0    0 -0.00000000000E+00 -0.00000000000E+00 -0.24010149275E+03  0.24010149275E+03  0.00000000000E+00 0. -1.
        -24    2    1    2    0    0  0.53155509096E+02 -0.48789425306E+02 -0.17744219142E+03  0.20755399296E+03  0.79918787079E+02 0.  0.
         25    2    1    2    0    0  0.39101222614E+01  0.75477996479E+02  0.98010991175E+02  0.17597077918E+03  0.12508934297E+03 0.  0.
         24    2    1    2    0    0 -0.57065631357E+02 -0.26688571172E+02  0.27340770800E+03  0.29065472111E+03  0.75892199836E+02 0.  0.
        -13    1    5    5    0    0 -0.47532109961E+01 -0.43258396311E+01 -0.39357000978E+01  0.75362881147E+01  0.00000000000E+00 0.  1.
         14    1    5    5    0    0 -0.52312420361E+02 -0.22362731541E+02  0.27734340810E+03  0.28311843300E+03  0.00000000000E+00 0. -1.
         11    1    3    3    0    0  0.19630502032E+01 -0.54771655275E+02 -0.10758922063E+03  0.12074447475E+03  0.00000000000E+00 0. -1.
        -12    1    3    3    0    0  0.51192458893E+02  0.59822299687E+01 -0.69852970790E+02  0.86809518205E+02  0.00000000000E+00 0.  1.
          5    1    4    4  501    0  0.37699036797E+02  0.95914364151E+02  0.86539861015E+02  0.13463804281E+03  0.41800000000E+01 0.  1.
         -5    1    4    4    0  501 -0.33788914536E+02 -0.20436367672E+02  0.11471130160E+02  0.41332736376E+02  0.41800000000E+01 0.  1.
</event>
<event>
11    1  0.8037748E-009  0.1319469E+03  0.7561462E-02  0.1116900E+00
         22   -1    0    0    0    0  0.00000000000E+00  0.00000000000E+00  0.60656165708E+03  0.60656165708E+03  0.00000000000E+00 0. -1.
         22   -1    0    0    0    0 -0.00000000000E+00 -0.00000000000E+00 -0.82895491840E+03  0.82895491840E+03  0.00000000000E+00 0.  1.
        -24    2    1    2    0    0  0.83692306998E+01 -0.49488840279E+02 -0.52051565994E+03  0.52898823743E+03  0.79829905221E+02 0.  0.
         25    2    1    2    0    0  0.20746286315E+02  0.17679598938E+02 -0.28710612239E+03  0.31435866270E+03  0.12509383152E+03 0.  0.
         24    2    1    2    0    0 -0.29115517015E+02  0.31809241341E+02  0.58522852101E+03  0.59216967534E+03  0.79454146702E+02 0.  0.
        -13    1    5    5    0    0 -0.47136308469E+02 -0.26247767092E+01  0.22820182371E+03  0.23303388890E+03  0.00000000000E+00 0.  1.
         14    1    5    5    0    0  0.18020791455E+02  0.34434018050E+02  0.35702669729E+03  0.35913578644E+03  0.00000000000E+00 0. -1.
         13    1    3    3    0    0 -0.75358428393E+01 -0.17344182600E+01 -0.19358807621E+01  0.79714972448E+01  0.00000000000E+00 0. -1.
        -14    1    3    3    0    0  0.15905073539E+02 -0.47754422019E+02 -0.51857977918E+03  0.52101674019E+03  0.00000000000E+00 0.  1.
          5    1    4    4  501    0  0.67023951827E+02 -0.96851695425E+01 -0.11016186394E+03  0.12937975612E+03  0.41800000000E+01 0.  1.
         -5    1    4    4    0  501 -0.46277665513E+02  0.27364768480E+02 -0.17694425845E+03  0.18497890657E+03  0.41800000000E+01 0.  1.
</event>
<event>
11    1  0.8037748E-009  0.1593686E+03  0.7561462E-02  0.1087673E+00
         22   -1    0    0    0    0  0.00000000000E+00  0.00000000000E+00  0.12477517070E+04  0.12477517070E+04  0.00000000000E+00 0. -1.
         22   -1    0    0    0    0 -0.00000000000E+00 -0.00000000000E+00 -0.43495154727E+03  0.43495154727E+03  0.00000000000E+00 0.  1.
        -24    2    1    2    0    0  0.13644666407E+02  0.12228591631E+02 -0.36926284692E+03  0.37828427690E+03  0.80051412586E+02 0.  0.
         25    2    1    2    0    0  0.61140394385E+02 -0.76926698813E+02  0.52207509774E+02  0.16741222631E+03  0.12508143198E+03 0.  0.
         24    2    1    2    0    0 -0.74785060792E+02  0.64698107182E+02  0.11298554969E+04  0.11370067510E+04  0.80201357429E+02 0.  0.
        -11    1    5    5    0    0 -0.30825451872E+02  0.71336646958E+02  0.55197413401E+03  0.55741776999E+03  0.00000000000E+00 0.  1.
         12    1    5    5    0    0 -0.43959608920E+02 -0.66385397758E+01  0.57788136284E+03  0.57958898104E+03  0.00000000000E+00 0. -1.
         13    1    3    3    0    0  0.37646510561E+02  0.73871837676E+01 -0.88523945235E+02  0.96479630603E+02  0.00000000000E+00 0. -1.
        -14    1    3    3    0    0 -0.24001844154E+02  0.48414078632E+01 -0.28073890168E+03  0.28180464629E+03  0.00000000000E+00 0.  1.
          5    1    4    4  501    0  0.99508132893E+02 -0.63881322654E+02  0.38525239545E+02  0.12443616186E+03  0.41800000000E+01 0. -1.
         -5    1    4    4    0  501 -0.38367738507E+02 -0.13045376158E+02  0.13682270229E+02  0.42976064453E+02  0.41800000000E+01 0. -1.
</event>
<event>
11    1  0.8037748E-009  0.1337332E+03  0.7561462E-02  0.1114765E+00
         22   -1    0    0    0    0  0.00000000000E+00  0.00000000000E+00  0.15134532785E+03  0.15134532785E+03  0.00000000000E+00 0.  1.
         22   -1    0    0    0    0 -0.00000000000E+00 -0.00000000000E+00 -0.11871682944E+04  0.11871682944E+04  0.00000000000E+00 0. -1.
         24    2    1    2    0    0  0.23484955552E+01  0.45328864043E+02 -0.10594675090E+04  0.10634977607E+04  0.80596917055E+02 0.  0.
         25    2    1    2    0    0 -0.11246786713E+02  0.88337349317E+01 -0.66003459559E+02  0.14215758677E+03  0.12509115763E+03 0.  0.
        -24    2    1    2    0    0  0.88982911573E+01 -0.54162598974E+02  0.89648002044E+02  0.13285827475E+03  0.81251401136E+02 0.  0.
        -11    1    3    3    0    0  0.70372751187E+01  0.65160207108E+02 -0.59804050862E+03  0.60162099845E+03  0.00000000000E+00 0.  1.
         12    1    3    3    0    0 -0.46887795635E+01 -0.19831343065E+02 -0.46142700038E+03  0.46187676224E+03  0.00000000000E+00 0. -1.
         13    1    5    5    0    0  0.34565254829E+02 -0.60454566669E+02  0.52228788585E+02  0.87048020251E+02  0.00000000000E+00 0. -1.
        -14    1    5    5    0    0 -0.25666963672E+02  0.62919676947E+01  0.37419213459E+02  0.45810254501E+02  0.00000000000E+00 0.  1.
          5    1    4    4  501    0 -0.51940255431E+02 -0.35278475909E+02 -0.48661139737E+02  0.79547092450E+02  0.41800000000E+01 0.  1.
         -5    1    4    4    0  501  0.40693468718E+02  0.44112210841E+02 -0.17342319822E+02  0.62610494316E+02  0.41800000000E+01 0.  1.
</event>
<event>
11    1  0.8037748E-009  0.1400545E+03  0.7561462E-02  0.1107498E+00
         22   -1    0    0    0    0  0.00000000000E+00  0.00000000000E+00  0.15006672896E+04  0.15006672896E+04  0.00000000000E+00 0.  1.
         22   -1    0    0    0    0 -0.00000000000E+00 -0.00000000000E+00 -0.63589349788E+03  0.63589349788E+03  0.00000000000E+00 0.  1.
         24    2    1    2    0    0 -0.59448730870E+00 -0.18145416519E+02 -0.56985152294E+03  0.57579900555E+03  0.80524077403E+02 0.  0.
         25    2    1    2    0    0  0.63568920866E+02  0.17796698806E+02  0.20391205174E+02  0.14290150697E+03  0.12508920520E+03 0.  0.
        -24    2    1    2    0    0 -0.62974433557E+02  0.34871771282E+00  0.14142341095E+04  0.14178602749E+04  0.79396107976E+02 0.  0.
        -13    1    3    3    0    0 -0.36894699923E+02 -0.16687149963E+02 -0.40349775115E+03  0.40552449376E+03  0.00000000000E+00 0.  1.
         14    1    3    3    0    0  0.36300212614E+02 -0.14582665557E+01 -0.16635377179E+03  0.17027451180E+03  0.00000000000E+00 0. -1.
         11    1    5    5    0    0 -0.29466144882E+02 -0.33145353623E+02  0.38676353304E+03  0.38929795613E+03  0.00000000000E+00 0. -1.
        -12    1    5    5    0    0 -0.33508288676E+02  0.33494071336E+02  0.10274705764E+04  0.10285623188E+04  0.00000000000E+00 0.  1.
          5    1    4    4  501    0  0.51860226799E+02  0.10656906453E+01 -0.48371706118E+02  0.71048667637E+02  0.41800000000E+01 0. -1.
         -5    1    4    4    0  501  0.11708694067E+02  0.16731008161E+02  0.68762911292E+02  0.71852839333E+02  0.41800000000E+01 0. -1.
</event>
<event>
11    1  0.8037748E-009  0.1280449E+03  0.7561462E-02  0.1121695E+00
         22   -1    0    0    0    0  0.00000000000E+00  0.00000000000E+00  0.13902373851E+04  0.13902373851E+04  0.00000000000E+00 0.  1.
         22   -1    0    0    0    0 -0.00000000000E+00 -0.00000000000E+00 -0.21673046708E+03  0.21673046708E+03  0.00000000000E+00 0. -1.
        -24    2    1    2    0    0  0.18671560007E+02 -0.22618974916E+02 -0.10782885827E+03  0.13712095283E+03  0.79466016938E+02 0.  0.
         25    2    1    2    0    0 -0.42768871114E+02  0.98648163644E+01 -0.45587240835E+02  0.14018543978E+03  0.12508904853E+03 0.  0.
         24    2    1    2    0    0  0.24097311108E+02  0.12754158552E+02  0.13269230171E+04  0.13296614595E+04  0.80818034650E+02 0.  0.
        -11    1    5    5    0    0  0.28077683283E+02  0.38149672677E+01  0.13084501453E+04  0.13087569267E+04  0.00000000000E+00 0.  1.
         12    1    5    5    0    0 -0.39803721757E+01  0.89391912841E+01  0.18472871751E+02  0.20904532863E+02  0.00000000000E+00 0. -1.
         11    1    3    3    0    0  0.24649745039E+02 -0.11985904979E+02 -0.11806000395E+03  0.12119998507E+03  0.00000000000E+00 0. -1.
        -12    1    3    3    0    0 -0.59781850328E+01 -0.10633069937E+02  0.10231145673E+02  0.15920967758E+02  0.00000000000E+00 0.  1.
          5    1    4    4  501    0 -0.31526830089E+02 -0.59917535086E+01 -0.87773193243E+02  0.93549174115E+02  0.41800000000E+01 0. -1.
         -5    1    4    4    0  501 -0.11242041026E+02  0.15856569873E+02  0.42185952408E+02  0.46636265665E+02  0.41800000000E+01 0. -1.
</event>
<event>
11    1  0.8037748E-009  0.1649171E+03  0.7561462E-02  0.1082542E+00
         22   -1    0    0    0    0  0.00000000000E+00  0.00000000000E+00  0.15487610835E+03  0.15487610835E+03  0.00000000000E+00 0.  1.
         22   -1    0    0    0    0 -0.00000000000E+00 -0.00000000000E+00 -0.11722327850E+04  0.11722327850E+04  0.00000000000E+00 0. -1.
         24    2    1    2    0    0  0.58050971923E+02  0.85965922984E+02 -0.70943193879E+03  0.72149094578E+03  0.80594378286E+02 0.  0.
         25    2    1    2    0    0 -0.14717475940E+03 -0.34877637339E+02 -0.40019108655E+03  0.44573247017E+03  0.12509064641E+03 0.  0.
        -24    2    1    2    0    0  0.89123787475E+02 -0.51088285645E+02  0.92266348708E+02  0.15988547739E+03  0.80605361807E+02 0.  0.
        -13    1    3    3    0    0 -0.12250078893E+02 -0.15503183844E+01 -0.24657698619E+02  0.27576620917E+02  0.00000000000E+00 0.  1.
         14    1    3    3    0    0  0.70301050816E+02  0.87516241368E+02 -0.68477424017E+03  0.69391432487E+03  0.00000000000E+00 0. -1.
         13    1    5    5    0    0  0.35203676193E+02 -0.65484773376E+02  0.46317841400E+02  0.87595072884E+02  0.00000000000E+00 0. -1.
        -14    1    5    5    0    0  0.53920111282E+02  0.14396487731E+02  0.45948507308E+02  0.72290404505E+02  0.00000000000E+00 0.  1.
          5    1    4    4  501    0 -0.10096387800E+02 -0.34287060832E+02 -0.19911000921E+03  0.20233587856E+03  0.41800000000E+01 0. -1.
         -5    1    4    4    0  501 -0.13707837160E+03 -0.59057650703E+00 -0.20108107734E+03  0.24339659161E+03  0.41800000000E+01 0. -1.
</event>
<event>
11    1  0.8037748E-009  0.1382737E+03  0.7561462E-02  0.1109502E+00
         22   -1    0    0    0    0  0.00000000000E+00  0.00000000000E+00  0.54001932425E+03  0.54001932425E+03  0.00000000000E+00 0.  1.
         22   -1    0    0    0    0 -0.00000000000E+00 -0.00000000000E+00 -0.96560381971E+02  0.96560381971E+02  0.00000000000E+00 0.  1.
         24    2    1    2    0    0 -0.57699284156E+02  0.11962997213E+02 -0.33598671552E+02  0.10498741745E+03  0.80132180796E+02 0.  0.
         25    2    1    2    0    0  0.61469521906E+02  0.86637002851E+01  0.21228728475E+03  0.25409988441E+03  0.12508916085E+03 0.  0.
        -24    2    1    2    0    0 -0.37702377499E+01 -0.20626697499E+02  0.26477032908E+03  0.27749240436E+03  0.80368102966E+02 0.  0.
        -13    1    3    3    0    0 -0.72024033574E+02 -0.73120518334E+01 -0.36002333835E+02  0.80852307054E+02  0.00000000000E+00 0.  1.
         14    1    3    3    0    0  0.14324749418E+02  0.19275049047E+02  0.24036622836E+01  0.24135110400E+02  0.00000000000E+00 0. -1.
         11    1    5    5    0    0 -0.62440877826E+01 -0.51251316266E+02  0.14798076399E+03  0.15672904186E+03  0.00000000000E+00 0. -1.
        -12    1    5    5    0    0  0.24738500327E+01  0.30624618767E+02  0.11678956509E+03  0.12076336250E+03  0.00000000000E+00 0.  1.
          5    1    4    4  501    0  0.37379985504E+02  0.64933981331E+02  0.14343353605E+03  0.16187753677E+03  0.41800000000E+01 0.  1.
         -5    1    4    4    0  501  0.24089536402E+02 -0.56270281046E+02  0.68853748698E+02  0.92222347632E+02  0.41800000000E+01 0.  1.
</event>
<event>
11    1  0.8037748E-009  0.1482374E+03  0.7561462E-02  0.1098694E+00
         22   -1    0    0    0    0  0.00000000000E+00  0.00000000000E+00  0.38199464182E+03  0.38199464182E+03  0.00000000000E+00 0.  1.
         22   -1    0    0    0    0 -0.00000000000E+00 -0.00000000000E+00 -0.12914208585E+04  0.12914208585E+04  0.00000000000E+00 0. -1.
        -24    2    1    2    0    0  0.10438211905E+02 -0.80273664550E+02 -0.11334856071E+04  0.11395917112E+04  0.85596899828E+02 0.  0.
         25    2    1    2    0    0  0.14753423610E+02  0.66109959047E+02 -0.11773999919E+03  0.18466367183E+03  0.12509905712E+03 0.  0.
         24    2    1    2    0    0 -0.25191635515E+02  0.14163705503E+02  0.34179938968E+03  0.34916011722E+03  0.65197665697E+02 0.  0.
        -11    1    5    5    0    0  0.49113638929E+01  0.22977560298E+02  0.26724654087E+03  0.26827747460E+03  0.00000000000E+00 0.  1.
         12    1    5    5    0    0 -0.30102999408E+02 -0.88138547950E+01  0.74552848813E+02  0.80882642611E+02  0.00000000000E+00 0. -1.
         11    1    3    3    0    0  0.74466905579E+01 -0.29952392699E+02 -0.90865704687E+03  0.90918107540E+03  0.00000000000E+00 0. -1.
        -12    1    3    3    0    0  0.29915213466E+01 -0.50321271851E+02 -0.22482856026E+03  0.23041063584E+03  0.00000000000E+00 0.  1.
          5    1    4    4  501    0  0.48216579871E+02 -0.17740656774E+02 -0.36740032230E+02  0.63299856599E+02  0.41800000000E+01 0.  1.
         -5    1    4    4    0  501 -0.33463156261E+02  0.83850615820E+02 -0.80999966961E+02  0.12136381523E+03  0.41800000000E+01 0.  1.
</event>
<event>
11    1  0.8037748E-009  0.1535222E+03  0.7561462E-02  0.1093333E+00
         22   -1    0    0    0    0  0.00000000000E+00  0.00000000000E+00  0.48257131219E+02  0.48257131219E+02  0.00000000000E+00 0.  1.
         22   -1    0    0    0    0 -0.00000000000E+00 -0.00000000000E+00 -0.32493648111E+04  0.32493648111E+04  0.00000000000E+00 0.  1.
        -24    2    1    2    0    0 -0.38544305037E+02  0.80451368233E+02 -0.29410098656E+04  0.29434931813E+04  0.81578136994E+02 0.  0.
         25    2    1    2    0    0  0.59346595213E+01 -0.90152199287E+02 -0.17823500121E+03  0.23575156055E+03  0.12509373855E+03 0.  0.
         24    2    1    2    0    0  0.32609645516E+02  0.97008310547E+01 -0.81862813034E+02  0.11837720048E+03  0.78448367295E+02 0.  0.
        -11    1    5    5    0    0 -0.14133714423E+02  0.27847684566E+02 -0.14579351975E+02  0.34464661947E+02  0.00000000000E+00 0.  1.
         12    1    5    5    0    0  0.46743359939E+02 -0.18146853511E+02 -0.67283461058E+02  0.83912538531E+02  0.00000000000E+00 0. -1.
         13    1    3    3    0    0 -0.54517029738E+02  0.43512423623E+02 -0.12051875384E+04  0.12072043905E+04  0.00000000000E+00 0. -1.
        -14    1    3    3    0    0  0.15972724701E+02  0.36938944609E+02 -0.17358223272E+04  0.17362887908E+04  0.00000000000E+00 0.  1.
          5    1    4    4  501    0 -0.14961940537E+02 -0.11694226201E+03 -0.15312210686E+03  0.19329563968E+03  0.41800000000E+01 0. -1.
         -5    1    4    4    0  501  0.20896600059E+02  0.26790062721E+02 -0.25112894350E+02  0.42455920873E+02  0.41800000000E+01 0. -1.
</event>
<event>
11    1  0.8037748E-009  0.5516827E+03  0.7561462E-02  0.9284915E-01
         22   -1    0    0    0    0  0.00000000000E+00  0.00000000000E+00  0.34940499539E+03  0.34940499539E+03  0.00000000000E+00 0.  1.
         22   -1    0    0    0    0 -0.00000000000E+00 -0.00000000000E+00 -0.21776576606E+03  0.21776576606E+03  0.00000000000E+00 0. -1.
        -24    2    1    2    0    0  0.74924779458E+02 -0.97276947750E+02 -0.92746432563E+01  0.14814889485E+03  0.82374443229E+02 0.  0.
         25    2    1    2    0    0 -0.14992512381E+03  0.17287351130E+03  0.87106602935E+02  0.27495109593E+03  0.12509097178E+03 0.  0.
         24    2    1    2    0    0  0.75000344351E+02 -0.75596563552E+02  0.53807269644E+02  0.14407077067E+03  0.80754396909E+02 0.  0.
        -11    1    5    5    0    0 -0.89971689171E+00  0.34215190369E+01  0.32201129074E+02  0.32394891520E+02  0.00000000000E+00 0.  1.
         12    1    5    5    0    0  0.75900061242E+02 -0.79018082589E+02  0.21606140570E+02  0.11167587915E+03  0.00000000000E+00 0. -1.
         11    1    3    3    0    0  0.69022351960E+02 -0.28206006765E+02 -0.21841634609E+02  0.77696337688E+02  0.00000000000E+00 0. -1.
        -12    1    3    3    0    0  0.59024274979E+01 -0.69070940986E+02  0.12566991353E+02  0.70452557162E+02  0.00000000000E+00 0.  1.
          5    1    4    4  501    0 -0.86255445600E+02  0.15192840181E+03  0.13446708630E+02  0.17527272333E+03  0.41800000000E+01 0. -1.
         -5    1    4    4    0  501 -0.63669678210E+02  0.20945109494E+02  0.73659894305E+02  0.99678372599E+02  0.41800000000E+01 0. -1.
</event>
<event>
11    1  0.8037748E-009  0.2345324E+03  0.7561462E-02  0.1032478E+00
         22   -1    0    0    0    0  0.00000000000E+00  0.00000000000E+00  0.47774421307E+03  0.47774421307E+03  0.00000000000E+00 0.  1.
         22   -1    0    0    0    0 -0.00000000000E+00 -0.00000000000E+00 -0.12039625734E+04  0.12039625734E+04  0.00000000000E+00 0. -1.
         24    2    1    2    0    0  0.91638819439E+02  0.17015052948E+03 -0.83706329021E+03  0.86193457834E+03  0.70052763091E+02 0.  0.
         25    2    1    2    0    0 -0.12529081043E+03 -0.17866316578E+03 -0.30427642302E+03  0.39477706290E+03  0.12508586570E+03 0.  0.
        -24    2    1    2    0    0  0.33651990986E+02  0.85126363000E+01  0.41512135294E+03  0.42499514520E+03  0.84203410275E+02 0.  0.
        -11    1    3    3    0    0 -0.38849071065E+01  0.47866314454E+02 -0.14722411011E+03  0.15485869417E+03  0.00000000000E+00 0.  1.
         12    1    3    3    0    0  0.95523726546E+02  0.12228421503E+03 -0.68983918010E+03  0.70707588417E+03  0.00000000000E+00 0. -1.
         13    1    5    5    0    0 -0.24794112540E+02 -0.13806490936E+02  0.11901650541E+03  0.12235316003E+03  0.00000000000E+00 0. -1.
        -14    1    5    5    0    0  0.58446103526E+02  0.22319127236E+02  0.29610484753E+03  0.30264198517E+03  0.00000000000E+00 0.  1.
          5    1    4    4  501    0 -0.90181094599E+02 -0.18949711744E+03 -0.28221332329E+03  0.35171525356E+03  0.41800000000E+01 0.  1.
         -5    1    4    4    0  501 -0.35109715826E+02  0.10833951657E+02 -0.22063099731E+02  0.43061809340E+02  0.41800000000E+01 0.  1.
</event>
<event>
11    1  0.8037748E-009  0.3726622E+03  0.7561462E-02  0.9734051E-01
         22   -1    0    0    0    0  0.00000000000E+00  0.00000000000E+00  0.73503624312E+02  0.73503624312E+02  0.00000000000E+00 0.  1.
         22   -1    0    0    0    0 -0.00000000000E+00 -0.00000000000E+00 -0.23873968561E+04  0.23873968561E+04  0.00000000000E+00 0.  1.
         24    2    1    2    0    0  0.49307190333E+02  0.32610053291E+01 -0.38329783639E+03  0.39507127699E+03  0.81989324584E+02 0.  0.
         25    2    1    2    0    0 -0.30622357799E+03  0.20956554374E+03 -0.10122210341E+04  0.10853239779E+04  0.12508444443E+03 0.  0.
        -24    2    1    2    0    0  0.25691638766E+03 -0.21282654907E+03 -0.91837436126E+03  0.98050522551E+03  0.81718171717E+02 0.  0.
        -13    1    3    3    0    0  0.50335102598E+01  0.37293032238E+02 -0.19790290278E+03  0.20144891513E+03  0.00000000000E+00 0.  1.
         14    1    3    3    0    0  0.44273680073E+02 -0.34032026909E+02 -0.18539493361E+03  0.19362236186E+03  0.00000000000E+00 0. -1.
         13    1    5    5    0    0  0.27570788092E+02 -0.91312565133E+01 -0.15698422413E+03  0.15964828476E+03  0.00000000000E+00 0. -1.
        -14    1    5    5    0    0  0.22934559957E+03 -0.20369529256E+03 -0.76139013713E+03  0.82085694075E+03  0.00000000000E+00 0.  1.
          5    1    4    4  501    0 -0.24171057632E+03  0.14603890046E+03 -0.59853828173E+03  0.66182845984E+03  0.41800000000E+01 0. -1.
         -5    1    4    4    0  501 -0.64513001670E+02  0.63526643283E+02 -0.41368275239E+03  0.42349551806E+03  0.41800000000E+01 0. -1.
</event>
<event>
11    1  0.8037748E-009  0.1944913E+03  0.7561462E-02  0.1058489E+00
         22   -1    0    0    0    0  0.00000000000E+00  0.00000000000E+00  0.44830388859E+03  0.44830388859E+03  0.00000000000E+00 0. -1.
         22   -1    0    0    0    0 -0.00000000000E+00 -0.00000000000E+00 -0.12271618209E+04  0.12271618209E+04  0.00000000000E+00 0.  1.
         24    2    1    2    0    0 -0.64990819614E+02  0.13309151954E+03 -0.11115532585E+04  0.11241894229E+04  0.79461014283E+02 0.  0.
         25    2    1    2    0    0  0.63555754083E+02 -0.14912337475E+03 -0.38213142450E+01  0.20479043780E+03  0.12508959269E+03 0.  0.
        -24    2    1    2    0    0  0.14350655307E+01  0.16031855206E+02  0.33651664043E+03  0.34648584882E+03  0.80931541143E+02 0.  0.
        -13    1    3    3    0    0 -0.70675338824E+02  0.76280364945E+02 -0.55026011914E+03  0.55999990742E+03  0.00000000000E+00 0.  1.
         14    1    3    3    0    0  0.56845192103E+01  0.56811154595E+02 -0.56129313940E+03  0.56418951548E+03  0.00000000000E+00 0. -1.
         11    1    5    5    0    0  0.19230064555E+02 -0.43462219963E+01  0.30193953565E+03  0.30258249820E+03  0.00000000000E+00 0. -1.
        -12    1    5    5    0    0 -0.17794999024E+02  0.20378077202E+02  0.34577104781E+02  0.43903350621E+02  0.00000000000E+00 0.  1.
          5    1    4    4  501    0  0.58608587517E+02 -0.14729059773E+03  0.37477768551E+02  0.16294643981E+03  0.41800000000E+01 0. -1.
         -5    1    4    4    0  501  0.49471665657E+01 -0.18327770187E+01 -0.41299082796E+02  0.41843997998E+02  0.41800000000E+01 0. -1.
</event>
<event>
11    1  0.8037748E-009  0.3314628E+03  0.7561462E-02  0.9876899E-01
         22   -1    0    0    0    0  0.00000000000E+00  0.00000000000E+00  0.12818702410E+04  0.12818702410E+04  0.00000000000E+00 0.  1.
         22   -1    0    0    0    0 -0.00000000000E+00 -0.00000000000E+00 -0.25601819925E+03  0.25601819925E+03  0.00000000000E+00 0.  1.
         24    2    1    2    0    0 -0.22345647619E+02  0.89914133459E+02 -0.41854752684E+02  0.12923329948E+03  0.79784371964E+02 0.  0.
         25    2    1    2    0    0 -0.20604583552E+03 -0.28567729855E+03  0.92722909774E+02  0.38511223495E+03  0.12508992874E+03 0.  0.
        -24    2    1    2    0    0  0.22839148314E+03  0.19576316509E+03  0.97498388469E+03  0.10235429058E+04  0.80997643962E+02 0.  0.
        -11    1    3    3    0    0  0.28327660141E+02  0.29298351923E+02 -0.26880204890E+02  0.48820028363E+02  0.00000000000E+00 0.  1.
         12    1    3    3    0    0 -0.50673307760E+02  0.60615781535E+02 -0.14974547794E+02  0.80413271119E+02  0.00000000000E+00 0. -1.
         11    1    5    5    0    0  0.54824380342E+02  0.10032597615E+02  0.13879720061E+03  0.14956947747E+03  0.00000000000E+00 0. -1.
        -12    1    5    5    0    0  0.17356710280E+03  0.18573056748E+03  0.83618668408E+03  0.87397342838E+03  0.00000000000E+00 0.  1.
          5    1    4    4  501    0  0.63969241289E+01 -0.23671884050E+02  0.34896858646E+02  0.42854893258E+02  0.41800000000E+01 0. -1.
         -5    1    4    4    0  501 -0.21244275965E+03 -0.26200541450E+03  0.57826051128E+02  0.34225734170E+03  0.41800000000E+01 0. -1.
</event>
<event>
11    1  0.8037748E-009  0.1641078E+03  0.7561462E-02  0.1083276E+00
         22   -1    0    0    0    0  0.00000000000E+00  0.00000000000E+00  0.42249439809E+02  0.42249439809E+02  0.00000000000E+00 0. -1.
         22   -1    0    0    0    0 -0.00000000000E+00 -0.00000000000E+00 -0.97411058644E+03  0.97411058644E+03  0.00000000000E+00 0.  1.
         24    2    1    2    0    0 -0.34850038094E+02 -0.11856379349E+03 -0.33484139917E+03  0.36578714527E+03  0.80059819932E+02 0.  0.
         25    2    1    2    0    0  0.65673415310E+02  0.69375987878E+02 -0.40606369454E+03  0.43550497169E+03  0.12510328203E+03 0.  0.
        -24    2    1    2    0    0 -0.30823377216E+02  0.49187805610E+02 -0.19095605292E+03  0.21506790928E+03  0.80127839426E+02 0.  0.
        -13    1    3    3    0    0 -0.27248798761E+02 -0.41141267216E+01 -0.33650216544E+02  0.43494369130E+02  0.00000000000E+00 0.  1.
         14    1    3    3    0    0 -0.76012393332E+01 -0.11444966677E+03 -0.30119118262E+03  0.32229277614E+03  0.00000000000E+00 0. -1.
         13    1    5    5    0    0 -0.30466954304E+02  0.63119324499E+02 -0.94736348289E+02  0.11784421970E+03  0.00000000000E+00 0. -1.
        -14    1    5    5    0    0 -0.35642291263E+00 -0.13931518889E+02 -0.96219704635E+02  0.97223689581E+02  0.00000000000E+00 0.  1.
          5    1    4    4  501    0  0.75078006081E+02  0.53959648307E+02 -0.13425570570E+03  0.16306568479E+03  0.41800000000E+01 0.  1.
         -5    1    4    4    0  501 -0.94045907715E+01  0.15416339571E+02 -0.27180798883E+03  0.27243928690E+03  0.41800000000E+01 0.  1.
</event>
<event>
11    1  0.8037748E-009  0.1507812E+03  0.7561462E-02  0.1096083E+00
         22   -1    0    0    0    0  0.00000000000E+00  0.00000000000E+00  0.31793814158E+02  0.31793814158E+02  0.00000000000E+00 0.  1.
         22   -1    0    0    0    0 -0.00000000000E+00 -0.00000000000E+00 -0.19374626276E+04  0.19374626276E+04  0.00000000000E+00 0. -1.
        -24    2    1    2    0    0 -0.48753195687E+02  0.70535020845E+02 -0.14320158281E+04  0.14367999524E+04  0.79829242310E+02 0.  0.
         25    2    1    2    0    0  0.73608888135E+02 -0.37535971828E+02 -0.34393990248E+03  0.37519452631E+03  0.12509619684E+03 0.  0.
         24    2    1    2    0    0 -0.24855692448E+02 -0.32999049017E+02 -0.12971308282E+03  0.15726196303E+03  0.78734353877E+02 0.  0.
        -11    1    5    5    0    0 -0.42803288334E+02 -0.14089691101E+02 -0.29851215157E+02  0.54053084407E+02  0.00000000000E+00 0.  1.
         12    1    5    5    0    0  0.17947595887E+02 -0.18909357915E+02 -0.99861867660E+02  0.10320887863E+03  0.00000000000E+00 0. -1.
         11    1    3    3    0    0 -0.29538057481E+02  0.86254598035E+02 -0.10345746475E+04  0.10385841583E+04  0.00000000000E+00 0. -1.
        -12    1    3    3    0    0 -0.19215138207E+02 -0.15719577191E+02 -0.39744118058E+03  0.39821579409E+03  0.00000000000E+00 0.  1.
          5    1    4    4  501    0 -0.25894171480E+02 -0.41615392548E+02 -0.93552458338E+02  0.10569713276E+03  0.41800000000E+01 0.  1.
         -5    1    4    4    0  501  0.99503059615E+02  0.40794207196E+01 -0.25038744414E+03  0.26949739355E+03  0.41800000000E+01 0.  1.
</event>
<event>
11    1  0.8037748E-009  0.1753423E+03  0.7561462E-02  0.1073474E+00
         22   -1    0    0    0    0  0.00000000000E+00  0.00000000000E+00  0.89171345536E+03  0.89171345536E+03  0.00000000000E+00 0.  1.
         22   -1    0    0    0    0 -0.00000000000E+00 -0.00000000000E+00 -0.78511214903E+03  0.78511214903E+03  0.00000000000E+00 0.  1.
         24    2    1    2    0    0  0.12193091264E+03 -0.24887624886E+02 -0.70297390595E+03  0.71857872575E+03  0.81832336601E+02 0.  0.
         25    2    1    2    0    0 -0.79961711055E+02  0.99268458915E+02  0.43703954547E+02  0.18386322229E+03  0.12509015427E+03 0.  0.
        -24    2    1    2    0    0 -0.41969201581E+02 -0.74380834029E+02  0.76587125773E+03  0.77438365636E+03  0.76271498346E+02 0.  0.
        -13    1    3    3    0    0  0.98424609376E+02  0.63739106413E+01 -0.35610450605E+03  0.36951109550E+03  0.00000000000E+00 0.  1.
         14    1    3    3    0    0  0.23506303260E+02 -0.31261535528E+02 -0.34686939990E+03  0.34906763025E+03  0.00000000000E+00 0. -1.
         13    1    5    5    0    0  0.13919623930E+02 -0.49272684924E+02  0.27749451693E+03  0.28217859653E+03  0.00000000000E+00 0. -1.
        -14    1    5    5    0    0 -0.55888825511E+02 -0.25108149105E+02  0.48837674080E+03  0.49220505983E+03  0.00000000000E+00 0.  1.
          5    1    4    4  501    0 -0.58049141709E+02  0.12450351503E+02 -0.31064490727E+02  0.67135602252E+02  0.41800000000E+01 0.  1.
         -5    1    4    4    0  501 -0.21912569347E+02  0.86818107413E+02  0.74768445274E+02  0.11672762003E+03  0.41800000000E+01 0.  1.
</event>
<event>
11    1  0.8037748E-009  0.1361479E+03  0.7561462E-02  0.1111938E+00
         22   -1    0    0    0    0  0.00000000000E+00  0.00000000000E+00  0.46445077322E+03  0.46445077322E+03  0.00000000000E+00 0.  1.
         22   -1    0    0    0    0 -0.00000000000E+00 -0.00000000000E+00 -0.35160555081E+03  0.35160555081E+03  0.00000000000E+00 0. -1.
        -24    2    1    2    0    0 -0.53980442647E+02  0.67911351283E+01 -0.30750454048E+03  0.32595364035E+03  0.93416944608E+02 0.  0.
         25    2    1    2    0    0  0.45741795562E+02  0.38620786666E+02  0.15034786261E+03  0.20453320781E+03  0.12508187832E+03 0.  0.
         24    2    1    2    0    0  0.82386470849E+01 -0.45411921794E+02  0.27000190028E+03  0.28556947587E+03  0.80738971067E+02 0.  0.
        -11    1    5    5    0    0  0.22373683293E+02 -0.52151982564E+02  0.26182319799E+03  0.26790259050E+03  0.00000000000E+00 0.  1.
         12    1    5    5    0    0 -0.14135036208E+02  0.67400607693E+01  0.81787022915E+01  0.17666885378E+02  0.00000000000E+00 0. -1.
         11    1    3    3    0    0 -0.70697427991E+02  0.27566332756E+02 -0.26607854734E+03  0.27668722844E+03  0.00000000000E+00 0. -1.
        -12    1    3    3    0    0  0.16716985344E+02 -0.20775197628E+02 -0.41425993135E+02  0.49266411912E+02  0.00000000000E+00 0.  1.
          5    1    4    4  501    0  0.45409426431E+02  0.76845749454E+02  0.13750890846E+03  0.16399224837E+03  0.41800000000E+01 0.  1.
         -5    1    4    4    0  501  0.33236913097E+00 -0.38224962788E+02  0.12838954147E+02  0.40540959448E+02  0.41800000000E+01 0.  1.
</event>
<event>
11    1  0.8037748E-009  0.1415749E+03  0.7561462E-02  0.1105812E+00
         22   -1    0    0    0    0  0.00000000000E+00  0.00000000000E+00  0.10233922004E+03  0.10233922004E+03  0.00000000000E+00 0.  1.
         22   -1    0    0    0    0 -0.00000000000E+00 -0.00000000000E+00 -0.94233688885E+03  0.94233688885E+03  0.00000000000E+00 0.  1.
        -24    2    1    2    0    0  0.19574487493E+02  0.19361822443E+02 -0.78118852762E+03  0.78478575621E+03  0.69822107826E+02 0.  0.
         25    2    1    2    0    0 -0.38399547881E+01  0.52473646979E+02 -0.65697336402E+02  0.15077075445E+03  0.12508977379E+03 0.  0.
         24    2    1    2    0    0 -0.15734532705E+02 -0.71835469422E+02  0.68881952031E+01  0.10911959823E+03  0.80322657441E+02 0.  0.
        -13    1    5    5    0    0 -0.24300556038E+02 -0.32740499361E+02  0.40043055423E+02  0.57148084918E+02  0.00000000000E+00 0.  1.
         14    1    5    5    0    0  0.85660233335E+01 -0.39094970060E+02 -0.33154860220E+02  0.51971513312E+02  0.00000000000E+00 0. -1.
         11    1    3    3    0    0  0.10712866841E+02  0.25475799679E+02 -0.10700580545E+03  0.11051707689E+03  0.00000000000E+00 0. -1.
        -12    1    3    3    0    0  0.88616206516E+01 -0.61139772358E+01 -0.67418272217E+03  0.67426867932E+03  0.00000000000E+00 0.  1.
          5    1    4    4  501    0 -0.34380513151E+02 -0.38771958441E+01 -0.77946210463E+02  0.85382295926E+02  0.41800000000E+01 0. -1.
         -5    1    4    4    0  501  0.30540558362E+02  0.56350842823E+02  0.12248874061E+02  0.65388458521E+02  0.41800000000E+01 0. -1.
</event>
<event>
11    1  0.8037748E-009  0.1444824E+03  0.7561462E-02  0.1102654E+00
         22   -1    0    0    0    0  0.00000000000E+00  0.00000000000E+00  0.92908461993E+03  0.92908461993E+03  0.00000000000E+00 0.  1.
         22   -1    0    0    0    0 -0.00000000000E+00 -0.00000000000E+00 -0.58405016088E+03  0.58405016088E+03  0.00000000000E+00 0.  1.
         24    2    1    2    0    0 -0.39275631028E+01 -0.96712016672E+01 -0.25391179843E+03  0.26393662746E+03  0.71290841218E+02 0.  0.
         25    2    1    2    0    0 -0.45846688618E+02  0.62051810352E+02 -0.30510657720E+03  0.33865930459E+03  0.12509098732E+03 0.  0.
        -24    2    1    2    0    0  0.49774251721E+02 -0.52380608685E+02  0.90405283467E+03  0.91053884875E+03  0.80921337780E+02 0.  0.
        -13    1    3    3    0    0  0.10159769710E+02 -0.21276330485E+02 -0.23956134438E+03  0.24071880043E+03  0.00000000000E+00 0.  1.
         14    1    3    3    0    0 -0.14087332813E+02  0.11605128818E+02 -0.14350454046E+02  0.23217827030E+02  0.00000000000E+00 0. -1.
         13    1    5    5    0    0 -0.47174440608E+01  0.11006702342E+02  0.27308328220E+02  0.29818560748E+02  0.00000000000E+00 0. -1.
        -14    1    5    5    0    0  0.54491695782E+02 -0.63387311027E+02  0.87674450645E+03  0.88072028801E+03  0.00000000000E+00 0.  1.
          5    1    4    4  501    0 -0.73591557510E+02  0.47898031425E+02 -0.10890109648E+03  0.13995306344E+03  0.41800000000E+01 0. -1.
         -5    1    4    4    0  501  0.27744868892E+02  0.14153778927E+02 -0.19620548072E+03  0.19870624115E+03  0.41800000000E+01 0. -1.
</event>
<event>
11    1  0.8058885E-009  0.3426368E+03  0.7561462E-02  0.9836041E-01
         22   -1    0    0    0    0  0.00000000000E+00  0.00000000000E+00  0.16724774851E+04  0.16724774851E+04  0.00000000000E+00 0.  1.
         22   -1    0    0    0    0 -0.00000000000E+00 -0.00000000000E+00 -0.56242348470E+03  0.56242348470E+03  0.00000000000E+00 0. -1.
         24    2    1    2    0    0 -0.58681986893E+02 -0.18387880718E+02 -0.75719450689E+02  0.13959481117E+03  0.99857830685E+02 0.  0.
         25    2    1    2    0    0  0.18040024581E+03 -0.27623085531E+03 -0.36624679596E+03  0.50855836182E+03  0.12508859942E+03 0.  0.
        -24    2    1    2    0    0 -0.12171825892E+03  0.29461873603E+03  0.15520202471E+04  0.15867477968E+04  0.85942941919E+02 0.  0.
        -13    1    3    3    0    0 -0.12738373501E+02  0.40456522680E+02 -0.23512449003E+02  0.48495686870E+02  0.00000000000E+00 0.  1.
         14    1    3    3    0    0 -0.45943613392E+02 -0.58844403398E+02 -0.52207001686E+02  0.91099124298E+02  0.00000000000E+00 0. -1.
         11    1    5    5    0    0 -0.16971580980E+01  0.88161004846E+02  0.52291327018E+03  0.53029570171E+03  0.00000000000E+00 0. -1.
        -12    1    5    5    0    0 -0.12002110082E+03  0.20645773118E+03  0.10291069769E+04  0.10564520951E+04  0.00000000000E+00 0.  1.
          5    1    4    4  501    0  0.14757473634E+03 -0.13047996131E+03 -0.15978821969E+03  0.25367907021E+03  0.41800000000E+01 0.  1.
         -5    1    4    4    0  501  0.32825509469E+02 -0.14575089401E+03 -0.20645857627E+03  0.25487929161E+03  0.41800000000E+01 0.  1.
</event>
<event>
11    1  0.8037748E-009  0.1480239E+03  0.7561462E-02  0.1098915E+00
         22   -1    0    0    0    0  0.00000000000E+00  0.00000000000E+00  0.89519102056E+03  0.89519102056E+03  0.00000000000E+00 0. -1.
         22   -1    0    0    0    0 -0.00000000000E+00 -0.00000000000E+00 -0.31549931254E+03  0.31549931254E+03  0.00000000000E+00 0. -1.
         24    2    1    2    0    0 -0.43868173678E+02  0.64146195277E+02 -0.27706670820E+03  0.29812029357E+03  0.77914039920E+02 0.  0.
         25    2    1    2    0    0  0.35721814143E+02  0.27580170862E+02  0.17468271318E+03  0.21954204009E+03  0.12509173934E+03 0.  0.
        -24    2    1    2    0    0  0.81463595351E+01 -0.91726366139E+02  0.68207570304E+03  0.69302799944E+03  0.81119997013E+02 0.  0.
        -11    1    3    3    0    0  0.69383818734E+01 -0.10956437221E+02 -0.81877960073E+02  0.82898642964E+02  0.00000000000E+00 0.  1.
         12    1    3    3    0    0 -0.50806555551E+02  0.75102632498E+02 -0.19518874812E+03  0.21522165061E+03  0.00000000000E+00 0. -1.
         13    1    5    5    0    0  0.10058093252E+02 -0.10674008377E+03  0.61399991824E+03  0.62329006917E+03  0.00000000000E+00 0. -1.
        -14    1    5    5    0    0 -0.19117337170E+01  0.15013717634E+02  0.68075784797E+02  0.69737930273E+02  0.00000000000E+00 0.  1.
          5    1    4    4  501    0  0.66426137920E+01 -0.48840109770E+02  0.49630779728E+02  0.70072586200E+02  0.41800000000E+01 0.  1.
         -5    1    4    4    0  501  0.29079200351E+02  0.76420280633E+02  0.12505193345E+03  0.14946945389E+03  0.41800000000E+01 0.  1.
</event>
<event>
11    1  0.8037748E-009  0.1509276E+03  0.7561462E-02  0.1095935E+00
         22   -1    0    0    0    0  0.00000000000E+00  0.00000000000E+00  0.31245094882E+03  0.31245094882E+03  0.00000000000E+00 0. -1.
         22   -1    0    0    0    0 -0.00000000000E+00 -0.00000000000E+00 -0.33635553330E+03  0.33635553330E+03  0.00000000000E+00 0.  1.
         24    2    1    2    0    0 -0.64548692808E+02 -0.66450051770E+02 -0.23045042910E+03  0.26044726547E+03  0.78378789828E+02 0.  0.
         25    2    1    2    0    0  0.52530238314E+02  0.22041980934E+02 -0.24618241341E+02  0.13964056161E+03  0.12509258083E+03 0.  0.
        -24    2    1    2    0    0  0.12018454494E+02  0.44408070836E+02  0.23116408595E+03  0.24871865504E+03  0.79420493110E+02 0.  0.
        -13    1    3    3    0    0 -0.67148627377E+02 -0.77080734174E+02 -0.22702556295E+03  0.24897988668E+03  0.00000000000E+00 0.  1.
         14    1    3    3    0    0  0.25999345692E+01  0.10630682404E+02 -0.34248661523E+01  0.11467378790E+02  0.00000000000E+00 0. -1.
         13    1    5    5    0    0  0.36579366084E+02  0.52994367676E+02  0.14372757080E+03  0.15749307171E+03  0.00000000000E+00 0. -1.
        -14    1    5    5    0    0 -0.24560911590E+02 -0.85862968404E+01  0.87436515157E+02  0.91225583333E+02  0.00000000000E+00 0.  1.
          5    1    4    4  501    0  0.58133156218E+02 -0.14425455469E+02 -0.62449802883E+02  0.86631448663E+02  0.41800000000E+01 0.  1.
         -5    1    4    4    0  501 -0.56029179032E+01  0.36467436403E+02  0.37831561542E+02  0.53009112948E+02  0.41800000000E+01 0.  1.
</event>
<event>
11    1  0.8037748E-009  0.1457659E+03  0.7561462E-02  0.1101285E+00
         22   -1    0    0    0    0  0.00000000000E+00  0.00000000000E+00  0.18989884752E+03  0.18989884752E+03  0.00000000000E+00 0. -1.
         22   -1    0    0    0    0 -0.00000000000E+00 -0.00000000000E+00 -0.26665862639E+03  0.26665862639E+03  0.00000000000E+00 0. -1.
         24    2    1    2    0    0  0.68644088617E+02 -0.15928214123E+02 -0.14758568148E+03  0.18135577338E+03  0.78375150754E+02 0.  0.
         25    2    1    2    0    0 -0.88354636738E+02  0.34015540547E+02 -0.93067212527E+01  0.15715322066E+03  0.12508765276E+03 0.  0.
        -24    2    1    2    0    0  0.19710548120E+02 -0.18087326424E+02  0.80132623860E+02  0.11804847985E+03  0.82453314698E+02 0.  0.
        -11    1    3    3    0    0  0.56155071247E+02 -0.45741902716E+02 -0.11096350133E+03  0.13250891411E+03  0.00000000000E+00 0.  1.
         12    1    3    3    0    0  0.12489017370E+02  0.29813688594E+02 -0.36622180148E+02  0.48846859277E+02  0.00000000000E+00 0. -1.
         13    1    5    5    0    0  0.17822007698E+02 -0.42208638790E+02  0.81841031257E+02  0.93793110324E+02  0.00000000000E+00 0. -1.
        -14    1    5    5    0    0  0.18885404227E+01  0.24121312366E+02 -0.17084073976E+01  0.24255369530E+02  0.00000000000E+00 0.  1.
          5    1    4    4  501    0 -0.17314725917E+01  0.48493584866E+02  0.33747532260E+02  0.59253642117E+02  0.41800000000E+01 0.  1.
         -5    1    4    4    0  501 -0.86623164146E+02 -0.14478044319E+02 -0.43054253513E+02  0.97899578546E+02  0.41800000000E+01 0.  1.
</event>
<event>
11    1  0.8037748E-009  0.1324278E+03  0.7561462E-02  0.1116321E+00
         22   -1    0    0    0    0  0.00000000000E+00  0.00000000000E+00  0.11938117989E+04  0.11938117989E+04  0.00000000000E+00 0. -1.
         22   -1    0    0    0    0 -0.00000000000E+00 -0.00000000000E+00 -0.26769142100E+03  0.26769142100E+03  0.00000000000E+00 0. -1.
         24    2    1    2    0    0  0.32829656985E+02  0.10819738610E+02 -0.24644872322E+03  0.26150337998E+03  0.80325534172E+02 0.  0.
         25    2    1    2    0    0 -0.53916479337E+02  0.23540385964E+02  0.46935331708E+03  0.48928626869E+03  0.12508948780E+03 0.  0.
        -24    2    1    2    0    0  0.21086822352E+02 -0.34360124574E+02  0.70321578406E+03  0.71071357126E+03  0.94742119382E+02 0.  0.
        -11    1    3    3    0    0  0.22794262544E+02 -0.55829629519E+01 -0.12168245096E+02  0.26435091620E+02  0.00000000000E+00 0.  1.
         12    1    3    3    0    0  0.10035394441E+02  0.16402701561E+02 -0.23428047812E+03  0.23506828836E+03  0.00000000000E+00 0. -1.
         11    1    5    5    0    0  0.57372995580E+02 -0.33942790054E+02  0.45000285368E+03  0.45491355436E+03  0.00000000000E+00 0. -1.
        -12    1    5    5    0    0 -0.36286173228E+02 -0.41733451927E+00  0.25321293038E+03  0.25580001691E+03  0.00000000000E+00 0.  1.
          5    1    4    4  501    0  0.31551753453E+01  0.61001192888E+02  0.13837480472E+03  0.15131477008E+03  0.41800000000E+01 0. -1.
         -5    1    4    4    0  501 -0.57071654683E+02 -0.37460806924E+02  0.33097851236E+03  0.33797149861E+03  0.41800000000E+01 0. -1.
</event>
<event>
11    1  0.8037748E-009  0.1546936E+03  0.7561462E-02  0.1092177E+00
         22   -1    0    0    0    0  0.00000000000E+00  0.00000000000E+00  0.28372519026E+03  0.28372519026E+03  0.00000000000E+00 0. -1.
         22   -1    0    0    0    0 -0.00000000000E+00 -0.00000000000E+00 -0.12515067255E+04  0.12515067255E+04  0.00000000000E+00 0. -1.
        -24    2    1    2    0    0  0.74281044534E+02  0.18351208030E+02 -0.10594165909E+04  0.10652061721E+04  0.80288452797E+02 0.  0.
         25    2    1    2    0    0  0.21511112336E+02 -0.31435761385E+02 -0.14950292929E+03  0.19861397639E+03  0.12508177606E+03 0.  0.
         24    2    1    2    0    0 -0.95792156871E+02  0.13084553355E+02  0.24113798498E+03  0.27141176722E+03  0.78546016653E+02 0.  0.
        -13    1    5    5    0    0  0.79955317179E+01  0.11107028560E+02  0.71717511952E+01  0.15450845482E+02  0.00000000000E+00 0.  1.
         14    1    5    5    0    0 -0.10378768859E+03  0.19775247949E+01  0.23396623378E+03  0.25596092174E+03  0.00000000000E+00 0. -1.
         11    1    3    3    0    0  0.34919863860E+02  0.19297659877E+02 -0.90399680105E+03  0.90487679431E+03  0.00000000000E+00 0. -1.
        -12    1    3    3    0    0  0.39361180674E+02 -0.94645184692E+00 -0.15541978985E+03  0.16032937782E+03  0.00000000000E+00 0.  1.
          5    1    4    4  501    0  0.19468893867E+02 -0.58046708915E+02 -0.15864020841E+03  0.17009599163E+03  0.41800000000E+01 0.  1.
         -5    1    4    4    0  501  0.20422184696E+01  0.26610947530E+02  0.91372791215E+01  0.28517984754E+02  0.41800000000E+01 0.  1.
</event>
<event>
11    1  0.8037748E-009  0.1327606E+03  0.7561462E-02  0.1115923E+00
         22   -1    0    0    0    0  0.00000000000E+00  0.00000000000E+00  0.24214810421E+03  0.24214810421E+03  0.00000000000E+00 0.  1.
         22   -1    0    0    0    0 -0.00000000000E+00 -0.00000000000E+00 -0.10224615121E+04  0.10224615121E+04  0.00000000000E+00 0. -1.
        -24    2    1    2    0    0 -0.42359365065E+02  0.15550946031E+02 -0.93708263826E+03  0.94176735864E+03  0.82254113217E+02 0.  0.
         25    2    1    2    0    0  0.20553434301E+02 -0.26549689211E+02 -0.16357496861E+02  0.13054703042E+03  0.12509048640E+03 0.  0.
         24    2    1    2    0    0  0.21805930764E+02  0.10998743180E+02  0.17312672719E+03  0.19229522730E+03  0.80050732688E+02 0.  0.
        -13    1    5    5    0    0 -0.18442849673E+02 -0.12774627827E+02  0.11755814052E+03  0.11967976530E+03  0.00000000000E+00 0.  1.
         14    1    5    5    0    0  0.40248780437E+02  0.23773371007E+02  0.55568586673E+02  0.72615461994E+02  0.00000000000E+00 0. -1.
         13    1    3    3    0    0 -0.27450978727E+01 -0.12884196444E+02 -0.67845133955E+03  0.67857922030E+03  0.00000000000E+00 0. -1.
        -14    1    3    3    0    0 -0.39614267193E+02  0.28435142475E+02 -0.25863129870E+03  0.26318813834E+03  0.00000000000E+00 0.  1.
          5    1    4    4  501    0  0.54940660347E+01  0.45303144326E+02  0.18188253897E+02  0.49303596494E+02  0.41800000000E+01 0.  1.
         -5    1    4    4    0  501  0.15059368266E+02 -0.71852833537E+02 -0.34545750759E+02  0.81243433922E+02  0.41800000000E+01 0.  1.
</event>
<event>
11    1  0.8037748E-009  0.1331787E+03  0.7561462E-02  0.1115424E+00
         22   -1    0    0    0    0  0.00000000000E+00  0.00000000000E+00  0.83360168873E+03  0.83360168873E+03  0.00000000000E+00 0. -1.
         22   -1    0    0    0    0 -0.00000000000E+00 -0.00000000000E+00 -0.68058195387E+03  0.68058195387E+03  0.00000000000E+00 0. -1.
         24    2    1    2    0    0 -0.28722641379E+01 -0.33399626648E+02 -0.54099675101E+03  0.54809149741E+03  0.81258968513E+02 0.  0.
         25    2    1    2    0    0  0.38096251982E+02  0.61750310340E+02 -0.93899983370E+02  0.17242064146E+03  0.12508895029E+03 0.  0.
        -24    2    1    2    0    0 -0.35223987844E+02 -0.28350683693E+02  0.78791646923E+03  0.79367150373E+03  0.84009539646E+02 0.  0.
        -11    1    3    3    0    0 -0.21140748550E+02 -0.19479361258E+02 -0.59838718596E+02  0.66385608437E+02  0.00000000000E+00 0.  1.
         12    1    3    3    0    0  0.18268484412E+02 -0.13920265390E+02 -0.48115803242E+03  0.48170588897E+03  0.00000000000E+00 0. -1.
         11    1    5    5    0    0 -0.51052014086E+02  0.17869145426E+01  0.63305817384E+03  0.63511585768E+03  0.00000000000E+00 0. -1.
        -12    1    5    5    0    0  0.15828026242E+02 -0.30137598235E+02  0.15485829539E+03  0.15855564605E+03  0.00000000000E+00 0.  1.
          5    1    4    4  501    0  0.55010793647E+02  0.93259268186E+02 -0.74766039276E+02  0.13164692001E+03  0.41800000000E+01 0.  1.
         -5    1    4    4    0  501 -0.16914541664E+02 -0.31508957846E+02 -0.19133944094E+02  0.40773721450E+02  0.41800000000E+01 0.  1.
</event>
<event>
11    1  0.8037748E-009  0.1320931E+03  0.7561462E-02  0.1116724E+00
         22   -1    0    0    0    0  0.00000000000E+00  0.00000000000E+00  0.85796187784E+03  0.85796187784E+03  0.00000000000E+00 0. -1.
         22   -1    0    0    0    0 -0.00000000000E+00 -0.00000000000E+00 -0.80555901484E+02  0.80555901484E+02  0.00000000000E+00 0.  1.
        -24    2    1    2    0    0  0.21324488043E+02 -0.24480297592E+02 -0.32776293019E+02  0.91512222698E+02  0.79032795462E+02 0.  0.
         25    2    1    2    0    0 -0.18756598225E+02  0.61399897079E+02  0.33125355460E+03  0.35985847335E+03  0.12508975205E+03 0.  0.
         24    2    1    2    0    0 -0.25678898174E+01 -0.36919599488E+02  0.47892871477E+03  0.48714708328E+03  0.81055018510E+02 0.  0.
        -11    1    5    5    0    0  0.22271082925E+02 -0.21650496489E+01  0.37590275504E+02  0.43746055675E+02  0.00000000000E+00 0.  1.
         12    1    5    5    0    0 -0.24838972742E+02 -0.34754549839E+02  0.44133843927E+03  0.44340102760E+03  0.00000000000E+00 0. -1.
         11    1    3    3    0    0 -0.20634454123E+02  0.11766890534E+02  0.51874563805E+01  0.24313578789E+02  0.00000000000E+00 0. -1.
        -12    1    3    3    0    0  0.41958942166E+02 -0.36247188126E+02 -0.37963749400E+02  0.67198643909E+02  0.00000000000E+00 0.  1.
          5    1    4    4  501    0  0.96582611116E+01  0.93495313737E+02  0.26115075304E+03  0.27758213903E+03  0.41800000000E+01 0.  1.
         -5    1    4    4    0  501 -0.28414859337E+02 -0.32095416657E+02  0.70102801567E+02  0.82276334320E+02  0.41800000000E+01 0.  1.
</event>
<event>
11    1  0.8037748E-009  0.3373074E+03  0.7561462E-02  0.9855316E-01
         22   -1    0    0    0    0  0.00000000000E+00  0.00000000000E+00  0.11359968114E+04  0.11359968114E+04  0.00000000000E+00 0. -1.
         22   -1    0    0    0    0 -0.00000000000E+00 -0.00000000000E+00 -0.23536353515E+03  0.23536353515E+03  0.00000000000E+00 0. -1.
        -24    2    1    2    0    0 -0.40072657901E+02  0.29324284073E+03  0.83339056001E+02  0.31784468071E+03  0.80514975328E+02 0.  0.
         25    2    1    2    0    0 -0.16405183228E+03 -0.37614308789E+03  0.56397059116E+03  0.70860246664E+03  0.12513193757E+03 0.  0.
         24    2    1    2    0    0  0.20412449018E+03  0.82900247157E+02  0.25332362912E+03  0.34491319922E+03  0.79075884138E+02 0.  0.
        -13    1    5    5    0    0  0.36994253000E+02 -0.10582585563E+02  0.20989478129E+02  0.43830629294E+02  0.00000000000E+00 0.  1.
         14    1    5    5    0    0  0.16713023718E+03  0.93482832720E+02  0.23233415099E+03  0.30108256992E+03  0.00000000000E+00 0. -1.
         11    1    3    3    0    0 -0.35476980531E+02  0.21206821349E+03  0.96154872792E+02  0.23553620291E+03  0.00000000000E+00 0. -1.
        -12    1    3    3    0    0 -0.45956773697E+01  0.81174627236E+02 -0.12815816791E+02  0.82308477798E+02  0.00000000000E+00 0.  1.
          5    1    4    4  501    0 -0.14285691390E+03 -0.30439724780E+03  0.52675048365E+03  0.62493945846E+03  0.41800000000E+01 0. -1.
         -5    1    4    4    0  501 -0.21194918378E+02 -0.71745840086E+02  0.37220107509E+02  0.83663008179E+02  0.41800000000E+01 0. -1.
</event>
<event>
11    1  0.8037748E-009  0.1333309E+03  0.7561462E-02  0.1115243E+00
         22   -1    0    0    0    0  0.00000000000E+00  0.00000000000E+00  0.27960890710E+04  0.27960890710E+04  0.00000000000E+00 0. -1.
         22   -1    0    0    0    0 -0.00000000000E+00 -0.00000000000E+00 -0.79287900211E+02  0.79287900211E+02  0.00000000000E+00 0. -1.
        -24    2    1    2    0    0  0.53947936521E+01 -0.43832688569E+02 -0.27611283861E+02  0.97987163151E+02  0.82998149138E+02 0.  0.
         25    2    1    2    0    0  0.49589877778E+01  0.64864616709E+02  0.29962277771E+03  0.33113915810E+03  0.12508926031E+03 0.  0.
         24    2    1    2    0    0 -0.10353781430E+02 -0.21031928140E+02  0.24447896769E+04  0.24462506500E+04  0.81216594136E+02 0.  0.
        -13    1    5    5    0    0  0.34157030258E+02 -0.12649527008E+02  0.78713227837E+03  0.78797457884E+03  0.00000000000E+00 0.  1.
         14    1    5    5    0    0 -0.44510811688E+02 -0.83824011321E+01  0.16576573986E+04  0.16582760711E+04  0.00000000000E+00 0. -1.
         13    1    3    3    0    0  0.30980581483E+02 -0.54254283252E+02 -0.31701266714E+02  0.70059217748E+02  0.00000000000E+00 0. -1.
        -14    1    3    3    0    0 -0.25585787831E+02  0.10421594684E+02  0.40899828530E+01  0.27927945403E+02  0.00000000000E+00 0.  1.
          5    1    4    4  501    0 -0.54782143098E+02  0.46201833203E+02  0.20851100470E+03  0.22052211698E+03  0.41800000000E+01 0. -1.
         -5    1    4    4    0  501  0.59741130876E+02  0.18662783506E+02  0.91111773005E+02  0.11061704112E+03  0.41800000000E+01 0. -1.
</event>
<event>
11    1  0.8037748E-009  0.1617935E+03  0.7561462E-02  0.1085402E+00
         22   -1    0    0    0    0  0.00000000000E+00  0.00000000000E+00  0.32431185794E+03  0.32431185794E+03  0.00000000000E+00 0.  1.
         22   -1    0    0    0    0 -0.00000000000E+00 -0.00000000000E+00 -0.47927077368E+03  0.47927077368E+03  0.00000000000E+00 0.  1.
        -24    2    1    2    0    0 -0.24076738697E+02 -0.98914028187E+02 -0.36102592657E+03  0.38366073815E+03  0.80573990995E+02 0.  0.
         25    2    1    2    0    0 -0.16165510855E+00  0.11002402271E+03 -0.29560343260E+02  0.16921878917E+03  0.12512343110E+03 0.  0.
         24    2    1    2    0    0  0.24238393805E+02 -0.11109994522E+02  0.23562735410E+03  0.25070310430E+03  0.81368696647E+02 0.  0.
        -11    1    5    5    0    0  0.33316267530E+02 -0.87897251104E+01  0.23844283538E+03  0.24091952743E+03  0.00000000000E+00 0.  1.
         12    1    5    5    0    0 -0.90778737249E+01 -0.23202694121E+01 -0.28154812884E+01  0.97835768712E+01  0.00000000000E+00 0. -1.
         11    1    3    3    0    0  0.18494715300E+02 -0.53581102847E+02 -0.96438535208E+02  0.11186322072E+03  0.00000000000E+00 0. -1.
        -12    1    3    3    0    0 -0.42571453996E+02 -0.45332925340E+02 -0.26458739136E+03  0.27179751744E+03  0.00000000000E+00 0.  1.
          5    1    4    4  501    0 -0.41826395139E+02  0.55306611969E+02  0.32311601433E+02  0.76614493700E+02  0.41800000000E+01 0. -1.
         -5    1    4    4    0  501  0.41664740030E+02  0.54717410741E+02 -0.61871944694E+02  0.92604295473E+02  0.41800000000E+01 0. -1.
</event>
<event>
11    1  0.8037748E-009  0.1448946E+03  0.7561462E-02  0.1102213E+00
         22   -1    0    0    0    0  0.00000000000E+00  0.00000000000E+00  0.19696105177E+04  0.19696105177E+04  0.00000000000E+00 0.  1.
         22   -1    0    0    0    0 -0.00000000000E+00 -0.00000000000E+00 -0.23127094406E+02  0.23127094406E+02  0.00000000000E+00 0.  1.
        -24    2    1    2    0    0 -0.30216425198E+01 -0.20329744258E+02  0.11176502575E+03  0.13796276167E+03  0.78229622278E+02 0.  0.
         25    2    1    2    0    0  0.75363304692E+02  0.14224578578E+02  0.71945456531E+03  0.73426311977E+03  0.12508193786E+03 0.  0.
         24    2    1    2    0    0 -0.72341662173E+02  0.61051656801E+01  0.11152638322E+04  0.11205117307E+04  0.80389887012E+02 0.  0.
        -13    1    5    5    0    0 -0.82446356288E+02  0.14840823881E+02  0.10711311117E+04  0.10744019314E+04  0.00000000000E+00 0.  1.
         14    1    5    5    0    0  0.10104694115E+02 -0.87356582011E+01  0.44132720473E+02  0.46109799216E+02  0.00000000000E+00 0. -1.
         13    1    3    3    0    0  0.17923866723E+02 -0.38225787776E+02  0.98945708682E+02  0.10757661975E+03  0.00000000000E+00 0. -1.
        -14    1    3    3    0    0 -0.20945509243E+02  0.17896043518E+02  0.12819317071E+02  0.30386141927E+02  0.00000000000E+00 0.  1.
          5    1    4    4  501    0  0.69083094775E+02  0.27075103820E+02  0.18181598331E+03  0.19641807304E+03  0.41800000000E+01 0. -1.
         -5    1    4    4    0  501  0.62802099170E+01 -0.12850525242E+02  0.53763858199E+03  0.53784504672E+03  0.41800000000E+01 0. -1.
</event>
<event>
11    1  0.8037748E-009  0.1451945E+03  0.7561462E-02  0.1101893E+00
         22   -1    0    0    0    0  0.00000000000E+00  0.00000000000E+00  0.14821062754E+04  0.14821062754E+04  0.00000000000E+00 0. -1.
         22   -1    0    0    0    0 -0.00000000000E+00 -0.00000000000E+00 -0.16836531777E+03  0.16836531777E+03  0.00000000000E+00 0. -1.
        -24    2    1    2    0    0 -0.67863585452E+02 -0.28384294456E+02 -0.13629388564E+03  0.17436389111E+03  0.80097495953E+02 0.  0.
         25    2    1    2    0    0  0.60921050498E+02  0.54761044307E+02  0.48810210319E+03  0.51049263792E+03  0.12509565887E+03 0.  0.
         24    2    1    2    0    0  0.69425349542E+01 -0.26376749851E+02  0.96193274011E+03  0.96561506417E+03  0.79711504402E+02 0.  0.
        -13    1    5    5    0    0 -0.34135789045E+02 -0.31071374982E+01  0.28841780714E+03  0.29044747868E+03  0.00000000000E+00 0.  1.
         14    1    5    5    0    0  0.41078323999E+02 -0.23269612353E+02  0.67351493297E+03  0.67516758549E+03  0.00000000000E+00 0. -1.
         11    1    3    3    0    0 -0.25265111022E+02 -0.10330561096E+01 -0.11777616991E+03  0.12046003171E+03  0.00000000000E+00 0. -1.
        -12    1    3    3    0    0 -0.42598474430E+02 -0.27351238346E+02 -0.18517715732E+02  0.53903859405E+02  0.00000000000E+00 0.  1.
          5    1    4    4  501    0  0.34409016033E+02  0.56804599898E+02  0.92357878054E+02  0.11383405902E+03  0.41800000000E+01 0.  1.
         -5    1    4    4    0  501  0.26512034464E+02 -0.20435555914E+01  0.39574422514E+03  0.39665857891E+03  0.41800000000E+01 0.  1.
</event>
<event>
11    1  0.8037748E-009  0.2785263E+03  0.7561462E-02  0.1009712E+00
         22   -1    0    0    0    0  0.00000000000E+00  0.00000000000E+00  0.59846638439E+03  0.59846638439E+03  0.00000000000E+00 0.  1.
         22   -1    0    0    0    0 -0.00000000000E+00 -0.00000000000E+00 -0.84818383674E+03  0.84818383674E+03  0.00000000000E+00 0.  1.
         24    2    1    2    0    0  0.10420385022E+03  0.27492433348E+01 -0.54844540131E+03  0.56389070606E+03  0.79463006676E+02 0.  0.
         25    2    1    2    0    0  0.91191085572E+02  0.16568513209E+03 -0.20892606676E+03  0.30832626846E+03  0.12509040478E+03 0.  0.
        -24    2    1    2    0    0 -0.19539493579E+03 -0.16843437543E+03  0.50765401572E+03  0.57443324661E+03  0.75575362263E+02 0.  0.
        -11    1    3    3    0    0  0.66094478955E+02 -0.31753684117E+02 -0.23245806340E+03  0.24374890327E+03  0.00000000000E+00 0.  1.
         12    1    3    3    0    0  0.38109371262E+02  0.34502927452E+02 -0.31598733791E+03  0.32014180280E+03  0.00000000000E+00 0. -1.
         11    1    5    5    0    0 -0.11841125883E+02 -0.31799405946E+02  0.32192889566E+02  0.46773888221E+02  0.00000000000E+00 0. -1.
        -12    1    5    5    0    0 -0.18355380991E+03 -0.13663496948E+03  0.47546112615E+03  0.52765935839E+03  0.00000000000E+00 0.  1.
          5    1    4    4  501    0  0.15891305938E+02  0.70432723796E+02 -0.69918170202E+01  0.72661269539E+02  0.41800000000E+01 0. -1.
         -5    1    4    4    0  501  0.75299779634E+02  0.95252408295E+02 -0.20193424974E+03  0.23566499892E+03  0.41800000000E+01 0. -1.
</event>
<event>
11    1  0.8037748E-009  0.1388041E+03  0.7561462E-02  0.1108901E+00
         22   -1    0    0    0    0  0.00000000000E+00  0.00000000000E+00  0.26878012644E+03  0.26878012644E+03  0.00000000000E+00 0.  1.
         22   -1    0    0    0    0 -0.00000000000E+00 -0.00000000000E+00 -0.83377436174E+03  0.83377436174E+03  0.00000000000E+00 0. -1.
        -24    2    1    2    0    0  0.38607658055E+02  0.48241447301E+02 -0.77793328932E+03  0.78468760684E+03  0.82077092997E+02 0.  0.
         25    2    1    2    0    0 -0.19249642127E+02  0.66527745987E+01  0.73528699901E+02  0.14652403919E+03  0.12509203100E+03 0.  0.
         24    2    1    2    0    0 -0.19358015928E+02 -0.54894221899E+02  0.13941035412E+03  0.17134284215E+03  0.80839435563E+02 0.  0.
        -11    1    5    5    0    0 -0.49430073248E+02 -0.45273070582E+02  0.82883236013E+02  0.10659556216E+03  0.00000000000E+00 0.  1.
         12    1    5    5    0    0  0.30072057321E+02 -0.96211513171E+01  0.56527118110E+02  0.64747279989E+02  0.00000000000E+00 0. -1.
         11    1    3    3    0    0  0.32092393683E+02  0.48551550249E+02 -0.77556912822E+03  0.77774973315E+03  0.00000000000E+00 0. -1.
        -12    1    3    3    0    0  0.65152643717E+01 -0.31010294813E+00 -0.23641611043E+01  0.69378736943E+01  0.00000000000E+00 0.  1.
          5    1    4    4  501    0 -0.30778035782E+02 -0.55347531626E+02  0.34399355215E+02  0.72190198662E+02  0.41800000000E+01 0.  1.
         -5    1    4    4    0  501  0.11528393655E+02  0.62000306225E+02  0.39129344685E+02  0.74333840528E+02  0.41800000000E+01 0.  1.
</event>
<event>
11    1  0.8037748E-009  0.1750695E+03  0.7561462E-02  0.1073702E+00
         22   -1    0    0    0    0  0.00000000000E+00  0.00000000000E+00  0.31406962086E+03  0.31406962086E+03  0.00000000000E+00 0. -1.
         22   -1    0    0    0    0 -0.00000000000E+00 -0.00000000000E+00 -0.13907426883E+04  0.13907426883E+04  0.00000000000E+00 0. -1.
         24    2    1    2    0    0  0.73015906551E+01 -0.16359880752E+02 -0.12310413242E+04  0.12338549184E+04  0.81328094503E+02 0.  0.
         25    2    1    2    0    0  0.89208817424E+02 -0.62424702234E+02 -0.87427740369E+02  0.18747314920E+03  0.12509002890E+03 0.  0.
        -24    2    1    2    0    0 -0.96510408079E+02  0.78784582986E+02  0.24179599712E+03  0.28348424153E+03  0.79854502622E+02 0.  0.
        -13    1    3    3    0    0  0.39985167334E+02 -0.22852379495E+02 -0.88963213842E+03  0.89082343176E+03  0.00000000000E+00 0.  1.
         14    1    3    3    0    0 -0.32683576679E+02  0.64924987428E+01 -0.34140918576E+03  0.34303148667E+03  0.00000000000E+00 0. -1.
         11    1    5    5    0    0 -0.62694124471E+02  0.13166994518E+02  0.16482419139E+03  0.17683590431E+03  0.00000000000E+00 0. -1.
        -12    1    5    5    0    0 -0.33816283609E+02  0.65617588468E+02  0.76971805732E+02  0.10664833722E+03  0.00000000000E+00 0.  1.
          5    1    4    4  501    0  0.43203108989E+02 -0.47231404676E+02  0.21929005330E+02  0.67791355560E+02  0.41800000000E+01 0.  1.
         -5    1    4    4    0  501  0.46005708435E+02 -0.15193297558E+02 -0.10935674570E+03  0.11968179364E+03  0.41800000000E+01 0.  1.
</event>
<event>
11    1  0.8037748E-009  0.1701622E+03  0.7561462E-02  0.1077891E+00
         22   -1    0    0    0    0  0.00000000000E+00  0.00000000000E+00  0.14320286928E+04  0.14320286928E+04  0.00000000000E+00 0.  1.
         22   -1    0    0    0    0 -0.00000000000E+00 -0.00000000000E+00 -0.28058349938E+04  0.28058349938E+04  0.00000000000E+00 0.  1.
         24    2    1    2    0    0  0.53622295060E+02  0.71580779841E+02 -0.25968367440E+04  0.25996528401E+04  0.81453392693E+02 0.  0.
         25    2    1    2    0    0 -0.11624795866E+03 -0.16661121286E+03 -0.13422022719E+03  0.27374193710E+03  0.12508674828E+03 0.  0.
        -24    2    1    2    0    0  0.62625663603E+02  0.95030433015E+02  0.13572506703E+04  0.13644689095E+04  0.81812382411E+02 0.  0.
        -11    1    3    3    0    0  0.24493601441E+02  0.28690637058E+02 -0.20538630902E+04  0.20542095031E+04  0.00000000000E+00 0.  1.
         12    1    3    3    0    0  0.29128693619E+02  0.42890142783E+02 -0.54297365378E+03  0.54544333696E+03  0.00000000000E+00 0. -1.
         11    1    5    5    0    0 -0.87718248703E+01  0.17774008272E+02  0.55460154087E+03  0.55495561031E+03  0.00000000000E+00 0. -1.
        -12    1    5    5    0    0  0.71397488473E+02  0.77256424743E+02  0.80264912942E+03  0.80951329914E+03  0.00000000000E+00 0.  1.
          5    1    4    4  501    0 -0.88181582315E+02 -0.18124382784E+03 -0.13352221609E+03  0.24180771530E+03  0.41800000000E+01 0. -1.
         -5    1    4    4    0  501 -0.28066376348E+02  0.14632614982E+02 -0.69801110941E+00  0.31934221801E+02  0.41800000000E+01 0. -1.
</event>
<event>
11    1  0.8037748E-009  0.1372261E+03  0.7561462E-02  0.1110696E+00
         22   -1    0    0    0    0  0.00000000000E+00  0.00000000000E+00  0.59831524913E+03  0.59831524913E+03  0.00000000000E+00 0. -1.
         22   -1    0    0    0    0 -0.00000000000E+00 -0.00000000000E+00 -0.77460285973E+03  0.77460285973E+03  0.00000000000E+00 0. -1.
        -24    2    1    2    0    0  0.64501850598E+01 -0.22026646549E+02 -0.56422698238E+03  0.57061011348E+03  0.81957525070E+02 0.  0.
         25    2    1    2    0    0 -0.47875235436E+02 -0.16643285021E+02 -0.18014278364E+03  0.22509017749E+03  0.12508048768E+03 0.  0.
         24    2    1    2    0    0  0.41425050377E+02  0.38669931570E+02  0.56808215542E+03  0.57721781790E+03  0.85156770661E+02 0.  0.
        -13    1    5    5    0    0  0.31742727924E+02 -0.13945402395E+02  0.95160619116E+02  0.10127990153E+03  0.00000000000E+00 0.  1.
         14    1    5    5    0    0  0.96823224521E+01  0.52615333965E+02  0.47292153630E+03  0.47593791637E+03  0.00000000000E+00 0. -1.
         11    1    3    3    0    0  0.19776511792E+02 -0.47068036261E+02 -0.45114303205E+03  0.45402262699E+03  0.00000000000E+00 0. -1.
        -12    1    3    3    0    0 -0.13326326732E+02  0.25041389712E+02 -0.11308395033E+03  0.11658748648E+03  0.00000000000E+00 0.  1.
          5    1    4    4  501    0  0.13854038999E+02  0.43899866822E+02 -0.82770623734E+02  0.94802854687E+02  0.41800000000E+01 0.  1.
         -5    1    4    4    0  501 -0.61729274435E+02 -0.60543151843E+02 -0.97372159908E+02  0.13028732280E+03  0.41800000000E+01 0.  1.
</event>
<event>
11    1  0.8037748E-009  0.2253435E+03  0.7561462E-02  0.1037921E+00
         22   -1    0    0    0    0  0.00000000000E+00  0.00000000000E+00  0.43679907442E+03  0.43679907442E+03  0.00000000000E+00 0.  1.
         22   -1    0    0    0    0 -0.00000000000E+00 -0.00000000000E+00 -0.13457749496E+04  0.13457749496E+04  0.00000000000E+00 0.  1.
        -24    2    1    2    0    0  0.47164039456E+02  0.12047862760E+03 -0.12187265288E+04  0.12279867938E+04  0.76926377228E+02 0.  0.
         25    2    1    2    0    0 -0.14473654080E+03 -0.22568495567E+03  0.20022975802E+03  0.35723202661E+03  0.12506158235E+03 0.  0.
         24    2    1    2    0    0  0.97572501345E+02  0.10520632807E+03  0.10952089563E+03  0.19735520354E+03  0.79783991512E+02 0.  0.
        -11    1    5    5    0    0  0.84252969284E+02  0.11133167557E+03  0.11581447147E+03  0.18140092784E+03  0.00000000000E+00 0.  1.
         12    1    5    5    0    0  0.13319532061E+02 -0.61253475015E+01 -0.62935758432E+01  0.15954275704E+02  0.00000000000E+00 0. -1.
         11    1    3    3    0    0  0.17361807895E+02 -0.65519847609E+01 -0.10318416870E+03  0.10483956099E+03  0.00000000000E+00 0. -1.
        -12    1    3    3    0    0  0.29802231561E+02  0.12703061236E+03 -0.11155423601E+04  0.11231472329E+04  0.00000000000E+00 0.  1.
          5    1    4    4  501    0 -0.38147039848E+02 -0.16285961743E+02  0.86786350701E+02  0.96279656559E+02  0.41800000000E+01 0. -1.
         -5    1    4    4    0  501 -0.10658950095E+03 -0.20939899393E+03  0.11344340732E+03  0.26095237005E+03  0.41800000000E+01 0. -1.
</event>
<event>
11    1  0.8037748E-009  0.1469480E+03  0.7561462E-02  0.1100039E+00
         22   -1    0    0    0    0  0.00000000000E+00  0.00000000000E+00  0.17286075431E+04  0.17286075431E+04  0.00000000000E+00 0.  1.
         22   -1    0    0    0    0 -0.00000000000E+00 -0.00000000000E+00 -0.50345359414E+03  0.50345359414E+03  0.00000000000E+00 0. -1.
         24    2    1    2    0    0  0.49812794374E+02  0.57010948867E+02 -0.45574059005E+03  0.46852010208E+03  0.77974597529E+02 0.  0.
         25    2    1    2    0    0 -0.90843543526E+02 -0.77378874762E+02  0.14704173853E+03  0.22695680709E+03  0.12509228496E+03 0.  0.
        -24    2    1    2    0    0  0.41030749152E+02  0.20367925895E+02  0.15338528004E+04  0.15365842280E+04  0.79298812541E+02 0.  0.
        -13    1    3    3    0    0  0.40587391678E+01 -0.26702806338E+01  0.15404342058E+01  0.50967342326E+01  0.00000000000E+00 0.  1.
         14    1    3    3    0    0  0.45754055206E+02  0.59681229501E+02 -0.45728102425E+03  0.46342336784E+03  0.00000000000E+00 0. -1.
         13    1    5    5    0    0  0.14845008191E+02  0.14187994709E+01  0.45520255910E+02  0.47900740686E+02  0.00000000000E+00 0. -1.
        -14    1    5    5    0    0  0.26185740962E+02  0.18949126424E+02  0.14883325445E+04  0.14886834874E+04  0.00000000000E+00 0.  1.
          5    1    4    4  501    0 -0.20648328200E+02 -0.46977720644E+02  0.14100388251E+03  0.15010938338E+03  0.41800000000E+01 0.  1.
         -5    1    4    4    0  501 -0.70195215326E+02 -0.30401154118E+02  0.60378560175E+01  0.76847423715E+02  0.41800000000E+01 0.  1.
</event>
<event>
11    1  0.8037748E-009  0.1448540E+03  0.7561462E-02  0.1102256E+00
         22   -1    0    0    0    0  0.00000000000E+00  0.00000000000E+00  0.68574087616E+03  0.68574087616E+03  0.00000000000E+00 0. -1.
         22   -1    0    0    0    0 -0.00000000000E+00 -0.00000000000E+00 -0.19188503977E+03  0.19188503977E+03  0.00000000000E+00 0.  1.
        -24    2    1    2    0    0  0.13644691725E+02 -0.69066551963E+02 -0.94364739176E+02  0.14173346075E+03  0.78913266841E+02 0.  0.
         25    2    1    2    0    0  0.11134651593E+02 -0.47556054625E+01 -0.11272957055E+02  0.12617985791E+03  0.12509069003E+03 0.  0.
         24    2    1    2    0    0 -0.24779343318E+02  0.73822157426E+02  0.59949353262E+03  0.60971259727E+03  0.79329873479E+02 0.  0.
        -13    1    5    5    0    0 -0.16866124622E+01 -0.16981784343E+02  0.11263389603E+03  0.11391935831E+03  0.00000000000E+00 0.  1.
         14    1    5    5    0    0 -0.23092730856E+02  0.90803941769E+02  0.48685963659E+03  0.49579323896E+03  0.00000000000E+00 0. -1.
         13    1    3    3    0    0 -0.12241396102E+02 -0.18823997826E+01  0.93213911431E+01  0.15501081908E+02  0.00000000000E+00 0. -1.
        -14    1    3    3    0    0  0.25886087827E+02 -0.67184152181E+02 -0.10368613032E+03  0.12623237884E+03  0.00000000000E+00 0.  1.
          5    1    4    4  501    0  0.51178053480E+02 -0.34099818680E+02 -0.35124144752E+02  0.70944828822E+02  0.41800000000E+01 0.  1.
         -5    1    4    4    0  501 -0.40043401887E+02  0.29344213218E+02  0.23851187697E+02  0.55235029090E+02  0.41800000000E+01 0.  1.
</event>
<event>
11    1  0.8037748E-009  0.2042329E+03  0.7561462E-02  0.1051570E+00
         22   -1    0    0    0    0  0.00000000000E+00  0.00000000000E+00  0.33796366752E+03  0.33796366752E+03  0.00000000000E+00 0. -1.
         22   -1    0    0    0    0 -0.00000000000E+00 -0.00000000000E+00 -0.13559678657E+04  0.13559678657E+04  0.00000000000E+00 0.  1.
         24    2    1    2    0    0  0.14117320869E+03  0.81369030878E+02 -0.12779932524E+04  0.12909074894E+04  0.81391640283E+02 0.  0.
         25    2    1    2    0    0 -0.12249477964E+03 -0.48111878405E+02  0.72706543971E+02  0.19558613772E+03  0.12509185364E+03 0.  0.
        -24    2    1    2    0    0 -0.18678429048E+02 -0.33257152473E+02  0.18728251024E+03  0.20743790607E+03  0.80627689587E+02 0.  0.
        -13    1    3    3    0    0  0.11115449930E+03  0.71014476413E+02 -0.71804592516E+03  0.73006049695E+03  0.00000000000E+00 0.  1.
         14    1    3    3    0    0  0.30018709392E+02  0.10354554466E+02 -0.55994732722E+03  0.56084699248E+03  0.00000000000E+00 0. -1.
         11    1    5    5    0    0  0.20169641059E+02 -0.27403518450E+02  0.14807517699E+03  0.15193427949E+03  0.00000000000E+00 0. -1.
        -12    1    5    5    0    0 -0.38848070107E+02 -0.58536340233E+01  0.39207333256E+02  0.55503626578E+02  0.00000000000E+00 0.  1.
          5    1    4    4  501    0 -0.10681109684E+03 -0.56552238784E+02  0.32784979253E+00  0.12093116226E+03  0.41800000000E+01 0.  1.
         -5    1    4    4    0  501 -0.15683682797E+02  0.84403603793E+01  0.72378694179E+02  0.74654975457E+02  0.41800000000E+01 0.  1.
</event>
<event>
11    1  0.8037748E-009  0.1292476E+03  0.7561462E-02  0.1120197E+00
         22   -1    0    0    0    0  0.00000000000E+00  0.00000000000E+00  0.29586796733E+03  0.29586796733E+03  0.00000000000E+00 0.  1.
         22   -1    0    0    0    0 -0.00000000000E+00 -0.00000000000E+00 -0.73305521399E+03  0.73305521399E+03  0.00000000000E+00 0. -1.
        -24    2    1    2    0    0 -0.21301518467E+02 -0.25894926606E+02 -0.53316807065E+03  0.54009322076E+03  0.79424137649E+02 0.  0.
         25    2    1    2    0    0 -0.10058524410E+02  0.35867786625E+02 -0.16677053344E+03  0.21177926600E+03  0.12510145745E+03 0.  0.
         24    2    1    2    0    0  0.31360042876E+02 -0.99728600191E+01  0.26275135743E+03  0.27705069456E+03  0.81461041598E+02 0.  0.
        -11    1    5    5    0    0  0.18024919117E+02 -0.25219703263E+02  0.25241278047E+03  0.25430914826E+03  0.00000000000E+00 0.  1.
         12    1    5    5    0    0  0.13335123759E+02  0.15246843244E+02  0.10338576953E+02  0.22741546297E+02  0.00000000000E+00 0. -1.
         11    1    3    3    0    0 -0.31540948919E+02  0.19946848691E+02 -0.29374216290E+03  0.29610330376E+03  0.00000000000E+00 0. -1.
        -12    1    3    3    0    0  0.10239430452E+02 -0.45841775297E+02 -0.23942590774E+03  0.24398991700E+03  0.00000000000E+00 0.  1.
          5    1    4    4  501    0 -0.37391607018E+02 -0.22350541117E+02 -0.13963484321E+02  0.45936154149E+02  0.41800000000E+01 0. -1.
         -5    1    4    4    0  501  0.27333082608E+02  0.58218327742E+02 -0.15280704912E+03  0.16584311186E+03  0.41800000000E+01 0. -1.
</event>
<event>
11    1  0.8037748E-009  0.1477347E+03  0.7561462E-02  0.1099216E+00
         22   -1    0    0    0    0  0.00000000000E+00  0.00000000000E+00  0.64261079452E+02  0.64261079452E+02  0.00000000000E+00 0. -1.
         22   -1    0    0    0    0 -0.00000000000E+00 -0.00000000000E+00 -0.17817323011E+04  0.17817323011E+04  0.00000000000E+00 0. -1.
         24    2    1    2    0    0  0.57757340473E+02 -0.45218891408E+02 -0.12478012113E+04  0.12523835733E+04  0.77949298879E+02 0.  0.
         25    2    1    2    0    0 -0.11641403111E+03  0.35554314778E+02 -0.46214456939E+03  0.49400491959E+03  0.12508765576E+03 0.  0.
        -24    2    1    2    0    0  0.58656690639E+02  0.96645766299E+01 -0.75254409724E+01  0.99604887692E+02  0.79564376401E+02 0.  0.
        -13    1    3    3    0    0  0.13633619736E+02  0.18095711736E+02 -0.13313774827E+03  0.13505180630E+03  0.00000000000E+00 0.  1.
         14    1    3    3    0    0  0.44123720737E+02 -0.63314603143E+02 -0.11146634630E+04  0.11173317670E+04  0.00000000000E+00 0. -1.
         11    1    5    5    0    0  0.61324442455E+02  0.36187446455E+02 -0.13024614248E+02  0.72386871045E+02  0.00000000000E+00 0. -1.
        -12    1    5    5    0    0 -0.26677518156E+01 -0.26522869825E+02  0.54991732756E+01  0.27218016647E+02  0.00000000000E+00 0.  1.
          5    1    4    4  501    0 -0.58364151912E+02 -0.99972763831E+01 -0.37531495174E+03  0.37998040103E+03  0.41800000000E+01 0.  1.
         -5    1    4    4    0  501 -0.58049879200E+02  0.45551591161E+02 -0.86829617649E+02  0.11402451856E+03  0.41800000000E+01 0.  1.
</event>
<event>
11    1  0.8037748E-009  0.2014626E+03  0.7561462E-02  0.1053494E+00
         22   -1    0    0    0    0  0.00000000000E+00  0.00000000000E+00  0.52743490797E+03  0.52743490797E+03  0.00000000000E+00 0.  1.
         22   -1    0    0    0    0 -0.00000000000E+00 -0.00000000000E+00 -0.36005725233E+03  0.36005725233E+03  0.00000000000E+00 0. -1.
        -24    2    1    2    0    0 -0.80482708785E+02  0.13521293947E+03 -0.28287864739E+03  0.33371327334E+03  0.81143171234E+02 0.  0.
         25    2    1    2    0    0  0.78511169055E+02 -0.14275192057E+03  0.17139085352E+03  0.26751595587E+03  0.12509135655E+03 0.  0.
         24    2    1    2    0    0  0.19715397297E+01  0.75389811030E+01  0.27886544952E+03  0.28626293109E+03  0.64185696043E+02 0.  0.
        -11    1    5    5    0    0 -0.90054237411E+01 -0.21322680014E+02  0.20357139406E+03  0.20488305645E+03  0.00000000000E+00 0.  1.
         12    1    5    5    0    0  0.10976963471E+02  0.28861661118E+02  0.75294055454E+02  0.81379874638E+02  0.00000000000E+00 0. -1.
         11    1    3    3    0    0 -0.66046628916E+02  0.95348723723E+02 -0.26184499202E+03  0.28638494401E+03  0.00000000000E+00 0. -1.
        -12    1    3    3    0    0 -0.14436079869E+02  0.39864215744E+02 -0.21033655369E+02  0.47328329329E+02  0.00000000000E+00 0.  1.
          5    1    4    4  501    0 -0.11398580914E+02  0.12524675182E+02  0.44263087345E+02  0.47576133056E+02  0.41800000000E+01 0.  1.
         -5    1    4    4    0  501  0.89909749969E+02 -0.15527659575E+03  0.12712776618E+03  0.21993982282E+03  0.41800000000E+01 0.  1.
</event>
<event>
11    1  0.8037748E-009  0.1316413E+03  0.7561462E-02  0.1117269E+00
         22   -1    0    0    0    0  0.00000000000E+00  0.00000000000E+00  0.31840929503E+04  0.31840929503E+04  0.00000000000E+00 0. -1.
         22   -1    0    0    0    0 -0.00000000000E+00 -0.00000000000E+00 -0.48060907257E+03  0.48060907257E+03  0.00000000000E+00 0. -1.
         24    2    1    2    0    0  0.23743344921E+02 -0.32496127851E+02 -0.44502756014E+03  0.45417099340E+03  0.81252798153E+02 0.  0.
         25    2    1    2    0    0 -0.47487577602E+02  0.50961378765E+02  0.13820725049E+03  0.19899994681E+03  0.12509037769E+03 0.  0.
        -24    2    1    2    0    0  0.23744232681E+02 -0.18465250914E+02  0.30103041874E+04  0.30115310827E+04  0.80519607420E+02 0.  0.
        -13    1    3    3    0    0  0.78717618984E+01 -0.37490923687E+02 -0.79332102032E+02  0.88097198634E+02  0.00000000000E+00 0.  1.
         14    1    3    3    0    0  0.15871583023E+02  0.49947958358E+01 -0.36569545811E+03  0.36607379477E+03  0.00000000000E+00 0. -1.
         11    1    5    5    0    0 -0.11898568965E+02  0.10640723688E+02  0.21030875534E+04  0.21031481303E+04  0.00000000000E+00 0. -1.
        -12    1    5    5    0    0  0.35642801646E+02 -0.29105974602E+02  0.90721663400E+03  0.90838295232E+03  0.00000000000E+00 0.  1.
          5    1    4    4  501    0  0.40504813845E+02  0.21014592220E+02  0.69878305412E+02  0.83562569360E+02  0.41800000000E+01 0.  1.
         -5    1    4    4    0  501 -0.87992391447E+02  0.29946786545E+02  0.68328945079E+02  0.11543737745E+03  0.41800000000E+01 0.  1.
</event>
<event>
11    1  0.8037748E-009  0.2709251E+03  0.7561462E-02  0.1013307E+00
         22   -1    0    0    0    0  0.00000000000E+00  0.00000000000E+00  0.20839009005E+04  0.20839009005E+04  0.00000000000E+00 0.  1.
         22   -1    0    0    0    0 -0.00000000000E+00 -0.00000000000E+00 -0.10330719103E+03  0.10330719103E+03  0.00000000000E+00 0. -1.
        -24    2    1    2    0    0 -0.29216503752E+02  0.27517963132E+00 -0.10094914232E+02  0.85681067221E+02  0.79910313298E+02 0.  0.
         25    2    1    2    0    0 -0.18988141203E+03  0.10953475993E+03  0.30581487878E+03  0.39651344217E+03  0.12508938995E+03 0.  0.
         24    2    1    2    0    0  0.21909791578E+03 -0.10980993956E+03  0.16848737449E+04  0.17050135822E+04  0.90607170931E+02 0.  0.
        -13    1    5    5    0    0  0.22714516731E+03 -0.10972615176E+03  0.16531092931E+04  0.16722455233E+04  0.00000000000E+00 0.  1.
         14    1    5    5    0    0 -0.80472515315E+01 -0.83787797812E-01  0.31764451866E+02  0.32768058837E+02  0.00000000000E+00 0. -1.
         13    1    3    3    0    0  0.19785061683E+02 -0.11047576086E+02 -0.24493221089E+02  0.33367881001E+02  0.00000000000E+00 0. -1.
        -14    1    3    3    0    0 -0.49001565435E+02  0.11322755717E+02  0.14398306857E+02  0.52313186220E+02  0.00000000000E+00 0.  1.
          5    1    4    4  501    0 -0.34130231000E+02  0.83858950654E+02  0.14600015574E+03  0.17184502946E+03  0.41800000000E+01 0. -1.
         -5    1    4    4    0  501 -0.15575118103E+03  0.25675809277E+02  0.15981472304E+03  0.22466841272E+03  0.41800000000E+01 0. -1.
</event>
<event>
11    1  0.8037748E-009  0.1306655E+03  0.7561462E-02  0.1118454E+00
         22   -1    0    0    0    0  0.00000000000E+00  0.00000000000E+00  0.15209815758E+04  0.15209815758E+04  0.00000000000E+00 0. -1.
         22   -1    0    0    0    0 -0.00000000000E+00 -0.00000000000E+00 -0.66876743373E+02  0.66876743373E+02  0.00000000000E+00 0.  1.
         24    2    1    2    0    0  0.40068446244E+01  0.21529548697E+02 -0.94166731487E+01  0.80521940247E+02  0.76912501305E+02 0.  0.
         25    2    1    2    0    0  0.33260389072E+02 -0.27542027098E+02  0.19454794713E+03  0.23529265001E+03  0.12509560615E+03 0.  0.
        -24    2    1    2    0    0 -0.37267233696E+02  0.60124784005E+01  0.12689735584E+04  0.12720437289E+04  0.79852111035E+02 0.  0.
        -13    1    3    3    0    0  0.35798596441E+02  0.27801001037E+02  0.38883975841E+01  0.45492359815E+02  0.00000000000E+00 0.  1.
         14    1    3    3    0    0 -0.31791751817E+02 -0.62714523397E+01 -0.13305070733E+02  0.35029580432E+02  0.00000000000E+00 0. -1.
         13    1    5    5    0    0  0.51924983017E+01 -0.91377002863E+01  0.93298764776E+03  0.93304684259E+03  0.00000000000E+00 0. -1.
        -14    1    5    5    0    0 -0.42459731998E+02  0.15150178687E+02  0.33598591067E+03  0.33899688630E+03  0.00000000000E+00 0.  1.
          5    1    4    4  501    0  0.65295684215E+02  0.24356505015E+02  0.86612664865E+02  0.11124743516E+03  0.41800000000E+01 0.  1.
         -5    1    4    4    0  501 -0.32035295144E+02 -0.51898532113E+02  0.10793528226E+03  0.12404521485E+03  0.41800000000E+01 0.  1.
</event>
<event>
11    1  0.8037748E-009  0.2910557E+03  0.7561462E-02  0.1004049E+00
         22   -1    0    0    0    0  0.00000000000E+00  0.00000000000E+00  0.30611030509E+03  0.30611030509E+03  0.00000000000E+00 0.  1.
         22   -1    0    0    0    0 -0.00000000000E+00 -0.00000000000E+00 -0.14541401468E+04  0.14541401468E+04  0.00000000000E+00 0.  1.
         24    2    1    2    0    0 -0.39186077705E+02  0.32852147610E+01 -0.11663413705E+04  0.11697885139E+04  0.80663705298E+02 0.  0.
         25    2    1    2    0    0 -0.23690910208E+03 -0.82662441774E+01 -0.93253722745E+02  0.28379256777E+03  0.12509081212E+03 0.  0.
        -24    2    1    2    0    0  0.27609517978E+03  0.49810294163E+01  0.11156525148E+03  0.30666937028E+03  0.73115924222E+02 0.  0.
        -13    1    3    3    0    0 -0.58121887509E+02 -0.18092666481E+02 -0.83756237912E+03  0.83977153875E+03  0.00000000000E+00 0.  1.
         14    1    3    3    0    0  0.18935809804E+02  0.21377881242E+02 -0.32877899138E+03  0.33001697513E+03  0.00000000000E+00 0. -1.
         13    1    5    5    0    0  0.98568963253E+01  0.16352023822E+02  0.93212572975E+01  0.21246950978E+02  0.00000000000E+00 0. -1.
        -14    1    5    5    0    0  0.26623828346E+03 -0.11370994406E+02  0.10224399418E+03  0.28542241930E+03  0.00000000000E+00 0.  1.
          5    1    4    4  501    0 -0.10700920267E+03 -0.65460847248E+02 -0.52624978620E+02  0.13609905493E+03  0.41800000000E+01 0. -1.
         -5    1    4    4    0  501 -0.12989989941E+03  0.57194603070E+02 -0.40628744125E+02  0.14769351284E+03  0.41800000000E+01 0. -1.
</event>
<event>
11    1  0.8037748E-009  0.1321981E+03  0.7561462E-02  0.1116597E+00
         22   -1    0    0    0    0  0.00000000000E+00  0.00000000000E+00  0.63626878066E+03  0.63626878066E+03  0.00000000000E+00 0.  1.
         22   -1    0    0    0    0 -0.00000000000E+00 -0.00000000000E+00 -0.11425217342E+03  0.11425217342E+03  0.00000000000E+00 0. -1.
         24    2    1    2    0    0  0.41069946737E+02 -0.13119466256E+02 -0.67804050383E+02  0.11363309610E+03  0.80350671187E+02 0.  0.
         25    2    1    2    0    0 -0.40303459587E+02  0.28768243873E+01  0.20338236454E+03  0.24216632083E+03  0.12508995070E+03 0.  0.
        -24    2    1    2    0    0 -0.76648714951E+00  0.10242641869E+02  0.38643829308E+03  0.39472153715E+03  0.79781190240E+02 0.  0.
        -11    1    3    3    0    0  0.12250805721E+02  0.21936963084E+02  0.70503637840E+01  0.26096364107E+02  0.00000000000E+00 0.  1.
         12    1    3    3    0    0  0.28819141016E+02 -0.35056429340E+02 -0.74854414167E+02  0.87536731989E+02  0.00000000000E+00 0. -1.
         11    1    5    5    0    0 -0.90732958127E+01  0.36731177895E+02  0.99619146178E+02  0.10656208712E+03  0.00000000000E+00 0. -1.
        -12    1    5    5    0    0  0.83068086632E+01 -0.26488536026E+02  0.28681914690E+03  0.28815945003E+03  0.00000000000E+00 0.  1.
          5    1    4    4  501    0  0.43921748305E+02 -0.11942858195E+02  0.65818926343E+02  0.80133359476E+02  0.41800000000E+01 0. -1.
         -5    1    4    4    0  501 -0.84225207893E+02  0.14819682582E+02  0.13756343820E+03  0.16203296136E+03  0.41800000000E+01 0. -1.
</event>
<event>
11    1  0.8037748E-009  0.1516657E+03  0.7561462E-02  0.1095189E+00
         22   -1    0    0    0    0  0.00000000000E+00  0.00000000000E+00  0.15187669448E+04  0.15187669448E+04  0.00000000000E+00 0.  1.
         22   -1    0    0    0    0 -0.00000000000E+00 -0.00000000000E+00 -0.73566206004E+03  0.73566206004E+03  0.00000000000E+00 0.  1.
         24    2    1    2    0    0 -0.41312217484E+02  0.10513219465E+01 -0.69495797989E+03  0.70049133571E+03  0.77548133434E+02 0.  0.
         25    2    1    2    0    0  0.13037850764E+02 -0.82846546173E+02  0.12449391023E+03  0.19539539971E+03  0.12508833989E+03 0.  0.
        -24    2    1    2    0    0  0.28274366720E+02  0.81795224227E+02  0.13535689544E+04  0.13585422694E+04  0.77448595365E+02 0.  0.
        -13    1    3    3    0    0 -0.48273342575E+02  0.28063267495E+02 -0.55349432838E+03  0.55630372472E+03  0.00000000000E+00 0.  1.
         14    1    3    3    0    0  0.69611250909E+01 -0.27011945548E+02 -0.14146365151E+03  0.14418761099E+03  0.00000000000E+00 0. -1.
         13    1    5    5    0    0  0.23908509523E+02  0.44936965738E+02  0.29763381505E+03  0.30195502244E+03  0.00000000000E+00 0. -1.
        -14    1    5    5    0    0  0.43658571972E+01  0.36858258488E+02  0.10559351393E+04  0.10565872470E+04  0.00000000000E+00 0.  1.
          5    1    4    4  501    0 -0.45800870821E+02 -0.13868831369E+02  0.82330466183E+02  0.95319684816E+02  0.41800000000E+01 0. -1.
         -5    1    4    4    0  501  0.58838721585E+02 -0.68977714805E+02  0.42163444049E+02  0.10007571489E+03  0.41800000000E+01 0. -1.
</event>
<event>
11    1  0.8037748E-009  0.1930440E+03  0.7561462E-02  0.1059555E+00
         22   -1    0    0    0    0  0.00000000000E+00  0.00000000000E+00  0.15024217730E+03  0.15024217730E+03  0.00000000000E+00 0.  1.
         22   -1    0    0    0    0 -0.00000000000E+00 -0.00000000000E+00 -0.19003855436E+04  0.19003855436E+04  0.00000000000E+00 0.  1.
         24    2    1    2    0    0  0.28790520304E+02  0.33236455366E+02 -0.71444186689E+03  0.72012020044E+03  0.78818563143E+02 0.  0.
         25    2    1    2    0    0 -0.31215363601E+02 -0.17879193642E+03 -0.11214342762E+04  0.11428925093E+04  0.12508995406E+03 0.  0.
        -24    2    1    2    0    0  0.24248432971E+01  0.14555548106E+03  0.85732776750E+02  0.18761501115E+03  0.81590474134E+02 0.  0.
        -11    1    3    3    0    0 -0.15119222198E+02  0.50342068774E+01 -0.46523163411E+03  0.46550446560E+03  0.00000000000E+00 0.  1.
         12    1    3    3    0    0  0.43909742501E+02  0.28202248489E+02 -0.24921023279E+03  0.25461573485E+03  0.00000000000E+00 0. -1.
         11    1    5    5    0    0 -0.58088116385E+01  0.11281322481E+03  0.21415015105E+02  0.11497464441E+03  0.00000000000E+00 0. -1.
        -12    1    5    5    0    0  0.82336549356E+01  0.32742256248E+02  0.64317761646E+02  0.72640366745E+02  0.00000000000E+00 0.  1.
          5    1    4    4  501    0  0.47633325166E+02 -0.48834447562E+02 -0.35441398513E+03  0.36094387679E+03  0.41800000000E+01 0.  1.
         -5    1    4    4    0  501 -0.78848688767E+02 -0.12995748886E+03 -0.76702029107E+03  0.78194863254E+03  0.41800000000E+01 0.  1.
</event>
<event>
11    1  0.8037748E-009  0.1573444E+03  0.7561462E-02  0.1089602E+00
         22   -1    0    0    0    0  0.00000000000E+00  0.00000000000E+00  0.60729093069E+03  0.60729093069E+03  0.00000000000E+00 0.  1.
         22   -1    0    0    0    0 -0.00000000000E+00 -0.00000000000E+00 -0.21544094174E+04  0.21544094174E+04  0.00000000000E+00 0. -1.
         24    2    1    2    0    0  0.88146090119E+01  0.62605902899E+02 -0.19278257735E+04  0.19304846495E+04  0.79130099052E+02 0.  0.
         25    2    1    2    0    0 -0.77594222315E+02 -0.12653182670E+03 -0.17530829976E+03  0.26157574189E+03  0.12513074073E+03 0.  0.
        -24    2    1    2    0    0  0.68779613303E+02  0.63925923800E+02  0.55601558660E+03  0.56963995665E+03  0.80741493269E+02 0.  0.
        -13    1    3    3    0    0 -0.15576921475E+02  0.53431899057E+02 -0.64573975197E+03  0.64813380994E+03  0.00000000000E+00 0.  1.
         14    1    3    3    0    0  0.24391530487E+02  0.91740038420E+01 -0.12820860215E+04  0.12823508396E+04  0.00000000000E+00 0. -1.
         11    1    5    5    0    0 -0.68394185071E+00  0.27908665094E+02  0.47159170667E+02  0.54802816915E+02  0.00000000000E+00 0. -1.
        -12    1    5    5    0    0  0.69463555154E+02  0.36017258706E+02  0.50885641593E+03  0.51483713974E+03  0.00000000000E+00 0.  1.
          5    1    4    4  501    0 -0.55508392978E+02  0.52397370564E+01 -0.79157882128E+02  0.96912740330E+02  0.41800000000E+01 0. -1.
         -5    1    4    4    0  501 -0.22085829337E+02 -0.13177156375E+03 -0.96150417629E+02  0.16466300156E+03  0.41800000000E+01 0. -1.
</event>
<event>
11    1  0.8037748E-009  0.1596793E+03  0.7561462E-02  0.1087379E+00
         22   -1    0    0    0    0  0.00000000000E+00  0.00000000000E+00  0.56476110404E+03  0.56476110404E+03  0.00000000000E+00 0. -1.
         22   -1    0    0    0    0 -0.00000000000E+00 -0.00000000000E+00 -0.35205089833E+03  0.35205089833E+03  0.00000000000E+00 0.  1.
         24    2    1    2    0    0  0.17037459751E+02  0.17112769802E+01 -0.27019051703E+03  0.28253978330E+03  0.80824564019E+02 0.  0.
         25    2    1    2    0    0 -0.93515793285E+02 -0.62250470992E+02  0.39126221970E+02  0.17262225174E+03  0.12508899159E+03 0.  0.
        -24    2    1    2    0    0  0.76478333534E+02  0.60539194012E+02  0.44377450077E+03  0.46164996734E+03  0.81675916288E+02 0.  0.
        -13    1    3    3    0    0  0.20983783805E+02  0.37095618303E+02 -0.19125704510E+03  0.19594810890E+03  0.00000000000E+00 0.  1.
         14    1    3    3    0    0 -0.39463240535E+01 -0.35384341323E+02 -0.78933471928E+02  0.86591674398E+02  0.00000000000E+00 0. -1.
         11    1    5    5    0    0  0.12785349490E+02  0.48693661927E+02  0.29667279169E+03  0.30091407943E+03  0.00000000000E+00 0. -1.
        -12    1    5    5    0    0  0.63692984044E+02  0.11845532084E+02  0.14710170908E+03  0.16073588791E+03  0.00000000000E+00 0.  1.
          5    1    4    4  501    0 -0.74893117373E+02  0.24562370267E+02  0.13137710752E+02  0.80014754307E+02  0.41800000000E+01 0. -1.
         -5    1    4    4    0  501 -0.18622675912E+02 -0.86812841258E+02  0.25988511218E+02  0.92607497433E+02  0.41800000000E+01 0. -1.
</event>
<event>
11    1  0.8037748E-009  0.1549193E+03  0.7561462E-02  0.1091956E+00
         22   -1    0    0    0    0  0.00000000000E+00  0.00000000000E+00  0.18087608614E+03  0.18087608614E+03  0.00000000000E+00 0. -1.
         22   -1    0    0    0    0 -0.00000000000E+00 -0.00000000000E+00 -0.44249632686E+03  0.44249632686E+03  0.00000000000E+00 0. -1.
         24    2    1    2    0    0 -0.86548153418E+02  0.29334867349E+02 -0.34596673547E+03  0.36595847864E+03  0.76690995134E+02 0.  0.
         25    2    1    2    0    0  0.92923476361E+02 -0.10254301828E+02  0.68176940053E+02  0.17039863941E+03  0.12509067908E+03 0.  0.
        -24    2    1    2    0    0 -0.63753229426E+01 -0.19080565521E+02  0.16169554691E+02  0.87015294960E+02  0.83099304058E+02 0.  0.
        -11    1    3    3    0    0 -0.66426379105E+02  0.44684772118E+02 -0.16684818446E+03  0.18506082611E+03  0.00000000000E+00 0.  1.
         12    1    3    3    0    0 -0.20121774313E+02 -0.15349904769E+02 -0.17911855100E+03  0.18089765253E+03  0.00000000000E+00 0. -1.
         13    1    5    5    0    0 -0.41117235891E+02 -0.11253658478E+02  0.26174736460E+02  0.50023881748E+02  0.00000000000E+00 0. -1.
        -14    1    5    5    0    0  0.34741912948E+02 -0.78269070430E+01 -0.10005181769E+02  0.36991413212E+02  0.00000000000E+00 0.  1.
          5    1    4    4  501    0  0.38321445443E+02  0.32732508661E+02  0.84881407764E+02  0.98804231124E+02  0.41800000000E+01 0.  1.
         -5    1    4    4    0  501  0.54602030918E+02 -0.42986810489E+02 -0.16704467711E+02  0.71594408286E+02  0.41800000000E+01 0.  1.
</event>
<event>
11    1  0.8037748E-009  0.1700671E+03  0.7561462E-02  0.1077973E+00
         22   -1    0    0    0    0  0.00000000000E+00  0.00000000000E+00  0.14393359219E+04  0.14393359219E+04  0.00000000000E+00 0.  1.
         22   -1    0    0    0    0 -0.00000000000E+00 -0.00000000000E+00 -0.17049857352E+03  0.17049857352E+03  0.00000000000E+00 0. -1.
         24    2    1    2    0    0 -0.11009450132E+03 -0.25810350398E+02 -0.11826028511E+03  0.18255354615E+03  0.80952632892E+02 0.  0.
         25    2    1    2    0    0  0.15607816671E+03  0.58206950501E+01  0.55834856289E+03  0.59312335731E+03  0.12509166513E+03 0.  0.
        -24    2    1    2    0    0 -0.45983665393E+02  0.19989655348E+02  0.82874907059E+03  0.83415759196E+03  0.80497095704E+02 0.  0.
        -11    1    3    3    0    0  0.11241932546E+02 -0.11827511232E+02 -0.87838814148E+01  0.18531800830E+02  0.00000000000E+00 0.  1.
         12    1    3    3    0    0 -0.12133643387E+03 -0.13982839166E+02 -0.10947640369E+03  0.16402174532E+03  0.00000000000E+00 0. -1.
         11    1    5    5    0    0 -0.96517145317E+01  0.45746231902E+02  0.31073111261E+03  0.31422873463E+03  0.00000000000E+00 0. -1.
        -12    1    5    5    0    0 -0.36331950862E+02 -0.25756576554E+02  0.51801795798E+03  0.51992885732E+03  0.00000000000E+00 0.  1.
          5    1    4    4  501    0  0.13370560784E+03 -0.42432995367E+02  0.46372092651E+03  0.48449181494E+03  0.41800000000E+01 0. -1.
         -5    1    4    4    0  501  0.22372558876E+02  0.48253690417E+02  0.94627636381E+02  0.10863154236E+03  0.41800000000E+01 0. -1.
</event>
<event>
11    1  0.8037748E-009  0.1417466E+03  0.7561462E-02  0.1105624E+00
         22   -1    0    0    0    0  0.00000000000E+00  0.00000000000E+00  0.97876621883E+03  0.97876621883E+03  0.00000000000E+00 0.  1.
         22   -1    0    0    0    0 -0.00000000000E+00 -0.00000000000E+00 -0.69500007018E+03  0.69500007018E+03  0.00000000000E+00 0.  1.
        -24    2    1    2    0    0 -0.33336300830E+02 -0.39101948083E+02 -0.67349983556E+03  0.68017324595E+03  0.79958393620E+02 0.  0.
         25    2    1    2    0    0  0.16092858653E+01  0.91430211628E+02  0.43376249270E+03  0.46061238392E+03  0.12510713308E+03 0.  0.
         24    2    1    2    0    0  0.31727014964E+02 -0.52328263545E+02  0.52350349151E+03  0.53298065914E+03  0.79168344339E+02 0.  0.
        -13    1    5    5    0    0 -0.49705340498E+01 -0.61929672797E+02  0.32604450646E+03  0.33191114891E+03  0.00000000000E+00 0.  1.
         14    1    5    5    0    0  0.36697549014E+02  0.96014092524E+01  0.19745898505E+03  0.20106951022E+03  0.00000000000E+00 0. -1.
         13    1    3    3    0    0 -0.38946554518E+02  0.10597006474E+02 -0.19950308974E+03  0.20354511409E+03  0.00000000000E+00 0. -1.
        -14    1    3    3    0    0  0.56102536883E+01 -0.49698954557E+02 -0.47399674582E+03  0.47662813186E+03  0.00000000000E+00 0.  1.
          5    1    4    4  501    0 -0.59481275911E+02  0.48283735269E+02  0.26686187455E+03  0.27767260175E+03  0.41800000000E+01 0. -1.
         -5    1    4    4    0  501  0.61090561777E+02  0.43146476359E+02  0.16690061815E+03  0.18293978217E+03  0.41800000000E+01 0. -1.
</event>
<event>
11    1  0.8037748E-009  0.1650251E+03  0.7561462E-02  0.1082444E+00
         22   -1    0    0    0    0  0.00000000000E+00  0.00000000000E+00  0.14720667473E+03  0.14720667473E+03  0.00000000000E+00 0. -1.
         22   -1    0    0    0    0 -0.00000000000E+00 -0.00000000000E+00 -0.35346597245E+04  0.35346597245E+04  0.00000000000E+00 0.  1.
         24    2    1    2    0    0  0.51471513599E+02 -0.95043575545E+02 -0.33000974750E+04  0.33028553705E+04  0.80793912620E+02 0.  0.
         25    2    1    2    0    0 -0.31410206384E+02  0.94400023183E+02 -0.18935504202E+03  0.24779376794E+03  0.12509378103E+03 0.  0.
        -24    2    1    2    0    0 -0.20061307214E+02  0.64355236187E+00  0.10199946724E+03  0.13121726074E+03  0.80070019314E+02 0.  0.
        -13    1    3    3    0    0  0.14680097059E+02 -0.94064574753E+02 -0.20396208046E+04  0.20418414914E+04  0.00000000000E+00 0.  1.
         14    1    3    3    0    0  0.36791416539E+02 -0.97900079190E+00 -0.12604766704E+04  0.12610138791E+04  0.00000000000E+00 0. -1.
         13    1    5    5    0    0 -0.11285323791E+02  0.31510270288E+02  0.91537730837E+02  0.97464926171E+02  0.00000000000E+00 0. -1.
        -14    1    5    5    0    0 -0.87759834230E+01 -0.30866717926E+02  0.10461736404E+02  0.33752334573E+02  0.00000000000E+00 0.  1.
          5    1    4    4  501    0 -0.14208248995E+01  0.98726139943E+02 -0.61651973729E+02  0.11647878655E+03  0.41800000000E+01 0. -1.
         -5    1    4    4    0  501 -0.29989381485E+02 -0.43261167603E+01 -0.12770306829E+03  0.13131498139E+03  0.41800000000E+01 0. -1.
</event>
<event>
11    1  0.8037748E-009  0.1507482E+03  0.7561462E-02  0.1096117E+00
         22   -1    0    0    0    0  0.00000000000E+00  0.00000000000E+00  0.24345825663E+04  0.24345825663E+04  0.00000000000E+00 0. -1.
         22   -1    0    0    0    0 -0.00000000000E+00 -0.00000000000E+00 -0.57262039642E+03  0.57262039642E+03  0.00000000000E+00 0. -1.
        -24    2    1    2    0    0  0.10826527639E+02  0.36825948703E+01 -0.53209782022E+03  0.53854191674E+03  0.82271079942E+02 0.  0.
         25    2    1    2    0    0  0.68112982643E+02  0.26701231988E+02  0.11079535168E+03  0.18241542853E+03  0.12508974546E+03 0.  0.
         24    2    1    2    0    0 -0.78939510282E+02 -0.30383826858E+02  0.22832646384E+04  0.22862456174E+04  0.80417603770E+02 0.  0.
        -13    1    5    5    0    0  0.11336239090E+02  0.22592702357E+01  0.74090492257E+02  0.74986769911E+02  0.00000000000E+00 0.  1.
         14    1    5    5    0    0 -0.90275749372E+02 -0.32643097094E+02  0.22091741461E+04  0.22112588475E+04  0.00000000000E+00 0. -1.
         11    1    3    3    0    0  0.10071803520E+02  0.30877371860E+02 -0.46508051248E+03  0.46621318772E+03  0.00000000000E+00 0. -1.
        -12    1    3    3    0    0  0.75472411875E+00 -0.27194776989E+02 -0.67017307741E+02  0.72328729014E+02  0.00000000000E+00 0.  1.
          5    1    4    4  501    0  0.90422267688E+02  0.12511935089E+02  0.12280847005E+03  0.15307556216E+03  0.41800000000E+01 0. -1.
         -5    1    4    4    0  501 -0.22309285046E+02  0.14189296899E+02 -0.12013118373E+02  0.29339866373E+02  0.41800000000E+01 0. -1.
</event>
<event>
11    1  0.8037748E-009  0.2162114E+03  0.7561462E-02  0.1043617E+00
         22   -1    0    0    0    0  0.00000000000E+00  0.00000000000E+00  0.23789679970E+04  0.23789679970E+04  0.00000000000E+00 0.  1.
         22   -1    0    0    0    0 -0.00000000000E+00 -0.00000000000E+00 -0.90751651417E+02  0.90751651417E+02  0.00000000000E+00 0. -1.
         24    2    1    2    0    0 -0.54359570416E+02 -0.16170654168E+03  0.51680654841E+02  0.19598689999E+03  0.81461686476E+02 0.  0.
         25    2    1    2    0    0  0.68901376859E+02  0.21767627070E+03  0.11025294352E+04  0.11328497189E+04  0.12508785581E+03 0.  0.
        -24    2    1    2    0    0 -0.14541806444E+02 -0.55969729020E+02  0.11340062556E+04  0.11408830296E+04  0.11090457455E+03 0.  0.
        -11    1    3    3    0    0  0.56976055951E+01 -0.11945437014E+02  0.30500744506E+02  0.33248332145E+02  0.00000000000E+00 0.  1.
         12    1    3    3    0    0 -0.60057176011E+02 -0.14976110467E+03  0.21179910335E+02  0.16273856784E+03  0.00000000000E+00 0. -1.
         11    1    5    5    0    0 -0.55355897858E+02 -0.49771318948E+02  0.49739018226E+03  0.50292986889E+03  0.00000000000E+00 0. -1.
        -12    1    5    5    0    0  0.40814091414E+02 -0.61984100725E+01  0.63661607337E+03  0.63795316068E+03  0.00000000000E+00 0.  1.
          5    1    4    4  501    0 -0.71528719730E+01  0.20751122774E+02  0.20211666037E+02  0.30128997956E+02  0.41800000000E+01 0.  1.
         -5    1    4    4    0  501  0.76054248832E+02  0.19692514793E+03  0.10823177691E+04  0.11027207209E+04  0.41800000000E+01 0.  1.
</event>
<event>
11    1  0.8037748E-009  0.1850901E+03  0.7561462E-02  0.1065598E+00
         22   -1    0    0    0    0  0.00000000000E+00  0.00000000000E+00  0.10907025515E+04  0.10907025515E+04  0.00000000000E+00 0.  1.
         22   -1    0    0    0    0 -0.00000000000E+00 -0.00000000000E+00 -0.51318574660E+03  0.51318574660E+03  0.00000000000E+00 0. -1.
         24    2    1    2    0    0 -0.27631679845E+02  0.13402837696E+03 -0.44964827285E+03  0.47643992104E+03  0.78002009717E+02 0.  0.
         25    2    1    2    0    0  0.39611915913E+02 -0.12550006394E+03  0.12196656957E+03  0.21873200704E+03  0.12509387227E+03 0.  0.
        -24    2    1    2    0    0 -0.11980236069E+02 -0.85283130209E+01  0.90519850820E+03  0.90871637005E+03  0.78516519002E+02 0.  0.
        -11    1    3    3    0    0 -0.18541730388E+02  0.11567273371E+03 -0.25390466195E+03  0.27962752806E+03  0.00000000000E+00 0.  1.
         12    1    3    3    0    0 -0.90899494566E+01  0.18355643244E+02 -0.19574361090E+03  0.19681239298E+03  0.00000000000E+00 0. -1.
         13    1    5    5    0    0 -0.38366091216E+02 -0.27648864361E+02  0.53061247390E+03  0.53271569727E+03  0.00000000000E+00 0. -1.
        -14    1    5    5    0    0  0.26385855148E+02  0.19120551340E+02  0.37458603430E+03  0.37600067278E+03  0.00000000000E+00 0.  1.
          5    1    4    4  501    0 -0.33209286580E+02 -0.73887552122E+02  0.20770494233E+02  0.83732388623E+02  0.41800000000E+01 0. -1.
         -5    1    4    4    0  501  0.72821202493E+02 -0.51612511814E+02  0.10119607534E+03  0.13499961842E+03  0.41800000000E+01 0. -1.
</event>
<event>
11    1  0.8037748E-009  0.1734895E+03  0.7561462E-02  0.1075034E+00
         22   -1    0    0    0    0  0.00000000000E+00  0.00000000000E+00  0.15398629577E+03  0.15398629577E+03  0.00000000000E+00 0.  1.
         22   -1    0    0    0    0 -0.00000000000E+00 -0.00000000000E+00 -0.12264027863E+04  0.12264027863E+04  0.00000000000E+00 0. -1.
         24    2    1    2    0    0  0.25348668754E+02 -0.47655874165E+02 -0.99723333000E+03  0.10018444242E+04  0.79399612111E+02 0.  0.
         25    2    1    2    0    0  0.46762588224E+02  0.13774350133E+03 -0.12923445398E+03  0.23132008209E+03  0.12508966570E+03 0.  0.
        -24    2    1    2    0    0 -0.72111256978E+02 -0.90087627167E+02  0.54051293467E+02  0.14722457582E+03  0.73740893996E+02 0.  0.
        -11    1    3    3    0    0 -0.10419255637E+01 -0.53974926845E+02 -0.35918389770E+03  0.36321818609E+03  0.00000000000E+00 0.  1.
         12    1    3    3    0    0  0.26390594318E+02  0.63190526804E+01 -0.63804943230E+03  0.63862623807E+03  0.00000000000E+00 0. -1.
         11    1    5    5    0    0 -0.38783117409E+01  0.11540966681E+02  0.13717194944E+02  0.18341119132E+02  0.00000000000E+00 0. -1.
        -12    1    5    5    0    0 -0.68232945237E+02 -0.10162859385E+03  0.40334098524E+02  0.12888345668E+03  0.00000000000E+00 0.  1.
          5    1    4    4  501    0  0.69574058884E+02  0.49006439605E+02 -0.17884807652E+02  0.87060436118E+02  0.41800000000E+01 0. -1.
         -5    1    4    4    0  501 -0.22811470660E+02  0.88737061727E+02 -0.11134964633E+03  0.14425964597E+03  0.41800000000E+01 0. -1.
</event>
<event>
11    1  0.8037748E-009  0.1642881E+03  0.7561462E-02  0.1083112E+00
         22   -1    0    0    0    0  0.00000000000E+00  0.00000000000E+00  0.29300170833E+04  0.29300170833E+04  0.00000000000E+00 0. -1.
         22   -1    0    0    0    0 -0.00000000000E+00 -0.00000000000E+00 -0.99588136890E+03  0.99588136890E+03  0.00000000000E+00 0.  1.
         24    2    1    2    0    0 -0.10565266378E+03  0.40753581036E+01 -0.94362088302E+03  0.95297498550E+03  0.81005297442E+02 0.  0.
         25    2    1    2    0    0  0.14151590052E+03 -0.89373373191E+02  0.19009604386E+03  0.28248635174E+03  0.12509069946E+03 0.  0.
        -24    2    1    2    0    0 -0.35863236738E+02  0.85298015087E+02  0.26876605535E+04  0.26904371149E+04  0.79816635097E+02 0.  0.
        -11    1    3    3    0    0 -0.11045458113E+03  0.47186072333E+01 -0.94098944616E+03  0.94746167075E+03  0.00000000000E+00 0.  1.
         12    1    3    3    0    0  0.48019173459E+01 -0.64324912970E+00 -0.26314368556E+01  0.55133147529E+01  0.00000000000E+00 0. -1.
         13    1    5    5    0    0 -0.29455610388E+02  0.65146829848E+02  0.25629176114E+04  0.25639146681E+04  0.00000000000E+00 0. -1.
        -14    1    5    5    0    0 -0.64076263497E+01  0.20151185239E+02  0.12474294216E+03  0.12652244686E+03  0.00000000000E+00 0.  1.
          5    1    4    4  501    0  0.52918042425E+02 -0.10498390195E+03  0.12283406805E+03  0.17008121459E+03  0.41800000000E+01 0.  1.
         -5    1    4    4    0  501  0.88597858098E+02  0.15610528761E+02  0.67261975815E+02  0.11240513715E+03  0.41800000000E+01 0.  1.
</event>
<event>
11    1  0.8037748E-009  0.1305838E+03  0.7561462E-02  0.1118554E+00
         22   -1    0    0    0    0  0.00000000000E+00  0.00000000000E+00  0.30424776645E+03  0.30424776645E+03  0.00000000000E+00 0. -1.
         22   -1    0    0    0    0 -0.00000000000E+00 -0.00000000000E+00 -0.25854285935E+03  0.25854285935E+03  0.00000000000E+00 0. -1.
        -24    2    1    2    0    0 -0.40168840916E+01  0.86747986837E+01 -0.19005520042E+03  0.20540885120E+03  0.77333236397E+02 0.  0.
         25    2    1    2    0    0  0.13684950593E+02 -0.43345401711E+02  0.34967391754E+02  0.13761257110E+03  0.12509356305E+03 0.  0.
         24    2    1    2    0    0 -0.96680665011E+01  0.34670603027E+02  0.20079271577E+03  0.21976920351E+03  0.81763475219E+02 0.  0.
        -11    1    5    5    0    0 -0.87344663762E+01 -0.71946379684E+01 -0.30094128585E+01  0.11709410067E+02  0.00000000000E+00 0.  1.
         12    1    5    5    0    0 -0.93360012497E+00  0.41865240996E+02  0.20380212863E+03  0.20805979344E+03  0.00000000000E+00 0. -1.
         11    1    3    3    0    0  0.23699296860E+02  0.22142328054E+02 -0.15660510766E+03  0.15992841871E+03  0.00000000000E+00 0. -1.
        -12    1    3    3    0    0 -0.27716180952E+02 -0.13467529371E+02 -0.33450092761E+02  0.45480432492E+02  0.00000000000E+00 0.  1.
          5    1    4    4  501    0  0.68515165595E+01 -0.76871660077E+02  0.57586435870E+02  0.96383947825E+02  0.41800000000E+01 0.  1.
         -5    1    4    4    0  501  0.68334340333E+01  0.33526258366E+02 -0.22619044116E+02  0.41228623278E+02  0.41800000000E+01 0.  1.
</event>
<event>
11    1  0.8037748E-009  0.1753410E+03  0.7561462E-02  0.1073475E+00
         22   -1    0    0    0    0  0.00000000000E+00  0.00000000000E+00  0.16670807245E+04  0.16670807245E+04  0.00000000000E+00 0.  1.
         22   -1    0    0    0    0 -0.00000000000E+00 -0.00000000000E+00 -0.31884566405E+03  0.31884566405E+03  0.00000000000E+00 0. -1.
         24    2    1    2    0    0 -0.12186141034E+03  0.17639566287E+02 -0.23453927299E+03  0.27707734915E+03  0.81251641269E+02 0.  0.
         25    2    1    2    0    0  0.11788072309E+03 -0.31616418545E+02  0.61256433880E+02  0.18519331410E+03  0.12509496432E+03 0.  0.
        -24    2    1    2    0    0  0.39806872526E+01  0.13976852259E+02  0.15215178995E+04  0.15236557253E+04  0.79365308931E+02 0.  0.
        -11    1    3    3    0    0  0.97294699778E+01 -0.53393117984E+01 -0.36867605295E+02  0.38501833160E+02  0.00000000000E+00 0.  1.
         12    1    3    3    0    0 -0.13159088032E+03  0.22978878085E+02 -0.19767166770E+03  0.23857551599E+03  0.00000000000E+00 0. -1.
         11    1    5    5    0    0 -0.16291735026E+02 -0.35131084145E+01  0.72518273861E+02  0.74408753549E+02  0.00000000000E+00 0. -1.
        -12    1    5    5    0    0  0.20272422279E+02  0.17489960673E+02  0.14489996257E+04  0.14492469717E+04  0.00000000000E+00 0.  1.
          5    1    4    4  501    0 -0.33991482028E+01  0.25856741514E+02  0.41902388296E+02  0.49531887054E+02  0.41800000000E+01 0.  1.
         -5    1    4    4    0  501  0.12127987129E+03 -0.57473160059E+02  0.19354045584E+02  0.13566142704E+03  0.41800000000E+01 0.  1.
</event>
<event>
11    1  0.8037748E-009  0.1457949E+03  0.7561462E-02  0.1101255E+00
         22   -1    0    0    0    0  0.00000000000E+00  0.00000000000E+00  0.23164757447E+03  0.23164757447E+03  0.00000000000E+00 0. -1.
         22   -1    0    0    0    0 -0.00000000000E+00 -0.00000000000E+00 -0.58847761820E+03  0.58847761820E+03  0.00000000000E+00 0.  1.
        -24    2    1    2    0    0 -0.72066751955E+02  0.65727153081E+01 -0.36303788658E+03  0.37780722018E+03  0.75531259764E+02 0.  0.
         25    2    1    2    0    0  0.86221627461E+02  0.47505577554E+02 -0.17468163789E+03  0.23632665349E+03  0.12508262707E+03 0.  0.
         24    2    1    2    0    0 -0.14154875505E+02 -0.54078292862E+02  0.18088948074E+03  0.20599131900E+03  0.81157852383E+02 0.  0.
        -11    1    5    5    0    0  0.29946313625E+02 -0.12494395170E+02  0.33567659663E+02  0.46687036591E+02  0.00000000000E+00 0.  1.
         12    1    5    5    0    0 -0.44101189130E+02 -0.41583897692E+02  0.14732182107E+03  0.15930428241E+03  0.00000000000E+00 0. -1.
         11    1    3    3    0    0 -0.61633213689E+02  0.17061539017E+02 -0.13597564030E+03  0.15026351486E+03  0.00000000000E+00 0. -1.
        -12    1    3    3    0    0 -0.10433538266E+02 -0.10488823709E+02 -0.22706224628E+03  0.22754370532E+03  0.00000000000E+00 0.  1.
          5    1    4    4  501    0 -0.13218178269E+02  0.45822049494E+02 -0.18923709326E+02  0.51477758608E+02  0.41800000000E+01 0. -1.
         -5    1    4    4    0  501  0.99439805730E+02  0.16835280602E+01 -0.15575792856E+03  0.18484889489E+03  0.41800000000E+01 0. -1.
</event>
<event>
11    1  0.8037748E-009  0.1347796E+03  0.7561462E-02  0.1113532E+00
         22   -1    0    0    0    0  0.00000000000E+00  0.00000000000E+00  0.28196955225E+03  0.28196955225E+03  0.00000000000E+00 0. -1.
         22   -1    0    0    0    0 -0.00000000000E+00 -0.00000000000E+00 -0.23059762311E+03  0.23059762311E+03  0.00000000000E+00 0. -1.
         24    2    1    2    0    0 -0.98559355951E+01 -0.31556336627E+02 -0.14439280780E+03  0.16696272259E+03  0.77034576272E+02 0.  0.
         25    2    1    2    0    0  0.58456772855E+02  0.29532418975E+02  0.14882640986E+02  0.14198265367E+03  0.12509285702E+03 0.  0.
        -24    2    1    2    0    0 -0.48600837260E+02  0.20239176521E+01  0.18088209596E+03  0.20362179911E+03  0.79858417278E+02 0.  0.
        -13    1    3    3    0    0 -0.11126005881E+02  0.22070521663E+02 -0.21068774706E+02  0.32477518393E+02  0.00000000000E+00 0.  1.
         14    1    3    3    0    0  0.12700702855E+01 -0.53626858290E+02 -0.12332403310E+03  0.13448520420E+03  0.00000000000E+00 0. -1.
         11    1    5    5    0    0  0.18796736837E+01 -0.24644622842E+02  0.10930352681E+03  0.11206315889E+03  0.00000000000E+00 0. -1.
        -12    1    5    5    0    0 -0.50480510943E+02  0.26668540494E+02  0.71578569148E+02  0.91558640218E+02  0.00000000000E+00 0.  1.
          5    1    4    4  501    0  0.66635316893E+02  0.29031717161E+01 -0.41702726321E+02  0.78773622781E+02  0.41800000000E+01 0. -1.
         -5    1    4    4    0  501 -0.81785440381E+01  0.26629247259E+02  0.56585367308E+02  0.63209030885E+02  0.41800000000E+01 0. -1.
</event>
<event>
11    1  0.8037748E-009  0.1355672E+03  0.7561462E-02  0.1112612E+00
         22   -1    0    0    0    0  0.00000000000E+00  0.00000000000E+00  0.41359196467E+03  0.41359196467E+03  0.00000000000E+00 0.  1.
         22   -1    0    0    0    0 -0.00000000000E+00 -0.00000000000E+00 -0.44767555701E+03  0.44767555701E+03  0.00000000000E+00 0. -1.
         24    2    1    2    0    0  0.54068293024E+01  0.28730246865E+01 -0.38813397965E+03  0.39588419270E+03  0.77709843639E+02 0.  0.
         25    2    1    2    0    0  0.46017536912E+02 -0.15176638681E+02  0.45427433665E+02  0.14163151657E+03  0.12509152926E+03 0.  0.
        -24    2    1    2    0    0 -0.51424366215E+02  0.12303613995E+02  0.30862295364E+03  0.32375181241E+03  0.82287691467E+02 0.  0.
        -11    1    3    3    0    0  0.31244669403E+02  0.26052730012E+02 -0.15829980807E+03  0.16344357847E+03  0.00000000000E+00 0.  1.
         12    1    3    3    0    0 -0.25837840101E+02 -0.23179705325E+02 -0.22983417158E+03  0.23244061423E+03  0.00000000000E+00 0. -1.
         11    1    5    5    0    0 -0.65650847653E+02 -0.13735522683E+02  0.19063658114E+03  0.20209157441E+03  0.00000000000E+00 0. -1.
        -12    1    5    5    0    0  0.14226481438E+02  0.26039136677E+02  0.11798637251E+03  0.12166023800E+03  0.00000000000E+00 0.  1.
          5    1    4    4  501    0  0.60022586549E+02 -0.61104066621E+02  0.25382343287E+02  0.89432396839E+02  0.41800000000E+01 0.  1.
         -5    1    4    4    0  501 -0.14005049636E+02  0.45927427940E+02  0.20045090378E+02  0.52199119732E+02  0.41800000000E+01 0.  1.
</event>
<event>
11    1  0.1230712E-008  0.1780139E+03  0.7561462E-02  0.1071261E+00
         22   -1    0    0    0    0  0.00000000000E+00  0.00000000000E+00  0.12977409346E+04  0.12977409346E+04  0.00000000000E+00 0. -1.
         22   -1    0    0    0    0 -0.00000000000E+00 -0.00000000000E+00 -0.98973944150E+03  0.98973944150E+03  0.00000000000E+00 0. -1.
         24    2    1    2    0    0  0.57541129447E+00  0.86539472104E+02 -0.48401969665E+03  0.49793225864E+03  0.78562434549E+02 0.  0.
         25    2    1    2    0    0  0.94591527945E+02 -0.16935182233E+03 -0.46737758520E+03  0.52126425166E+03  0.12508803308E+03 0.  0.
        -24    2    1    2    0    0 -0.95166939240E+02  0.82812350228E+02  0.12593987749E+04  0.12682838658E+04  0.80895353501E+02 0.  0.
        -11    1    3    3    0    0  0.50079903249E+01  0.71322878353E+02 -0.18264106054E+03  0.19613717123E+03  0.00000000000E+00 0.  1.
         12    1    3    3    0    0 -0.44325790305E+01  0.15216593751E+02 -0.30137863611E+03  0.30179508741E+03  0.00000000000E+00 0. -1.
         11    1    5    5    0    0 -0.10283715112E+03  0.81809249153E+02  0.12451993867E+04  0.12521141104E+04  0.00000000000E+00 0. -1.
        -12    1    5    5    0    0  0.76702118784E+01  0.10031010751E+01  0.14199388269E+02  0.16169755386E+02  0.00000000000E+00 0.  1.
          5    1    4    4  501    0  0.86967818733E+02 -0.18083386127E+03 -0.46526423476E+03  0.50670757585E+03  0.41800000000E+01 0. -1.
         -5    1    4    4    0  501  0.76237092127E+01  0.11482038942E+02 -0.21133504422E+01  0.14556675806E+02  0.41800000000E+01 0. -1.
</event>
<event>
11    1  0.8037748E-009  0.1548323E+03  0.7561462E-02  0.1092041E+00
         22   -1    0    0    0    0  0.00000000000E+00  0.00000000000E+00  0.43665646756E+03  0.43665646756E+03  0.00000000000E+00 0.  1.
         22   -1    0    0    0    0 -0.00000000000E+00 -0.00000000000E+00 -0.13979603342E+04  0.13979603342E+04  0.00000000000E+00 0.  1.
         24    2    1    2    0    0  0.37104466470E+02 -0.85489696663E+02 -0.13294136168E+04  0.13349822665E+04  0.78433778876E+02 0.  0.
         25    2    1    2    0    0 -0.15911267918E+02  0.37097397087E+02  0.13445661166E+02  0.13212492147E+03  0.12508726455E+03 0.  0.
        -24    2    1    2    0    0 -0.21193198552E+02  0.48392299576E+02  0.35466408892E+03  0.36750961385E+03  0.80534054778E+02 0.  0.
        -13    1    3    3    0    0  0.41478018464E+02 -0.78672154990E+02 -0.13179415664E+04  0.13209389488E+04  0.00000000000E+00 0.  1.
         14    1    3    3    0    0 -0.43735519938E+01 -0.68175416734E+01 -0.11472050320E+02  0.14043317630E+02  0.00000000000E+00 0. -1.
         13    1    5    5    0    0  0.27628305507E+02  0.29693666472E+00  0.92763452849E+02  0.96790855048E+02  0.00000000000E+00 0. -1.
        -14    1    5    5    0    0 -0.48821504059E+02  0.48095362911E+02  0.26190063608E+03  0.27071875881E+03  0.00000000000E+00 0.  1.
          5    1    4    4  501    0  0.68266668201E+01 -0.31627332360E+02 -0.32688584574E+02  0.46183411454E+02  0.41800000000E+01 0.  1.
         -5    1    4    4    0  501 -0.22737934738E+02  0.68724729447E+02  0.46134245740E+02  0.85941510016E+02  0.41800000000E+01 0.  1.
</event>
<event>
11    1  0.8037748E-009  0.1374940E+03  0.7561462E-02  0.1110389E+00
         22   -1    0    0    0    0  0.00000000000E+00  0.00000000000E+00  0.50681884051E+03  0.50681884051E+03  0.00000000000E+00 0.  1.
         22   -1    0    0    0    0 -0.00000000000E+00 -0.00000000000E+00 -0.53753780148E+02  0.53753780148E+02  0.00000000000E+00 0.  1.
         24    2    1    2    0    0  0.35268602232E+02  0.17352174452E+02  0.78524963126E+02  0.11309448065E+03  0.71268642883E+02 0.  0.
         25    2    1    2    0    0  0.32627144994E+02 -0.10071772759E+02  0.14129837966E+03  0.19177831012E+03  0.12509083476E+03 0.  0.
        -24    2    1    2    0    0 -0.67895747226E+02 -0.72804016931E+01  0.23324171757E+03  0.25569982988E+03  0.79485013965E+02 0.  0.
        -11    1    3    3    0    0  0.18770709247E+02  0.45241305668E+02  0.47867378433E+02  0.68486503650E+02  0.00000000000E+00 0.  1.
         12    1    3    3    0    0  0.16497892985E+02 -0.27889131217E+02  0.30657584693E+02  0.44607977002E+02  0.00000000000E+00 0. -1.
         13    1    5    5    0    0  0.26733870834E+01  0.93329860047E+01  0.12527450704E+03  0.12565012431E+03  0.00000000000E+00 0. -1.
        -14    1    5    5    0    0 -0.70569134309E+02 -0.16613387698E+02  0.10796721054E+03  0.13004970557E+03  0.00000000000E+00 0.  1.
          5    1    4    4  501    0  0.30810503411E+02  0.24850643471E+01 -0.15208712227E+02  0.34702161213E+02  0.41800000000E+01 0.  1.
         -5    1    4    4    0  501  0.18166415830E+01 -0.12556837106E+02  0.15650709189E+03  0.15707614891E+03  0.41800000000E+01 0.  1.
</event>
<event>
11    1  0.8037748E-009  0.2017821E+03  0.7561462E-02  0.1053271E+00
         22   -1    0    0    0    0  0.00000000000E+00  0.00000000000E+00  0.45527871830E+04  0.45527871830E+04  0.00000000000E+00 0. -1.
         22   -1    0    0    0    0 -0.00000000000E+00 -0.00000000000E+00 -0.17213655309E+03  0.17213655309E+03  0.00000000000E+00 0.  1.
         24    2    1    2    0    0  0.18618379197E+02  0.16218986482E+03 -0.10677076890E+03  0.21136944597E+03  0.81393177272E+02 0.  0.
         25    2    1    2    0    0 -0.23012745313E+01 -0.10736288817E+03  0.53348394934E+03  0.55837615591E+03  0.12508685650E+03 0.  0.
        -24    2    1    2    0    0 -0.16317104665E+02 -0.54826976643E+02  0.39539374495E+04  0.39551781342E+04  0.80873194736E+02 0.  0.
        -13    1    3    3    0    0  0.49168054015E+02  0.86425403351E+02 -0.71054364436E+02  0.12221117210E+03  0.00000000000E+00 0.  1.
         14    1    3    3    0    0 -0.30549674818E+02  0.75764461467E+02 -0.35716404462E+02  0.89158273876E+02  0.00000000000E+00 0. -1.
         13    1    5    5    0    0 -0.23899037963E+02 -0.33598053150E+01  0.27625592179E+04  0.27626646348E+04  0.00000000000E+00 0. -1.
        -14    1    5    5    0    0  0.75819332975E+01 -0.51467171328E+02  0.11913782316E+04  0.11925134994E+04  0.00000000000E+00 0.  1.
          5    1    4    4  501    0  0.89904442355E+01 -0.93073924986E+01 -0.20973469806E+01  0.13759611442E+02  0.41800000000E+01 0.  1.
         -5    1    4    4    0  501 -0.11291718767E+02 -0.98055495676E+02  0.53558129632E+03  0.54461654447E+03  0.41800000000E+01 0.  1.
</event>
<event>
11    1  0.8037748E-009  0.2562555E+03  0.7561462E-02  0.1020619E+00
         22   -1    0    0    0    0  0.00000000000E+00  0.00000000000E+00  0.72968209434E+03  0.72968209434E+03  0.00000000000E+00 0. -1.
         22   -1    0    0    0    0 -0.00000000000E+00 -0.00000000000E+00 -0.38235550724E+03  0.38235550724E+03  0.00000000000E+00 0.  1.
        -24    2    1    2    0    0  0.44709079563E+02  0.13418612099E+03 -0.23604091379E+03  0.28615291894E+03  0.78507089935E+02 0.  0.
         25    2    1    2    0    0 -0.25745511835E+03 -0.11140181467E+03  0.16354293520E+03  0.34797624713E+03  0.12509066567E+03 0.  0.
         24    2    1    2    0    0  0.21274603879E+03 -0.22784306324E+02  0.41982456568E+03  0.47790843551E+03  0.79773461419E+02 0.  0.
        -13    1    5    5    0    0  0.20806206989E+03 -0.18808669315E+02  0.34850085429E+03  0.40632060790E+03  0.00000000000E+00 0.  1.
         14    1    5    5    0    0  0.46839688984E+01 -0.39756370082E+01  0.71323711396E+02  0.71587827607E+02  0.00000000000E+00 0. -1.
         13    1    3    3    0    0  0.85624987692E+01 -0.96764275064E+01 -0.25753467084E+02  0.28813030061E+02  0.00000000000E+00 0. -1.
        -14    1    3    3    0    0  0.36146580794E+02  0.14386254850E+03 -0.21028744671E+03  0.25733988887E+03  0.00000000000E+00 0.  1.
          5    1    4    4  501    0 -0.61946692482E+02 -0.32532336756E+02 -0.14999726729E+02  0.71681307509E+02  0.41800000000E+01 0. -1.
         -5    1    4    4    0  501 -0.19550842587E+03 -0.78869477914E+02  0.17854266193E+03  0.27629493962E+03  0.41800000000E+01 0. -1.
</event>
<event>
11    1  0.8037748E-009  0.1381352E+03  0.7561462E-02  0.1109659E+00
         22   -1    0    0    0    0  0.00000000000E+00  0.00000000000E+00  0.65209394847E+03  0.65209394847E+03  0.00000000000E+00 0.  1.
         22   -1    0    0    0    0 -0.00000000000E+00 -0.00000000000E+00 -0.33024356526E+03  0.33024356526E+03  0.00000000000E+00 0. -1.
         24    2    1    2    0    0 -0.24110682260E+02  0.64608108523E+01 -0.22689588354E+03  0.24254656710E+03  0.82000171743E+02 0.  0.
         25    2    1    2    0    0 -0.24882173663E+02 -0.39872826780E+02 -0.42604423453E+02  0.14025113692E+03  0.12508508955E+03 0.  0.
        -24    2    1    2    0    0  0.48992855922E+02  0.33412015928E+02  0.59135069020E+03  0.59953980972E+03  0.78966333916E+02 0.  0.
        -11    1    3    3    0    0  0.15632034637E+01  0.41037840455E+02 -0.87671538908E+02  0.96813463365E+02  0.00000000000E+00 0.  1.
         12    1    3    3    0    0 -0.25673885723E+02 -0.34577029602E+02 -0.13922434464E+03  0.14573310373E+03  0.00000000000E+00 0. -1.
         13    1    5    5    0    0 -0.15146162486E+02 -0.64871947619E+01  0.21815683304E+03  0.21877818387E+03  0.00000000000E+00 0. -1.
        -14    1    5    5    0    0  0.64139018408E+02  0.39899210690E+02  0.37319385716E+03  0.38076162585E+03  0.00000000000E+00 0.  1.
          5    1    4    4  501    0 -0.20657501225E+01 -0.82604149129E+02 -0.39083686762E+02  0.91502566892E+02  0.41800000000E+01 0. -1.
         -5    1    4    4    0  501 -0.22816423540E+02  0.42731322349E+02 -0.35207366915E+01  0.48748570028E+02  0.41800000000E+01 0. -1.
</event>
<event>
11    1  0.8037748E-009  0.2139275E+03  0.7561462E-02  0.1045089E+00
         22   -1    0    0    0    0  0.00000000000E+00  0.00000000000E+00  0.27916821563E+03  0.27916821563E+03  0.00000000000E+00 0.  1.
         22   -1    0    0    0    0 -0.00000000000E+00 -0.00000000000E+00 -0.35798395863E+03  0.35798395863E+03  0.00000000000E+00 0. -1.
        -24    2    1    2    0    0 -0.26814403867E+02 -0.16778923307E+03 -0.18569190523E+03  0.26425215956E+03  0.80470374517E+02 0.  0.
         25    2    1    2    0    0  0.62896762929E+02  0.17456158406E+03 -0.12849439735E+02  0.22415672172E+03  0.12511346201E+03 0.  0.
         24    2    1    2    0    0 -0.36082359062E+02 -0.67723509898E+01  0.11972560196E+03  0.14874329298E+03  0.80265472453E+02 0.  0.
        -11    1    5    5    0    0 -0.46233602585E+02 -0.19755381764E+02  0.12214333576E+03  0.13208639441E+03  0.00000000000E+00 0.  1.
         12    1    5    5    0    0  0.10151243523E+02  0.12983030774E+02 -0.24177338051E+01  0.16656898568E+02  0.00000000000E+00 0. -1.
         13    1    3    3    0    0 -0.53034268634E+02 -0.11521852982E+03 -0.10632145629E+03  0.16550587703E+03  0.00000000000E+00 0. -1.
        -14    1    3    3    0    0  0.26219864767E+02 -0.52570703247E+02 -0.79370448940E+02  0.98746282528E+02  0.00000000000E+00 0.  1.
          5    1    4    4  501    0  0.30981429060E+02  0.99467165587E+02 -0.68992583058E+02  0.12502405726E+03  0.41800000000E+01 0.  1.
         -5    1    4    4    0  501  0.31915333869E+02  0.75094418470E+02  0.56143143323E+02  0.99132664463E+02  0.41800000000E+01 0.  1.
</event>
<event>
11    1  0.8037748E-009  0.1429673E+03  0.7561462E-02  0.1104289E+00
         22   -1    0    0    0    0  0.00000000000E+00  0.00000000000E+00  0.56212471093E+03  0.56212471093E+03  0.00000000000E+00 0.  1.
         22   -1    0    0    0    0 -0.00000000000E+00 -0.00000000000E+00 -0.32109767579E+03  0.32109767579E+03  0.00000000000E+00 0.  1.
         24    2    1    2    0    0  0.57244699718E+02 -0.68581765887E+01 -0.13798192787E+03  0.16957762085E+03  0.79959782666E+02 0.  0.
         25    2    1    2    0    0 -0.97184735936E+01  0.58702220885E+02 -0.13205296652E+03  0.19137954621E+03  0.12509094802E+03 0.  0.
        -24    2    1    2    0    0 -0.47526226124E+02 -0.51844044296E+02  0.51106192953E+03  0.52226521965E+03  0.81425528781E+02 0.  0.
        -11    1    3    3    0    0  0.36159848166E+02 -0.11715083512E+01 -0.14271754899E+03  0.14723180988E+03  0.00000000000E+00 0.  1.
         12    1    3    3    0    0  0.21084851552E+02 -0.56866682376E+01  0.47356211206E+01  0.22345810972E+02  0.00000000000E+00 0. -1.
         11    1    5    5    0    0  0.71833872504E+01 -0.14067654871E+02  0.15050305904E+02  0.21817691761E+02  0.00000000000E+00 0. -1.
        -12    1    5    5    0    0 -0.54709613374E+02 -0.37776389425E+02  0.49601162363E+03  0.50044752788E+03  0.00000000000E+00 0.  1.
          5    1    4    4  501    0 -0.22880002325E+02  0.45749927388E+02  0.63262179629E+01  0.51711157366E+02  0.41800000000E+01 0.  1.
         -5    1    4    4    0  501  0.13161528732E+02  0.12952293496E+02 -0.13837918448E+03  0.13966838885E+03  0.41800000000E+01 0.  1.
</event>
<event>
11    1  0.8037748E-009  0.2432732E+03  0.7561462E-02  0.1027545E+00
         22   -1    0    0    0    0  0.00000000000E+00  0.00000000000E+00  0.14004390186E+04  0.14004390186E+04  0.00000000000E+00 0.  1.
         22   -1    0    0    0    0 -0.00000000000E+00 -0.00000000000E+00 -0.31295168303E+03  0.31295168303E+03  0.00000000000E+00 0.  1.
         24    2    1    2    0    0  0.20392391406E+03  0.42597999960E+02 -0.23121865357E+03  0.32093570701E+03  0.78346090817E+02 0.  0.
         25    2    1    2    0    0 -0.21132100180E+03 -0.23788000653E+02  0.40114693892E+03  0.47094384640E+03  0.12508718993E+03 0.  0.
        -24    2    1    2    0    0  0.73970877400E+01 -0.18809999307E+02  0.91755905024E+03  0.92151114823E+03  0.82823020069E+02 0.  0.
        -11    1    3    3    0    0  0.14064681389E+03  0.32212086967E+02 -0.20713961683E+03  0.25244002390E+03  0.00000000000E+00 0.  1.
         12    1    3    3    0    0  0.63277100165E+02  0.10385912992E+02 -0.24079036742E+02  0.68495683107E+02  0.00000000000E+00 0. -1.
         13    1    5    5    0    0  0.60959935749E+01  0.18957027419E+02  0.62030137120E+02  0.65148046305E+02  0.00000000000E+00 0. -1.
        -14    1    5    5    0    0  0.13010941651E+01 -0.37767026726E+02  0.85552891312E+03  0.85636310193E+03  0.00000000000E+00 0.  1.
          5    1    4    4  501    0  0.16545364465E+02 -0.50958666705E+01  0.34674287456E+02  0.38980707446E+02  0.41800000000E+01 0. -1.
         -5    1    4    4    0  501 -0.22786636626E+03 -0.18692133982E+02  0.36647265146E+03  0.43196313896E+03  0.41800000000E+01 0. -1.
</event>
<event>
11    1  0.8037748E-009  0.1342053E+03  0.7561462E-02  0.1114207E+00
         22   -1    0    0    0    0  0.00000000000E+00  0.00000000000E+00  0.38314545402E+03  0.38314545402E+03  0.00000000000E+00 0. -1.
         22   -1    0    0    0    0 -0.00000000000E+00 -0.00000000000E+00 -0.52288374807E+03  0.52288374807E+03  0.00000000000E+00 0.  1.
         24    2    1    2    0    0  0.45430439573E+02  0.42128382005E+01 -0.37930080069E+03  0.39039899026E+03  0.80377866038E+02 0.  0.
         25    2    1    2    0    0 -0.72108201083E+02  0.23598989694E+02 -0.91764752992E+02  0.17268752883E+03  0.12507480858E+03 0.  0.
        -24    2    1    2    0    0  0.26677761509E+02 -0.27811827895E+02  0.33132725963E+03  0.34294268300E+03  0.79666367541E+02 0.  0.
        -11    1    3    3    0    0  0.62038435618E+02  0.93906033450E+01 -0.35506272247E+03  0.36056412441E+03  0.00000000000E+00 0.  1.
         12    1    3    3    0    0 -0.16607996044E+02 -0.51777651446E+01 -0.24238078214E+02  0.29834865845E+02  0.00000000000E+00 0. -1.
         13    1    5    5    0    0 -0.12486573728E+02 -0.43537528305E+02  0.19709373963E+03  0.20223098946E+03  0.00000000000E+00 0. -1.
        -14    1    5    5    0    0  0.39164335238E+02  0.15725700410E+02  0.13423352000E+03  0.14071169354E+03  0.00000000000E+00 0.  1.
          5    1    4    4  501    0  0.23229010599E+02  0.66326871556E+01  0.14799794431E+02  0.28637140002E+02  0.41800000000E+01 0. -1.
         -5    1    4    4    0  501 -0.95337211681E+02  0.16966302539E+02 -0.10656454742E+03  0.14405038882E+03  0.41800000000E+01 0. -1.
</event>
<event>
11    1  0.8037748E-009  0.1981707E+03  0.7561462E-02  0.1055825E+00
         22   -1    0    0    0    0  0.00000000000E+00  0.00000000000E+00  0.32276930535E+03  0.32276930535E+03  0.00000000000E+00 0. -1.
         22   -1    0    0    0    0 -0.00000000000E+00 -0.00000000000E+00 -0.15674089010E+04  0.15674089010E+04  0.00000000000E+00 0. -1.
         24    2    1    2    0    0 -0.17339722466E+02  0.36156707773E+02 -0.11923890251E+04  0.11958722225E+04  0.81919545275E+02 0.  0.
         25    2    1    2    0    0  0.12281244774E+03 -0.14401850377E+03 -0.30813232812E+03  0.38264567613E+03  0.12509178663E+03 0.  0.
        -24    2    1    2    0    0 -0.10547272527E+03  0.10786179600E+03  0.25588175759E+03  0.31166030769E+03  0.94329267508E+02 0.  0.
        -13    1    3    3    0    0 -0.28614708163E+02 -0.29325521665E+01 -0.15258366135E+03  0.15527129515E+03  0.00000000000E+00 0.  1.
         14    1    3    3    0    0  0.11274985697E+02  0.39089259940E+02 -0.10398053638E+04  0.10406009274E+04  0.00000000000E+00 0. -1.
         13    1    5    5    0    0 -0.20280316566E+02  0.77856062357E+02  0.16478533732E+03  0.18337683900E+03  0.00000000000E+00 0. -1.
        -14    1    5    5    0    0 -0.85192408709E+02  0.30005733639E+02  0.91096420271E+02  0.12828346869E+03  0.00000000000E+00 0.  1.
          5    1    4    4  501    0 -0.19194272411E+01  0.59721520775E+01  0.80971422543E+01  0.11062861929E+02  0.41800000000E+01 0. -1.
         -5    1    4    4    0  501  0.12473187498E+03 -0.14999065585E+03 -0.31622947037E+03  0.37158281420E+03  0.41800000000E+01 0. -1.
</event>
<event>
11    1  0.8037748E-009  0.1300252E+03  0.7561462E-02  0.1119238E+00
         22   -1    0    0    0    0  0.00000000000E+00  0.00000000000E+00  0.10327785328E+04  0.10327785328E+04  0.00000000000E+00 0. -1.
         22   -1    0    0    0    0 -0.00000000000E+00 -0.00000000000E+00 -0.11651360514E+04  0.11651360514E+04  0.00000000000E+00 0.  1.
        -24    2    1    2    0    0 -0.92132691272E+01  0.36783173327E+02 -0.10219071661E+04  0.10257702714E+04  0.80451895035E+02 0.  0.
         25    2    1    2    0    0  0.58254794574E+01  0.14930510986E+01 -0.11120862429E+03  0.16748425595E+03  0.12508977760E+03 0.  0.
         24    2    1    2    0    0  0.33877896697E+01 -0.38276224425E+02  0.10007582718E+04  0.10046600569E+04  0.79675371565E+02 0.  0.
        -13    1    5    5    0    0 -0.23352477979E+02  0.14832236668E+02  0.40427632278E+03  0.40522176475E+03  0.00000000000E+00 0.  1.
         14    1    5    5    0    0  0.26740267649E+02 -0.53108461093E+02  0.59648194904E+03  0.59943829214E+03  0.00000000000E+00 0. -1.
         11    1    3    3    0    0  0.22234253835E+02  0.23688801030E+02 -0.16400084995E+03  0.16718791859E+03  0.00000000000E+00 0. -1.
        -12    1    3    3    0    0 -0.31447522962E+02  0.13094372297E+02 -0.85790631611E+03  0.85858235278E+03  0.00000000000E+00 0.  1.
          5    1    4    4  501    0  0.45772903310E+02 -0.28350870111E+02 -0.10365338507E+03  0.11687783002E+03  0.41800000000E+01 0.  1.
         -5    1    4    4    0  501 -0.39947423853E+02  0.29843921210E+02 -0.75552392251E+01  0.50606425930E+02  0.41800000000E+01 0.  1.
</event>
<event>
11    1  0.8037748E-009  0.1391112E+03  0.7561462E-02  0.1108555E+00
         22   -1    0    0    0    0  0.00000000000E+00  0.00000000000E+00  0.14345107371E+04  0.14345107371E+04  0.00000000000E+00 0. -1.
         22   -1    0    0    0    0 -0.00000000000E+00 -0.00000000000E+00 -0.60015654886E+03  0.60015654886E+03  0.00000000000E+00 0. -1.
        -24    2    1    2    0    0 -0.47371897423E+02  0.42664009564E+02 -0.50315197170E+03  0.51375270567E+03  0.81948896183E+02 0.  0.
         25    2    1    2    0    0  0.48099642861E+02  0.43647117587E+01 -0.40625654273E+02  0.14010694680E+03  0.12508751499E+03 0.  0.
         24    2    1    2    0    0 -0.72774543877E+00 -0.47028721322E+02  0.13781318142E+04  0.13808076335E+04  0.71904054829E+02 0.  0.
        -11    1    5    5    0    0 -0.28119016557E+02 -0.13553928678E+01  0.28714336433E+03  0.28852006491E+03  0.00000000000E+00 0.  1.
         12    1    5    5    0    0  0.27391271118E+02 -0.45673328454E+02  0.10909884499E+04  0.10922875686E+04  0.00000000000E+00 0. -1.
         11    1    3    3    0    0  0.85643502437E+00  0.22843641726E+02 -0.37073960584E+03  0.37144369800E+03  0.00000000000E+00 0. -1.
        -12    1    3    3    0    0 -0.48228332447E+02  0.19820367838E+02 -0.13241236586E+03  0.14230900767E+03  0.00000000000E+00 0.  1.
          5    1    4    4  501    0  0.50088293146E+01  0.43048144138E+02 -0.64095279550E+02  0.77484891078E+02  0.41800000000E+01 0.  1.
         -5    1    4    4    0  501  0.43090813547E+02 -0.38683432379E+02  0.23469625277E+02  0.62622055727E+02  0.41800000000E+01 0.  1.
</event>
<event>
11    1  0.8037748E-009  0.2176124E+03  0.7561462E-02  0.1042724E+00
         22   -1    0    0    0    0  0.00000000000E+00  0.00000000000E+00  0.17813580731E+03  0.17813580731E+03  0.00000000000E+00 0. -1.
         22   -1    0    0    0    0 -0.00000000000E+00 -0.00000000000E+00 -0.10668733419E+04  0.10668733419E+04  0.00000000000E+00 0.  1.
         24    2    1    2    0    0 -0.35662088690E+02 -0.45644027323E+02 -0.54284872978E+03  0.55182734047E+03  0.80458116233E+02 0.  0.
         25    2    1    2    0    0  0.61050497102E+02  0.21548231275E+03 -0.41837907451E+03  0.49076348406E+03  0.12509179427E+03 0.  0.
        -24    2    1    2    0    0 -0.25388408412E+02 -0.16983828543E+03  0.72490269658E+02  0.20241832472E+03  0.78922268774E+02 0.  0.
        -11    1    3    3    0    0 -0.51566889355E+02 -0.58592741681E+02 -0.40383479817E+03  0.41130864040E+03  0.00000000000E+00 0.  1.
         12    1    3    3    0    0  0.15904800665E+02  0.12948714358E+02 -0.13901393160E+03  0.14051870006E+03  0.00000000000E+00 0. -1.
         13    1    5    5    0    0 -0.35062303345E+02 -0.17468566083E+03  0.68081123616E+02  0.19073406777E+03  0.00000000000E+00 0. -1.
        -14    1    5    5    0    0  0.96738949331E+01  0.48473754075E+01  0.44091460419E+01  0.11684256944E+02  0.00000000000E+00 0.  1.
          5    1    4    4  501    0  0.23163223023E+02  0.21591187307E+03 -0.33740772538E+03  0.40126788730E+03  0.41800000000E+01 0. -1.
         -5    1    4    4    0  501  0.37887274079E+02 -0.42956031856E+00 -0.80971349130E+02  0.89495596758E+02  0.41800000000E+01 0. -1.
</event>
<event>
11    1  0.8037748E-009  0.1407419E+03  0.7561462E-02  0.1106733E+00
         22   -1    0    0    0    0  0.00000000000E+00  0.00000000000E+00  0.40121940830E+03  0.40121940830E+03  0.00000000000E+00 0.  1.
         22   -1    0    0    0    0 -0.00000000000E+00 -0.00000000000E+00 -0.30569410439E+03  0.30569410439E+03  0.00000000000E+00 0. -1.
         24    2    1    2    0    0 -0.25033774357E+02 -0.20502642231E+02 -0.19967288657E+03  0.21854732149E+03  0.82744316444E+02 0.  0.
         25    2    1    2    0    0 -0.38998410749E+02  0.36816757414E+02 -0.36168268910E+02  0.14082468187E+03  0.12508835950E+03 0.  0.
        -24    2    1    2    0    0  0.64032185106E+02 -0.16314115183E+02  0.33136645939E+03  0.34754150933E+03  0.81333260205E+02 0.  0.
        -11    1    3    3    0    0  0.22441394432E+02 -0.20752183985E+02 -0.13441777553E+03  0.13784922090E+03  0.00000000000E+00 0.  1.
         12    1    3    3    0    0 -0.47475168789E+02  0.24954175367E+00 -0.65255111037E+02  0.80698100592E+02  0.00000000000E+00 0. -1.
         11    1    5    5    0    0 -0.18626936263E+01 -0.14377378752E+01 -0.44307267477E+01  0.50167775769E+01  0.00000000000E+00 0. -1.
        -12    1    5    5    0    0  0.65894878733E+02 -0.14876377308E+02  0.33579718614E+03  0.34252473175E+03  0.00000000000E+00 0.  1.
          5    1    4    4  501    0 -0.35704475308E+02 -0.18016615607E+01  0.40885048007E+02  0.54471231783E+02  0.41800000000E+01 0. -1.
         -5    1    4    4    0  501 -0.32939354412E+01  0.38618418975E+02 -0.77053316917E+02  0.86353450092E+02  0.41800000000E+01 0. -1.
</event>
<event>
11    1  0.8037748E-009  0.1709777E+03  0.7561462E-02  0.1077184E+00
         22   -1    0    0    0    0  0.00000000000E+00  0.00000000000E+00  0.15507062734E+03  0.15507062734E+03  0.00000000000E+00 0.  1.
         22   -1    0    0    0    0 -0.00000000000E+00 -0.00000000000E+00 -0.14826466987E+04  0.14826466987E+04  0.00000000000E+00 0.  1.
         24    2    1    2    0    0 -0.52139864646E+02  0.10352038019E+03 -0.11313857609E+04  0.11401386163E+04  0.80295017699E+02 0.  0.
         25    2    1    2    0    0  0.25543618613E+02 -0.12072653643E+03 -0.30930340310E+03  0.35573010976E+03  0.12509173740E+03 0.  0.
        -24    2    1    2    0    0  0.26596246033E+02  0.17206156234E+02  0.11311309268E+03  0.14184859993E+03  0.79517554370E+02 0.  0.
        -13    1    3    3    0    0  0.43849473053E+01  0.58302671504E+02 -0.30252205154E+03  0.30812014042E+03  0.00000000000E+00 0.  1.
         14    1    3    3    0    0 -0.56524811951E+02  0.45217708687E+02 -0.82886370934E+03  0.83201847588E+03  0.00000000000E+00 0. -1.
         11    1    5    5    0    0 -0.15081575552E+02  0.35867482498E+02  0.63031299326E+02  0.74073442721E+02  0.00000000000E+00 0. -1.
        -12    1    5    5    0    0  0.41677821585E+02 -0.18661326264E+02  0.50081793350E+02  0.67775157212E+02  0.00000000000E+00 0.  1.
          5    1    4    4  501    0  0.84394395098E+01 -0.13036053868E+03 -0.30916703526E+03  0.33565878846E+03  0.41800000000E+01 0. -1.
         -5    1    4    4    0  501  0.17104179103E+02  0.96340022530E+01 -0.13636784699E+00  0.20071321292E+02  0.41800000000E+01 0. -1.
</event>
<event>
11    1  0.8037748E-009  0.4287414E+03  0.7561462E-02  0.9568565E-01
         22   -1    0    0    0    0  0.00000000000E+00  0.00000000000E+00  0.10622026335E+04  0.10622026335E+04  0.00000000000E+00 0.  1.
         22   -1    0    0    0    0 -0.00000000000E+00 -0.00000000000E+00 -0.50116410944E+03  0.50116410944E+03  0.00000000000E+00 0.  1.
         24    2    1    2    0    0  0.91540354479E+02  0.20082155389E+03 -0.20875743755E+03  0.31204921484E+03  0.71316980746E+02 0.  0.
         25    2    1    2    0    0  0.32228876417E+03 -0.22871145484E+02 -0.10637581237E+02  0.34663265764E+03  0.12509158406E+03 0.  0.
        -24    2    1    2    0    0 -0.41382911865E+03 -0.17795040841E+03  0.78043354282E+03  0.90468487044E+03  0.80357406348E+02 0.  0.
        -11    1    3    3    0    0 -0.74336833419E+01  0.62896001080E+00 -0.20295999003E+01  0.77313979641E+01  0.00000000000E+00 0.  1.
         12    1    3    3    0    0  0.98974037821E+02  0.20019259388E+03 -0.20672783765E+03  0.30431781687E+03  0.00000000000E+00 0. -1.
         13    1    5    5    0    0 -0.31463172710E+03 -0.15574999441E+03  0.65576383905E+03  0.74382618740E+03  0.00000000000E+00 0. -1.
        -14    1    5    5    0    0 -0.99197391552E+02 -0.22200413997E+02  0.12466970377E+03  0.16085868304E+03  0.00000000000E+00 0.  1.
          5    1    4    4  501    0  0.23810312109E+03 -0.53041291294E+02  0.34447142212E+02  0.24639511533E+03  0.41800000000E+01 0. -1.
         -5    1    4    4    0  501  0.84185643084E+02  0.30170145811E+02 -0.45084723449E+02  0.10023754231E+03  0.41800000000E+01 0. -1.
</event>
<event>
11    1  0.8037748E-009  0.3585091E+03  0.7561462E-02  0.9780792E-01
         22   -1    0    0    0    0  0.00000000000E+00  0.00000000000E+00  0.85617941953E+03  0.85617941953E+03  0.00000000000E+00 0.  1.
         22   -1    0    0    0    0 -0.00000000000E+00 -0.00000000000E+00 -0.13823651672E+04  0.13823651672E+04  0.00000000000E+00 0. -1.
        -24    2    1    2    0    0 -0.24639200794E+03 -0.22035247797E+03 -0.12065746008E+04  0.12535133093E+04  0.78797926259E+02 0.  0.
         25    2    1    2    0    0  0.42803118383E+03  0.24476192682E+03  0.53277357804E+03  0.73662287175E+03  0.12508586880E+03 0.  0.
         24    2    1    2    0    0 -0.18163917589E+03 -0.24409448852E+02  0.14761527510E+03  0.24840840567E+03  0.79547816787E+02 0.  0.
        -11    1    5    5    0    0 -0.16695639530E+03 -0.46374543814E+02  0.12546433064E+03  0.21393067688E+03  0.00000000000E+00 0.  1.
         12    1    5    5    0    0 -0.14682780584E+02  0.21965094962E+02  0.22150944452E+02  0.34477728789E+02  0.00000000000E+00 0. -1.
         11    1    3    3    0    0 -0.18691098090E+03 -0.11926901021E+03 -0.74720663680E+03  0.77940911571E+03  0.00000000000E+00 0. -1.
        -12    1    3    3    0    0 -0.59481027040E+02 -0.10108346776E+03 -0.45936796397E+03  0.47410419356E+03  0.00000000000E+00 0.  1.
          5    1    4    4  501    0  0.22199049274E+03  0.59145368033E+02  0.27030090294E+03  0.35476471633E+03  0.41800000000E+01 0.  1.
         -5    1    4    4    0  501  0.20604069109E+03  0.18561655879E+03  0.26247267510E+03  0.38185815541E+03  0.41800000000E+01 0.  1.
</event>
<event>
11    1  0.8037748E-009  0.2675701E+04  0.7561462E-02  0.7835335E-01
         22   -1    0    0    0    0  0.00000000000E+00  0.00000000000E+00  0.19444005960E+04  0.19444005960E+04  0.00000000000E+00 0. -1.
         22   -1    0    0    0    0 -0.00000000000E+00 -0.00000000000E+00 -0.92051222626E+03  0.92051222626E+03  0.00000000000E+00 0. -1.
         24    2    1    2    0    0 -0.39522997045E+03 -0.10113835215E+04  0.90630394580E+02  0.10925842297E+04  0.80144078919E+02 0.  0.
         25    2    1    2    0    0  0.28537844382E+03  0.12113942601E+04  0.86106861037E+03  0.15185532600E+04  0.12509173467E+03 0.  0.
        -24    2    1    2    0    0  0.10985152663E+03 -0.20001073863E+03  0.72189364816E+02  0.25377533257E+03  0.84373938852E+02 0.  0.
        -13    1    3    3    0    0 -0.84897611675E+02 -0.25411931132E+03 -0.95097453262E+01  0.26809450593E+03  0.00000000000E+00 0.  1.
         14    1    3    3    0    0 -0.31033235878E+03 -0.75726421019E+03  0.10014013991E+03  0.82448972374E+03  0.00000000000E+00 0. -1.
         11    1    5    5    0    0  0.10513451973E+03 -0.11405274199E+03  0.62150339569E+02  0.16710463759E+03  0.00000000000E+00 0. -1.
        -12    1    5    5    0    0  0.47170068991E+01 -0.85957996646E+02  0.10039025247E+02  0.86670694986E+02  0.00000000000E+00 0.  1.
          5    1    4    4  501    0  0.87495399109E+02  0.62872867822E+03  0.46186430922E+03  0.78504223339E+03  0.41800000000E+01 0. -1.
         -5    1    4    4    0  501  0.19788304472E+03  0.58266558193E+03  0.39920430116E+03  0.73351102664E+03  0.41800000000E+01 0. -1.
</event>
<event>
11    1  0.8037748E-009  0.1688281E+03  0.7561462E-02  0.1079056E+00
         22   -1    0    0    0    0  0.00000000000E+00  0.00000000000E+00  0.69679225362E+03  0.69679225362E+03  0.00000000000E+00 0. -1.
         22   -1    0    0    0    0 -0.00000000000E+00 -0.00000000000E+00 -0.69550244640E+03  0.69550244640E+03  0.00000000000E+00 0.  1.
        -24    2    1    2    0    0 -0.49582958058E+02 -0.57680408715E+01 -0.60215834186E+03  0.60931835533E+03  0.78628553602E+02 0.  0.
         25    2    1    2    0    0  0.15738993225E+03 -0.83368497778E+01  0.43602419146E+02  0.20588767520E+03  0.12508984774E+03 0.  0.
         24    2    1    2    0    0 -0.10780697419E+03  0.14104890649E+02  0.55984572993E+03  0.57708866950E+03  0.88220176349E+02 0.  0.
        -11    1    5    5    0    0 -0.11858841948E+03  0.16923339549E+01  0.42478896955E+03  0.44103485790E+03  0.00000000000E+00 0.  1.
         12    1    5    5    0    0  0.10781445288E+02  0.12412556694E+02  0.13505676038E+03  0.13605381160E+03  0.00000000000E+00 0. -1.
         11    1    3    3    0    0 -0.54655851738E+01 -0.16686654019E+02 -0.26021186522E+02  0.31391387220E+02  0.00000000000E+00 0. -1.
        -12    1    3    3    0    0 -0.44117372884E+02  0.10918613147E+02 -0.57613715534E+03  0.57792696810E+03  0.00000000000E+00 0.  1.
          5    1    4    4  501    0  0.13375411285E+03  0.43809391299E+02  0.14573643283E+02  0.14156019550E+03  0.41800000000E+01 0.  1.
         -5    1    4    4    0  501  0.23635819399E+02 -0.52146241077E+02  0.29028775862E+02  0.64327479705E+02  0.41800000000E+01 0.  1.
</event>
<event>
11    1  0.8037748E-009  0.1336543E+03  0.7561462E-02  0.1114859E+00
         22   -1    0    0    0    0  0.00000000000E+00  0.00000000000E+00  0.98070855688E+02  0.98070855688E+02  0.00000000000E+00 0. -1.
         22   -1    0    0    0    0 -0.00000000000E+00 -0.00000000000E+00 -0.13046797938E+04  0.13046797938E+04  0.00000000000E+00 0. -1.
        -24    2    1    2    0    0 -0.49168557676E+02 -0.12241511237E+02 -0.10295236272E+04  0.10338428211E+04  0.79653487880E+02 0.  0.
         25    2    1    2    0    0  0.22325278862E+02 -0.73624309804E+01 -0.23307361251E+03  0.26556141028E+03  0.12508769052E+03 0.  0.
         24    2    1    2    0    0  0.26843278814E+02  0.19603942218E+02  0.55988301654E+02  0.10334641804E+03  0.80255317774E+02 0.  0.
        -11    1    5    5    0    0 -0.13627440091E+02  0.21709173221E+02 -0.86522294679E+01  0.27052844585E+02  0.00000000000E+00 0.  1.
         12    1    5    5    0    0  0.40470718905E+02 -0.21052310039E+01  0.64640531122E+02  0.76293573452E+02  0.00000000000E+00 0. -1.
         13    1    3    3    0    0 -0.58745247027E+02  0.16974646080E+02 -0.78822369512E+03  0.79059201628E+03  0.00000000000E+00 0. -1.
        -14    1    3    3    0    0  0.95766893512E+01 -0.29216157317E+02 -0.24129993212E+03  0.24325080487E+03  0.00000000000E+00 0.  1.
          5    1    4    4  501    0  0.38101020050E+01  0.58470964590E+02 -0.10984754263E+03  0.12456855783E+03  0.41800000000E+01 0. -1.
         -5    1    4    4    0  501  0.18515176857E+02 -0.65833395570E+02 -0.12322606987E+03  0.14099285245E+03  0.41800000000E+01 0. -1.
</event>
