<event>
11    1  0.8551154E-009  0.1677710E+03  0.7561462E-02  0.1079988E+00
         22   -1    0    0    0    0  0.00000000000E+00  0.00000000000E+00  0.79198751488E+03  0.79198751488E+03  0.00000000000E+00 0. -1.
         22   -1    0    0    0    0 -0.00000000000E+00 -0.00000000000E+00 -0.25553957337E+03  0.25553957337E+03  0.00000000000E+00 0.  1.
         24    2    1    2    0    0 -0.12817077846E+02  0.12757052152E+02 -0.19332081523E+03  0.21036642808E+03  0.80957251678E+02 0.  0.
         25    2    1    2    0    0  0.11366958144E+03 -0.55364229543E+02  0.12458150247E+03  0.21714947301E+03  0.12508945285E+03 0.  0.
        -24    2    1    2    0    0 -0.10085250360E+03  0.42607177391E+02  0.60518725427E+03  0.62001118716E+03  0.78585370289E+02 0.  0.
        -11    1    3    3    0    0 -0.14804892941E+02 -0.32499217344E+02 -0.10821297562E+03  0.11395364003E+03  0.00000000000E+00 0.  1.
         12    1    3    3    0    0  0.19878150957E+01  0.45256269496E+02 -0.85107839602E+02  0.96412788049E+02  0.00000000000E+00 0. -1.
         13    1    5    5    0    0 -0.52117777856E+02 -0.44918328367E+01  0.41143492897E+03  0.41474707969E+03  0.00000000000E+00 0. -1.
        -14    1    5    5    0    0 -0.48734725740E+02  0.47099010227E+02  0.19375232530E+03  0.20526410747E+03  0.00000000000E+00 0.  1.
          5    1    4    4  501    0  0.43005935285E+02  0.16566742588E+02 -0.11544468982E+02  0.47693968107E+02  0.41800000000E+01 0.  1.
         -5    1    4    4    0  501  0.70663646157E+02 -0.71930972131E+02  0.13612597145E+03  0.16945550491E+03  0.41800000000E+01 0.  1.
</event>
<event>
11    1  0.8551154E-009  0.2871303E+03  0.7561462E-02  0.1005790E+00
         22   -1    0    0    0    0  0.00000000000E+00  0.00000000000E+00  0.20832483688E+04  0.20832483688E+04  0.00000000000E+00 0.  1.
         22   -1    0    0    0    0 -0.00000000000E+00 -0.00000000000E+00 -0.63068282994E+02  0.63068282994E+02  0.00000000000E+00 0.  1.
         24    2    1    2    0    0  0.96556258195E+02  0.21806888297E+03  0.49745854500E+03  0.55749485298E+03  0.80363912196E+02 0.  0.
         25    2    1    2    0    0 -0.81138335388E+02 -0.28158996778E+03  0.84382092014E+03  0.90197384294E+03  0.12508688444E+03 0.  0.
        -24    2    1    2    0    0 -0.15417922807E+02  0.63521084812E+02  0.67890062068E+03  0.68684795589E+03  0.81125958807E+02 0.  0.
        -11    1    3    3    0    0  0.10672839134E+03  0.21515614199E+03  0.48452788386E+03  0.54078682047E+03  0.00000000000E+00 0.  1.
         12    1    3    3    0    0 -0.10172133145E+02  0.29127409783E+01  0.12930661143E+02  0.16708032509E+02  0.00000000000E+00 0. -1.
         11    1    5    5    0    0 -0.11242489469E+02  0.82990005350E+02  0.57356330978E+03  0.57964524054E+03  0.00000000000E+00 0. -1.
        -12    1    5    5    0    0 -0.41754333375E+01 -0.19468920538E+02  0.10533731090E+03  0.10720271535E+03  0.00000000000E+00 0.  1.
          5    1    4    4  501    0 -0.96887831597E+02 -0.23360834252E+03  0.78283199631E+03  0.82268068924E+03  0.41800000000E+01 0. -1.
         -5    1    4    4    0  501  0.15749496209E+02 -0.47981625261E+02  0.60988923833E+02  0.79293153701E+02  0.41800000000E+01 0. -1.
</event>
<event>
11    1  0.8551154E-009  0.7147055E+03  0.7561462E-02  0.9010910E-01
         22   -1    0    0    0    0  0.00000000000E+00  0.00000000000E+00  0.89066288024E+03  0.89066288024E+03  0.00000000000E+00 0.  1.
         22   -1    0    0    0    0 -0.00000000000E+00 -0.00000000000E+00 -0.12519334906E+04  0.12519334906E+04  0.00000000000E+00 0.  1.
        -24    2    1    2    0    0 -0.58174340271E+02  0.69951932880E+03 -0.88237288144E+03  0.11303625085E+04  0.80162045511E+02 0.  0.
         25    2    1    2    0    0  0.16489180801E+03 -0.70071086811E+03  0.48680784200E+03  0.87796603857E+03  0.12512977583E+03 0.  0.
         24    2    1    2    0    0 -0.10671746774E+03  0.11915393066E+01  0.34294429030E+02  0.13426782380E+03  0.73903335227E+02 0.  0.
        -11    1    5    5    0    0 -0.89707405553E+02  0.31477943586E+02  0.25780932640E+02  0.98503482330E+02  0.00000000000E+00 0.  1.
         12    1    5    5    0    0 -0.17010062190E+02 -0.30286404279E+02  0.85134963906E+01  0.35764341468E+02  0.00000000000E+00 0. -1.
         11    1    3    3    0    0  0.16526307204E+02  0.20644922131E+03 -0.28202980441E+03  0.34990743117E+03  0.00000000000E+00 0. -1.
        -12    1    3    3    0    0 -0.74700647476E+02  0.49307010749E+03 -0.60034307703E+03  0.78045507736E+03  0.00000000000E+00 0.  1.
          5    1    4    4  501    0  0.85647402996E+02 -0.57680931932E+03  0.39966807304E+03  0.70696287703E+03  0.41800000000E+01 0. -1.
         -5    1    4    4    0  501  0.79244405018E+02 -0.12390154880E+03  0.87139768962E+02  0.17100316154E+03  0.41800000000E+01 0. -1.
</event>
<event>
11    1  0.8551154E-009  0.1663178E+03  0.7561462E-02  0.1081281E+00
         22   -1    0    0    0    0  0.00000000000E+00  0.00000000000E+00  0.12876506730E+04  0.12876506730E+04  0.00000000000E+00 0.  1.
         22   -1    0    0    0    0 -0.00000000000E+00 -0.00000000000E+00 -0.60263480087E+03  0.60263480087E+03  0.00000000000E+00 0. -1.
        -24    2    1    2    0    0 -0.82091423057E+02 -0.62880057159E+02 -0.45442625745E+03  0.47282290270E+03  0.79783272252E+02 0.  0.
         25    2    1    2    0    0  0.16701427000E+03  0.54867577557E+02 -0.50663336821E+02  0.22161739195E+03  0.12507308770E+03 0.  0.
         24    2    1    2    0    0 -0.84922846944E+02  0.80124796026E+01  0.11901054664E+04  0.11958451793E+04  0.80116051650E+02 0.  0.
        -13    1    5    5    0    0 -0.45194016088E+02 -0.35952416755E+02  0.57691971734E+03  0.57980292825E+03  0.00000000000E+00 0.  1.
         14    1    5    5    0    0 -0.39728830856E+02  0.43964896358E+02  0.61318574911E+03  0.61604225101E+03  0.00000000000E+00 0. -1.
         13    1    3    3    0    0 -0.47149768817E+02 -0.22598148893E+02 -0.36483779543E+03  0.36856531851E+03  0.00000000000E+00 0. -1.
        -14    1    3    3    0    0 -0.34941654240E+02 -0.40281908266E+02 -0.89588462016E+02  0.10425758419E+03  0.00000000000E+00 0.  1.
          5    1    4    4  501    0 -0.56403342408E+01 -0.24466343638E+02 -0.94041242762E+01  0.27135314533E+02  0.41800000000E+01 0. -1.
         -5    1    4    4    0  501  0.17265460424E+03  0.79333921195E+02 -0.41259212544E+02  0.19448207742E+03  0.41800000000E+01 0. -1.
</event>
<event>
11    1  0.8551154E-009  0.2207675E+03  0.7561462E-02  0.1040738E+00
         22   -1    0    0    0    0  0.00000000000E+00  0.00000000000E+00  0.33921794805E+03  0.33921794805E+03  0.00000000000E+00 0. -1.
         22   -1    0    0    0    0 -0.00000000000E+00 -0.00000000000E+00 -0.47852776212E+03  0.47852776212E+03  0.00000000000E+00 0. -1.
         24    2    1    2    0    0  0.42627555463E+02 -0.17588597164E+03 -0.34866376586E+03  0.40089864313E+03  0.80001980840E+02 0.  0.
         25    2    1    2    0    0 -0.70971354754E+02  0.17465841578E+03  0.43079085895E+02  0.23031394855E+03  0.12508481865E+03 0.  0.
        -24    2    1    2    0    0  0.28343799290E+02  0.12275558638E+01  0.16627486589E+03  0.18653311850E+03  0.79639157576E+02 0.  0.
        -13    1    3    3    0    0 -0.50425592758E+01  0.70512580451E+01 -0.12257808452E+02  0.15013377772E+02  0.00000000000E+00 0.  1.
         14    1    3    3    0    0  0.47670114739E+02 -0.18293722968E+03 -0.33640595740E+03  0.38588526536E+03  0.00000000000E+00 0. -1.
         13    1    5    5    0    0  0.17344150737E+02 -0.39074318798E+02  0.82347163162E+02  0.92782957676E+02  0.00000000000E+00 0. -1.
        -14    1    5    5    0    0  0.10999648554E+02  0.40301874661E+02  0.83927702728E+02  0.93750160825E+02  0.00000000000E+00 0.  1.
          5    1    4    4  501    0 -0.87544923252E+01 -0.19458514448E+02 -0.80619737447E+00  0.21757694607E+02  0.41800000000E+01 0.  1.
         -5    1    4    4    0  501 -0.62216862429E+02  0.19411693022E+03  0.43885283270E+02  0.20855625394E+03  0.41800000000E+01 0.  1.
</event>
<event>
11    1  0.8551154E-009  0.1445383E+03  0.7561462E-02  0.1102594E+00
         22   -1    0    0    0    0  0.00000000000E+00  0.00000000000E+00  0.21695824855E+03  0.21695824855E+03  0.00000000000E+00 0. -1.
         22   -1    0    0    0    0 -0.00000000000E+00 -0.00000000000E+00 -0.61558652172E+03  0.61558652172E+03  0.00000000000E+00 0. -1.
        -24    2    1    2    0    0 -0.43422011801E+02 -0.43266973293E+02 -0.41859357744E+03  0.43045141828E+03  0.79437638057E+02 0.  0.
         25    2    1    2    0    0  0.77199689946E+02  0.10109150123E+03 -0.12768948940E+03  0.21938769452E+03  0.12508825306E+03 0.  0.
         24    2    1    2    0    0 -0.33777678145E+02 -0.57824527938E+02  0.14765479368E+03  0.18270565747E+03  0.84230704646E+02 0.  0.
        -11    1    5    5    0    0 -0.38096241440E-01  0.86666154882E+01 -0.69180529914E+01  0.11089234984E+02  0.00000000000E+00 0.  1.
         12    1    5    5    0    0 -0.33739581903E+02 -0.66491143426E+02  0.15457284667E+03  0.17161642249E+03  0.00000000000E+00 0. -1.
         13    1    3    3    0    0 -0.95654420517E+01 -0.54876063390E+02 -0.33376223923E+03  0.33837865233E+03  0.00000000000E+00 0. -1.
        -14    1    3    3    0    0 -0.33856569750E+02  0.11609090097E+02 -0.84831338210E+02  0.92072765954E+02  0.00000000000E+00 0.  1.
          5    1    4    4  501    0  0.35012849619E+02  0.11880886246E+02 -0.11369642269E+03  0.11963028057E+03  0.41800000000E+01 0.  1.
         -5    1    4    4    0  501  0.42186840327E+02  0.89210614985E+02 -0.13993066714E+02  0.99757413954E+02  0.41800000000E+01 0.  1.
</event>
<event>
11    1  0.8551154E-009  0.1491559E+03  0.7561462E-02  0.1097744E+00
         22   -1    0    0    0    0  0.00000000000E+00  0.00000000000E+00  0.19089764833E+04  0.19089764833E+04  0.00000000000E+00 0.  1.
         22   -1    0    0    0    0 -0.00000000000E+00 -0.00000000000E+00 -0.22809444737E+03  0.22809444737E+03  0.00000000000E+00 0. -1.
        -24    2    1    2    0    0 -0.32273109008E+02  0.27078979861E+02 -0.20556936692E+03  0.22480851475E+03  0.80655309625E+02 0.  0.
         25    2    1    2    0    0  0.99066550068E+02 -0.57501831482E+02  0.67972083706E+03  0.70056315992E+03  0.12509069804E+03 0.  0.
         24    2    1    2    0    0 -0.66793441060E+02  0.30422851621E+02  0.12067305658E+04  0.12116992560E+04  0.81421833174E+02 0.  0.
        -13    1    5    5    0    0 -0.76314494262E+02  0.23462779077E+02  0.11771474085E+04  0.11798518658E+04  0.00000000000E+00 0.  1.
         14    1    5    5    0    0  0.95210532025E+01  0.69600725440E+01  0.29583157349E+02  0.31847390201E+02  0.00000000000E+00 0. -1.
         11    1    3    3    0    0 -0.33404701163E+02  0.84482878609E+01 -0.20307514176E+03  0.20597757360E+03  0.00000000000E+00 0. -1.
        -12    1    3    3    0    0  0.11315921552E+01  0.18630692000E+02 -0.24942251653E+01  0.18830941144E+02  0.00000000000E+00 0.  1.
          5    1    4    4  501    0  0.17535826041E+02 -0.67345169979E+02  0.16216581267E+03  0.17651657235E+03  0.41800000000E+01 0. -1.
         -5    1    4    4    0  501  0.81530724027E+02  0.98433384968E+01  0.51755502439E+03  0.52404658757E+03  0.41800000000E+01 0. -1.
</event>
<event>
11    1  0.8551154E-009  0.1756423E+03  0.7561462E-02  0.1073223E+00
         22   -1    0    0    0    0  0.00000000000E+00  0.00000000000E+00  0.86296836348E+03  0.86296836348E+03  0.00000000000E+00 0. -1.
         22   -1    0    0    0    0 -0.00000000000E+00 -0.00000000000E+00 -0.81628813978E+03  0.81628813978E+03  0.00000000000E+00 0.  1.
        -24    2    1    2    0    0  0.66781927978E+02  0.10081125507E+03 -0.74382172237E+03  0.75852974202E+03  0.86451603862E+02 0.  0.
         25    2    1    2    0    0 -0.14134468269E+03 -0.14843980726E+03  0.18472430653E+03  0.30295847062E+03  0.12509224514E+03 0.  0.
         24    2    1    2    0    0  0.74562754715E+02  0.47628552183E+02  0.60577763954E+03  0.61776829062E+03  0.82722602444E+02 0.  0.
        -13    1    5    5    0    0  0.26569981733E+02 -0.23070236996E+02  0.15253806963E+03  0.15654412301E+03  0.00000000000E+00 0.  1.
         14    1    5    5    0    0  0.47992772982E+02  0.70698789179E+02  0.45323956991E+03  0.46122416760E+03  0.00000000000E+00 0. -1.
         13    1    3    3    0    0  0.28359820567E+02 -0.10993946364E+02 -0.14866245233E+03  0.15174212010E+03  0.00000000000E+00 0. -1.
        -14    1    3    3    0    0  0.38422107411E+02  0.11180520144E+03 -0.59515927003E+03  0.60678762192E+03  0.00000000000E+00 0.  1.
          5    1    4    4  501    0 -0.61227237567E+02  0.72554380974E+01  0.27678690854E+02  0.67712615733E+02  0.41800000000E+01 0. -1.
         -5    1    4    4    0  501 -0.80117445127E+02 -0.15569524535E+03  0.15704561568E+03  0.23524585489E+03  0.41800000000E+01 0. -1.
</event>
<event>
11    1  0.8551154E-009  0.2005468E+03  0.7561462E-02  0.1054138E+00
         22   -1    0    0    0    0  0.00000000000E+00  0.00000000000E+00  0.26117410358E+04  0.26117410358E+04  0.00000000000E+00 0.  1.
         22   -1    0    0    0    0 -0.00000000000E+00 -0.00000000000E+00 -0.27421996715E+03  0.27421996715E+03  0.00000000000E+00 0.  1.
         24    2    1    2    0    0  0.42453889825E+01 -0.10722769302E+02 -0.24653776721E+03  0.25943152145E+03  0.79942745466E+02 0.  0.
         25    2    1    2    0    0 -0.26736047132E+02  0.16379008887E+03  0.60269400294E+03  0.63752365637E+03  0.12511731227E+03 0.  0.
        -24    2    1    2    0    0  0.22490658150E+02 -0.15306731957E+03  0.19813648329E+04  0.19890058251E+04  0.80013356864E+02 0.  0.
        -11    1    3    3    0    0 -0.26824870149E+02 -0.28436067848E+02 -0.17665347420E+03  0.18092714987E+03  0.00000000000E+00 0.  1.
         12    1    3    3    0    0  0.31070259132E+02  0.17713298546E+02 -0.69884293009E+02  0.78504371581E+02  0.00000000000E+00 0. -1.
         13    1    5    5    0    0 -0.24617426287E+02 -0.16563942017E+02  0.36412166732E+03  0.36532857876E+03  0.00000000000E+00 0. -1.
        -14    1    5    5    0    0  0.47108084437E+02 -0.13650337755E+03  0.16172431656E+04  0.16236772463E+04  0.00000000000E+00 0.  1.
          5    1    4    4  501    0  0.38741294023E+02  0.12121275359E+03  0.41771538915E+03  0.43668872006E+03  0.41800000000E+01 0. -1.
         -5    1    4    4    0  501 -0.65477341155E+02  0.42577335277E+02  0.18497861379E+03  0.20083493631E+03  0.41800000000E+01 0. -1.
</event>
<event>
11    1  0.8551154E-009  0.1948963E+03  0.7561462E-02  0.1058193E+00
         22   -1    0    0    0    0  0.00000000000E+00  0.00000000000E+00  0.18826534639E+04  0.18826534639E+04  0.00000000000E+00 0.  1.
         22   -1    0    0    0    0 -0.00000000000E+00 -0.00000000000E+00 -0.59786896769E+03  0.59786896769E+03  0.00000000000E+00 0.  1.
         24    2    1    2    0    0  0.34110502503E+01 -0.67648395467E+02 -0.52642276092E+03  0.53707097459E+03  0.82075379134E+02 0.  0.
         25    2    1    2    0    0 -0.15254040428E+03  0.57628764112E+02  0.10880286654E+03  0.23254056633E+03  0.12508957523E+03 0.  0.
        -24    2    1    2    0    0  0.14912935403E+03  0.10019631355E+02  0.17024043906E+04  0.17109108907E+04  0.81825481468E+02 0.  0.
        -11    1    3    3    0    0  0.31139996487E+01 -0.34206773279E+02 -0.47162555113E+03  0.47287467770E+03  0.00000000000E+00 0.  1.
         12    1    3    3    0    0  0.29705060166E+00 -0.33441622188E+02 -0.54797209793E+02  0.64196296892E+02  0.00000000000E+00 0. -1.
         13    1    5    5    0    0  0.24798321900E+02  0.32731017999E+02  0.56941743144E+03  0.57089621433E+03  0.00000000000E+00 0. -1.
        -14    1    5    5    0    0  0.12433103213E+03 -0.22711386645E+02  0.11329869591E+04  0.11400146763E+04  0.00000000000E+00 0.  1.
          5    1    4    4  501    0 -0.32719739929E+02 -0.36178388744E+02  0.71205882358E+01  0.49473552227E+02  0.41800000000E+01 0.  1.
         -5    1    4    4    0  501 -0.11982066436E+03  0.93807152856E+02  0.10168227830E+03  0.18306701411E+03  0.41800000000E+01 0.  1.
</event>
<event>
11    1  0.8551154E-009  0.1370571E+03  0.7561462E-02  0.1110890E+00
         22   -1    0    0    0    0  0.00000000000E+00  0.00000000000E+00  0.19643108577E+03  0.19643108577E+03  0.00000000000E+00 0.  1.
         22   -1    0    0    0    0 -0.00000000000E+00 -0.00000000000E+00 -0.13714143669E+04  0.13714143669E+04  0.00000000000E+00 0. -1.
        -24    2    1    2    0    0 -0.40748513819E+02  0.16295101836E+02 -0.12757329448E+04  0.12784693108E+04  0.71156591463E+02 0.  0.
         25    2    1    2    0    0 -0.22760816437E+02 -0.31248664611E+01 -0.21127731651E+02  0.12891076781E+03  0.12507511925E+03 0.  0.
         24    2    1    2    0    0  0.63509330255E+02 -0.13170235374E+02  0.12187739538E+03  0.16046537398E+03  0.81781089580E+02 0.  0.
        -11    1    5    5    0    0  0.78957820988E+02 -0.47362818476E-01  0.72923929550E+02  0.10748134368E+03  0.00000000000E+00 0.  1.
         12    1    5    5    0    0 -0.15448490732E+02 -0.13122872556E+02  0.48953465835E+02  0.52984030304E+02  0.00000000000E+00 0. -1.
         11    1    3    3    0    0 -0.47418714207E+02 -0.38863198595E+01 -0.11475655058E+04  0.11485513606E+04  0.00000000000E+00 0. -1.
        -12    1    3    3    0    0  0.66702003879E+01  0.20181421695E+02 -0.12816743906E+03  0.12991795022E+03  0.00000000000E+00 0.  1.
          5    1    4    4  501    0  0.10110950165E+01 -0.11863937900E+02 -0.71377229587E+02  0.72484181993E+02  0.41800000000E+01 0. -1.
         -5    1    4    4    0  501 -0.23771911453E+02  0.87390714390E+01  0.50249497936E+02  0.56426585814E+02  0.41800000000E+01 0. -1.
</event>
<event>
11    1  0.8551154E-009  0.1547429E+03  0.7561462E-02  0.1092129E+00
         22   -1    0    0    0    0  0.00000000000E+00  0.00000000000E+00  0.15186507220E+04  0.15186507220E+04  0.00000000000E+00 0. -1.
         22   -1    0    0    0    0 -0.00000000000E+00 -0.00000000000E+00 -0.10557671519E+04  0.10557671519E+04  0.00000000000E+00 0.  1.
         24    2    1    2    0    0  0.59628097998E+02 -0.68984449982E+02 -0.10435796526E+04  0.10506558611E+04  0.80652853500E+02 0.  0.
         25    2    1    2    0    0 -0.51344316080E+02  0.45990374759E+02  0.83392037357E+03  0.84606323291E+03  0.12509376989E+03 0.  0.
        -24    2    1    2    0    0 -0.82837819181E+01  0.22994075223E+02  0.67254284913E+03  0.67769877982E+03  0.79777213022E+02 0.  0.
        -11    1    3    3    0    0 -0.10900363314E+02 -0.26465674957E+02 -0.50558652963E+03  0.50639607899E+03  0.00000000000E+00 0.  1.
         12    1    3    3    0    0  0.70528461312E+02 -0.42518775025E+02 -0.53799312297E+03  0.54425978214E+03  0.00000000000E+00 0. -1.
         13    1    5    5    0    0 -0.11188370129E+02  0.44270222609E+02  0.60727353707E+03  0.60898783327E+03  0.00000000000E+00 0. -1.
        -14    1    5    5    0    0  0.29045882106E+01 -0.21276147386E+02  0.65269312055E+02  0.68710946555E+02  0.00000000000E+00 0.  1.
          5    1    4    4  501    0 -0.72077837125E+02  0.59094901190E+02  0.79075586818E+03  0.79624100461E+03  0.41800000000E+01 0. -1.
         -5    1    4    4    0  501  0.20733521045E+02 -0.13104526432E+02  0.43164505392E+02  0.49822228309E+02  0.41800000000E+01 0. -1.
</event>
<event>
11    1  0.8551154E-009  0.1469953E+03  0.7561462E-02  0.1099989E+00
         22   -1    0    0    0    0  0.00000000000E+00  0.00000000000E+00  0.53909183608E+03  0.53909183608E+03  0.00000000000E+00 0.  1.
         22   -1    0    0    0    0 -0.00000000000E+00 -0.00000000000E+00 -0.29790356101E+03  0.29790356101E+03  0.00000000000E+00 0. -1.
        -24    2    1    2    0    0  0.26126427224E+02 -0.35158997032E+02 -0.20810357613E+03  0.22713766214E+03  0.79785173397E+02 0.  0.
         25    2    1    2    0    0  0.41666229619E+02 -0.86621531969E+01 -0.13887026282E+02  0.13285838539E+03  0.12508954186E+03 0.  0.
         24    2    1    2    0    0 -0.67792656843E+02  0.43821150229E+02  0.46317887748E+03  0.47699934955E+03  0.80483348606E+02 0.  0.
        -13    1    5    5    0    0 -0.72635054093E+02  0.59947116709E+02  0.42438331206E+03  0.43470760683E+03  0.00000000000E+00 0.  1.
         14    1    5    5    0    0  0.48423972499E+01 -0.16125966480E+02  0.38795565421E+02  0.42291742721E+02  0.00000000000E+00 0. -1.
         13    1    3    3    0    0  0.20546049323E+02 -0.30063228872E+02 -0.21429596000E+03  0.21736765248E+03  0.00000000000E+00 0. -1.
        -14    1    3    3    0    0  0.55803779006E+01 -0.50957681603E+01  0.61923838746E+01  0.97700096575E+01  0.00000000000E+00 0.  1.
          5    1    4    4  501    0  0.72718062169E+02  0.31664677564E+02 -0.18604058226E+02  0.81572984212E+02  0.41800000000E+01 0. -1.
         -5    1    4    4    0  501 -0.31051832550E+02 -0.40326830760E+02  0.47170319438E+01  0.51285401180E+02  0.41800000000E+01 0. -1.
</event>
<event>
11    1  0.8551154E-009  0.1334956E+03  0.7561462E-02  0.1115047E+00
         22   -1    0    0    0    0  0.00000000000E+00  0.00000000000E+00  0.73800767587E+03  0.73800767587E+03  0.00000000000E+00 0. -1.
         22   -1    0    0    0    0 -0.00000000000E+00 -0.00000000000E+00 -0.20936264463E+03  0.20936264463E+03  0.00000000000E+00 0. -1.
        -24    2    1    2    0    0  0.49229100106E+02 -0.23678067761E+02 -0.11304063181E+03  0.15003808301E+03  0.82152825412E+02 0.  0.
         25    2    1    2    0    0 -0.28695862574E+02 -0.11345281665E+02 -0.19274864849E+02  0.13029770447E+03  0.12511516067E+03 0.  0.
         24    2    1    2    0    0 -0.20533237532E+02  0.35023349426E+02  0.66096052790E+03  0.66703453302E+03  0.80112420713E+02 0.  0.
        -13    1    5    5    0    0  0.88915150000E+01  0.33440990595E+02  0.11062170539E+03  0.11590737938E+03  0.00000000000E+00 0.  1.
         14    1    5    5    0    0 -0.29424752532E+02  0.15823588319E+01  0.55033882251E+03  0.55112715364E+03  0.00000000000E+00 0. -1.
         11    1    3    3    0    0  0.48649699118E+02 -0.48176151157E+02 -0.10272358400E+03  0.12344986624E+03  0.00000000000E+00 0. -1.
        -12    1    3    3    0    0  0.57940098802E+00  0.24498083396E+02 -0.10317047811E+02  0.26588216772E+02  0.00000000000E+00 0.  1.
          5    1    4    4  501    0 -0.19743748770E+02 -0.53890728766E+02  0.29631612825E+02  0.64726587590E+02  0.41800000000E+01 0.  1.
         -5    1    4    4    0  501 -0.89521138035E+01  0.42545447101E+02 -0.48906477674E+02  0.65571116881E+02  0.41800000000E+01 0.  1.
</event>
<event>
11    1  0.1015549E-008  0.1431855E+03  0.7561462E-02  0.1104053E+00
         22   -1    0    0    0    0  0.00000000000E+00  0.00000000000E+00  0.25611677540E+04  0.25611677540E+04  0.00000000000E+00 0. -1.
         22   -1    0    0    0    0 -0.00000000000E+00 -0.00000000000E+00 -0.26360801277E+03  0.26360801277E+03  0.00000000000E+00 0. -1.
        -24    2    1    2    0    0  0.70671349930E+02 -0.28549838222E+02 -0.19394675254E+03  0.22953928653E+03  0.96246601377E+02 0.  0.
         25    2    1    2    0    0 -0.46718507725E+02 -0.22854465988E+02  0.39307836056E+02  0.14105663604E+03  0.12508766133E+03 0.  0.
         24    2    1    2    0    0 -0.23952842205E+02  0.51404304209E+02  0.24521986577E+04  0.24541798442E+04  0.80649300628E+02 0.  0.
        -11    1    5    5    0    0 -0.22433056106E+02 -0.15507176128E+02  0.42329280175E+03  0.42417037913E+03  0.00000000000E+00 0.  1.
         12    1    5    5    0    0 -0.15197860986E+01  0.66911480337E+02  0.20289058560E+04  0.20300094651E+04  0.00000000000E+00 0. -1.
         13    1    3    3    0    0  0.54324098701E+02  0.11165022258E+02 -0.17316219887E+03  0.18182660020E+03  0.00000000000E+00 0. -1.
        -14    1    3    3    0    0  0.16347251230E+02 -0.39714860480E+02 -0.20784553665E+02  0.47712686329E+02  0.00000000000E+00 0.  1.
          5    1    4    4  501    0  0.49653088664E+01  0.44862645126E+02 -0.38063077973E+01  0.45489247069E+02  0.41800000000E+01 0. -1.
         -5    1    4    4    0  501 -0.51683816592E+02 -0.67717111114E+02  0.43114143854E+02  0.95567388974E+02  0.41800000000E+01 0. -1.
</event>
<event>
11    1  0.8551154E-009  0.1803159E+03  0.7561462E-02  0.1069388E+00
         22   -1    0    0    0    0  0.00000000000E+00  0.00000000000E+00  0.69076033002E+02  0.69076033002E+02  0.00000000000E+00 0.  1.
         22   -1    0    0    0    0 -0.00000000000E+00 -0.00000000000E+00 -0.11442213558E+04  0.11442213558E+04  0.00000000000E+00 0.  1.
        -24    2    1    2    0    0 -0.42839464590E+02  0.48039866188E+01 -0.53353909452E+03  0.54245640577E+03  0.87958449086E+02 0.  0.
         25    2    1    2    0    0  0.14747459289E+03 -0.67039628797E+02 -0.46016590324E+03  0.50363525466E+03  0.12511092620E+03 0.  0.
         24    2    1    2    0    0 -0.10463512830E+03  0.62235642178E+02 -0.81440325063E+02  0.16720572840E+03  0.80643932378E+02 0.  0.
        -13    1    5    5    0    0 -0.95245397419E+02  0.55443751787E+02 -0.29638310785E+02  0.11412328775E+03  0.00000000000E+00 0.  1.
         14    1    5    5    0    0 -0.93897308854E+01  0.67918903910E+01 -0.51802014278E+02  0.53082440641E+02  0.00000000000E+00 0. -1.
         11    1    3    3    0    0 -0.74931172979E+01  0.17123930606E+02 -0.19338745904E+02  0.26895406660E+02  0.00000000000E+00 0. -1.
        -12    1    3    3    0    0 -0.35346347292E+02 -0.12319943987E+02 -0.51420034861E+03  0.51556099911E+03  0.00000000000E+00 0.  1.
          5    1    4    4  501    0  0.11332317705E+03  0.10027599225E+02 -0.20010557785E+03  0.23022252255E+03  0.41800000000E+01 0. -1.
         -5    1    4    4    0  501  0.34151415848E+02 -0.77067228022E+02 -0.26006032539E+03  0.27341273212E+03  0.41800000000E+01 0. -1.
</event>
<event>
11    1  0.8551154E-009  0.1543653E+03  0.7561462E-02  0.1092500E+00
         22   -1    0    0    0    0  0.00000000000E+00  0.00000000000E+00  0.43146899179E+03  0.43146899179E+03  0.00000000000E+00 0. -1.
         22   -1    0    0    0    0 -0.00000000000E+00 -0.00000000000E+00 -0.13237159415E+04  0.13237159415E+04  0.00000000000E+00 0. -1.
         24    2    1    2    0    0  0.91067887242E+02  0.18657896959E+02 -0.11352332852E+04  0.11419871351E+04  0.82088535316E+02 0.  0.
         25    2    1    2    0    0 -0.71023132006E+02  0.33912148027E+01 -0.15151582715E+03  0.20895187121E+03  0.12509217796E+03 0.  0.
        -24    2    1    2    0    0 -0.20044755235E+02 -0.22049111762E+02  0.39450216261E+03  0.40424592703E+03  0.83035279710E+02 0.  0.
        -11    1    3    3    0    0  0.39074164451E+02 -0.20446718107E+02 -0.21608463377E+03  0.22053894795E+03  0.00000000000E+00 0.  1.
         12    1    3    3    0    0  0.51993722791E+02  0.39104615066E+02 -0.91914865141E+03  0.92144818711E+03  0.00000000000E+00 0. -1.
         11    1    5    5    0    0 -0.17541286353E+02 -0.17462707873E+02  0.39746784959E+03  0.39823778619E+03  0.00000000000E+00 0. -1.
        -12    1    5    5    0    0 -0.25034688825E+01 -0.45864038888E+01 -0.29656869813E+01  0.60081408395E+01  0.00000000000E+00 0.  1.
          5    1    4    4  501    0 -0.27676368470E+02  0.48579106293E+02 -0.13170659110E+03  0.14314331797E+03  0.41800000000E+01 0.  1.
         -5    1    4    4    0  501 -0.43346763536E+02 -0.45187891491E+02 -0.19809236044E+02  0.65808553236E+02  0.41800000000E+01 0.  1.
</event>
<event>
11    1  0.1207492E-008  0.2206369E+03  0.7561462E-02  0.1040819E+00
         22   -1    0    0    0    0  0.00000000000E+00  0.00000000000E+00  0.30842519123E+04  0.30842519123E+04  0.00000000000E+00 0. -1.
         22   -1    0    0    0    0 -0.00000000000E+00 -0.00000000000E+00 -0.12830315099E+04  0.12830315099E+04  0.00000000000E+00 0. -1.
        -24    2    1    2    0    0 -0.74528883816E+02  0.25104713154E+02 -0.10895916207E+04  0.10954949447E+04  0.81941886586E+02 0.  0.
         25    2    1    2    0    0  0.16585169491E+03 -0.18105931392E+03 -0.85817453853E+02  0.28862283009E+03  0.12509693362E+03 0.  0.
         24    2    1    2    0    0 -0.91322811096E+02  0.15595460076E+03  0.29766294770E+04  0.29831656474E+04  0.79325552985E+02 0.  0.
        -11    1    5    5    0    0 -0.41637875448E+02  0.23778492879E+02  0.43907267973E+03  0.44168308490E+03  0.00000000000E+00 0.  1.
         12    1    5    5    0    0 -0.49684935648E+02  0.13217610788E+03  0.25375567973E+04  0.25414825625E+04  0.00000000000E+00 0. -1.
         13    1    3    3    0    0 -0.83579253611E+02 -0.32517203556E+01 -0.82897528213E+03  0.83318430356E+03  0.00000000000E+00 0. -1.
        -14    1    3    3    0    0  0.90503697952E+01  0.28356433509E+02 -0.26061633855E+03  0.26231064109E+03  0.00000000000E+00 0.  1.
          5    1    4    4  501    0  0.17801653985E+03 -0.18103048407E+03 -0.61741643188E+02  0.26132628557E+03  0.41800000000E+01 0. -1.
         -5    1    4    4    0  501 -0.12164844939E+02 -0.28829842197E-01 -0.24075810665E+02  0.27296544520E+02  0.41800000000E+01 0. -1.
</event>
<event>
11    1  0.8551154E-009  0.1336909E+03  0.7561462E-02  0.1114815E+00
         22   -1    0    0    0    0  0.00000000000E+00  0.00000000000E+00  0.11372919655E+03  0.11372919655E+03  0.00000000000E+00 0.  1.
         22   -1    0    0    0    0 -0.00000000000E+00 -0.00000000000E+00 -0.70357411724E+03  0.70357411724E+03  0.00000000000E+00 0.  1.
         24    2    1    2    0    0  0.32930158915E+02 -0.19767909296E+02 -0.37742181063E+03  0.38755804164E+03  0.79239175262E+02 0.  0.
         25    2    1    2    0    0 -0.10640246365E+01  0.55176015943E+02 -0.28264213550E+03  0.31397184004E+03  0.12508483000E+03 0.  0.
        -24    2    1    2    0    0 -0.31866134278E+02 -0.35408106647E+02  0.70219025440E+02  0.11577343211E+03  0.78762881606E+02 0.  0.
        -11    1    3    3    0    0  0.29959882041E+02 -0.44613401163E+02 -0.16184145116E+03  0.17053036507E+03  0.00000000000E+00 0.  1.
         12    1    3    3    0    0  0.29702768738E+01  0.24845491867E+02 -0.21558035946E+03  0.21702767657E+03  0.00000000000E+00 0. -1.
         13    1    5    5    0    0 -0.13931700401E+02 -0.37544329318E+01 -0.16388342322E+02  0.21834967524E+02  0.00000000000E+00 0. -1.
        -14    1    5    5    0    0 -0.17934433877E+02 -0.31653673716E+02  0.86607367763E+02  0.93938464587E+02  0.00000000000E+00 0.  1.
          5    1    4    4  501    0 -0.47538034024E+02  0.24123128210E+02 -0.23313473085E+03  0.23918834654E+03  0.41800000000E+01 0.  1.
         -5    1    4    4    0  501  0.46474009387E+02  0.31052887733E+02 -0.49507404651E+02  0.74783493502E+02  0.41800000000E+01 0.  1.
</event>
<event>
11    1  0.8551154E-009  0.6507370E+03  0.7561462E-02  0.9108226E-01
         22   -1    0    0    0    0  0.00000000000E+00  0.00000000000E+00  0.48098449620E+03  0.48098449620E+03  0.00000000000E+00 0.  1.
         22   -1    0    0    0    0 -0.00000000000E+00 -0.00000000000E+00 -0.12243593957E+04  0.12243593957E+04  0.00000000000E+00 0.  1.
        -24    2    1    2    0    0  0.29742903412E+03 -0.61161863795E+03 -0.59915921959E+03  0.90998260217E+03  0.80840442906E+02 0.  0.
         25    2    1    2    0    0 -0.32665723755E+03  0.48496087861E+03 -0.20063261022E+03  0.63070792303E+03  0.12508811002E+03 0.  0.
         24    2    1    2    0    0  0.29228203430E+02  0.12665775934E+03  0.56416930331E+02  0.16465336668E+03  0.83853355658E+02 0.  0.
        -11    1    5    5    0    0  0.44496281878E+02  0.11408287296E+03  0.69630476217E+02  0.14086597965E+03  0.00000000000E+00 0.  1.
         12    1    5    5    0    0 -0.15268078449E+02  0.12574886375E+02 -0.13213545887E+02  0.23787387031E+02  0.00000000000E+00 0. -1.
         13    1    3    3    0    0  0.87488740800E+02 -0.15230168813E+03 -0.11213726811E+03  0.20838630203E+03  0.00000000000E+00 0. -1.
        -14    1    3    3    0    0  0.20994029332E+03 -0.45931694982E+03 -0.48702195147E+03  0.70159630014E+03  0.00000000000E+00 0.  1.
          5    1    4    4  501    0 -0.13027171226E+03  0.12782276899E+03 -0.16029459870E+02  0.18325882045E+03  0.41800000000E+01 0.  1.
         -5    1    4    4    0  501 -0.19638552529E+03  0.35713810962E+03 -0.18460315035E+03  0.44744910259E+03  0.41800000000E+01 0.  1.
</event>
<event>
11    1  0.8551154E-009  0.2055067E+03  0.7561462E-02  0.1050696E+00
         22   -1    0    0    0    0  0.00000000000E+00  0.00000000000E+00  0.12905872172E+04  0.12905872172E+04  0.00000000000E+00 0. -1.
         22   -1    0    0    0    0 -0.00000000000E+00 -0.00000000000E+00 -0.20283812748E+03  0.20283812748E+03  0.00000000000E+00 0.  1.
         24    2    1    2    0    0 -0.11641614673E+03  0.11500052098E+02 -0.13081577171E+03  0.19208478039E+03  0.78094982607E+02 0.  0.
         25    2    1    2    0    0  0.60047939667E+02 -0.16927573354E+03  0.34839176696E+03  0.41144250748E+03  0.12509230454E+03 0.  0.
        -24    2    1    2    0    0  0.56368207067E+02  0.15777568145E+03  0.87017309451E+03  0.88989805685E+03  0.81527889414E+02 0.  0.
        -11    1    3    3    0    0 -0.36468971794E+02  0.39081188112E+02 -0.33181001542E+02  0.62915054091E+02  0.00000000000E+00 0.  1.
         12    1    3    3    0    0 -0.79947174940E+02 -0.27581136014E+02 -0.97634770172E+02  0.12916972630E+03  0.00000000000E+00 0. -1.
         13    1    5    5    0    0  0.23580296785E+02  0.15058260645E+03  0.69139529123E+03  0.70799618679E+03  0.00000000000E+00 0. -1.
        -14    1    5    5    0    0  0.32787910282E+02  0.71930749920E+01  0.17877780328E+03  0.18190187007E+03  0.00000000000E+00 0.  1.
          5    1    4    4  501    0 -0.32664748637E+02 -0.77475511868E+02  0.99008440296E+02  0.12995993380E+03  0.41800000000E+01 0. -1.
         -5    1    4    4    0  501  0.92712688304E+02 -0.91800221676E+02  0.24938332666E+03  0.28148257369E+03  0.41800000000E+01 0. -1.
</event>
<event>
11    1  0.8551154E-009  0.2710824E+03  0.7561462E-02  0.1013231E+00
         22   -1    0    0    0    0  0.00000000000E+00  0.00000000000E+00  0.48527442611E+03  0.48527442611E+03  0.00000000000E+00 0. -1.
         22   -1    0    0    0    0 -0.00000000000E+00 -0.00000000000E+00 -0.40817315449E+03  0.40817315449E+03  0.00000000000E+00 0. -1.
         24    2    1    2    0    0  0.14284232837E+02 -0.42213926184E+02 -0.24991290877E+03  0.26636996406E+03  0.80687303296E+02 0.  0.
         25    2    1    2    0    0 -0.79838720748E+02 -0.20424919299E+03  0.85636116447E+02  0.26659498751E+03  0.12508952297E+03 0.  0.
        -24    2    1    2    0    0  0.65554487910E+02  0.24646311918E+03  0.24137806394E+03  0.36048262903E+03  0.81503963597E+02 0.  0.
        -11    1    3    3    0    0  0.36967492382E+02 -0.51021914252E+02 -0.13598552725E+03  0.14987292901E+03  0.00000000000E+00 0.  1.
         12    1    3    3    0    0 -0.22683259544E+02  0.88079880685E+01 -0.11392738151E+03  0.11649703505E+03  0.00000000000E+00 0. -1.
         11    1    5    5    0    0  0.81603317499E+02  0.19656908459E+03  0.21197705323E+03  0.30038771203E+03  0.00000000000E+00 0. -1.
        -12    1    5    5    0    0 -0.16048829588E+02  0.49894034587E+02  0.29401010715E+02  0.60094917003E+02  0.00000000000E+00 0.  1.
          5    1    4    4  501    0 -0.57500389086E+02 -0.10448187452E+03 -0.18318356976E+02  0.12073024248E+03  0.41800000000E+01 0.  1.
         -5    1    4    4    0  501 -0.22338331662E+02 -0.99767318474E+02  0.10395447342E+03  0.14586474503E+03  0.41800000000E+01 0.  1.
</event>
<event>
11    1  0.8551154E-009  0.1441480E+03  0.7561462E-02  0.1103013E+00
         22   -1    0    0    0    0  0.00000000000E+00  0.00000000000E+00  0.31025983286E+03  0.31025983286E+03  0.00000000000E+00 0. -1.
         22   -1    0    0    0    0 -0.00000000000E+00 -0.00000000000E+00 -0.22937720519E+03  0.22937720519E+03  0.00000000000E+00 0. -1.
         24    2    1    2    0    0  0.55215019913E+02 -0.52225920180E+02 -0.14781328649E+03  0.18186664864E+03  0.73827265031E+02 0.  0.
         25    2    1    2    0    0 -0.75448777443E+02 -0.24540908510E+02  0.72178869940E+02  0.16478405595E+03  0.12509684896E+03 0.  0.
        -24    2    1    2    0    0  0.20233757530E+02  0.76766828690E+02  0.15651704421E+03  0.19298633346E+03  0.80271967972E+02 0.  0.
        -11    1    3    3    0    0  0.28458039582E+02 -0.57294692485E+02 -0.13937637874E+03  0.15335682820E+03  0.00000000000E+00 0.  1.
         12    1    3    3    0    0  0.26756980331E+02  0.50687723056E+01 -0.84369077439E+01  0.28509820438E+02  0.00000000000E+00 0. -1.
         13    1    5    5    0    0  0.31627616848E+02  0.85668941698E+02  0.10347689929E+03  0.13801066048E+03  0.00000000000E+00 0. -1.
        -14    1    5    5    0    0 -0.11393859318E+02 -0.89021130081E+01  0.53040144926E+02  0.54975672983E+02  0.00000000000E+00 0.  1.
          5    1    4    4  501    0 -0.20489645356E+02 -0.67968481018E+02  0.61075627493E+02  0.93740304311E+02  0.41800000000E+01 0. -1.
         -5    1    4    4    0  501 -0.54959132087E+02  0.43427572508E+02  0.11103242447E+02  0.71043751636E+02  0.41800000000E+01 0. -1.
</event>
<event>
11    1  0.8589098E-009  0.1884254E+03  0.7561462E-02  0.1063024E+00
         22   -1    0    0    0    0  0.00000000000E+00  0.00000000000E+00  0.54794884323E+03  0.54794884323E+03  0.00000000000E+00 0. -1.
         22   -1    0    0    0    0 -0.00000000000E+00 -0.00000000000E+00 -0.66959826395E+03  0.66959826395E+03  0.00000000000E+00 0. -1.
         24    2    1    2    0    0 -0.25341769980E+01 -0.63604326272E+02 -0.45170581927E+03  0.46329092722E+03  0.80922207739E+02 0.  0.
         25    2    1    2    0    0  0.12442375668E+03 -0.11106062446E+02 -0.15825293615E+03  0.23726833722E+03  0.12509059196E+03 0.  0.
        -24    2    1    2    0    0 -0.12188957968E+03  0.74710388719E+02  0.48830933470E+03  0.51698784274E+03  0.91606284554E+02 0.  0.
        -13    1    3    3    0    0  0.15687175764E+02 -0.52742886246E+02 -0.13373231947E+03  0.14461062480E+03  0.00000000000E+00 0.  1.
         14    1    3    3    0    0 -0.18221352762E+02 -0.10861440026E+02 -0.31797349980E+03  0.31868030242E+03  0.00000000000E+00 0. -1.
         13    1    5    5    0    0 -0.95001526395E+02  0.57486766708E+02  0.46332030779E+03  0.47644068463E+03  0.00000000000E+00 0. -1.
        -14    1    5    5    0    0 -0.26888053285E+02  0.17223622011E+02  0.24989026909E+02  0.40547158106E+02  0.00000000000E+00 0.  1.
          5    1    4    4  501    0  0.13368236627E+03  0.25328016054E+02 -0.10483313009E+03  0.17181368111E+03  0.41800000000E+01 0.  1.
         -5    1    4    4    0  501 -0.92586095965E+01 -0.36434078501E+02 -0.53419806057E+02  0.65454656114E+02  0.41800000000E+01 0.  1.
</event>
<event>
11    1  0.8551154E-009  0.1342860E+03  0.7561462E-02  0.1114112E+00
         22   -1    0    0    0    0  0.00000000000E+00  0.00000000000E+00  0.23357829328E+04  0.23357829328E+04  0.00000000000E+00 0. -1.
         22   -1    0    0    0    0 -0.00000000000E+00 -0.00000000000E+00 -0.35566877456E+02  0.35566877456E+02  0.00000000000E+00 0. -1.
        -24    2    1    2    0    0 -0.24117470016E+02 -0.16156197550E+02  0.48776522490E+02  0.97924577514E+02  0.79795981452E+02 0.  0.
         25    2    1    2    0    0  0.16498469236E+02 -0.34266138316E+02  0.42835342400E+03  0.44786117056E+03  0.12508638823E+03 0.  0.
         24    2    1    2    0    0  0.76190007798E+01  0.50422335866E+02  0.18230861089E+04  0.18255640622E+04  0.80254119576E+02 0.  0.
        -11    1    5    5    0    0  0.12055746044E+02  0.60857011109E+02  0.79553917366E+03  0.79795456866E+03  0.00000000000E+00 0.  1.
         12    1    5    5    0    0 -0.44367452645E+01 -0.10434675243E+02  0.10275469352E+04  0.10276094936E+04  0.00000000000E+00 0. -1.
         11    1    3    3    0    0 -0.49378106481E+02 -0.18966252718E+02  0.49575124161E+02  0.72495579710E+02  0.00000000000E+00 0. -1.
        -12    1    3    3    0    0  0.25260636466E+02  0.28100551680E+01 -0.79860167126E+00  0.25428997804E+02  0.00000000000E+00 0.  1.
          5    1    4    4  501    0 -0.27061664023E+02 -0.30201226410E+02  0.40288765247E+02  0.57315833253E+02  0.41800000000E+01 0.  1.
         -5    1    4    4    0  501  0.43560133259E+02 -0.40649119053E+01  0.38806465875E+03  0.39054533730E+03  0.41800000000E+01 0.  1.
</event>
<event>
11    1  0.8551154E-009  0.3829740E+03  0.7561462E-02  0.9701374E-01
         22   -1    0    0    0    0  0.00000000000E+00  0.00000000000E+00  0.13327441314E+04  0.13327441314E+04  0.00000000000E+00 0. -1.
         22   -1    0    0    0    0 -0.00000000000E+00 -0.00000000000E+00 -0.38764212249E+03  0.38764212249E+03  0.00000000000E+00 0. -1.
         24    2    1    2    0    0  0.12498926023E+02 -0.36683043983E+03 -0.19195011193E+03  0.42088900095E+03  0.74712187212E+02 0.  0.
         25    2    1    2    0    0 -0.11389454445E+02  0.34306170771E+03  0.34332987096E+03  0.50134169872E+03  0.12508814336E+03 0.  0.
        -24    2    1    2    0    0 -0.11094715778E+01  0.23768732113E+02  0.79372224990E+03  0.79815555423E+03  0.80567333460E+02 0.  0.
        -11    1    3    3    0    0 -0.73747637293E+01 -0.17194541427E+03 -0.12915134597E+03  0.21517361083E+03  0.00000000000E+00 0.  1.
         12    1    3    3    0    0  0.19873689752E+02 -0.19488502555E+03 -0.62798765959E+02  0.20571539013E+03  0.00000000000E+00 0. -1.
         11    1    5    5    0    0 -0.71806232053E+01 -0.12888479101E+02  0.63387143687E+03  0.63404311582E+03  0.00000000000E+00 0. -1.
        -12    1    5    5    0    0  0.60711516275E+01  0.36657211213E+02  0.15985081303E+03  0.16411243841E+03  0.00000000000E+00 0.  1.
          5    1    4    4  501    0  0.50353740692E+02  0.10656972176E+03  0.14245463308E+03  0.18494161155E+03  0.41800000000E+01 0. -1.
         -5    1    4    4    0  501 -0.61743195136E+02  0.23649198595E+03  0.20087523788E+03  0.31640008716E+03  0.41800000000E+01 0. -1.
</event>
<event>
11    1  0.8551154E-009  0.3043813E+03  0.7561462E-02  0.9983538E-01
         22   -1    0    0    0    0  0.00000000000E+00  0.00000000000E+00  0.14632724593E+03  0.14632724593E+03  0.00000000000E+00 0. -1.
         22   -1    0    0    0    0 -0.00000000000E+00 -0.00000000000E+00 -0.20054430680E+04  0.20054430680E+04  0.00000000000E+00 0.  1.
         24    2    1    2    0    0  0.26112083453E+03  0.81110872742E+02 -0.14514970141E+04  0.14791882955E+04  0.79946029027E+02 0.  0.
         25    2    1    2    0    0 -0.27882831783E+03 -0.85733153086E+02 -0.47098260367E+03  0.56795034394E+03  0.12509027086E+03 0.  0.
        -24    2    1    2    0    0  0.17707483300E+02  0.46222803442E+01  0.63363795696E+02  0.10463167454E+03  0.81227435456E+02 0.  0.
        -11    1    3    3    0    0  0.23778699940E+03  0.90455411398E+02 -0.13834352256E+04  0.14066335208E+04  0.00000000000E+00 0.  1.
         12    1    3    3    0    0  0.23333835128E+02 -0.93445386566E+01 -0.68061788533E+02  0.72554774638E+02  0.00000000000E+00 0. -1.
         13    1    5    5    0    0  0.28763772950E+02  0.59062722610E+01  0.79658498689E+02  0.84898263232E+02  0.00000000000E+00 0. -1.
        -14    1    5    5    0    0 -0.11056289650E+02 -0.12839919168E+01 -0.16294702993E+02  0.19733411304E+02  0.00000000000E+00 0.  1.
          5    1    4    4  501    0 -0.78878798019E+02 -0.54166478254E+02 -0.25261129690E+03  0.27015886413E+03  0.41800000000E+01 0.  1.
         -5    1    4    4    0  501 -0.19994951981E+03 -0.31566674832E+02 -0.21837130676E+03  0.29779147981E+03  0.41800000000E+01 0.  1.
</event>
<event>
11    1  0.8551154E-009  0.1914176E+03  0.7561462E-02  0.1060764E+00
         22   -1    0    0    0    0  0.00000000000E+00  0.00000000000E+00  0.18282989439E+04  0.18282989439E+04  0.00000000000E+00 0.  1.
         22   -1    0    0    0    0 -0.00000000000E+00 -0.00000000000E+00 -0.38899492913E+03  0.38899492913E+03  0.00000000000E+00 0.  1.
         24    2    1    2    0    0 -0.77208851678E+02  0.11984509805E+03 -0.30772021582E+03  0.34991012205E+03  0.86147013780E+02 0.  0.
         25    2    1    2    0    0  0.93122478166E+02 -0.13614609036E+03  0.12214244667E+03  0.24036187993E+03  0.12508997636E+03 0.  0.
        -24    2    1    2    0    0 -0.15913626487E+02  0.16300992308E+02  0.16248817839E+04  0.16270218710E+04  0.80252048616E+02 0.  0.
        -13    1    3    3    0    0 -0.90781571042E+02  0.12189355532E+03 -0.27101833874E+03  0.31072539710E+03  0.00000000000E+00 0.  1.
         14    1    3    3    0    0  0.13572719363E+02 -0.20484572694E+01 -0.36701877079E+02  0.39184724947E+02  0.00000000000E+00 0. -1.
         13    1    5    5    0    0  0.51461089371E+01  0.13401125512E+01  0.63440782713E+01  0.82780231913E+01  0.00000000000E+00 0. -1.
        -14    1    5    5    0    0 -0.21059735425E+02  0.14960879757E+02  0.16185377056E+04  0.16187438478E+04  0.00000000000E+00 0.  1.
          5    1    4    4  501    0 -0.41985689320E+01 -0.95473200151E+02  0.30022629595E+02  0.10025762124E+03  0.41800000000E+01 0. -1.
         -5    1    4    4    0  501  0.97321047098E+02 -0.40672890207E+02  0.92119817078E+02  0.14010425870E+03  0.41800000000E+01 0. -1.
</event>
<event>
11    1  0.8551154E-009  0.1688281E+03  0.7561462E-02  0.1079056E+00
         22   -1    0    0    0    0  0.00000000000E+00  0.00000000000E+00  0.41784736551E+03  0.41784736551E+03  0.00000000000E+00 0.  1.
         22   -1    0    0    0    0 -0.00000000000E+00 -0.00000000000E+00 -0.84223214985E+03  0.84223214985E+03  0.00000000000E+00 0.  1.
        -24    2    1    2    0    0 -0.41099176724E+02  0.99351510952E+02 -0.72671666124E+03  0.73899045887E+03  0.80186828838E+02 0.  0.
         25    2    1    2    0    0  0.14756663634E+03 -0.69814288961E+02  0.19035120573E+02  0.20654247202E+03  0.12509000692E+03 0.  0.
         24    2    1    2    0    0 -0.10646745962E+03 -0.29537221991E+02  0.28329675633E+03  0.31454658447E+03  0.80465733175E+02 0.  0.
        -13    1    5    5    0    0 -0.11667022166E+03 -0.28121199193E+02  0.27835046133E+03  0.30311997920E+03  0.00000000000E+00 0.  1.
         14    1    5    5    0    0  0.10202762042E+02 -0.14160227980E+01  0.49462949998E+01  0.11426605274E+02  0.00000000000E+00 0. -1.
         11    1    3    3    0    0 -0.41502705833E+02  0.26560413036E+02 -0.15462077987E+03  0.16228221006E+03  0.00000000000E+00 0. -1.
        -12    1    3    3    0    0  0.40352910880E+00  0.72791097915E+02 -0.57209588137E+03  0.57670824882E+03  0.00000000000E+00 0.  1.
          5    1    4    4  501    0  0.14075351395E+03 -0.10081956184E+03  0.11027692959E+02  0.17353736817E+03  0.41800000000E+01 0. -1.
         -5    1    4    4    0  501  0.68131223928E+01  0.31005272884E+02  0.80074276138E+01  0.33005103853E+02  0.41800000000E+01 0. -1.
</event>
<event>
11    1  0.8551154E-009  0.1657755E+03  0.7561462E-02  0.1081768E+00
         22   -1    0    0    0    0  0.00000000000E+00  0.00000000000E+00  0.12705603182E+03  0.12705603182E+03  0.00000000000E+00 0.  1.
         22   -1    0    0    0    0 -0.00000000000E+00 -0.00000000000E+00 -0.20900355376E+04  0.20900355376E+04  0.00000000000E+00 0.  1.
         24    2    1    2    0    0  0.10109213305E+03  0.44761984578E+02 -0.18826223893E+04  0.18875629186E+04  0.80021598875E+02 0.  0.
         25    2    1    2    0    0 -0.71440977416E+02 -0.51139781682E+02 -0.15364214404E+03  0.21673101634E+03  0.12508930607E+03 0.  0.
        -24    2    1    2    0    0 -0.29651155629E+02  0.63777971042E+01  0.73285027591E+02  0.11279763447E+03  0.80204387332E+02 0.  0.
        -13    1    3    3    0    0  0.10440314374E+03  0.17307936137E+02 -0.16299205580E+04  0.16333525664E+04  0.00000000000E+00 0.  1.
         14    1    3    3    0    0 -0.33110106933E+01  0.27454048440E+02 -0.25270183139E+03  0.25421035218E+03  0.00000000000E+00 0. -1.
         13    1    5    5    0    0 -0.87448403339E+01 -0.82782547626E+01 -0.15948170533E+02  0.19983640252E+02  0.00000000000E+00 0. -1.
        -14    1    5    5    0    0 -0.20906315295E+02  0.14656051867E+02  0.89233198124E+02  0.92813994220E+02  0.00000000000E+00 0.  1.
          5    1    4    4  501    0 -0.65014101945E+02 -0.10438479086E+02 -0.93817972023E+01  0.66642972744E+02  0.41800000000E+01 0.  1.
         -5    1    4    4    0  501 -0.64268754706E+01 -0.40701302596E+02 -0.14426034683E+03  0.15008804359E+03  0.41800000000E+01 0.  1.
</event>
<event>
11    1  0.8551154E-009  0.2224981E+03  0.7561462E-02  0.1039664E+00
         22   -1    0    0    0    0  0.00000000000E+00  0.00000000000E+00  0.20490305375E+04  0.20490305375E+04  0.00000000000E+00 0. -1.
         22   -1    0    0    0    0 -0.00000000000E+00 -0.00000000000E+00 -0.43380160942E+03  0.43380160942E+03  0.00000000000E+00 0.  1.
        -24    2    1    2    0    0 -0.10316608371E+03 -0.31950576720E+02 -0.37651947807E+03  0.39978254672E+03  0.79969288581E+02 0.  0.
         25    2    1    2    0    0  0.28196032590E+01 -0.13424480904E+03  0.17184806030E+03  0.25141528055E+03  0.12509303959E+03 0.  0.
         24    2    1    2    0    0  0.10034648045E+03  0.16619538576E+03  0.18199003459E+04  0.18316343196E+04  0.71810094235E+02 0.  0.
        -13    1    5    5    0    0  0.56346015543E+02  0.30261808876E+02  0.59651975774E+03  0.59993872347E+03  0.00000000000E+00 0.  1.
         14    1    5    5    0    0  0.44000464910E+02  0.13593357688E+03  0.12233805881E+04  0.12316955962E+04  0.00000000000E+00 0. -1.
         13    1    3    3    0    0  0.93633324973E+01  0.56504834338E+01 -0.74433838217E+02  0.75232946441E+02  0.00000000000E+00 0. -1.
        -14    1    3    3    0    0 -0.11252941621E+03 -0.37601060154E+02 -0.30208563985E+03  0.32454960028E+03  0.00000000000E+00 0.  1.
          5    1    4    4  501    0 -0.25142063823E+02 -0.10656789599E+02  0.10403004387E+03  0.10763555623E+03  0.41800000000E+01 0.  1.
         -5    1    4    4    0  501  0.27961667082E+02 -0.12358801944E+03  0.67818016428E+02  0.14377972433E+03  0.41800000000E+01 0.  1.
</event>
<event>
11    1  0.8551154E-009  0.1472309E+03  0.7561462E-02  0.1099742E+00
         22   -1    0    0    0    0  0.00000000000E+00  0.00000000000E+00  0.39495542590E+03  0.39495542590E+03  0.00000000000E+00 0. -1.
         22   -1    0    0    0    0 -0.00000000000E+00 -0.00000000000E+00 -0.16944832005E+03  0.16944832005E+03  0.00000000000E+00 0. -1.
        -24    2    1    2    0    0  0.20193521842E+00 -0.77947203746E+01 -0.60654677563E+02  0.10064535998E+03  0.79935599904E+02 0.  0.
         25    2    1    2    0    0  0.43860733982E+02  0.70851989979E+02 -0.66866663499E+01  0.15045156609E+03  0.12508874355E+03 0.  0.
         24    2    1    2    0    0 -0.44062669201E+02 -0.63057269605E+02  0.29284844977E+03  0.31330681988E+03  0.80518387862E+02 0.  0.
        -11    1    5    5    0    0 -0.96384403976E+01 -0.12851422401E+02  0.20374635009E+01  0.16192895002E+02  0.00000000000E+00 0.  1.
         12    1    5    5    0    0 -0.34424228803E+02 -0.50205847204E+02  0.29081098627E+03  0.29711392488E+03  0.00000000000E+00 0. -1.
         11    1    3    3    0    0  0.13155360196E+02 -0.39074470148E+02 -0.50716932961E+02  0.65361188852E+02  0.00000000000E+00 0. -1.
        -12    1    3    3    0    0 -0.12953424977E+02  0.31279749773E+02 -0.99377446020E+01  0.35284171129E+02  0.00000000000E+00 0.  1.
          5    1    4    4  501    0  0.41109889988E+02  0.23082381185E+02 -0.61478407429E+02  0.77587926613E+02  0.41800000000E+01 0. -1.
         -5    1    4    4    0  501  0.27508439939E+01  0.47769608794E+02  0.54791741079E+02  0.72863639475E+02  0.41800000000E+01 0. -1.
</event>
<event>
11    1  0.8551154E-009  0.1431171E+03  0.7561462E-02  0.1104127E+00
         22   -1    0    0    0    0  0.00000000000E+00  0.00000000000E+00  0.14395097683E+04  0.14395097683E+04  0.00000000000E+00 0.  1.
         22   -1    0    0    0    0 -0.00000000000E+00 -0.00000000000E+00 -0.49830684698E+03  0.49830684698E+03  0.00000000000E+00 0.  1.
        -24    2    1    2    0    0 -0.29497221910E+02  0.32973395015E+02 -0.18953786489E+03  0.21079301400E+03  0.80942953033E+02 0.  0.
         25    2    1    2    0    0  0.80918171481E+02  0.13838466054E+02 -0.27726954621E+03  0.31506344574E+03  0.12508924801E+03 0.  0.
         24    2    1    2    0    0 -0.51420949571E+02 -0.46811861069E+02  0.14080103324E+04  0.14119601555E+04  0.79390932712E+02 0.  0.
        -11    1    5    5    0    0 -0.35537576941E+02  0.33004942293E+01  0.99195514207E+03  0.99259700610E+03  0.00000000000E+00 0.  1.
         12    1    5    5    0    0 -0.15883372630E+02 -0.50112355298E+02  0.41605519038E+03  0.41936314945E+03  0.00000000000E+00 0. -1.
         13    1    3    3    0    0 -0.20022805579E+02  0.18019016831E+02 -0.75898161361E+01  0.27985764591E+02  0.00000000000E+00 0. -1.
        -14    1    3    3    0    0 -0.94744163313E+01  0.14954378184E+02 -0.18194804875E+03  0.18280724941E+03  0.00000000000E+00 0.  1.
          5    1    4    4  501    0 -0.29272148795E+02 -0.18222838263E+02 -0.60928038296E+02  0.70132936485E+02  0.41800000000E+01 0. -1.
         -5    1    4    4    0  501  0.11019032028E+03  0.32061304316E+02 -0.21634150792E+03  0.24493050926E+03  0.41800000000E+01 0. -1.
</event>
<event>
11    1  0.8551154E-009  0.1436976E+03  0.7561462E-02  0.1103498E+00
         22   -1    0    0    0    0  0.00000000000E+00  0.00000000000E+00  0.25539608749E+03  0.25539608749E+03  0.00000000000E+00 0. -1.
         22   -1    0    0    0    0 -0.00000000000E+00 -0.00000000000E+00 -0.15058109032E+04  0.15058109032E+04  0.00000000000E+00 0.  1.
         24    2    1    2    0    0  0.34371276959E+02 -0.43761371013E+02 -0.12927478075E+04  0.12955158230E+04  0.63780182641E+02 0.  0.
         25    2    1    2    0    0  0.30756074832E+02  0.73194489088E+02 -0.17087725667E+03  0.22616307213E+03  0.12508928402E+03 0.  0.
        -24    2    1    2    0    0 -0.65127351790E+02 -0.29433118075E+02  0.21321024846E+03  0.23952809552E+03  0.82505867101E+02 0.  0.
        -13    1    3    3    0    0  0.46911661599E+01 -0.48458308873E+02 -0.10106801246E+04  0.10118520292E+04  0.00000000000E+00 0.  1.
         14    1    3    3    0    0  0.29680110799E+02  0.46969378597E+01 -0.28206768291E+03  0.28366379385E+03  0.00000000000E+00 0. -1.
         13    1    5    5    0    0 -0.79009291733E+02 -0.30405195841E+02  0.20817289104E+03  0.22472849548E+03  0.00000000000E+00 0. -1.
        -14    1    5    5    0    0  0.13881939943E+02  0.97207776590E+00  0.50373574149E+01  0.14799600045E+02  0.00000000000E+00 0.  1.
          5    1    4    4  501    0  0.50539510811E+02  0.76840875935E+00 -0.14666646561E+02  0.52795980210E+02  0.41800000000E+01 0. -1.
         -5    1    4    4    0  501 -0.19783435979E+02  0.72426080329E+02 -0.15621061011E+03  0.17336709192E+03  0.41800000000E+01 0. -1.
</event>
<event>
11    1  0.8551154E-009  0.2767569E+03  0.7561462E-02  0.1010538E+00
         22   -1    0    0    0    0  0.00000000000E+00  0.00000000000E+00  0.22714363914E+04  0.22714363914E+04  0.00000000000E+00 0.  1.
         22   -1    0    0    0    0 -0.00000000000E+00 -0.00000000000E+00 -0.37429328600E+03  0.37429328600E+03  0.00000000000E+00 0.  1.
        -24    2    1    2    0    0  0.19346492077E+03  0.15613700723E+03 -0.29299585136E+03  0.39273525471E+03  0.81160155157E+02 0.  0.
         25    2    1    2    0    0 -0.14764154729E+03 -0.17788005433E+03  0.54233455297E+03  0.60267169739E+03  0.12508823797E+03 0.  0.
         24    2    1    2    0    0 -0.45823373478E+02  0.21743047100E+02  0.16478044038E+04  0.16503227253E+04  0.75717916299E+02 0.  0.
        -11    1    5    5    0    0 -0.23452730671E+02 -0.11876315463E+02  0.12865118654E+04  0.12867804231E+04  0.00000000000E+00 0.  1.
         12    1    5    5    0    0 -0.22370642807E+02  0.33619362563E+02  0.36129253836E+03  0.36354230218E+03  0.00000000000E+00 0. -1.
         13    1    3    3    0    0  0.84559262075E+02  0.80201035876E+02 -0.78640175142E+02  0.14059428191E+03  0.00000000000E+00 0. -1.
        -14    1    3    3    0    0  0.10890565869E+03  0.75935971354E+02 -0.21435567622E+03  0.25214097280E+03  0.00000000000E+00 0.  1.
          5    1    4    4  501    0 -0.89273250372E+02 -0.16177027770E+02  0.19327570965E+03  0.21355182462E+03  0.41800000000E+01 0.  1.
         -5    1    4    4    0  501 -0.58368296916E+02 -0.16170302656E+03  0.34905884332E+03  0.38911987276E+03  0.41800000000E+01 0.  1.
</event>
<event>
11    1  0.8551154E-009  0.1305540E+03  0.7561462E-02  0.1118590E+00
         22   -1    0    0    0    0  0.00000000000E+00  0.00000000000E+00  0.13635521293E+03  0.13635521293E+03  0.00000000000E+00 0. -1.
         22   -1    0    0    0    0 -0.00000000000E+00 -0.00000000000E+00 -0.19865830434E+04  0.19865830434E+04  0.00000000000E+00 0. -1.
         24    2    1    2    0    0  0.19141725201E+02  0.13924544984E+02 -0.17510772493E+04  0.17526996923E+04  0.71584773782E+02 0.  0.
         25    2    1    2    0    0 -0.67333244509E+01 -0.48712407304E+02 -0.20011022630E+03  0.24106182799E+03  0.12509382861E+03 0.  0.
        -24    2    1    2    0    0 -0.12408400750E+02  0.34787862320E+02  0.10095964517E+03  0.12917673599E+03  0.71621333374E+02 0.  0.
        -13    1    3    3    0    0 -0.20158070778E+02  0.82896352743E+01 -0.21344261313E+03  0.21455259255E+03  0.00000000000E+00 0.  1.
         14    1    3    3    0    0  0.39299795979E+02  0.56349097093E+01 -0.15376346362E+04  0.15381470998E+04  0.00000000000E+00 0. -1.
         13    1    5    5    0    0 -0.38867727465E+02  0.30141253834E+02  0.84200151811E+02  0.97513388752E+02  0.00000000000E+00 0. -1.
        -14    1    5    5    0    0  0.26459326715E+02  0.46466084867E+01  0.16759493358E+02  0.31663347237E+02  0.00000000000E+00 0.  1.
          5    1    4    4  501    0 -0.52484759918E+02  0.15909205680E+02 -0.76939699704E+02  0.94577706885E+02  0.41800000000E+01 0.  1.
         -5    1    4    4    0  501  0.45751435467E+02 -0.64621612984E+02 -0.12317052660E+03  0.14648412110E+03  0.41800000000E+01 0.  1.
</event>
<event>
11    1  0.8551154E-009  0.1391940E+03  0.7561462E-02  0.1108462E+00
         22   -1    0    0    0    0  0.00000000000E+00  0.00000000000E+00  0.44599589748E+03  0.44599589748E+03  0.00000000000E+00 0. -1.
         22   -1    0    0    0    0 -0.00000000000E+00 -0.00000000000E+00 -0.27652052723E+03  0.27652052723E+03  0.00000000000E+00 0. -1.
        -24    2    1    2    0    0 -0.59427126328E+02  0.15152629026E+02 -0.23764751326E+03  0.25815722620E+03  0.80047656893E+02 0.  0.
         25    2    1    2    0    0  0.55677149716E+02  0.60827920549E+01  0.21235737700E+03  0.25276778583E+03  0.12513573681E+03 0.  0.
         24    2    1    2    0    0  0.37499766126E+01 -0.21235421081E+02  0.19476550651E+03  0.21159141267E+03  0.79826799752E+02 0.  0.
        -13    1    5    5    0    0 -0.53735401118E+01  0.28512876180E+02  0.45254839191E+02  0.53757413550E+02  0.00000000000E+00 0.  1.
         14    1    5    5    0    0  0.91235167244E+01 -0.49748297261E+02  0.14951066732E+03  0.15783399912E+03  0.00000000000E+00 0. -1.
         13    1    3    3    0    0 -0.35335549059E+02  0.25251734934E+02 -0.22496430985E+03  0.22911829227E+03  0.00000000000E+00 0. -1.
        -14    1    3    3    0    0 -0.24091577269E+02 -0.10099105907E+02 -0.12683203402E+02  0.29038933933E+02  0.00000000000E+00 0.  1.
          5    1    4    4  501    0 -0.22832288357E+01  0.43768524089E+02  0.20067595241E+02  0.48384683667E+02  0.41800000000E+01 0.  1.
         -5    1    4    4    0  501  0.57960378551E+02 -0.37685732034E+02  0.19228978176E+03  0.20438310217E+03  0.41800000000E+01 0.  1.
</event>
<event>
11    1  0.8551154E-009  0.1276402E+03  0.7561462E-02  0.1122203E+00
         22   -1    0    0    0    0  0.00000000000E+00  0.00000000000E+00  0.97006916774E+03  0.97006916774E+03  0.00000000000E+00 0.  1.
         22   -1    0    0    0    0 -0.00000000000E+00 -0.00000000000E+00 -0.94574886341E+02  0.94574886341E+02  0.00000000000E+00 0. -1.
         24    2    1    2    0    0  0.22010617358E+02  0.24580823599E+02 -0.47687577019E+02  0.10095451745E+03  0.82637917612E+02 0.  0.
         25    2    1    2    0    0 -0.20342467791E+02  0.51742502203E+01  0.22649529491E+03  0.25959415836E+03  0.12509364322E+03 0.  0.
        -24    2    1    2    0    0 -0.16681495678E+01 -0.29755073820E+02  0.69668656350E+03  0.70409537827E+03  0.97416563224E+02 0.  0.
        -11    1    3    3    0    0  0.35378983309E+02  0.90004337550E+01  0.11526681746E+02  0.38282432784E+02  0.00000000000E+00 0.  1.
         12    1    3    3    0    0 -0.13368365951E+02  0.15580389844E+02 -0.59214258765E+02  0.62672084671E+02  0.00000000000E+00 0. -1.
         11    1    5    5    0    0 -0.30801570094E+02  0.17498124390E+02  0.13146082874E+03  0.13615017654E+03  0.00000000000E+00 0. -1.
        -12    1    5    5    0    0  0.29133420526E+02 -0.47253198209E+02  0.56522573476E+03  0.56794520173E+03  0.00000000000E+00 0.  1.
          5    1    4    4  501    0  0.11396257758E+02 -0.29420014899E+02  0.20557907867E+03  0.20802798359E+03  0.41800000000E+01 0.  1.
         -5    1    4    4    0  501 -0.31738725548E+02  0.34594265119E+02  0.20916216242E+02  0.51566174771E+02  0.41800000000E+01 0.  1.
</event>
<event>
11    1  0.8551154E-009  0.1339173E+03  0.7561462E-02  0.1114547E+00
         22   -1    0    0    0    0  0.00000000000E+00  0.00000000000E+00  0.75770296670E+02  0.75770296670E+02  0.00000000000E+00 0.  1.
         22   -1    0    0    0    0 -0.00000000000E+00 -0.00000000000E+00 -0.13222508439E+04  0.13222508439E+04  0.00000000000E+00 0.  1.
        -24    2    1    2    0    0  0.13171733704E+01  0.10612970252E+02 -0.92325704271E+03  0.92667002148E+03  0.78736216043E+02 0.  0.
         25    2    1    2    0    0 -0.23520372748E+02 -0.51950467138E+02 -0.34853437482E+03  0.37466697136E+03  0.12508824896E+03 0.  0.
         24    2    1    2    0    0  0.22203199377E+02  0.41337496886E+02  0.25310870272E+02  0.96684147755E+02  0.80656143980E+02 0.  0.
        -11    1    5    5    0    0  0.87439823850E+01  0.47382810239E+02  0.49035077125E+02  0.68746103328E+02  0.00000000000E+00 0.  1.
         12    1    5    5    0    0  0.13459216992E+02 -0.60453133526E+01 -0.23724206853E+02  0.27938044427E+02  0.00000000000E+00 0. -1.
         13    1    3    3    0    0  0.23616953863E+02 -0.19220453187E+02 -0.18627355957E+03  0.18874592797E+03  0.00000000000E+00 0. -1.
        -14    1    3    3    0    0 -0.22299780492E+02  0.29833423439E+02 -0.73698348314E+03  0.73792409351E+03  0.00000000000E+00 0.  1.
          5    1    4    4  501    0 -0.56497588761E+02 -0.54079259695E+02 -0.32390949745E+03  0.33324372283E+03  0.41800000000E+01 0. -1.
         -5    1    4    4    0  501  0.32977216013E+02  0.21287925568E+01 -0.24624877369E+02  0.41423248534E+02  0.41800000000E+01 0. -1.
</event>
<event>
11    1  0.8551154E-009  0.1593587E+03  0.7561462E-02  0.1087682E+00
         22   -1    0    0    0    0  0.00000000000E+00  0.00000000000E+00  0.64282148420E+03  0.64282148420E+03  0.00000000000E+00 0. -1.
         22   -1    0    0    0    0 -0.00000000000E+00 -0.00000000000E+00 -0.53494672171E+03  0.53494672171E+03  0.00000000000E+00 0.  1.
        -24    2    1    2    0    0 -0.24980699735E+02  0.95560792960E+02 -0.47417455919E+03  0.49088698049E+03  0.79828657311E+02 0.  0.
         25    2    1    2    0    0  0.10022018330E+03 -0.73443637249E+02  0.12423399523E+03  0.21568461042E+03  0.12509081745E+03 0.  0.
         24    2    1    2    0    0 -0.75239483567E+02 -0.22117155712E+02  0.45781532645E+03  0.47119661499E+03  0.79254201071E+02 0.  0.
        -13    1    5    5    0    0 -0.38381904762E+02 -0.36927536072E+02  0.12304456110E+03  0.13407750575E+03  0.00000000000E+00 0.  1.
         14    1    5    5    0    0 -0.36857578805E+02  0.14810380360E+02  0.33477076535E+03  0.33711910924E+03  0.00000000000E+00 0. -1.
         13    1    3    3    0    0  0.12939228785E+00  0.60774016239E+02 -0.12398216242E+03  0.13807633537E+03  0.00000000000E+00 0. -1.
        -14    1    3    3    0    0 -0.25110092023E+02  0.34786776721E+02 -0.35019239677E+03  0.35281064512E+03  0.00000000000E+00 0.  1.
          5    1    4    4  501    0  0.89388865091E+02  0.88756974497E+01  0.43864122913E+02  0.10005339018E+03  0.41800000000E+01 0. -1.
         -5    1    4    4    0  501  0.10831318211E+02 -0.82319334698E+02  0.80369872315E+02  0.11563122024E+03  0.41800000000E+01 0. -1.
</event>
<event>
11    1  0.8551154E-009  0.1340631E+03  0.7561462E-02  0.1114375E+00
         22   -1    0    0    0    0  0.00000000000E+00  0.00000000000E+00  0.74915451545E+02  0.74915451545E+02  0.00000000000E+00 0. -1.
         22   -1    0    0    0    0 -0.00000000000E+00 -0.00000000000E+00 -0.57238851345E+03  0.57238851345E+03  0.00000000000E+00 0. -1.
         24    2    1    2    0    0 -0.80585557807E+01  0.13062224824E+02 -0.37398786385E+03  0.38285583740E+03  0.80474268491E+02 0.  0.
         25    2    1    2    0    0 -0.15403450099E+02  0.34305232576E+02 -0.10339985892E+03  0.16659473527E+03  0.12509260465E+03 0.  0.
        -24    2    1    2    0    0  0.23462005880E+02 -0.47367457400E+02 -0.20085339141E+02  0.97853392329E+02  0.79860652398E+02 0.  0.
        -11    1    3    3    0    0  0.35424892964E+01  0.34075294444E+02 -0.70121414531E+02  0.78042858082E+02  0.00000000000E+00 0.  1.
         12    1    3    3    0    0 -0.11601045077E+02 -0.21013069620E+02 -0.30386644931E+03  0.30481297932E+03  0.00000000000E+00 0. -1.
         13    1    5    5    0    0  0.35650784756E+02 -0.19438290537E+02  0.21775225366E+02  0.46075872564E+02  0.00000000000E+00 0. -1.
        -14    1    5    5    0    0 -0.12188778877E+02 -0.27929166864E+02 -0.41860564507E+02  0.51777519765E+02  0.00000000000E+00 0.  1.
          5    1    4    4  501    0  0.41373347781E+01 -0.25364543168E+02  0.16752676280E+02  0.30961300873E+02  0.41800000000E+01 0. -1.
         -5    1    4    4    0  501 -0.19540784877E+02  0.59669775745E+02 -0.12015253520E+03  0.13563343440E+03  0.41800000000E+01 0. -1.
</event>
<event>
11    1  0.8551154E-009  0.1976128E+03  0.7561462E-02  0.1056225E+00
         22   -1    0    0    0    0  0.00000000000E+00  0.00000000000E+00  0.73133703809E+03  0.73133703809E+03  0.00000000000E+00 0. -1.
         22   -1    0    0    0    0 -0.00000000000E+00 -0.00000000000E+00 -0.26988306027E+03  0.26988306027E+03  0.00000000000E+00 0. -1.
        -24    2    1    2    0    0  0.70709014274E+02  0.32852399751E+02 -0.16943644793E+03  0.20153367780E+03  0.76341787573E+02 0.  0.
         25    2    1    2    0    0 -0.12335950877E+03 -0.16677547074E+03  0.13494847794E+03  0.27729224975E+03  0.12509306148E+03 0.  0.
         24    2    1    2    0    0  0.52650494497E+02  0.13392307099E+03  0.49594194780E+03  0.52239417081E+03  0.78929022500E+02 0.  0.
        -13    1    5    5    0    0 -0.14367204259E+02  0.40999838417E+02  0.80870627412E+02  0.91801207435E+02  0.00000000000E+00 0.  1.
         14    1    5    5    0    0  0.67017698756E+02  0.92923232570E+02  0.41507132039E+03  0.43059296337E+03  0.00000000000E+00 0. -1.
         13    1    3    3    0    0  0.30120884169E+02 -0.43413249379E+01 -0.13075701796E+03  0.13425167601E+03  0.00000000000E+00 0. -1.
        -14    1    3    3    0    0  0.40588130105E+02  0.37193724689E+02 -0.38679429969E+02  0.67282001786E+02  0.00000000000E+00 0.  1.
          5    1    4    4  501    0 -0.59530618289E+02 -0.99839858957E+01  0.77826430184E+02  0.98579917445E+02  0.41800000000E+01 0. -1.
         -5    1    4    4    0  501 -0.63828890481E+02 -0.15679148484E+03  0.57122047761E+02  0.17871233231E+03  0.41800000000E+01 0. -1.
</event>
<event>
11    1  0.8551154E-009  0.2302395E+03  0.7561462E-02  0.1034986E+00
         22   -1    0    0    0    0  0.00000000000E+00  0.00000000000E+00  0.15115005787E+03  0.15115005787E+03  0.00000000000E+00 0.  1.
         22   -1    0    0    0    0 -0.00000000000E+00 -0.00000000000E+00 -0.17030207235E+04  0.17030207235E+04  0.00000000000E+00 0.  1.
        -24    2    1    2    0    0  0.64595709551E+01 -0.11810794935E+03 -0.94288123610E+03  0.95232454704E+03  0.62496429790E+02 0.  0.
         25    2    1    2    0    0 -0.82078690958E+02  0.28175021090E+03 -0.62820000978E+03  0.70455863736E+03  0.12509008092E+03 0.  0.
         24    2    1    2    0    0  0.75619120003E+02 -0.16364226155E+03  0.19210580229E+02  0.19728759700E+03  0.77822287709E+02 0.  0.
        -13    1    5    5    0    0 -0.79362488209E+01 -0.70582156676E+02  0.21200572825E+01  0.71058564081E+02  0.00000000000E+00 0.  1.
         14    1    5    5    0    0  0.83555368823E+02 -0.93060104873E+02  0.17090522947E+02  0.12622903292E+03  0.00000000000E+00 0. -1.
         11    1    3    3    0    0 -0.33335092050E+01  0.45133272943E+01 -0.13644457707E+03  0.13655989535E+03  0.00000000000E+00 0. -1.
        -12    1    3    3    0    0  0.97930801601E+01 -0.12262127664E+03 -0.80643665903E+03  0.81576465168E+03  0.00000000000E+00 0.  1.
          5    1    4    4  501    0 -0.13279026535E+02  0.25666947690E+01 -0.54817643791E+00  0.14166628574E+02  0.41800000000E+01 0. -1.
         -5    1    4    4    0  501 -0.68799664423E+02  0.27918351613E+03 -0.62765183334E+03  0.69039200879E+03  0.41800000000E+01 0. -1.
</event>
<event>
11    1  0.8551154E-009  0.1739643E+03  0.7561462E-02  0.1074632E+00
         22   -1    0    0    0    0  0.00000000000E+00  0.00000000000E+00  0.79421100826E+03  0.79421100826E+03  0.00000000000E+00 0. -1.
         22   -1    0    0    0    0 -0.00000000000E+00 -0.00000000000E+00 -0.35070487682E+03  0.35070487682E+03  0.00000000000E+00 0.  1.
        -24    2    1    2    0    0  0.25456110143E+02 -0.23393834394E+01 -0.28532870067E+03  0.29742864107E+03  0.79986516666E+02 0.  0.
         25    2    1    2    0    0  0.96077181307E+02 -0.23885104271E+02  0.72846212549E+02  0.17538104173E+03  0.12510242261E+03 0.  0.
         24    2    1    2    0    0 -0.12153329145E+03  0.26224487711E+02  0.65598861955E+03  0.67210620228E+03  0.77120771961E+02 0.  0.
        -13    1    5    5    0    0  0.10233653244E+02 -0.29865587877E+00  0.79466978371E+02  0.80123763675E+02  0.00000000000E+00 0.  1.
         14    1    5    5    0    0 -0.13176694470E+03  0.26523143590E+02  0.57652164118E+03  0.59198243860E+03  0.00000000000E+00 0. -1.
         13    1    3    3    0    0 -0.16238134927E+02  0.13762831037E+02 -0.23074756285E+02  0.31393262361E+02  0.00000000000E+00 0. -1.
        -14    1    3    3    0    0  0.41694245071E+02 -0.16102214476E+02 -0.26225394438E+03  0.26603537871E+03  0.00000000000E+00 0.  1.
          5    1    4    4  501    0  0.91477176400E+02 -0.68215130707E+02  0.58971167049E+02  0.12851633671E+03  0.41800000000E+01 0.  1.
         -5    1    4    4    0  501  0.46000049077E+01  0.44330026435E+02  0.13875045501E+02  0.46864705020E+02  0.41800000000E+01 0.  1.
</event>
<event>
11    1  0.8551154E-009  0.1319630E+03  0.7561462E-02  0.1116880E+00
         22   -1    0    0    0    0  0.00000000000E+00  0.00000000000E+00  0.23509802866E+03  0.23509802866E+03  0.00000000000E+00 0.  1.
         22   -1    0    0    0    0 -0.00000000000E+00 -0.00000000000E+00 -0.23988862743E+03  0.23988862743E+03  0.00000000000E+00 0. -1.
         24    2    1    2    0    0 -0.39122322325E+02 -0.11122678720E+02 -0.16657864787E+03  0.19027250480E+03  0.82467630447E+02 0.  0.
         25    2    1    2    0    0  0.48275419769E+02  0.28382548500E+02  0.53600559355E+02  0.14713487537E+03  0.12505825192E+03 0.  0.
        -24    2    1    2    0    0 -0.91530974445E+01 -0.17259869780E+02  0.10818748976E+03  0.13757927592E+03  0.82715427368E+02 0.  0.
        -11    1    3    3    0    0  0.14319265847E+02  0.23551772125E+02 -0.40146075575E+02  0.48697379075E+02  0.00000000000E+00 0.  1.
         12    1    3    3    0    0 -0.53441588172E+02 -0.34674450845E+02 -0.12643257230E+03  0.14157512573E+03  0.00000000000E+00 0. -1.
         13    1    5    5    0    0 -0.20410510875E+02  0.61853520469E+01 -0.46121717985E+01  0.21820166425E+02  0.00000000000E+00 0. -1.
        -14    1    5    5    0    0  0.11257413431E+02 -0.23445221827E+02  0.11279966155E+03  0.11575910949E+03  0.00000000000E+00 0.  1.
          5    1    4    4  501    0 -0.10035780995E+01  0.51124363107E+02 -0.20449487588E+02  0.55230078895E+02  0.41800000000E+01 0. -1.
         -5    1    4    4    0  501  0.49278997869E+02 -0.22741814608E+02  0.74050046942E+02  0.91904796473E+02  0.41800000000E+01 0. -1.
</event>
<event>
11    1  0.8551154E-009  0.1568014E+03  0.7561462E-02  0.1090125E+00
         22   -1    0    0    0    0  0.00000000000E+00  0.00000000000E+00  0.27354649100E+04  0.27354649100E+04  0.00000000000E+00 0.  1.
         22   -1    0    0    0    0 -0.00000000000E+00 -0.00000000000E+00 -0.77083472766E+02  0.77083472766E+02  0.00000000000E+00 0. -1.
        -24    2    1    2    0    0 -0.92533290056E+02 -0.92812568655E+01 -0.10617421723E+02  0.12479697357E+03  0.82540919975E+02 0.  0.
         25    2    1    2    0    0  0.14378757392E+03 -0.59699894570E+02  0.15996833504E+04  0.16121022063E+04  0.12509099997E+03 0.  0.
         24    2    1    2    0    0 -0.51254283867E+02  0.68981151436E+02  0.10693155086E+04  0.10756492029E+04  0.78741030744E+02 0.  0.
        -11    1    5    5    0    0 -0.13450285559E+02 -0.88048873541E+01  0.45409440865E+03  0.45437888176E+03  0.00000000000E+00 0.  1.
         12    1    5    5    0    0 -0.37803998308E+02  0.77786038790E+02  0.61522109997E+03  0.62127032117E+03  0.00000000000E+00 0. -1.
         11    1    3    3    0    0 -0.97981760332E+02  0.49663320647E+01 -0.27652913344E+02  0.10193023805E+03  0.00000000000E+00 0. -1.
        -12    1    3    3    0    0  0.54484702756E+01 -0.14247588930E+02  0.17035491621E+02  0.22866735522E+02  0.00000000000E+00 0.  1.
          5    1    4    4  501    0 -0.31922554363E+01 -0.21704062971E+02  0.47289843802E+02  0.52297787439E+02  0.41800000000E+01 0.  1.
         -5    1    4    4    0  501  0.14697982936E+03 -0.37995831599E+02  0.15523935066E+04  0.15598044188E+04  0.41800000000E+01 0.  1.
</event>
<event>
11    1  0.8551154E-009  0.1424675E+03  0.7561462E-02  0.1104834E+00
         22   -1    0    0    0    0  0.00000000000E+00  0.00000000000E+00  0.18089799719E+04  0.18089799719E+04  0.00000000000E+00 0.  1.
         22   -1    0    0    0    0 -0.00000000000E+00 -0.00000000000E+00 -0.31031250467E+03  0.31031250467E+03  0.00000000000E+00 0. -1.
        -24    2    1    2    0    0 -0.12516770263E+02 -0.14619237502E+02 -0.28078716868E+03  0.29261704849E+03  0.80080655148E+02 0.  0.
         25    2    1    2    0    0  0.61474095732E+02  0.59903271324E+02  0.24251812718E+03  0.28606160054E+03  0.12509488772E+03 0.  0.
         24    2    1    2    0    0 -0.48957325469E+02 -0.45284033822E+02  0.15369365087E+04  0.15406138275E+04  0.82883474136E+02 0.  0.
        -11    1    5    5    0    0 -0.61059053795E+02 -0.31304660976E+02  0.14549986821E+04  0.14566157196E+04  0.00000000000E+00 0.  1.
         12    1    5    5    0    0  0.12101728326E+02 -0.13979372846E+02  0.81937826679E+02  0.83998107922E+02  0.00000000000E+00 0. -1.
         11    1    3    3    0    0 -0.86941358103E+01  0.16515684696E+01 -0.27467983030E+03  0.27482235144E+03  0.00000000000E+00 0. -1.
        -12    1    3    3    0    0 -0.38226344527E+01 -0.16270805972E+02 -0.61073383799E+01  0.17794697053E+02  0.00000000000E+00 0.  1.
          5    1    4    4  501    0 -0.27755704133E+02 -0.17813781577E+02  0.49805333135E+02  0.59881161768E+02  0.41800000000E+01 0. -1.
         -5    1    4    4    0  501  0.89229799865E+02  0.77717052901E+02  0.19271279404E+03  0.22618043877E+03  0.41800000000E+01 0. -1.
</event>
<event>
11    1  0.8551154E-009  0.1673623E+03  0.7561462E-02  0.1080350E+00
         22   -1    0    0    0    0  0.00000000000E+00  0.00000000000E+00  0.54704379251E+03  0.54704379251E+03  0.00000000000E+00 0. -1.
         22   -1    0    0    0    0 -0.00000000000E+00 -0.00000000000E+00 -0.31106509259E+03  0.31106509259E+03  0.00000000000E+00 0.  1.
        -24    2    1    2    0    0 -0.45729411847E+02  0.10506648764E+03 -0.19600651956E+03  0.25098051210E+03  0.10696969576E+03 0.  0.
         25    2    1    2    0    0 -0.20313400846E+02 -0.11319721209E+03  0.11293862264E+02  0.17029765663E+03  0.12508995743E+03 0.  0.
         24    2    1    2    0    0  0.66042812693E+02  0.81307244473E+01  0.42069135722E+03  0.43683071638E+03  0.97015952009E+02 0.  0.
        -13    1    5    5    0    0  0.47781013735E+02 -0.25062652856E+02  0.97559296326E+02  0.11148532702E+03  0.00000000000E+00 0.  1.
         14    1    5    5    0    0  0.18261798958E+02  0.33193377303E+02  0.32313206089E+03  0.32534538935E+03  0.00000000000E+00 0. -1.
         11    1    3    3    0    0 -0.33249539980E+02  0.16691705291E+02 -0.18007367256E+01  0.37247652103E+02  0.00000000000E+00 0. -1.
        -12    1    3    3    0    0 -0.12479871867E+02  0.88374782348E+02 -0.19420578284E+03  0.21373286000E+03  0.00000000000E+00 0.  1.
          5    1    4    4  501    0 -0.36138871539E+02 -0.49979616447E+02  0.62051472576E+02  0.87589027538E+02  0.41800000000E+01 0. -1.
         -5    1    4    4    0  501  0.15825470693E+02 -0.63217595640E+02 -0.50757610312E+02  0.82708629088E+02  0.41800000000E+01 0. -1.
</event>
<event>
11    1  0.8551154E-009  0.2410538E+03  0.7561462E-02  0.1028776E+00
         22   -1    0    0    0    0  0.00000000000E+00  0.00000000000E+00  0.34385356030E+03  0.34385356030E+03  0.00000000000E+00 0.  1.
         22   -1    0    0    0    0 -0.00000000000E+00 -0.00000000000E+00 -0.25257208232E+04  0.25257208232E+04  0.00000000000E+00 0. -1.
        -24    2    1    2    0    0  0.19726842685E+03  0.74828869499E+02 -0.23026603804E+04  0.23137331127E+04  0.81252059935E+02 0.  0.
         25    2    1    2    0    0 -0.14377378320E+03 -0.75605871021E+02 -0.15894646196E+03  0.25942087382E+03  0.12509222012E+03 0.  0.
         24    2    1    2    0    0 -0.53494643641E+02  0.77700152249E+00  0.27973957949E+03  0.29642039699E+03  0.82149490498E+02 0.  0.
        -13    1    5    5    0    0 -0.27700013435E+02 -0.37614244520E+02  0.18753671058E+03  0.19326701723E+03  0.00000000000E+00 0.  1.
         14    1    5    5    0    0 -0.25794630206E+02  0.38391246042E+02  0.92202868911E+02  0.10315337976E+03  0.00000000000E+00 0. -1.
         13    1    3    3    0    0  0.15755931305E+03  0.32276650990E+02 -0.19131475331E+04  0.19198958833E+04  0.00000000000E+00 0. -1.
        -14    1    3    3    0    0  0.39709113795E+02  0.42552218509E+02 -0.38951284729E+03  0.39383722935E+03  0.00000000000E+00 0.  1.
          5    1    4    4  501    0 -0.91557247611E+02 -0.79201373345E+02 -0.37010384365E+02  0.12666028612E+03  0.41800000000E+01 0.  1.
         -5    1    4    4    0  501 -0.52216535593E+02  0.35955023238E+01 -0.12193607760E+03  0.13276058770E+03  0.41800000000E+01 0.  1.
</event>
<event>
11    1  0.8551154E-009  0.1743425E+03  0.7561462E-02  0.1074313E+00
         22   -1    0    0    0    0  0.00000000000E+00  0.00000000000E+00  0.30159872862E+03  0.30159872862E+03  0.00000000000E+00 0. -1.
         22   -1    0    0    0    0 -0.00000000000E+00 -0.00000000000E+00 -0.14192905059E+04  0.14192905059E+04  0.00000000000E+00 0. -1.
         24    2    1    2    0    0  0.50145436482E+02  0.24302817971E+02 -0.12941022996E+04  0.12978548948E+04  0.81371827735E+02 0.  0.
         25    2    1    2    0    0 -0.14840503079E+03  0.35748662717E+02 -0.53178302591E+00  0.19734284022E+03  0.12506755672E+03 0.  0.
        -24    2    1    2    0    0  0.98259594306E+02 -0.60051480689E+02  0.17694230533E+03  0.22569149952E+03  0.79793140892E+02 0.  0.
        -11    1    3    3    0    0  0.42165568760E+02  0.14773762792E+02 -0.26959024568E+03  0.27326745108E+03  0.00000000000E+00 0.  1.
         12    1    3    3    0    0  0.79798677226E+01  0.95290551796E+01 -0.10245120539E+04  0.10245874437E+04  0.00000000000E+00 0. -1.
         13    1    5    5    0    0  0.39235723945E+02 -0.53964976703E+02  0.14184063714E+03  0.15674956806E+03  0.00000000000E+00 0. -1.
        -14    1    5    5    0    0  0.59023870361E+02 -0.60865039862E+01  0.35101668192E+02  0.68941931457E+02  0.00000000000E+00 0.  1.
          5    1    4    4  501    0 -0.14489839287E+02 -0.32265942561E+02 -0.27103017585E+02  0.44755920884E+02  0.41800000000E+01 0. -1.
         -5    1    4    4    0  501 -0.13391519150E+03  0.68014605279E+02  0.26571234559E+02  0.15258691933E+03  0.41800000000E+01 0. -1.
</event>
<event>
11    1  0.8551154E-009  0.1479568E+03  0.7561462E-02  0.1098985E+00
         22   -1    0    0    0    0  0.00000000000E+00  0.00000000000E+00  0.95359482201E+03  0.95359482201E+03  0.00000000000E+00 0. -1.
         22   -1    0    0    0    0 -0.00000000000E+00 -0.00000000000E+00 -0.14543926104E+04  0.14543926104E+04  0.00000000000E+00 0.  1.
         24    2    1    2    0    0  0.33130713246E+02  0.29245180349E+02 -0.96949743617E+03  0.97379430686E+03  0.79982176816E+02 0.  0.
         25    2    1    2    0    0 -0.10132714382E+03  0.10447802139E+02 -0.46497084908E+03  0.49215849561E+03  0.12508296311E+03 0.  0.
        -24    2    1    2    0    0  0.68196430576E+02 -0.39692982489E+02  0.93367049688E+03  0.94203462991E+03  0.97274668851E+02 0.  0.
        -13    1    3    3    0    0  0.33579062678E+02  0.43681996579E+02 -0.93175366904E+03  0.93338125653E+03  0.00000000000E+00 0.  1.
         14    1    3    3    0    0 -0.44834943193E+00 -0.14436816230E+02 -0.37743767133E+02  0.40413050336E+02  0.00000000000E+00 0. -1.
         11    1    5    5    0    0  0.88662570113E+02 -0.25470594906E+02  0.84194428394E+03  0.84698286866E+03  0.00000000000E+00 0. -1.
        -12    1    5    5    0    0 -0.20466139537E+02 -0.14222387583E+02  0.91726212939E+02  0.95051761247E+02  0.00000000000E+00 0.  1.
          5    1    4    4  501    0 -0.11723111815E+03 -0.18799189066E+02 -0.27987484473E+03  0.30404595982E+03  0.41800000000E+01 0. -1.
         -5    1    4    4    0  501  0.15903974324E+02  0.29246991206E+02 -0.18509600435E+03  0.18811253578E+03  0.41800000000E+01 0. -1.
</event>
<event>
11    1  0.8551154E-009  0.1356456E+03  0.7561462E-02  0.1112521E+00
         22   -1    0    0    0    0  0.00000000000E+00  0.00000000000E+00  0.46151401108E+03  0.46151401108E+03  0.00000000000E+00 0. -1.
         22   -1    0    0    0    0 -0.00000000000E+00 -0.00000000000E+00 -0.70169649747E+03  0.70169649747E+03  0.00000000000E+00 0. -1.
         24    2    1    2    0    0  0.47749603633E+02 -0.28173480890E+02 -0.50796909483E+03  0.51730751396E+03  0.80626875300E+02 0.  0.
         25    2    1    2    0    0 -0.40878122576E+02  0.35577559808E+01 -0.16150627620E+03  0.20836364590E+03  0.12508978035E+03 0.  0.
        -24    2    1    2    0    0 -0.68714810572E+01  0.24615724909E+02  0.42929288465E+03  0.43753934869E+03  0.80592491429E+02 0.  0.
        -13    1    3    3    0    0  0.13809358326E+02 -0.18666772650E+02 -0.29499903263E+02  0.37541857586E+02  0.00000000000E+00 0.  1.
         14    1    3    3    0    0  0.33940245308E+02 -0.95067082401E+01 -0.47846919157E+03  0.47976565637E+03  0.00000000000E+00 0. -1.
         11    1    5    5    0    0 -0.15240342544E+02  0.13495440509E+02  0.42068011859E+03  0.42117236036E+03  0.00000000000E+00 0. -1.
        -12    1    5    5    0    0  0.83688614868E+01  0.11120284400E+02  0.86127660617E+01  0.16366988329E+02  0.00000000000E+00 0.  1.
          5    1    4    4  501    0 -0.72910353222E+02  0.15549470701E+02 -0.45706186342E+02  0.87545608205E+02  0.41800000000E+01 0.  1.
         -5    1    4    4    0  501  0.32032230646E+02 -0.11991714720E+02 -0.11580008986E+03  0.12081803770E+03  0.41800000000E+01 0.  1.
</event>
<event>
11    1  0.8551154E-009  0.1736071E+03  0.7561462E-02  0.1074935E+00
         22   -1    0    0    0    0  0.00000000000E+00  0.00000000000E+00  0.25818277830E+04  0.25818277830E+04  0.00000000000E+00 0. -1.
         22   -1    0    0    0    0 -0.00000000000E+00 -0.00000000000E+00 -0.21025780125E+02  0.21025780125E+02  0.00000000000E+00 0.  1.
         24    2    1    2    0    0 -0.13939326277E+03 -0.20749719780E+02  0.55241482624E+03  0.57548839533E+03  0.78509364611E+02 0.  0.
         25    2    1    2    0    0  0.72583212217E+02  0.63361277321E+02  0.95632968780E+03  0.96927697877E+03  0.12509362754E+03 0.  0.
        -24    2    1    2    0    0  0.66810050557E+02 -0.42611557542E+02  0.10520574889E+04  0.10580881891E+04  0.80289029428E+02 0.  0.
        -11    1    3    3    0    0 -0.94568608063E+02  0.23417982176E+02  0.36566399111E+03  0.37842010770E+03  0.00000000000E+00 0.  1.
         12    1    3    3    0    0 -0.44824654711E+02 -0.44167701956E+02  0.18675083513E+03  0.19706828763E+03  0.00000000000E+00 0. -1.
         13    1    5    5    0    0  0.25773918545E+02  0.17303944462E+02  0.15391305575E+03  0.15701257943E+03  0.00000000000E+00 0. -1.
        -14    1    5    5    0    0  0.41036132013E+02 -0.59915502003E+02  0.89814443314E+03  0.90107560964E+03  0.00000000000E+00 0.  1.
          5    1    4    4  501    0  0.18353320193E+02 -0.38211899410E+02  0.24456762777E+03  0.24824945231E+03  0.41800000000E+01 0. -1.
         -5    1    4    4    0  501  0.54229892024E+02  0.10157317673E+03  0.71176206003E+03  0.72102752646E+03  0.41800000000E+01 0. -1.
</event>
<event>
11    1  0.8551154E-009  0.1393225E+03  0.7561462E-02  0.1108317E+00
         22   -1    0    0    0    0  0.00000000000E+00  0.00000000000E+00  0.32090348581E+03  0.32090348581E+03  0.00000000000E+00 0. -1.
         22   -1    0    0    0    0 -0.00000000000E+00 -0.00000000000E+00 -0.33140449503E+03  0.33140449503E+03  0.00000000000E+00 0.  1.
        -24    2    1    2    0    0 -0.39217877210E+02 -0.47902383058E+02 -0.24205996635E+03  0.26339524193E+03  0.83374732185E+02 0.  0.
         25    2    1    2    0    0 -0.16775088758E+02  0.82251032556E+02  0.18238503557E+02  0.15174481915E+03  0.12508881312E+03 0.  0.
         24    2    1    2    0    0  0.55992965968E+02 -0.34348649498E+02  0.21332045357E+03  0.23716791977E+03  0.80174586340E+02 0.  0.
        -13    1    5    5    0    0  0.22818964155E+02  0.11599015810E+02  0.12466656984E+02  0.28472088600E+02  0.00000000000E+00 0.  1.
         14    1    5    5    0    0  0.33174001813E+02 -0.45947665307E+02  0.20085379658E+03  0.20869583117E+03  0.00000000000E+00 0. -1.
         13    1    3    3    0    0 -0.44839378578E+02  0.39943447609E+01 -0.67003862554E+02  0.80722006036E+02  0.00000000000E+00 0. -1.
        -14    1    3    3    0    0  0.56215013683E+01 -0.51896727819E+02 -0.17505610380E+03  0.18267323589E+03  0.00000000000E+00 0.  1.
          5    1    4    4  501    0 -0.63690620584E+02  0.15071870824E+02  0.23157200602E+02  0.69551310413E+02  0.41800000000E+01 0. -1.
         -5    1    4    4    0  501  0.46915531825E+02  0.67179161732E+02 -0.49186970459E+01  0.82193508735E+02  0.41800000000E+01 0. -1.
</event>
<event>
11    1  0.8551154E-009  0.1907872E+03  0.7561462E-02  0.1061237E+00
         22   -1    0    0    0    0  0.00000000000E+00  0.00000000000E+00  0.84893792369E+03  0.84893792369E+03  0.00000000000E+00 0.  1.
         22   -1    0    0    0    0 -0.00000000000E+00 -0.00000000000E+00 -0.34514871575E+03  0.34514871575E+03  0.00000000000E+00 0.  1.
         24    2    1    2    0    0  0.16267626100E+01 -0.16942019677E+02 -0.28100611888E+03  0.29386308655E+03  0.84269783435E+02 0.  0.
         25    2    1    2    0    0 -0.14293992882E+03  0.40340861060E+02  0.15194591394E+03  0.24656515740E+03  0.12509039834E+03 0.  0.
        -24    2    1    2    0    0  0.14131316621E+03 -0.23398841384E+02  0.63284941289E+03  0.65365839549E+03  0.79082247550E+02 0.  0.
        -13    1    3    3    0    0  0.20496171940E+02 -0.14835596555E+02 -0.27141441242E+03  0.27259121640E+03  0.00000000000E+00 0.  1.
         14    1    3    3    0    0 -0.18869409330E+02 -0.21064231212E+01 -0.95917064633E+01  0.21271870151E+02  0.00000000000E+00 0. -1.
         11    1    5    5    0    0  0.24914397489E+02 -0.69813240122E+01  0.30732190038E+02  0.40173792349E+02  0.00000000000E+00 0. -1.
        -12    1    5    5    0    0  0.11639876872E+03 -0.16417517371E+02  0.60211722286E+03  0.61348460314E+03  0.00000000000E+00 0.  1.
          5    1    4    4  501    0 -0.38555817558E+02  0.36565733895E+02  0.12894682676E+03  0.13952906685E+03  0.41800000000E+01 0. -1.
         -5    1    4    4    0  501 -0.10438411126E+03  0.37751271654E+01  0.22999087172E+02  0.10703609055E+03  0.41800000000E+01 0. -1.
</event>
<event>
11    1  0.8551154E-009  0.1373705E+03  0.7561462E-02  0.1110531E+00
         22   -1    0    0    0    0  0.00000000000E+00  0.00000000000E+00  0.43496191811E+03  0.43496191811E+03  0.00000000000E+00 0.  1.
         22   -1    0    0    0    0 -0.00000000000E+00 -0.00000000000E+00 -0.11270803905E+04  0.11270803905E+04  0.00000000000E+00 0. -1.
         24    2    1    2    0    0 -0.21432771702E+02 -0.52221706638E+02 -0.99354849228E+03  0.99835335916E+03  0.79902145669E+02 0.  0.
         25    2    1    2    0    0  0.10811188990E+02  0.62472880818E+02 -0.87797214926E+02  0.16545599980E+03  0.12509034445E+03 0.  0.
        -24    2    1    2    0    0  0.10621582712E+02 -0.10251174180E+02  0.38922723477E+03  0.39823294970E+03  0.82908005332E+02 0.  0.
        -11    1    3    3    0    0 -0.21565505830E+02  0.15275284818E+02 -0.16980906580E+03  0.17185320537E+03  0.00000000000E+00 0.  1.
         12    1    3    3    0    0  0.13273412780E+00 -0.67496991455E+02 -0.82373942648E+03  0.82650015379E+03  0.00000000000E+00 0. -1.
         11    1    5    5    0    0  0.42678305740E+02  0.11293697402E+02  0.24375263795E+03  0.24771825505E+03  0.00000000000E+00 0. -1.
        -12    1    5    5    0    0 -0.32056723028E+02 -0.21544871582E+02  0.14547459683E+03  0.15051469465E+03  0.00000000000E+00 0.  1.
          5    1    4    4  501    0 -0.48961526168E+02  0.63018688780E+02 -0.43909991649E+02  0.91181938710E+02  0.41800000000E+01 0.  1.
         -5    1    4    4    0  501  0.59772715158E+02 -0.54580796258E+00 -0.43887223276E+02  0.74274061089E+02  0.41800000000E+01 0.  1.
</event>
<event>
11    1  0.8551154E-009  0.1325607E+03  0.7561462E-02  0.1116162E+00
         22   -1    0    0    0    0  0.00000000000E+00  0.00000000000E+00  0.17198148592E+04  0.17198148592E+04  0.00000000000E+00 0.  1.
         22   -1    0    0    0    0 -0.00000000000E+00 -0.00000000000E+00 -0.65298049491E+03  0.65298049491E+03  0.00000000000E+00 0. -1.
        -24    2    1    2    0    0  0.28986797679E+02  0.33189922060E+02 -0.61688379388E+03  0.62364964763E+03  0.80320996505E+02 0.  0.
         25    2    1    2    0    0  0.59390714648E+00 -0.47219377060E+02  0.11009021717E+03  0.17319961503E+03  0.12509287923E+03 0.  0.
         24    2    1    2    0    0 -0.29580704826E+02  0.14029455000E+02  0.15736279410E+04  0.15759460915E+04  0.78926185396E+02 0.  0.
        -13    1    5    5    0    0  0.22777229316E+02 -0.12855758646E+02  0.56058055569E+03  0.56119037067E+03  0.00000000000E+00 0.  1.
         14    1    5    5    0    0 -0.52357934141E+02  0.26885213646E+02  0.10130473853E+04  0.10147557208E+04  0.00000000000E+00 0. -1.
         13    1    3    3    0    0  0.29300263533E+02 -0.18151570449E+02 -0.36259274353E+03  0.36422724035E+03  0.00000000000E+00 0. -1.
        -14    1    3    3    0    0 -0.31346585363E+00  0.51341492510E+02 -0.25429105035E+03  0.25942240729E+03  0.00000000000E+00 0.  1.
          5    1    4    4  501    0 -0.30367822943E+02 -0.74725131870E+02  0.10313450473E+03  0.13099713153E+03  0.41800000000E+01 0.  1.
         -5    1    4    4    0  501  0.30961730090E+02  0.27505754810E+02  0.69557124374E+01  0.42202483497E+02  0.41800000000E+01 0.  1.
</event>
<event>
11    1  0.8551154E-009  0.1697500E+03  0.7561462E-02  0.1078249E+00
         22   -1    0    0    0    0  0.00000000000E+00  0.00000000000E+00  0.11934412291E+03  0.11934412291E+03  0.00000000000E+00 0.  1.
         22   -1    0    0    0    0 -0.00000000000E+00 -0.00000000000E+00 -0.31218165372E+04  0.31218165372E+04  0.00000000000E+00 0.  1.
        -24    2    1    2    0    0  0.81148644726E+02  0.82999957624E+02 -0.28085180559E+04  0.28120819676E+04  0.80976702565E+02 0.  0.
         25    2    1    2    0    0 -0.12774170202E+02 -0.11780993242E+03 -0.25061184129E+03  0.30413598936E+03  0.12510014160E+03 0.  0.
         24    2    1    2    0    0 -0.68374474524E+02  0.34809974791E+02  0.56657482909E+02  0.12494270320E+03  0.80708150776E+02 0.  0.
        -13    1    5    5    0    0 -0.78778086146E+02  0.47732638103E+02  0.57051621361E+02  0.10834795382E+03  0.00000000000E+00 0.  1.
         14    1    5    5    0    0  0.10403611622E+02 -0.12922663312E+02 -0.39413845188E+00  0.16594749379E+02  0.00000000000E+00 0. -1.
         11    1    3    3    0    0  0.18059522921E+01  0.50850758525E+01 -0.10064739325E+02  0.11420089220E+02  0.00000000000E+00 0. -1.
        -12    1    3    3    0    0  0.79342692434E+02  0.77914881772E+02 -0.27984533166E+04  0.28006618784E+04  0.00000000000E+00 0.  1.
          5    1    4    4  501    0 -0.30502234794E+02  0.16555629025E+02 -0.70489126657E+02  0.78680776284E+02  0.41800000000E+01 0.  1.
         -5    1    4    4    0  501  0.17728064591E+02 -0.13436556144E+03 -0.18012271464E+03  0.22545521308E+03  0.41800000000E+01 0.  1.
</event>
<event>
11    1  0.8551154E-009  0.1417521E+03  0.7561462E-02  0.1105618E+00
         22   -1    0    0    0    0  0.00000000000E+00  0.00000000000E+00  0.46946798730E+02  0.46946798730E+02  0.00000000000E+00 0. -1.
         22   -1    0    0    0    0 -0.00000000000E+00 -0.00000000000E+00 -0.14342367365E+04  0.14342367365E+04  0.00000000000E+00 0. -1.
        -24    2    1    2    0    0  0.30513078856E+02 -0.16534828102E+02 -0.68212539719E+03  0.68781135869E+03  0.81147761038E+02 0.  0.
         25    2    1    2    0    0 -0.70297457815E+02 -0.36197858167E+02 -0.66473382402E+03  0.68100728433E+03  0.12509135461E+03 0.  0.
         24    2    1    2    0    0  0.39784378958E+02  0.52732686268E+02 -0.40430716544E+02  0.11236489220E+03  0.81410645184E+02 0.  0.
        -11    1    5    5    0    0  0.34901315571E+02 -0.73255072474E+01 -0.37922236093E+02  0.52056324066E+02  0.00000000000E+00 0.  1.
         12    1    5    5    0    0  0.48830633873E+01  0.60058193516E+02 -0.25084804508E+01  0.60308568136E+02  0.00000000000E+00 0. -1.
         11    1    3    3    0    0  0.35341367929E+02 -0.24650047296E+02 -0.67393567942E+03  0.67531173329E+03  0.00000000000E+00 0. -1.
        -12    1    3    3    0    0 -0.48282890724E+01  0.81152191941E+01 -0.81897177701E+01  0.12499625398E+02  0.00000000000E+00 0.  1.
          5    1    4    4  501    0 -0.55069942710E+02 -0.24046121871E+02 -0.65680674525E+03  0.65956310355E+03  0.41800000000E+01 0. -1.
         -5    1    4    4    0  501 -0.15227515105E+02 -0.12151736296E+02 -0.79270787762E+01  0.21444180777E+02  0.41800000000E+01 0. -1.
</event>
<event>
11    1  0.8551154E-009  0.1366039E+03  0.7561462E-02  0.1111411E+00
         22   -1    0    0    0    0  0.00000000000E+00  0.00000000000E+00  0.69296010048E+03  0.69296010048E+03  0.00000000000E+00 0.  1.
         22   -1    0    0    0    0 -0.00000000000E+00 -0.00000000000E+00 -0.55496448906E+03  0.55496448906E+03  0.00000000000E+00 0. -1.
         24    2    1    2    0    0 -0.23205228476E+02 -0.50668166400E+02 -0.47053160012E+03  0.48250523171E+03  0.91134879132E+02 0.  0.
         25    2    1    2    0    0 -0.87426128361E+01  0.54025598068E+02 -0.13776323482E+02  0.13723269177E+03  0.12509127098E+03 0.  0.
        -24    2    1    2    0    0  0.31947841312E+02 -0.33574316687E+01  0.62230353503E+03  0.62818666607E+03  0.79528993537E+02 0.  0.
        -11    1    3    3    0    0 -0.44119346313E+02  0.91410059542E+00 -0.29713395978E+03  0.30039297987E+03  0.00000000000E+00 0.  1.
         12    1    3    3    0    0  0.20914117837E+02 -0.51582266995E+02 -0.17339764034E+03  0.18211225184E+03  0.00000000000E+00 0. -1.
         13    1    5    5    0    0  0.29553970582E+02  0.16408959120E+02  0.10107333883E+03  0.10657631509E+03  0.00000000000E+00 0. -1.
        -14    1    5    5    0    0  0.23938707302E+01 -0.19766390789E+02  0.52123019620E+03  0.52161035098E+03  0.00000000000E+00 0.  1.
          5    1    4    4  501    0 -0.58126995633E+02  0.62278905284E+01  0.18124533567E+02  0.61347415258E+02  0.41800000000E+01 0.  1.
         -5    1    4    4    0  501  0.49384382797E+02  0.47797707540E+02 -0.31900857049E+02  0.75885276509E+02  0.41800000000E+01 0.  1.
</event>
<event>
11    1  0.8551154E-009  0.1478600E+03  0.7561462E-02  0.1099086E+00
         22   -1    0    0    0    0  0.00000000000E+00  0.00000000000E+00  0.44934261886E+03  0.44934261886E+03  0.00000000000E+00 0.  1.
         22   -1    0    0    0    0 -0.00000000000E+00 -0.00000000000E+00 -0.26027790754E+04  0.26027790754E+04  0.00000000000E+00 0.  1.
        -24    2    1    2    0    0  0.79819661853E+02  0.12255340322E+01 -0.24514281168E+04  0.24539857387E+04  0.78571709947E+02 0.  0.
         25    2    1    2    0    0 -0.53850419400E+02 -0.91676451281E+01 -0.11375416901E+03  0.17768362029E+03  0.12509014576E+03 0.  0.
         24    2    1    2    0    0 -0.25969242453E+02  0.79421110958E+01  0.41174582927E+03  0.42045233526E+03  0.80672545666E+02 0.  0.
        -11    1    5    5    0    0 -0.11371555545E+02  0.28146332315E+02  0.37393258282E+03  0.37516277107E+03  0.00000000000E+00 0.  1.
         12    1    5    5    0    0 -0.14597686908E+02 -0.20204221219E+02  0.37813246447E+02  0.45289564195E+02  0.00000000000E+00 0. -1.
         11    1    3    3    0    0  0.27886484799E+01 -0.28924069293E+02 -0.70875805241E+03  0.70935347691E+03  0.00000000000E+00 0. -1.
        -12    1    3    3    0    0  0.77031013373E+02  0.30149603325E+02 -0.17426700643E+04  0.17446322618E+04  0.00000000000E+00 0.  1.
          5    1    4    4  501    0  0.76123005396E+01  0.49595977054E+02 -0.32059928998E+02  0.59691033722E+02  0.41800000000E+01 0. -1.
         -5    1    4    4    0  501 -0.61462719940E+02 -0.58763622182E+02 -0.81694240007E+02  0.11799258657E+03  0.41800000000E+01 0. -1.
</event>
<event>
11    1  0.8551154E-009  0.1556801E+03  0.7561462E-02  0.1091212E+00
         22   -1    0    0    0    0  0.00000000000E+00  0.00000000000E+00  0.86791278370E+03  0.86791278370E+03  0.00000000000E+00 0. -1.
         22   -1    0    0    0    0 -0.00000000000E+00 -0.00000000000E+00 -0.41249674043E+03  0.41249674043E+03  0.00000000000E+00 0.  1.
         24    2    1    2    0    0  0.85973246272E+02  0.23330841565E+02 -0.33461839248E+03  0.35666895219E+03  0.85484183506E+02 0.  0.
         25    2    1    2    0    0 -0.12331547177E+03 -0.10594742009E+03  0.10939229902E+03  0.23247791100E+03  0.12509093739E+03 0.  0.
        -24    2    1    2    0    0  0.37342225494E+02  0.82616578520E+02  0.68064213672E+03  0.69126266094E+03  0.79689442747E+02 0.  0.
        -11    1    3    3    0    0  0.45817823198E+02 -0.20212641455E+01 -0.28234413734E+03  0.28604469986E+03  0.00000000000E+00 0.  1.
         12    1    3    3    0    0  0.40155423074E+02  0.25352105711E+02 -0.52274255139E+02  0.70624252326E+02  0.00000000000E+00 0. -1.
         13    1    5    5    0    0  0.56387257734E+02  0.74965234843E+02  0.62410776789E+03  0.63111790912E+03  0.00000000000E+00 0. -1.
        -14    1    5    5    0    0 -0.19045032240E+02  0.76513436768E+01  0.56534368827E+02  0.60144751822E+02  0.00000000000E+00 0.  1.
          5    1    4    4  501    0 -0.57826688049E+02 -0.57660714712E+02  0.12515024403E+03  0.14949494926E+03  0.41800000000E+01 0.  1.
         -5    1    4    4    0  501 -0.65488783717E+02 -0.48286705373E+02 -0.15757945008E+02  0.82982961741E+02  0.41800000000E+01 0.  1.
</event>
<event>
11    1  0.8551154E-009  0.2476422E+03  0.7561462E-02  0.1025163E+00
         22   -1    0    0    0    0  0.00000000000E+00  0.00000000000E+00  0.40402043128E+03  0.40402043128E+03  0.00000000000E+00 0. -1.
         22   -1    0    0    0    0 -0.00000000000E+00 -0.00000000000E+00 -0.15387320542E+04  0.15387320542E+04  0.00000000000E+00 0. -1.
        -24    2    1    2    0    0  0.19033332177E+02 -0.70240796438E+01 -0.58713244141E+03  0.59310221166E+03  0.81450133797E+02 0.  0.
         25    2    1    2    0    0 -0.18369154970E+03  0.14220035124E+03 -0.89545793449E+03  0.93351797777E+03  0.12508947620E+03 0.  0.
         24    2    1    2    0    0  0.16465821752E+03 -0.13517627160E+03  0.34787875297E+03  0.41613229605E+03  0.82228389566E+02 0.  0.
        -13    1    5    5    0    0  0.78058451398E+01 -0.97609884774E+01 -0.20545744638E+01  0.12666072423E+02  0.00000000000E+00 0.  1.
         14    1    5    5    0    0  0.15685237238E+03 -0.12541528312E+03  0.34993332743E+03  0.40346622363E+03  0.00000000000E+00 0. -1.
         13    1    3    3    0    0 -0.46507039353E+00 -0.65934349317E+01 -0.55802919940E+03  0.55806834443E+03  0.00000000000E+00 0. -1.
        -14    1    3    3    0    0  0.19498402570E+02 -0.43064471214E+00 -0.29103242009E+02  0.35033867230E+02  0.00000000000E+00 0.  1.
          5    1    4    4  501    0 -0.11437802459E+03  0.10594257448E+02 -0.37798693831E+03  0.39507742119E+03  0.41800000000E+01 0.  1.
         -5    1    4    4    0  501 -0.69313525115E+02  0.13160609379E+03 -0.51747099618E+03  0.53844055659E+03  0.41800000000E+01 0.  1.
</event>
<event>
11    1  0.8551154E-009  0.2248382E+03  0.7561462E-02  0.1038228E+00
         22   -1    0    0    0    0  0.00000000000E+00  0.00000000000E+00  0.50211420322E+02  0.50211420322E+02  0.00000000000E+00 0.  1.
         22   -1    0    0    0    0 -0.00000000000E+00 -0.00000000000E+00 -0.18940956146E+04  0.18940956146E+04  0.00000000000E+00 0.  1.
         24    2    1    2    0    0  0.87094890638E+01 -0.17638214151E+03 -0.91432206510E+03  0.93479612097E+03  0.81684968141E+02 0.  0.
         25    2    1    2    0    0 -0.48186996635E+02  0.19960171897E+03 -0.86369085513E+03  0.89653309633E+03  0.12508743630E+03 0.  0.
        -24    2    1    2    0    0  0.39477507571E+02 -0.23219577463E+02 -0.65871274058E+02  0.11297781763E+03  0.79544579625E+02 0.  0.
        -11    1    3    3    0    0 -0.19412516495E+02 -0.12426389116E+03 -0.46969593469E+03  0.48624338711E+03  0.00000000000E+00 0.  1.
         12    1    3    3    0    0  0.28122005558E+02 -0.52118250346E+02 -0.44462613041E+03  0.44855273387E+03  0.00000000000E+00 0. -1.
         11    1    5    5    0    0  0.73468724531E+01 -0.70746254683E-01  0.18428841842E+02  0.19839449375E+02  0.00000000000E+00 0. -1.
        -12    1    5    5    0    0  0.32130635118E+02 -0.23148831208E+02 -0.84300115901E+02  0.93138368250E+02  0.00000000000E+00 0.  1.
          5    1    4    4  501    0 -0.34509010540E+02  0.29353253884E+02 -0.62366120571E+02  0.77197737772E+02  0.41800000000E+01 0.  1.
         -5    1    4    4    0  501 -0.13677986095E+02  0.17024846509E+03 -0.80132473456E+03  0.81933535856E+03  0.41800000000E+01 0.  1.
</event>
<event>
11    1  0.8551154E-009  0.1336513E+03  0.7561462E-02  0.1114862E+00
         22   -1    0    0    0    0  0.00000000000E+00  0.00000000000E+00  0.43612022995E+03  0.43612022995E+03  0.00000000000E+00 0. -1.
         22   -1    0    0    0    0 -0.00000000000E+00 -0.00000000000E+00 -0.22168887922E+03  0.22168887922E+03  0.00000000000E+00 0. -1.
        -24    2    1    2    0    0 -0.17638993517E+02  0.37688672401E+02 -0.16034324079E+03  0.18404749038E+03  0.80199462135E+02 0.  0.
         25    2    1    2    0    0 -0.22667223571E+02 -0.45432546284E+01  0.52157317254E+02  0.13748557158E+03  0.12508977761E+03 0.  0.
         24    2    1    2    0    0  0.40306217088E+02 -0.33145417773E+02  0.32261727427E+03  0.33627604721E+03  0.79224140358E+02 0.  0.
        -11    1    5    5    0    0  0.38003166518E+02  0.19118929690E+02  0.14713287764E+03  0.15315958285E+03  0.00000000000E+00 0.  1.
         12    1    5    5    0    0  0.23030505696E+01 -0.52264347462E+02  0.17548439663E+03  0.18311646436E+03  0.00000000000E+00 0. -1.
         13    1    3    3    0    0 -0.76162688543E+01 -0.18087031164E+02 -0.97379147727E+02  0.99337035690E+02  0.00000000000E+00 0. -1.
        -14    1    3    3    0    0 -0.10022724662E+02  0.55775703565E+02 -0.62964093067E+02  0.84710454689E+02  0.00000000000E+00 0.  1.
          5    1    4    4  501    0 -0.37175108793E+02 -0.49984914174E+02 -0.53384260526E+01  0.62661404001E+02  0.41800000000E+01 0. -1.
         -5    1    4    4    0  501  0.14507885222E+02  0.45441659545E+02  0.57495743306E+02  0.74824167581E+02  0.41800000000E+01 0. -1.
</event>
<event>
11    1  0.8551154E-009  0.1434641E+03  0.7561462E-02  0.1103751E+00
         22   -1    0    0    0    0  0.00000000000E+00  0.00000000000E+00  0.52173158831E+03  0.52173158831E+03  0.00000000000E+00 0.  1.
         22   -1    0    0    0    0 -0.00000000000E+00 -0.00000000000E+00 -0.17563776947E+03  0.17563776947E+03  0.00000000000E+00 0.  1.
         24    2    1    2    0    0 -0.34091133704E+02  0.20096610355E+02 -0.16625841076E+02  0.92427390570E+02  0.81855511672E+02 0.  0.
         25    2    1    2    0    0  0.81612032153E+02  0.30953941633E+02 -0.63669830792E+02  0.16528856900E+03  0.12509114035E+03 0.  0.
        -24    2    1    2    0    0 -0.47520898449E+02 -0.51050551988E+02  0.42638949070E+03  0.43965339821E+03  0.81380084335E+02 0.  0.
        -11    1    3    3    0    0 -0.54729711678E+02  0.16360132959E+01 -0.29157323038E+02  0.62033598692E+02  0.00000000000E+00 0.  1.
         12    1    3    3    0    0  0.20638577974E+02  0.18460597059E+02  0.12531481962E+02  0.30393791878E+02  0.00000000000E+00 0. -1.
         11    1    5    5    0    0  0.13712200898E+02 -0.42925894333E+02  0.16265077724E+03  0.16877775977E+03  0.00000000000E+00 0. -1.
        -12    1    5    5    0    0 -0.61233099347E+02 -0.81246576549E+01  0.26373871347E+03  0.27087563844E+03  0.00000000000E+00 0.  1.
          5    1    4    4  501    0  0.99500052386E+01  0.68174691758E+02 -0.14115426008E+02  0.70452174218E+02  0.41800000000E+01 0. -1.
         -5    1    4    4    0  501  0.71662026914E+02 -0.37220750125E+02 -0.49554404783E+02  0.94836394780E+02  0.41800000000E+01 0. -1.
</event>
<event>
11    1  0.8551154E-009  0.1416648E+03  0.7561462E-02  0.1105713E+00
         22   -1    0    0    0    0  0.00000000000E+00  0.00000000000E+00  0.18038207439E+03  0.18038207439E+03  0.00000000000E+00 0. -1.
         22   -1    0    0    0    0 -0.00000000000E+00 -0.00000000000E+00 -0.84450086859E+03  0.84450086859E+03  0.00000000000E+00 0. -1.
        -24    2    1    2    0    0  0.56164614376E+02 -0.26908308417E+02 -0.65601593090E+03  0.66332028995E+03  0.75884020076E+02 0.  0.
         25    2    1    2    0    0 -0.87676889867E+02 -0.30920912950E+02 -0.12933419818E+03  0.20252918191E+03  0.12508954725E+03 0.  0.
         24    2    1    2    0    0  0.31512275491E+02  0.57829221368E+02  0.12123133487E+03  0.15903347111E+03  0.79103514636E+02 0.  0.
        -11    1    5    5    0    0  0.13953851694E+02  0.20721244001E+02 -0.57042274788E+01  0.25624561288E+02  0.00000000000E+00 0.  1.
         12    1    5    5    0    0  0.17558423797E+02  0.37107977366E+02  0.12693556235E+03  0.13340890982E+03  0.00000000000E+00 0. -1.
         11    1    3    3    0    0  0.42382159407E+02 -0.42291039186E+02 -0.26161017267E+03  0.26837410805E+03  0.00000000000E+00 0. -1.
        -12    1    3    3    0    0  0.13782454969E+02  0.15382730769E+02 -0.39440575823E+03  0.39494618190E+03  0.00000000000E+00 0.  1.
          5    1    4    4  501    0  0.91091770891E+01 -0.20501830314E+02  0.15775542844E+02  0.27742427895E+02  0.41800000000E+01 0.  1.
         -5    1    4    4    0  501 -0.96786066956E+02 -0.10419082637E+02 -0.14510974102E+03  0.17478675401E+03  0.41800000000E+01 0.  1.
</event>
<event>
11    1  0.8551154E-009  0.1311574E+03  0.7561462E-02  0.1117855E+00
         22   -1    0    0    0    0  0.00000000000E+00  0.00000000000E+00  0.81752789835E+03  0.81752789835E+03  0.00000000000E+00 0. -1.
         22   -1    0    0    0    0 -0.00000000000E+00 -0.00000000000E+00 -0.19356307499E+03  0.19356307499E+03  0.00000000000E+00 0. -1.
        -24    2    1    2    0    0 -0.14632409018E+02  0.21649954018E+02 -0.16041618181E+03  0.18023351071E+03  0.77896977450E+02 0.  0.
         25    2    1    2    0    0 -0.18693585964E+02  0.54423702740E+01  0.18082425063E+03  0.22073514644E+03  0.12509007038E+03 0.  0.
         24    2    1    2    0    0  0.33325994983E+02 -0.27092324292E+02  0.60355675454E+03  0.61012231620E+03  0.78255151839E+02 0.  0.
        -13    1    5    5    0    0  0.24547344711E+02  0.12701285368E+02  0.73884674379E+02  0.78884978864E+02  0.00000000000E+00 0.  1.
         14    1    5    5    0    0  0.87786502716E+01 -0.39793609660E+02  0.52967208016E+03  0.53123733733E+03  0.00000000000E+00 0. -1.
         11    1    3    3    0    0 -0.89071597411E+01 -0.61779571848E+00 -0.15668686028E+03  0.15694104419E+03  0.00000000000E+00 0. -1.
        -12    1    3    3    0    0 -0.57252492770E+01  0.22267749737E+02 -0.37293215224E+01  0.23292466521E+02  0.00000000000E+00 0.  1.
          5    1    4    4  501    0  0.37551208219E+02 -0.12043741231E+02  0.14790799042E+03  0.15313193975E+03  0.41800000000E+01 0.  1.
         -5    1    4    4    0  501 -0.56244794183E+02  0.17486111505E+02  0.32916260208E+02  0.67603206687E+02  0.41800000000E+01 0.  1.
</event>
<event>
11    1  0.8551154E-009  0.1645180E+03  0.7561462E-02  0.1082903E+00
         22   -1    0    0    0    0  0.00000000000E+00  0.00000000000E+00  0.97713534315E+02  0.97713534315E+02  0.00000000000E+00 0. -1.
         22   -1    0    0    0    0 -0.00000000000E+00 -0.00000000000E+00 -0.82172933408E+03  0.82172933408E+03  0.00000000000E+00 0.  1.
        -24    2    1    2    0    0  0.56356096971E+00 -0.35849796481E+02 -0.50508637761E+03  0.51275592340E+03  0.80751858393E+02 0.  0.
         25    2    1    2    0    0  0.27322585738E+02  0.13122180830E+03 -0.21026627658E+03  0.27897208055E+03  0.12509127864E+03 0.  0.
         24    2    1    2    0    0 -0.27886146707E+02 -0.95372011818E+02 -0.86631455785E+01  0.12771486445E+03  0.79765773941E+02 0.  0.
        -13    1    5    5    0    0 -0.42487302147E+02 -0.27205784244E+02 -0.24712809916E+02  0.56178719405E+02  0.00000000000E+00 0.  1.
         14    1    5    5    0    0  0.14601155439E+02 -0.68166227574E+02  0.16049664338E+02  0.71536145040E+02  0.00000000000E+00 0. -1.
         13    1    3    3    0    0  0.91129934797E+01  0.21705118402E+02 -0.25055650775E+03  0.25165993402E+03  0.00000000000E+00 0. -1.
        -14    1    3    3    0    0 -0.85494325100E+01 -0.57554914884E+02 -0.25452986985E+03  0.26109598938E+03  0.00000000000E+00 0.  1.
          5    1    4    4  501    0 -0.24151085206E+02  0.11111510608E+03 -0.18693385772E+03  0.21884145237E+03  0.41800000000E+01 0. -1.
         -5    1    4    4    0  501  0.51473670944E+02  0.20106702224E+02 -0.23332418865E+02  0.60130628176E+02  0.41800000000E+01 0. -1.
</event>
<event>
11    1  0.8551154E-009  0.1944101E+03  0.7561462E-02  0.1058548E+00
         22   -1    0    0    0    0  0.00000000000E+00  0.00000000000E+00  0.15598729483E+04  0.15598729483E+04  0.00000000000E+00 0.  1.
         22   -1    0    0    0    0 -0.00000000000E+00 -0.00000000000E+00 -0.33912088368E+04  0.33912088368E+04  0.00000000000E+00 0.  1.
        -24    2    1    2    0    0 -0.14483693007E+03 -0.33990485400E+02 -0.33260187846E+04  0.33303901936E+04  0.83455356526E+02 0.  0.
         25    2    1    2    0    0  0.16289014247E+03 -0.39000172938E+02  0.11879653539E+03  0.24046828250E+03  0.12513259394E+03 0.  0.
         24    2    1    2    0    0 -0.18053212400E+02  0.72990658337E+02  0.13758863607E+04  0.13802233091E+04  0.79369709739E+02 0.  0.
        -11    1    5    5    0    0  0.10636077411E+02 -0.44975240249E+01  0.56900926913E+03  0.56912643781E+03  0.00000000000E+00 0.  1.
         12    1    5    5    0    0 -0.28689289811E+02  0.77488182362E+02  0.80687709153E+03  0.81109687127E+03  0.00000000000E+00 0. -1.
         13    1    3    3    0    0 -0.52462992945E+02 -0.42204864264E+02 -0.86152125862E+03  0.86414842201E+03  0.00000000000E+00 0. -1.
        -14    1    3    3    0    0 -0.92373937123E+02  0.82143788650E+01 -0.24644975260E+04  0.24662417715E+04  0.00000000000E+00 0.  1.
          5    1    4    4  501    0  0.11489396333E+03 -0.84149928351E+02  0.89330914947E+02  0.16816455636E+03  0.41800000000E+01 0. -1.
         -5    1    4    4    0  501  0.47996179137E+02  0.45149755413E+02  0.29465620442E+02  0.72303726140E+02  0.41800000000E+01 0. -1.
</event>
<event>
11    1  0.8551154E-009  0.1357785E+03  0.7561462E-02  0.1112366E+00
         22   -1    0    0    0    0  0.00000000000E+00  0.00000000000E+00  0.35935147610E+03  0.35935147610E+03  0.00000000000E+00 0. -1.
         22   -1    0    0    0    0 -0.00000000000E+00 -0.00000000000E+00 -0.52167094861E+03  0.52167094861E+03  0.00000000000E+00 0.  1.
         24    2    1    2    0    0  0.51818688355E+02  0.11744522708E+02 -0.43082769681E+03  0.44157469235E+03  0.80948096387E+02 0.  0.
         25    2    1    2    0    0 -0.45646946701E+02 -0.21250208062E+02 -0.22935819910E+02  0.13678053120E+03  0.12509055438E+03 0.  0.
        -24    2    1    2    0    0 -0.61717416542E+01  0.95056853533E+01  0.29144404421E+03  0.30266720116E+03  0.80866280386E+02 0.  0.
        -11    1    3    3    0    0  0.64085360388E+02  0.19212500829E+02 -0.41435218387E+03  0.41971869851E+03  0.00000000000E+00 0.  1.
         12    1    3    3    0    0 -0.12266672033E+02 -0.74679781208E+01 -0.16475512946E+02  0.21855993842E+02  0.00000000000E+00 0. -1.
         13    1    5    5    0    0 -0.39955127964E+02  0.88179553708E+01  0.21821700328E+03  0.22201988449E+03  0.00000000000E+00 0. -1.
        -14    1    5    5    0    0  0.33783386309E+02  0.68772998254E+00  0.73227040932E+02  0.80647316674E+02  0.00000000000E+00 0.  1.
          5    1    4    4  501    0 -0.60491196977E+02 -0.97943794139E+01  0.38446723198E+02  0.72461974197E+02  0.41800000000E+01 0. -1.
         -5    1    4    4    0  501  0.14844250277E+02 -0.11455828648E+02 -0.61382543108E+02  0.64318557001E+02  0.41800000000E+01 0. -1.
</event>
<event>
11    1  0.8551154E-009  0.1397281E+03  0.7561462E-02  0.1107862E+00
         22   -1    0    0    0    0  0.00000000000E+00  0.00000000000E+00  0.48481273485E+03  0.48481273485E+03  0.00000000000E+00 0. -1.
         22   -1    0    0    0    0 -0.00000000000E+00 -0.00000000000E+00 -0.17733406048E+03  0.17733406048E+03  0.00000000000E+00 0. -1.
         24    2    1    2    0    0 -0.27019026648E+02 -0.10366338058E+02 -0.78286047987E+02  0.11312635511E+03  0.76363460794E+02 0.  0.
         25    2    1    2    0    0  0.86044009744E+02 -0.28882035649E+01  0.39194289166E+00  0.15186035423E+03  0.12509796256E+03 0.  0.
        -24    2    1    2    0    0 -0.59024983095E+02  0.13254541623E+02  0.38537277947E+03  0.39716008600E+03  0.74594391532E+02 0.  0.
        -11    1    3    3    0    0  0.41529724575E-01 -0.34094859214E+01  0.15187855689E+02  0.15565901175E+02  0.00000000000E+00 0.  1.
         12    1    3    3    0    0 -0.27060556373E+02 -0.69568521370E+01 -0.93473903676E+02  0.97560453931E+02  0.00000000000E+00 0. -1.
         13    1    5    5    0    0 -0.32452790443E+02  0.13397029673E+02  0.35529556749E+03  0.35702605547E+03  0.00000000000E+00 0. -1.
        -14    1    5    5    0    0 -0.26572192652E+02 -0.14248804925E+00  0.30077211985E+02  0.40134030522E+02  0.00000000000E+00 0.  1.
          5    1    4    4  501    0 -0.20921438559E+02  0.23581865692E+01 -0.33208072169E+02  0.39541321329E+02  0.41800000000E+01 0. -1.
         -5    1    4    4    0  501  0.10696544830E+03 -0.52463901342E+01  0.33600015060E+02  0.11231903290E+03  0.41800000000E+01 0. -1.
</event>
<event>
11    1  0.8551154E-009  0.1338899E+03  0.7561462E-02  0.1114580E+00
         22   -1    0    0    0    0  0.00000000000E+00  0.00000000000E+00  0.92840134097E+03  0.92840134097E+03  0.00000000000E+00 0. -1.
         22   -1    0    0    0    0 -0.00000000000E+00 -0.00000000000E+00 -0.33222039648E+04  0.33222039648E+04  0.00000000000E+00 0.  1.
        -24    2    1    2    0    0  0.29547833333E+02  0.37920408346E+02 -0.32414746714E+04  0.32435450376E+04  0.10542928153E+03 0.  0.
         25    2    1    2    0    0  0.22132255941E+02 -0.52436809168E+02 -0.15637652811E+02  0.13831517567E+03  0.12508835248E+03 0.  0.
         24    2    1    2    0    0 -0.51680089274E+02  0.14516400821E+02  0.86330970040E+03  0.86874509256E+03  0.80825982971E+02 0.  0.
        -13    1    5    5    0    0  0.53371080463E+01  0.29933256730E+02  0.15351242135E+03  0.15649456249E+03  0.00000000000E+00 0.  1.
         14    1    5    5    0    0 -0.57017197320E+02 -0.15416855909E+02  0.70979727905E+03  0.71225053007E+03  0.00000000000E+00 0. -1.
         13    1    3    3    0    0 -0.65927049368E+01 -0.19137800025E+02 -0.20859158450E+04  0.20860140535E+04  0.00000000000E+00 0. -1.
        -14    1    3    3    0    0  0.36140538270E+02  0.57058208371E+02 -0.11555588265E+04  0.11575309841E+04  0.00000000000E+00 0.  1.
          5    1    4    4  501    0 -0.37058514147E+02 -0.31775309098E+02  0.32816598641E+02  0.58969528449E+02  0.41800000000E+01 0.  1.
         -5    1    4    4    0  501  0.59190770088E+02 -0.20661500070E+02 -0.48454251452E+02  0.79345647218E+02  0.41800000000E+01 0.  1.
</event>
<event>
11    1  0.8551154E-009  0.2646421E+03  0.7561462E-02  0.1016376E+00
         22   -1    0    0    0    0  0.00000000000E+00  0.00000000000E+00  0.45715228939E+03  0.45715228939E+03  0.00000000000E+00 0.  1.
         22   -1    0    0    0    0 -0.00000000000E+00 -0.00000000000E+00 -0.82728822182E+03  0.82728822182E+03  0.00000000000E+00 0. -1.
        -24    2    1    2    0    0  0.57395999970E+02  0.55806106140E+02 -0.64426700839E+03  0.65443547246E+03  0.82445055710E+02 0.  0.
         25    2    1    2    0    0 -0.21864695113E+03 -0.19195323699E+03  0.66525027645E+02  0.32361317737E+03  0.12508946731E+03 0.  0.
         24    2    1    2    0    0  0.16125095116E+03  0.13614713085E+03  0.20760604832E+03  0.30639186139E+03  0.78979686867E+02 0.  0.
        -13    1    5    5    0    0  0.11489855103E+03  0.48496833243E+02  0.13285029333E+03  0.18221641062E+03  0.00000000000E+00 0.  1.
         14    1    5    5    0    0  0.46352400132E+02  0.87650297608E+02  0.74755754996E+02  0.12417545077E+03  0.00000000000E+00 0. -1.
         13    1    3    3    0    0  0.60762203759E+02  0.72360178690E+02 -0.59236358586E+03  0.59985219739E+03  0.00000000000E+00 0. -1.
        -14    1    3    3    0    0 -0.33662037888E+01 -0.16554072550E+02 -0.51903422538E+02  0.54583275067E+02  0.00000000000E+00 0.  1.
          5    1    4    4  501    0 -0.14924057664E+03 -0.92919973441E+02  0.94184249064E+02  0.19948688265E+03  0.41800000000E+01 0. -1.
         -5    1    4    4    0  501 -0.69406374491E+02 -0.99033263550E+02 -0.27659221419E+02  0.12412629471E+03  0.41800000000E+01 0. -1.
</event>
<event>
11    1  0.8551154E-009  0.1574508E+03  0.7561462E-02  0.1089500E+00
         22   -1    0    0    0    0  0.00000000000E+00  0.00000000000E+00  0.58208549403E+02  0.58208549403E+02  0.00000000000E+00 0.  1.
         22   -1    0    0    0    0 -0.00000000000E+00 -0.00000000000E+00 -0.14684388240E+04  0.14684388240E+04  0.00000000000E+00 0.  1.
         24    2    1    2    0    0 -0.49191483507E+02  0.58744325328E+02 -0.56782491099E+03  0.57893996357E+03  0.82919563852E+02 0.  0.
         25    2    1    2    0    0  0.10219450987E+03 -0.80832993841E+02 -0.82818464381E+03  0.84765179174E+03  0.12508423183E+03 0.  0.
        -24    2    1    2    0    0 -0.53003026364E+02  0.22088668513E+02 -0.14220719802E+02  0.10005561810E+03  0.80694905422E+02 0.  0.
        -11    1    3    3    0    0 -0.72655470846E+02  0.46741966845E+02 -0.44739768039E+03  0.45566249937E+03  0.00000000000E+00 0.  1.
         12    1    3    3    0    0  0.23463987339E+02  0.12002358483E+02 -0.12042723059E+03  0.12327746420E+03  0.00000000000E+00 0. -1.
         13    1    5    5    0    0  0.21652952795E+02  0.59857640120E+01 -0.56961197641E+00  0.22472298355E+02  0.00000000000E+00 0. -1.
        -14    1    5    5    0    0 -0.74655979160E+02  0.16102904501E+02 -0.13651107826E+02  0.77583319744E+02  0.00000000000E+00 0.  1.
          5    1    4    4  501    0 -0.26588064601E+02 -0.28871228502E+02 -0.24411402842E+03  0.24728446026E+03  0.41800000000E+01 0. -1.
         -5    1    4    4    0  501  0.12878257447E+03 -0.51961765340E+02 -0.58407061539E+03  0.60036733148E+03  0.41800000000E+01 0. -1.
</event>
<event>
11    1  0.8551154E-009  0.1550187E+03  0.7561462E-02  0.1091858E+00
         22   -1    0    0    0    0  0.00000000000E+00  0.00000000000E+00  0.78247382594E+03  0.78247382594E+03  0.00000000000E+00 0. -1.
         22   -1    0    0    0    0 -0.00000000000E+00 -0.00000000000E+00 -0.77640098711E+03  0.77640098711E+03  0.00000000000E+00 0.  1.
         24    2    1    2    0    0  0.47243880817E+02 -0.77974395075E+02 -0.73989498638E+03  0.75060091968E+03  0.87436600973E+02 0.  0.
         25    2    1    2    0    0 -0.24536930490E+02  0.11505683381E+03  0.24576479744E+03  0.29981422132E+03  0.12509234862E+03 0.  0.
        -24    2    1    2    0    0 -0.22706950327E+02 -0.37082438732E+02  0.50020302777E+03  0.50845967205E+03  0.80233760075E+02 0.  0.
        -13    1    3    3    0    0  0.60413566721E+02 -0.80346650146E+02 -0.71753545260E+03  0.72454296558E+03  0.00000000000E+00 0.  1.
         14    1    3    3    0    0 -0.13169685904E+02  0.23722550707E+01 -0.22359533780E+02  0.26057954099E+02  0.00000000000E+00 0. -1.
         13    1    5    5    0    0 -0.33669694813E+02 -0.34478458797E+02  0.49240283201E+03  0.49475545620E+03  0.00000000000E+00 0. -1.
        -14    1    5    5    0    0  0.10962744486E+02 -0.26039799351E+01  0.78001957634E+01  0.13704215852E+02  0.00000000000E+00 0.  1.
          5    1    4    4  501    0  0.20136080936E+02  0.21450570699E+02  0.16670146440E+03  0.16932938131E+03  0.41800000000E+01 0.  1.
         -5    1    4    4    0  501 -0.44673011426E+02  0.93606263109E+02  0.79063333032E+02  0.13048484001E+03  0.41800000000E+01 0.  1.
</event>
<event>
11    1  0.8551154E-009  0.1429859E+03  0.7561462E-02  0.1104269E+00
         22   -1    0    0    0    0  0.00000000000E+00  0.00000000000E+00  0.20194218517E+03  0.20194218517E+03  0.00000000000E+00 0.  1.
         22   -1    0    0    0    0 -0.00000000000E+00 -0.00000000000E+00 -0.81167217166E+03  0.81167217166E+03  0.00000000000E+00 0. -1.
        -24    2    1    2    0    0  0.15334891500E+01  0.61965230750E+02 -0.42710153074E+03  0.43881088931E+03  0.79355135983E+02 0.  0.
         25    2    1    2    0    0  0.23018823562E+02 -0.89029072060E+02 -0.35158004951E+03  0.38433240105E+03  0.12508725505E+03 0.  0.
         24    2    1    2    0    0 -0.24552312712E+02  0.27063841310E+02  0.16895159376E+03  0.19047106646E+03  0.79995740897E+02 0.  0.
        -13    1    5    5    0    0 -0.95076842362E+01  0.30681428798E-01  0.15702757540E+03  0.15731515006E+03  0.00000000000E+00 0.  1.
         14    1    5    5    0    0 -0.15044628476E+02  0.27033159881E+02  0.11924018354E+02  0.33155916408E+02  0.00000000000E+00 0. -1.
         11    1    3    3    0    0 -0.31139051143E+01  0.77790132110E+02 -0.39626900830E+03  0.40384418777E+03  0.00000000000E+00 0. -1.
        -12    1    3    3    0    0  0.46473942643E+01 -0.15824901360E+02 -0.30832522445E+02  0.34966701544E+02  0.00000000000E+00 0.  1.
          5    1    4    4  501    0  0.43049457205E+02 -0.10447866125E+03 -0.33555796529E+03  0.35409838589E+03  0.41800000000E+01 0. -1.
         -5    1    4    4    0  501 -0.20030633643E+02  0.15449589185E+02 -0.16022084222E+02  0.30234015164E+02  0.41800000000E+01 0. -1.
</event>
<event>
11    1  0.8551154E-009  0.1493766E+03  0.7561462E-02  0.1097518E+00
         22   -1    0    0    0    0  0.00000000000E+00  0.00000000000E+00  0.13377645744E+03  0.13377645744E+03  0.00000000000E+00 0.  1.
         22   -1    0    0    0    0 -0.00000000000E+00 -0.00000000000E+00 -0.13253747560E+04  0.13253747560E+04  0.00000000000E+00 0. -1.
        -24    2    1    2    0    0  0.78430580833E+02  0.26780531449E+02 -0.93437700762E+03  0.94132242547E+03  0.78479063778E+02 0.  0.
         25    2    1    2    0    0 -0.12764505525E+02 -0.80553887944E+02 -0.34161327874E+03  0.37282640234E+03  0.12509209649E+03 0.  0.
         24    2    1    2    0    0 -0.65666075308E+02  0.53773356496E+02  0.84391987746E+02  0.14500238568E+03  0.81853997711E+02 0.  0.
        -11    1    5    5    0    0 -0.81022907802E+02  0.60446904631E+02  0.74256470675E+02  0.12542951529E+03  0.00000000000E+00 0.  1.
         12    1    5    5    0    0  0.15356832494E+02 -0.66735481357E+01  0.10135517071E+02  0.19572870389E+02  0.00000000000E+00 0. -1.
         13    1    3    3    0    0  0.72914634873E+02  0.38493012087E+02 -0.50000977539E+03  0.50676230271E+03  0.00000000000E+00 0. -1.
        -14    1    3    3    0    0  0.55159459598E+01 -0.11712480639E+02 -0.43436723223E+03  0.43456012276E+03  0.00000000000E+00 0.  1.
          5    1    4    4  501    0 -0.30786203075E+02  0.26295677880E+02 -0.85065149338E+02  0.94301670223E+02  0.41800000000E+01 0.  1.
         -5    1    4    4    0  501  0.18021697549E+02 -0.10684956582E+03 -0.25654812941E+03  0.27852473212E+03  0.41800000000E+01 0.  1.
</event>
<event>
11    1  0.8551154E-009  0.1594717E+03  0.7561462E-02  0.1087575E+00
         22   -1    0    0    0    0  0.00000000000E+00  0.00000000000E+00  0.11626712268E+04  0.11626712268E+04  0.00000000000E+00 0. -1.
         22   -1    0    0    0    0 -0.00000000000E+00 -0.00000000000E+00 -0.95104636052E+03  0.95104636052E+03  0.00000000000E+00 0. -1.
        -24    2    1    2    0    0  0.38968936416E+02  0.46586332894E+02 -0.91444160657E+03  0.91995721814E+03  0.80180839174E+02 0.  0.
         25    2    1    2    0    0 -0.12127273935E+03  0.53129197196E+01  0.23491060430E+03  0.29251456431E+03  0.12508586610E+03 0.  0.
         24    2    1    2    0    0  0.82303802939E+02 -0.51899252614E+02  0.89115586853E+03  0.90124580484E+03  0.92831946740E+02 0.  0.
        -11    1    5    5    0    0  0.52809852373E+01  0.25019833248E+02  0.18003795724E+03  0.18184484295E+03  0.00000000000E+00 0.  1.
         12    1    5    5    0    0  0.77022817701E+02 -0.76919085862E+02  0.71111791128E+03  0.71940096189E+03  0.00000000000E+00 0. -1.
         13    1    3    3    0    0  0.33448905457E+02  0.89666434356E+01 -0.76402234010E+03  0.76480675085E+03  0.00000000000E+00 0. -1.
        -14    1    3    3    0    0  0.55200309586E+01  0.37619689459E+02 -0.15041926647E+03  0.15515046730E+03  0.00000000000E+00 0.  1.
          5    1    4    4  501    0 -0.78711490177E+02 -0.22157135256E+02  0.40076315958E+02  0.91159315647E+02  0.41800000000E+01 0.  1.
         -5    1    4    4    0  501 -0.42561249178E+02  0.27470054976E+02  0.19483428834E+03  0.20135524866E+03  0.41800000000E+01 0.  1.
</event>
<event>
11    1  0.8551154E-009  0.1334828E+03  0.7561462E-02  0.1115062E+00
         22   -1    0    0    0    0  0.00000000000E+00  0.00000000000E+00  0.14628344314E+04  0.14628344314E+04  0.00000000000E+00 0. -1.
         22   -1    0    0    0    0 -0.00000000000E+00 -0.00000000000E+00 -0.56371460095E+03  0.56371460095E+03  0.00000000000E+00 0.  1.
        -24    2    1    2    0    0  0.21397366477E+02  0.14998192512E+02 -0.52480032536E+03  0.53153537214E+03  0.80197738530E+02 0.  0.
         25    2    1    2    0    0  0.13165772918E+02  0.17782710529E+02  0.84201839903E+02  0.15240403740E+03  0.12508988130E+03 0.  0.
         24    2    1    2    0    0 -0.34563139394E+02 -0.32780903041E+02  0.13397183159E+04  0.13426096228E+04  0.74069123543E+02 0.  0.
        -11    1    5    5    0    0 -0.48477608971E+02 -0.28813791107E+02  0.57596615188E+03  0.57872041716E+03  0.00000000000E+00 0.  1.
         12    1    5    5    0    0  0.13914469577E+02 -0.39671119337E+01  0.76375216399E+03  0.76388920561E+03  0.00000000000E+00 0. -1.
         13    1    3    3    0    0  0.47131626303E+02 -0.10085116978E+02 -0.28180335225E+03  0.28589548636E+03  0.00000000000E+00 0. -1.
        -14    1    3    3    0    0 -0.25734259826E+02  0.25083309490E+02 -0.24299697311E+03  0.24563988578E+03  0.00000000000E+00 0.  1.
          5    1    4    4  501    0 -0.27624772074E+02  0.51596188536E+02  0.79834154555E+02  0.99077037385E+02  0.41800000000E+01 0.  1.
         -5    1    4    4    0  501  0.40790544991E+02 -0.33813478007E+02  0.43676853481E+01  0.53327000018E+02  0.41800000000E+01 0.  1.
</event>
<event>
11    1  0.8551154E-009  0.1458066E+03  0.7561462E-02  0.1101242E+00
         22   -1    0    0    0    0  0.00000000000E+00  0.00000000000E+00  0.14618791031E+03  0.14618791031E+03  0.00000000000E+00 0. -1.
         22   -1    0    0    0    0 -0.00000000000E+00 -0.00000000000E+00 -0.21331641997E+04  0.21331641997E+04  0.00000000000E+00 0. -1.
         24    2    1    2    0    0 -0.52241606555E+02  0.59775256153E+02 -0.17813543996E+04  0.17849904841E+04  0.81641072484E+02 0.  0.
         25    2    1    2    0    0 -0.28274388649E+02 -0.67302519848E+02 -0.30887603660E+03  0.34115159274E+03  0.12510368906E+03 0.  0.
        -24    2    1    2    0    0  0.80515995205E+02  0.75272636945E+01  0.10325414685E+03  0.15321003310E+03  0.79198549334E+02 0.  0.
        -13    1    3    3    0    0 -0.30533360260E+02  0.22045274393E+02 -0.23296516778E+03  0.23598951165E+03  0.00000000000E+00 0.  1.
         14    1    3    3    0    0 -0.21708246295E+02  0.37729981761E+02 -0.15483892318E+04  0.15490009725E+04  0.00000000000E+00 0. -1.
         13    1    5    5    0    0  0.94279344355E+02  0.11961848519E+02  0.10081208306E+03  0.13854514312E+03  0.00000000000E+00 0. -1.
        -14    1    5    5    0    0 -0.13763349150E+02 -0.44345848244E+01  0.24420637930E+01  0.14664889974E+02  0.00000000000E+00 0.  1.
          5    1    4    4  501    0 -0.20571034035E+02 -0.54878568263E+01 -0.26245919420E+03  0.26335448551E+03  0.41800000000E+01 0. -1.
         -5    1    4    4    0  501 -0.77033546139E+01 -0.61814663021E+02 -0.46416842392E+02  0.77797107237E+02  0.41800000000E+01 0. -1.
</event>
<event>
11    1  0.8551154E-009  0.1307925E+03  0.7561462E-02  0.1118299E+00
         22   -1    0    0    0    0  0.00000000000E+00  0.00000000000E+00  0.25258591827E+04  0.25258591827E+04  0.00000000000E+00 0. -1.
         22   -1    0    0    0    0 -0.00000000000E+00 -0.00000000000E+00 -0.33926569523E+03  0.33926569523E+03  0.00000000000E+00 0. -1.
        -24    2    1    2    0    0 -0.37457704151E+02  0.64011396408E+01 -0.31772922377E+03  0.32977791718E+03  0.79734314034E+02 0.  0.
         25    2    1    2    0    0  0.51652964274E+02  0.19527073470E+02  0.30315651774E+03  0.33256869337E+03  0.12509486899E+03 0.  0.
         24    2    1    2    0    0 -0.14195260123E+02 -0.25928213111E+02  0.22011661935E+04  0.22027782674E+04  0.78903144341E+02 0.  0.
        -13    1    5    5    0    0 -0.18889607928E+02  0.16417575478E+02  0.27385338131E+03  0.27499459727E+03  0.00000000000E+00 0.  1.
         14    1    5    5    0    0  0.46943478047E+01 -0.42345788589E+02  0.19273128122E+04  0.19277836701E+04  0.00000000000E+00 0. -1.
         11    1    3    3    0    0 -0.51700295920E+02  0.25570827557E+02 -0.27347332207E+03  0.27948961645E+03  0.00000000000E+00 0. -1.
        -12    1    3    3    0    0  0.14242591770E+02 -0.19169687916E+02 -0.44255901703E+02  0.50288300733E+02  0.00000000000E+00 0.  1.
          5    1    4    4  501    0  0.41137929819E+02  0.54302410337E+02  0.28237425316E+03  0.29050606239E+03  0.41800000000E+01 0.  1.
         -5    1    4    4    0  501  0.10515034455E+02 -0.34775336866E+02  0.20782264572E+02  0.42062630975E+02  0.41800000000E+01 0.  1.
</event>
<event>
11    1  0.8551154E-009  0.1340635E+03  0.7561462E-02  0.1114375E+00
         22   -1    0    0    0    0  0.00000000000E+00  0.00000000000E+00  0.76382183623E+03  0.76382183623E+03  0.00000000000E+00 0. -1.
         22   -1    0    0    0    0 -0.00000000000E+00 -0.00000000000E+00 -0.15440261464E+04  0.15440261464E+04  0.00000000000E+00 0. -1.
         24    2    1    2    0    0 -0.38390198297E+02 -0.28798702849E+02 -0.15133240109E+04  0.15161696212E+04  0.79483241578E+02 0.  0.
         25    2    1    2    0    0  0.80405456032E+02  0.31681141277E+02  0.20028154242E+03  0.25145573422E+03  0.12509419638E+03 0.  0.
        -24    2    1    2    0    0 -0.42015257735E+02 -0.28824384278E+01  0.53283815838E+03  0.54022262713E+03  0.78424444509E+02 0.  0.
        -13    1    3    3    0    0 -0.60826072446E+00 -0.25320687505E+02 -0.13693024844E+03  0.13925300763E+03  0.00000000000E+00 0.  1.
         14    1    3    3    0    0 -0.37781937572E+02 -0.34780153441E+01 -0.13763937625E+04  0.13769166136E+04  0.00000000000E+00 0. -1.
         11    1    5    5    0    0 -0.46245248560E+02  0.19046966418E+02  0.48332179989E+03  0.48590263654E+03  0.00000000000E+00 0. -1.
        -12    1    5    5    0    0  0.42299908246E+01 -0.21929404845E+02  0.49516358488E+02  0.54319990585E+02  0.00000000000E+00 0.  1.
          5    1    4    4  501    0  0.10712910792E+03  0.31681344567E+02  0.19365544788E+03  0.22360737521E+03  0.41800000000E+01 0. -1.
         -5    1    4    4    0  501 -0.26723651892E+02 -0.20328999168E-03  0.66260945406E+01  0.27848359007E+02  0.41800000000E+01 0. -1.
</event>
<event>
11    1  0.8551154E-009  0.2547595E+03  0.7561462E-02  0.1021394E+00
         22   -1    0    0    0    0  0.00000000000E+00  0.00000000000E+00  0.31486755261E+03  0.31486755261E+03  0.00000000000E+00 0. -1.
         22   -1    0    0    0    0 -0.00000000000E+00 -0.00000000000E+00 -0.47329070067E+03  0.47329070067E+03  0.00000000000E+00 0. -1.
        -24    2    1    2    0    0  0.12527727454E+02  0.27844400905E+02 -0.24455383557E+03  0.26065950220E+03  0.84879579271E+02 0.  0.
         25    2    1    2    0    0  0.76389725671E+02  0.18613198517E+03 -0.56384851396E+02  0.24353061172E+03  0.12508957304E+03 0.  0.
         24    2    1    2    0    0 -0.88917453125E+02 -0.21397638608E+03  0.14251553890E+03  0.28396813936E+03  0.81455620296E+02 0.  0.
        -13    1    5    5    0    0 -0.34888103459E+01 -0.42931707342E+02 -0.37617877575E+01  0.43237187005E+02  0.00000000000E+00 0.  1.
         14    1    5    5    0    0 -0.85428642779E+02 -0.17104467874E+03  0.14627732665E+03  0.24073095236E+03  0.00000000000E+00 0. -1.
         13    1    3    3    0    0 -0.11491817085E+02  0.37530173745E+02 -0.46199541935E+02  0.60621559500E+02  0.00000000000E+00 0. -1.
        -14    1    3    3    0    0  0.24019544539E+02 -0.96857728400E+01 -0.19835429363E+03  0.20003794270E+03  0.00000000000E+00 0.  1.
          5    1    4    4  501    0  0.24061628276E+02  0.45585288913E+02  0.39850818770E+02  0.65288135807E+02  0.41800000000E+01 0. -1.
         -5    1    4    4    0  501  0.52328097395E+02  0.14054669626E+03 -0.96235670166E+02  0.17824247591E+03  0.41800000000E+01 0. -1.
</event>
<event>
11    1  0.8551154E-009  0.1415950E+03  0.7561462E-02  0.1105790E+00
         22   -1    0    0    0    0  0.00000000000E+00  0.00000000000E+00  0.13059988185E+04  0.13059988185E+04  0.00000000000E+00 0.  1.
         22   -1    0    0    0    0 -0.00000000000E+00 -0.00000000000E+00 -0.60428526870E+02  0.60428526870E+02  0.00000000000E+00 0.  1.
        -24    2    1    2    0    0  0.74144139478E+02  0.19036849040E+02  0.57060573166E+02  0.12466184853E+03  0.80155551457E+02 0.  0.
         25    2    1    2    0    0 -0.25327049169E+02 -0.55404800170E+02  0.17850144462E+03  0.22632142812E+03  0.12508985488E+03 0.  0.
         24    2    1    2    0    0 -0.48817090310E+02  0.36367951131E+02  0.10100082739E+04  0.10154440688E+04  0.85464655188E+02 0.  0.
        -11    1    5    5    0    0 -0.17218106877E+01 -0.17160739995E+02  0.51899330654E+03  0.51927979728E+03  0.00000000000E+00 0.  1.
         12    1    5    5    0    0 -0.47095279622E+02  0.53528691126E+02  0.49101496734E+03  0.49616427148E+03  0.00000000000E+00 0. -1.
         11    1    3    3    0    0 -0.34982117698E+01 -0.10707822287E+02  0.37625566035E+02  0.39275668844E+02  0.00000000000E+00 0. -1.
        -12    1    3    3    0    0  0.77642351248E+02  0.29744671327E+02  0.19435007131E+02  0.85386179689E+02  0.00000000000E+00 0.  1.
          5    1    4    4  501    0 -0.11506465383E+02 -0.91876832438E+02  0.88547907817E+02  0.12818718915E+03  0.41800000000E+01 0.  1.
         -5    1    4    4    0  501 -0.13820583786E+02  0.36472032267E+02  0.89953536806E+02  0.98134238968E+02  0.41800000000E+01 0.  1.
</event>
<event>
11    1  0.8551154E-009  0.1363389E+03  0.7561462E-02  0.1111717E+00
         22   -1    0    0    0    0  0.00000000000E+00  0.00000000000E+00  0.14216965457E+04  0.14216965457E+04  0.00000000000E+00 0.  1.
         22   -1    0    0    0    0 -0.00000000000E+00 -0.00000000000E+00 -0.54909973171E+03  0.54909973171E+03  0.00000000000E+00 0. -1.
        -24    2    1    2    0    0  0.40796214479E+02  0.14545605005E+02 -0.52525170954E+03  0.53227402413E+03  0.74500823163E+02 0.  0.
         25    2    1    2    0    0 -0.90702286771E+02 -0.10650882070E+02  0.31116271849E+03  0.34757732818E+03  0.12508963014E+03 0.  0.
         24    2    1    2    0    0  0.49906072292E+02 -0.38947229359E+01  0.10866858050E+04  0.10909449251E+04  0.82273967944E+02 0.  0.
        -11    1    5    5    0    0  0.21041577798E+02 -0.17340346721E+02  0.95765619425E+03  0.95804426933E+03  0.00000000000E+00 0.  1.
         12    1    5    5    0    0  0.28864494494E+02  0.13445623785E+02  0.12902961080E+03  0.13290065577E+03  0.00000000000E+00 0. -1.
         13    1    3    3    0    0 -0.16815235941E+02 -0.44438052301E+01 -0.24074386506E+03  0.24137130759E+03  0.00000000000E+00 0. -1.
        -14    1    3    3    0    0  0.57611450420E+02  0.18989410236E+02 -0.28450784448E+03  0.29090271654E+03  0.00000000000E+00 0.  1.
          5    1    4    4  501    0 -0.90798414328E+02 -0.31503120357E+02  0.11354185363E+03  0.14881540096E+03  0.41800000000E+01 0.  1.
         -5    1    4    4    0  501  0.96127557147E-01  0.20852238287E+02  0.19762086486E+03  0.19876192722E+03  0.41800000000E+01 0.  1.
</event>
<event>
11    1  0.8551154E-009  0.1312060E+03  0.7561462E-02  0.1117796E+00
         22   -1    0    0    0    0  0.00000000000E+00  0.00000000000E+00  0.19308652334E+03  0.19308652334E+03  0.00000000000E+00 0. -1.
         22   -1    0    0    0    0 -0.00000000000E+00 -0.00000000000E+00 -0.17528923494E+04  0.17528923494E+04  0.00000000000E+00 0. -1.
         24    2    1    2    0    0 -0.46088857589E+01  0.13456349700E+02 -0.16853124306E+04  0.16873260925E+04  0.81172892877E+02 0.  0.
         25    2    1    2    0    0 -0.28391039007E+02  0.15044965627E+02  0.49431985505E+02  0.13828800442E+03  0.12509056275E+03 0.  0.
        -24    2    1    2    0    0  0.32999924766E+02 -0.28501315327E+02  0.76074619059E+02  0.12036477579E+03  0.82456119100E+02 0.  0.
        -13    1    3    3    0    0  0.35812261747E+02  0.85776157632E+01 -0.51983203217E+03  0.52113475729E+03  0.00000000000E+00 0.  1.
         14    1    3    3    0    0 -0.40421147506E+02  0.48787339366E+01 -0.11654803985E+04  0.11661913353E+04  0.00000000000E+00 0. -1.
         11    1    5    5    0    0 -0.32846334874E+01 -0.50600956103E+02  0.43919784268E+02  0.67083478039E+02  0.00000000000E+00 0. -1.
        -12    1    5    5    0    0  0.36284558253E+02  0.22099640776E+02  0.32154834791E+02  0.53281297755E+02  0.00000000000E+00 0.  1.
          5    1    4    4  501    0  0.31970311448E+02 -0.32486069229E+02  0.39969425952E+02  0.60765721579E+02  0.41800000000E+01 0.  1.
         -5    1    4    4    0  501 -0.60361350455E+02  0.47531034856E+02  0.94625595524E+01  0.77522282839E+02  0.41800000000E+01 0.  1.
</event>
<event>
11    1  0.8551154E-009  0.1716440E+03  0.7561462E-02  0.1076610E+00
         22   -1    0    0    0    0  0.00000000000E+00  0.00000000000E+00  0.96094846633E+03  0.96094846633E+03  0.00000000000E+00 0.  1.
         22   -1    0    0    0    0 -0.00000000000E+00 -0.00000000000E+00 -0.21053631345E+04  0.21053631345E+04  0.00000000000E+00 0. -1.
        -24    2    1    2    0    0  0.30970382333E+02  0.32982434161E+02 -0.20213964983E+04  0.20234719304E+04  0.79673360072E+02 0.  0.
         25    2    1    2    0    0 -0.65331347848E+02  0.81070433814E+02  0.89572638902E+01  0.16299637457E+03  0.12508791027E+03 0.  0.
         24    2    1    2    0    0  0.34360965514E+02 -0.11405286797E+03  0.86802456623E+03  0.87984329585E+03  0.80429130495E+02 0.  0.
        -13    1    5    5    0    0  0.11698613952E+02 -0.11896534856E+03  0.76136979726E+03  0.77069681451E+03  0.00000000000E+00 0.  1.
         14    1    5    5    0    0  0.22662351563E+02  0.49124805842E+01  0.10665476898E+03  0.10914648134E+03  0.00000000000E+00 0. -1.
         13    1    3    3    0    0  0.45196562426E+02  0.48987325208E+02 -0.17331404802E+04  0.17344216360E+04  0.00000000000E+00 0. -1.
        -14    1    3    3    0    0 -0.14226180093E+02 -0.16004891046E+02 -0.28825601809E+03  0.28905029442E+03  0.00000000000E+00 0.  1.
          5    1    4    4  501    0 -0.73567702287E+02  0.47530751924E+01 -0.26352027390E+02  0.78400894709E+02  0.41800000000E+01 0.  1.
         -5    1    4    4    0  501  0.82363544398E+01  0.76317358621E+02  0.35309291280E+02  0.84595479856E+02  0.41800000000E+01 0.  1.
</event>
<event>
11    1  0.8551154E-009  0.1322922E+03  0.7561462E-02  0.1116484E+00
         22   -1    0    0    0    0  0.00000000000E+00  0.00000000000E+00  0.91400239994E+03  0.91400239994E+03  0.00000000000E+00 0. -1.
         22   -1    0    0    0    0 -0.00000000000E+00 -0.00000000000E+00 -0.61189138887E+03  0.61189138887E+03  0.00000000000E+00 0.  1.
        -24    2    1    2    0    0  0.45872356099E+01  0.54672224092E+01 -0.50434587643E+03  0.51025830571E+03  0.77122255041E+02 0.  0.
         25    2    1    2    0    0 -0.24601810626E+01  0.37642236960E+02 -0.60326821626E+02  0.14391718452E+03  0.12509932093E+03 0.  0.
         24    2    1    2    0    0 -0.21270545473E+01 -0.43109459369E+02  0.86678370912E+03  0.87171829858E+03  0.81950252193E+02 0.  0.
        -11    1    5    5    0    0 -0.10176970713E+02  0.23259016304E+02  0.27537011144E+03  0.27653797361E+03  0.00000000000E+00 0.  1.
         12    1    5    5    0    0  0.80499161655E+01 -0.66368475673E+02  0.59141359768E+03  0.59518032498E+03  0.00000000000E+00 0. -1.
         11    1    3    3    0    0  0.20747019101E+02 -0.17107684919E+02 -0.69405255103E+02  0.74432527303E+02  0.00000000000E+00 0. -1.
        -12    1    3    3    0    0 -0.16159783491E+02  0.22574907328E+02 -0.43494062133E+03  0.43582577841E+03  0.00000000000E+00 0.  1.
          5    1    4    4  501    0  0.29449251636E+02 -0.35144650357E+02 -0.41842587659E+02  0.62214784518E+02  0.41800000000E+01 0.  1.
         -5    1    4    4    0  501 -0.31909432698E+02  0.72786887317E+02 -0.18484233967E+02  0.81702400000E+02  0.41800000000E+01 0.  1.
</event>
<event>
11    1  0.8551154E-009  0.1383785E+03  0.7561462E-02  0.1109383E+00
         22   -1    0    0    0    0  0.00000000000E+00  0.00000000000E+00  0.32712857863E+03  0.32712857863E+03  0.00000000000E+00 0. -1.
         22   -1    0    0    0    0 -0.00000000000E+00 -0.00000000000E+00 -0.47220674834E+03  0.47220674834E+03  0.00000000000E+00 0. -1.
         24    2    1    2    0    0  0.18451373245E+02  0.54390842009E+02 -0.39512157793E+03  0.40730612138E+03  0.80488497918E+02 0.  0.
         25    2    1    2    0    0  0.66501493310E-01 -0.91061557306E+02  0.34908634996E+02  0.15861550681E+03  0.12509218426E+03 0.  0.
        -24    2    1    2    0    0 -0.18517874738E+02  0.36670715297E+02  0.21513477322E+03  0.23341369878E+03  0.80692819298E+02 0.  0.
        -11    1    3    3    0    0  0.32064083935E+02  0.22371087402E+02 -0.68783656881E+02  0.79118660783E+02  0.00000000000E+00 0.  1.
         12    1    3    3    0    0 -0.13612710691E+02  0.32019754607E+02 -0.32633792105E+03  0.32818746059E+03  0.00000000000E+00 0. -1.
         11    1    5    5    0    0 -0.40556201744E+02  0.43026064175E+02  0.19174570226E+03  0.20065508226E+03  0.00000000000E+00 0. -1.
        -12    1    5    5    0    0  0.22038327006E+02 -0.63553488779E+01  0.23389070951E+02  0.32758616524E+02  0.00000000000E+00 0.  1.
          5    1    4    4  501    0  0.45955109466E+01 -0.11141809905E+03 -0.67986821237E+01  0.11179805900E+03  0.41800000000E+01 0. -1.
         -5    1    4    4    0  501 -0.45290094533E+01  0.20356541747E+02  0.41707317119E+02  0.46817447814E+02  0.41800000000E+01 0. -1.
</event>
<event>
11    1  0.8551154E-009  0.1427878E+03  0.7561462E-02  0.1104485E+00
         22   -1    0    0    0    0  0.00000000000E+00  0.00000000000E+00  0.99061697789E+02  0.99061697789E+02  0.00000000000E+00 0. -1.
         22   -1    0    0    0    0 -0.00000000000E+00 -0.00000000000E+00 -0.29043018556E+04  0.29043018556E+04  0.00000000000E+00 0. -1.
        -24    2    1    2    0    0  0.21918157020E+02  0.59708193393E+02 -0.25589913262E+04  0.25610303253E+04  0.79964029168E+02 0.  0.
         25    2    1    2    0    0 -0.82976133914E+02 -0.26320094158E+02 -0.28049510092E+03  0.31922177733E+03  0.12508898962E+03 0.  0.
         24    2    1    2    0    0  0.61057976894E+02 -0.33388099235E+02  0.34246269254E+02  0.12311145074E+03  0.95607429798E+02 0.  0.
        -13    1    5    5    0    0  0.40211950253E+02 -0.41308359850E+02 -0.22698111184E+02  0.61956321614E+02  0.00000000000E+00 0.  1.
         14    1    5    5    0    0  0.20846026640E+02  0.79202606145E+01  0.56944380438E+02  0.61155129126E+02  0.00000000000E+00 0. -1.
         11    1    3    3    0    0  0.20807193134E+02  0.59110795963E+02 -0.25590017035E+04  0.25597688848E+04  0.00000000000E+00 0. -1.
        -12    1    3    3    0    0  0.11109638856E+01  0.59739743074E+00  0.10377295820E-01  0.12614404994E+01  0.00000000000E+00 0.  1.
          5    1    4    4  501    0  0.25313803574E+02  0.12796333483E+02 -0.21758051073E+02  0.35991943383E+02  0.41800000000E+01 0.  1.
         -5    1    4    4    0  501 -0.10828993749E+03 -0.39116427641E+02 -0.25873704985E+03  0.28322983395E+03  0.41800000000E+01 0.  1.
</event>
<event>
11    1  0.8551154E-009  0.1492636E+03  0.7561462E-02  0.1097634E+00
         22   -1    0    0    0    0  0.00000000000E+00  0.00000000000E+00  0.98483322243E+03  0.98483322243E+03  0.00000000000E+00 0.  1.
         22   -1    0    0    0    0 -0.00000000000E+00 -0.00000000000E+00 -0.32466113968E+03  0.32466113968E+03  0.00000000000E+00 0. -1.
         24    2    1    2    0    0  0.11119040739E+02 -0.31209753412E+01 -0.22572518239E+03  0.24025420871E+03  0.81466884566E+02 0.  0.
         25    2    1    2    0    0 -0.68592620083E+02 -0.54261709227E+02 -0.21972583791E+02  0.15420624954E+03  0.12508993701E+03 0.  0.
        -24    2    1    2    0    0  0.57473579344E+02  0.57382684568E+02  0.90786984893E+03  0.91503390386E+03  0.80395259812E+02 0.  0.
        -13    1    3    3    0    0  0.16651254075E+02 -0.31948615036E+02 -0.47444366544E+02  0.59573032336E+02  0.00000000000E+00 0.  1.
         14    1    3    3    0    0 -0.55322133358E+01  0.28827639695E+02 -0.17828081585E+03  0.18068117637E+03  0.00000000000E+00 0. -1.
         11    1    5    5    0    0  0.51715960320E+02  0.67106882456E+02  0.50890799991E+03  0.51591203378E+03  0.00000000000E+00 0. -1.
        -12    1    5    5    0    0  0.57576190238E+01 -0.97241978882E+01  0.39896184903E+03  0.39912187008E+03  0.00000000000E+00 0.  1.
          5    1    4    4  501    0 -0.99761739077E+02 -0.30533700851E+02 -0.38770150346E+02  0.11137912026E+03  0.41800000000E+01 0. -1.
         -5    1    4    4    0  501  0.31169118994E+02 -0.23728008375E+02  0.16797566555E+02  0.42827129282E+02  0.41800000000E+01 0. -1.
</event>
<event>
11    1  0.8551154E-009  0.1313627E+03  0.7561462E-02  0.1117606E+00
         22   -1    0    0    0    0  0.00000000000E+00  0.00000000000E+00  0.10341375781E+04  0.10341375781E+04  0.00000000000E+00 0. -1.
         22   -1    0    0    0    0 -0.00000000000E+00 -0.00000000000E+00 -0.12869131505E+03  0.12869131505E+03  0.00000000000E+00 0.  1.
         24    2    1    2    0    0 -0.31375920765E+01  0.24985524012E+02 -0.94431191015E+02  0.12572783470E+03  0.79095623693E+02 0.  0.
         25    2    1    2    0    0 -0.33696988603E+02 -0.37871419973E+02  0.27803491082E+03  0.30906342297E+03  0.12508819404E+03 0.  0.
        -24    2    1    2    0    0  0.36834580680E+02  0.12885895960E+02  0.72184254320E+03  0.72803763544E+03  0.86367290077E+02 0.  0.
        -13    1    3    3    0    0 -0.36019443301E+02  0.14207424990E+02 -0.78714861201E+02  0.87722748443E+02  0.00000000000E+00 0.  1.
         14    1    3    3    0    0  0.32881851224E+02  0.10778099023E+02 -0.15716329813E+02  0.38005086255E+02  0.00000000000E+00 0. -1.
         11    1    5    5    0    0 -0.22938427874E+02 -0.13972091134E+02  0.29145569952E+03  0.29269064828E+03  0.00000000000E+00 0. -1.
        -12    1    5    5    0    0  0.59773008554E+02  0.26857987094E+02  0.43038684368E+03  0.43534698716E+03  0.00000000000E+00 0.  1.
          5    1    4    4  501    0 -0.37540716700E+02  0.41077880893E+02  0.11297791900E+03  0.12600865165E+03  0.41800000000E+01 0. -1.
         -5    1    4    4    0  501  0.38437280969E+01 -0.78949300865E+02  0.16505699183E+03  0.18305477132E+03  0.41800000000E+01 0. -1.
</event>
<event>
11    1  0.8551154E-009  0.1332823E+03  0.7561462E-02  0.1115301E+00
         22   -1    0    0    0    0  0.00000000000E+00  0.00000000000E+00  0.27649609710E+03  0.27649609710E+03  0.00000000000E+00 0. -1.
         22   -1    0    0    0    0 -0.00000000000E+00 -0.00000000000E+00 -0.71994654629E+03  0.71994654629E+03  0.00000000000E+00 0.  1.
         24    2    1    2    0    0 -0.17421249000E+02 -0.20085822497E+02 -0.62700594243E+03  0.63224587869E+03  0.76755840753E+02 0.  0.
         25    2    1    2    0    0  0.47739120914E+02 -0.14962456296E+02 -0.23712433063E+02  0.13679258832E+03  0.12508810484E+03 0.  0.
        -24    2    1    2    0    0 -0.30317871914E+02  0.35048278793E+02  0.20726792630E+03  0.22740417639E+03  0.81271833755E+02 0.  0.
        -13    1    3    3    0    0 -0.46922807061E+02 -0.57774751770E+01 -0.42111378320E+03  0.42375930367E+03  0.00000000000E+00 0.  1.
         14    1    3    3    0    0  0.29501558061E+02 -0.14308347320E+02 -0.20589215923E+03  0.20848657502E+03  0.00000000000E+00 0. -1.
         11    1    5    5    0    0 -0.26992061743E+02  0.50854619559E+02  0.77030435750E+02  0.96168871052E+02  0.00000000000E+00 0. -1.
        -12    1    5    5    0    0 -0.33258101703E+01 -0.15806340765E+02  0.13023749055E+03  0.13123530533E+03  0.00000000000E+00 0.  1.
          5    1    4    4  501    0  0.41897419153E+02 -0.62304747574E+02  0.13180498835E+02  0.76344438249E+02  0.41800000000E+01 0.  1.
         -5    1    4    4    0  501  0.58417017608E+01  0.47342291277E+02 -0.36892931898E+02  0.60448150070E+02  0.41800000000E+01 0.  1.
</event>
<event>
11    1  0.8551154E-009  0.1397967E+03  0.7561462E-02  0.1107786E+00
         22   -1    0    0    0    0  0.00000000000E+00  0.00000000000E+00  0.21353965717E+04  0.21353965717E+04  0.00000000000E+00 0. -1.
         22   -1    0    0    0    0 -0.00000000000E+00 -0.00000000000E+00 -0.10864421368E+04  0.10864421368E+04  0.00000000000E+00 0. -1.
         24    2    1    2    0    0 -0.25765942334E+02 -0.55386261414E+02 -0.96505781775E+03  0.97034549350E+03  0.80636613292E+02 0.  0.
         25    2    1    2    0    0  0.51840988245E+02  0.73860111994E+02 -0.67325037568E+02  0.16827299228E+03  0.12506132512E+03 0.  0.
        -24    2    1    2    0    0 -0.26075045910E+02 -0.18473850580E+02  0.20813372902E+04  0.20832202228E+04  0.82585651357E+02 0.  0.
        -11    1    3    3    0    0 -0.15138819856E+02 -0.76206941925E+02 -0.75866831234E+03  0.76263640748E+03  0.00000000000E+00 0.  1.
         12    1    3    3    0    0 -0.10627122478E+02  0.20820680511E+02 -0.20638950542E+03  0.20770908602E+03  0.00000000000E+00 0. -1.
         11    1    5    5    0    0 -0.38205029309E+00  0.31941759001E+02  0.77428446333E+03  0.77494312829E+03  0.00000000000E+00 0. -1.
        -12    1    5    5    0    0 -0.25692995617E+02 -0.50415609581E+02  0.13070528269E+04  0.13082770945E+04  0.00000000000E+00 0.  1.
          5    1    4    4  501    0 -0.27751617286E+02 -0.47137005106E+00 -0.50805659853E+02  0.58043620880E+02  0.41800000000E+01 0. -1.
         -5    1    4    4    0  501  0.79592605531E+02  0.74331482045E+02 -0.16519377715E+02  0.11022937140E+03  0.41800000000E+01 0. -1.
</event>
<event>
11    1  0.8551154E-009  0.1785971E+03  0.7561462E-02  0.1070783E+00
         22   -1    0    0    0    0  0.00000000000E+00  0.00000000000E+00  0.60994971696E+03  0.60994971696E+03  0.00000000000E+00 0.  1.
         22   -1    0    0    0    0 -0.00000000000E+00 -0.00000000000E+00 -0.85051285910E+03  0.85051285910E+03  0.00000000000E+00 0. -1.
         24    2    1    2    0    0 -0.12445528180E+03  0.13393418099E+02 -0.77319222785E+03  0.78737648767E+03  0.80417730124E+02 0.  0.
         25    2    1    2    0    0  0.20177791800E+03 -0.49016849772E+02  0.18187345147E+03  0.30305681969E+03  0.12509398009E+03 0.  0.
        -24    2    1    2    0    0 -0.77322636199E+02  0.35623431673E+02  0.35075563423E+03  0.37002926870E+03  0.81512733966E+02 0.  0.
        -13    1    3    3    0    0 -0.42388838039E+02 -0.83111970689E+01 -0.10105507805E+03  0.10990003816E+03  0.00000000000E+00 0.  1.
         14    1    3    3    0    0 -0.82066443766E+02  0.21704615168E+02 -0.67213714979E+03  0.67747644951E+03  0.00000000000E+00 0. -1.
         13    1    5    5    0    0 -0.17753147966E+02 -0.19588163096E+02  0.16760522174E+03  0.16967728413E+03  0.00000000000E+00 0. -1.
        -14    1    5    5    0    0 -0.59569488233E+02  0.55211594769E+02  0.18315041249E+03  0.20035198457E+03  0.00000000000E+00 0.  1.
          5    1    4    4  501    0  0.12523704970E+03 -0.71409312857E+02  0.16898577598E+03  0.22216496903E+03  0.41800000000E+01 0.  1.
         -5    1    4    4    0  501  0.76540868306E+02  0.22392463085E+02  0.12887675490E+02  0.80891850662E+02  0.41800000000E+01 0.  1.
</event>
<event>
11    1  0.8551154E-009  0.1465907E+03  0.7561462E-02  0.1100414E+00
         22   -1    0    0    0    0  0.00000000000E+00  0.00000000000E+00  0.41513157534E+03  0.41513157534E+03  0.00000000000E+00 0. -1.
         22   -1    0    0    0    0 -0.00000000000E+00 -0.00000000000E+00 -0.79502265704E+03  0.79502265704E+03  0.00000000000E+00 0. -1.
         24    2    1    2    0    0  0.15633681249E+02 -0.23521946923E+02 -0.75109863891E+03  0.75591026381E+03  0.80333477392E+02 0.  0.
         25    2    1    2    0    0 -0.86279104632E+02  0.23462514944E+02  0.18927765988E+03  0.24386294470E+03  0.12509408364E+03 0.  0.
        -24    2    1    2    0    0  0.70645423384E+02  0.59431978065E-01  0.18192989733E+03  0.21038102387E+03  0.78555128954E+02 0.  0.
        -13    1    3    3    0    0 -0.70349935727E+01 -0.84675716637E+01 -0.11900840775E+02  0.16211752391E+02  0.00000000000E+00 0.  1.
         14    1    3    3    0    0  0.22668674821E+02 -0.15054375259E+02 -0.73919779813E+03  0.73969851142E+03  0.00000000000E+00 0. -1.
         13    1    5    5    0    0  0.56651904506E+02 -0.23264238874E+02  0.61032487762E+02  0.86461712087E+02  0.00000000000E+00 0. -1.
        -14    1    5    5    0    0  0.13993518878E+02  0.23323670852E+02  0.12089740957E+03  0.12391931179E+03  0.00000000000E+00 0.  1.
          5    1    4    4  501    0 -0.95818179704E+02  0.50252378878E+02  0.18561436322E+03  0.21488738766E+03  0.41800000000E+01 0.  1.
         -5    1    4    4    0  501  0.95390750711E+01 -0.26789863933E+02  0.36632966650E+01  0.28975557031E+02  0.41800000000E+01 0.  1.
</event>
<event>
11    1  0.8551154E-009  0.4557948E+03  0.7561462E-02  0.9498114E-01
         22   -1    0    0    0    0  0.00000000000E+00  0.00000000000E+00  0.21920410405E+04  0.21920410405E+04  0.00000000000E+00 0.  1.
         22   -1    0    0    0    0 -0.00000000000E+00 -0.00000000000E+00 -0.85645530029E+03  0.85645530029E+03  0.00000000000E+00 0.  1.
        -24    2    1    2    0    0  0.35573240356E+03 -0.23527565969E+03 -0.65921374237E+03  0.78924449605E+03  0.80274139241E+02 0.  0.
         25    2    1    2    0    0 -0.63325207037E+03  0.36048808054E+03  0.15062691098E+04  0.16779315508E+04  0.12509123580E+03 0.  0.
         24    2    1    2    0    0  0.27751966682E+03 -0.12521242085E+03  0.48853037274E+03  0.58132029387E+03  0.81092805871E+02 0.  0.
        -13    1    5    5    0    0  0.28018952880E+03 -0.11737593619E+03  0.45725387944E+03  0.54896665902E+03  0.00000000000E+00 0.  1.
         14    1    5    5    0    0 -0.26698619846E+01 -0.78364846631E+01  0.31276493302E+02  0.32353634853E+02  0.00000000000E+00 0. -1.
         13    1    3    3    0    0  0.92499701550E+02 -0.67259615492E+02 -0.24612957897E+03  0.27140342722E+03  0.00000000000E+00 0. -1.
        -14    1    3    3    0    0  0.26323270201E+03 -0.16801604420E+03 -0.41308416340E+03  0.51784106883E+03  0.00000000000E+00 0.  1.
          5    1    4    4  501    0 -0.33304804291E+03  0.19553100345E+03  0.65607976775E+03  0.76132220921E+03  0.41800000000E+01 0.  1.
         -5    1    4    4    0  501 -0.30020402746E+03  0.16495707710E+03  0.85018934206E+03  0.91660934161E+03  0.41800000000E+01 0.  1.
</event>
<event>
11    1  0.8551154E-009  0.1402156E+03  0.7561462E-02  0.1107318E+00
         22   -1    0    0    0    0  0.00000000000E+00  0.00000000000E+00  0.21769483784E+03  0.21769483784E+03  0.00000000000E+00 0.  1.
         22   -1    0    0    0    0 -0.00000000000E+00 -0.00000000000E+00 -0.79729091273E+03  0.79729091273E+03  0.00000000000E+00 0. -1.
        -24    2    1    2    0    0  0.41529572295E+01 -0.64060200056E+02 -0.73752782282E+03  0.74522902663E+03  0.85428662733E+02 0.  0.
         25    2    1    2    0    0 -0.40911393892E+01  0.38831933740E+02  0.72625695157E+02  0.14982014898E+03  0.12508768502E+03 0.  0.
         24    2    1    2    0    0 -0.61817840324E-01  0.25228266316E+02  0.85306052771E+02  0.11993657497E+03  0.80443707851E+02 0.  0.
        -11    1    5    5    0    0 -0.26227862244E+02 -0.18959822714E+02  0.26214338995E+02  0.41648135663E+02  0.00000000000E+00 0.  1.
         12    1    5    5    0    0  0.26166044404E+02  0.44188089029E+02  0.59091713776E+02  0.78288439305E+02  0.00000000000E+00 0. -1.
         11    1    3    3    0    0  0.25189132302E+01 -0.64558127507E+02 -0.73967163750E+03  0.74248786393E+03  0.00000000000E+00 0. -1.
        -12    1    3    3    0    0  0.16340439993E+01  0.49792745125E+00  0.21438146879E+01  0.27411627012E+01  0.00000000000E+00 0.  1.
          5    1    4    4  501    0  0.72661720324E+01 -0.42578377509E+02  0.57583512969E+01  0.43776095040E+02  0.41800000000E+01 0.  1.
         -5    1    4    4    0  501 -0.11357311422E+02  0.81410311249E+02  0.66867343860E+02  0.10604405394E+03  0.41800000000E+01 0.  1.
</event>
<event>
11    1  0.8551154E-009  0.1393733E+03  0.7561462E-02  0.1108260E+00
         22   -1    0    0    0    0  0.00000000000E+00  0.00000000000E+00  0.95292980865E+03  0.95292980865E+03  0.00000000000E+00 0. -1.
         22   -1    0    0    0    0 -0.00000000000E+00 -0.00000000000E+00 -0.50262364329E+03  0.50262364329E+03  0.00000000000E+00 0.  1.
        -24    2    1    2    0    0  0.59874442660E+02  0.92380302027E+01 -0.46528503917E+03  0.47599587435E+03  0.80072558542E+02 0.  0.
         25    2    1    2    0    0 -0.42323579000E+02 -0.68720866986E+02  0.16524634428E+03  0.22240509387E+03  0.12507529166E+03 0.  0.
         24    2    1    2    0    0 -0.17550863660E+02  0.59482836783E+02  0.75034486025E+03  0.75715248372E+03  0.80101395764E+02 0.  0.
        -13    1    5    5    0    0 -0.19435929843E+02  0.42434445095E+02  0.16282917314E+03  0.16938647267E+03  0.00000000000E+00 0.  1.
         14    1    5    5    0    0  0.18850661827E+01  0.17048391688E+02  0.58751568711E+03  0.58776601104E+03  0.00000000000E+00 0. -1.
         11    1    3    3    0    0  0.17507699160E+02 -0.68277071311E+01 -0.16735934834E+02  0.25164034440E+02  0.00000000000E+00 0. -1.
        -12    1    3    3    0    0  0.42366743500E+02  0.16065737334E+02 -0.44854910434E+03  0.45083183991E+03  0.00000000000E+00 0.  1.
          5    1    4    4  501    0 -0.31983349990E+02 -0.53985805965E+02  0.18497497016E+03  0.19537301223E+03  0.41800000000E+01 0.  1.
         -5    1    4    4    0  501 -0.10340229010E+02 -0.14735061021E+02 -0.19728625874E+02  0.27032081646E+02  0.41800000000E+01 0.  1.
</event>
<event>
11    1  0.8551154E-009  0.1540140E+03  0.7561462E-02  0.1092846E+00
         22   -1    0    0    0    0  0.00000000000E+00  0.00000000000E+00  0.87436911347E+02  0.87436911347E+02  0.00000000000E+00 0.  1.
         22   -1    0    0    0    0 -0.00000000000E+00 -0.00000000000E+00 -0.69304813031E+03  0.69304813031E+03  0.00000000000E+00 0.  1.
        -24    2    1    2    0    0 -0.97051799317E+02  0.40589756389E+01 -0.45844001718E+03  0.47536513643E+03  0.79807496844E+02 0.  0.
         25    2    1    2    0    0  0.63636589186E+02  0.39026281263E+02 -0.14737784526E+03  0.20722034380E+03  0.12508946998E+03 0.  0.
         24    2    1    2    0    0  0.33415210131E+02 -0.43085256901E+02  0.20664347323E+00  0.97899561424E+02  0.81310305590E+02 0.  0.
        -13    1    5    5    0    0 -0.21794009034E+02 -0.91218422876E+01  0.19101991279E+02  0.30382114925E+02  0.00000000000E+00 0.  1.
         14    1    5    5    0    0  0.55209219165E+02 -0.33963414614E+02 -0.18895347806E+02  0.67517446499E+02  0.00000000000E+00 0. -1.
         13    1    3    3    0    0 -0.10521898611E+02  0.12718499681E+02 -0.11682263749E+02  0.20222410114E+02  0.00000000000E+00 0. -1.
        -14    1    3    3    0    0 -0.86529900706E+02 -0.86595240419E+01 -0.44675775343E+03  0.45514272632E+03  0.00000000000E+00 0.  1.
          5    1    4    4  501    0  0.90260789574E+02  0.25372601086E+02 -0.52263440923E+02  0.10742308261E+03  0.41800000000E+01 0. -1.
         -5    1    4    4    0  501 -0.26624200388E+02  0.13653680176E+02 -0.95114404342E+02  0.99797261194E+02  0.41800000000E+01 0. -1.
</event>
<event>
11    1  0.8551154E-009  0.1403740E+03  0.7561462E-02  0.1107141E+00
         22   -1    0    0    0    0  0.00000000000E+00  0.00000000000E+00  0.60505809668E+03  0.60505809668E+03  0.00000000000E+00 0. -1.
         22   -1    0    0    0    0 -0.00000000000E+00 -0.00000000000E+00 -0.25284077545E+03  0.25284077545E+03  0.00000000000E+00 0. -1.
         24    2    1    2    0    0  0.33514586494E+02  0.57092377316E+02 -0.17605389550E+03  0.20933652107E+03  0.91891446164E+02 0.  0.
         25    2    1    2    0    0  0.17694585717E+02 -0.65040293680E+02  0.35433689470E+02  0.14644898206E+03  0.12509364425E+03 0.  0.
        -24    2    1    2    0    0 -0.51209172211E+02  0.79479163646E+01  0.49283752727E+03  0.50211336900E+03  0.80891645737E+02 0.  0.
        -13    1    3    3    0    0  0.59127970547E+02  0.15595423374E+02 -0.72287886345E+02  0.94683011377E+02  0.00000000000E+00 0.  1.
         14    1    3    3    0    0 -0.25613384053E+02  0.41496953941E+02 -0.10376600916E+03  0.11465350970E+03  0.00000000000E+00 0. -1.
         11    1    5    5    0    0 -0.55851926392E+02  0.31251000704E+02  0.24798280839E+03  0.25610844574E+03  0.00000000000E+00 0. -1.
        -12    1    5    5    0    0  0.46427541818E+01 -0.23303084340E+02  0.24485471888E+03  0.24600492325E+03  0.00000000000E+00 0.  1.
          5    1    4    4  501    0  0.67370525085E+01 -0.50497260181E+02 -0.42395142807E+02  0.66409198881E+02  0.41800000000E+01 0.  1.
         -5    1    4    4    0  501  0.10957533208E+02 -0.14543033499E+02  0.77828832278E+02  0.80039783177E+02  0.41800000000E+01 0.  1.
</event>
<event>
11    1  0.8551154E-009  0.1502521E+03  0.7561462E-02  0.1096621E+00
         22   -1    0    0    0    0  0.00000000000E+00  0.00000000000E+00  0.87672683624E+03  0.87672683624E+03  0.00000000000E+00 0.  1.
         22   -1    0    0    0    0 -0.00000000000E+00 -0.00000000000E+00 -0.44037297308E+03  0.44037297308E+03  0.00000000000E+00 0.  1.
         24    2    1    2    0    0 -0.40887298342E+02  0.61610894334E+01 -0.39168747989E+03  0.40275589061E+03  0.84163503543E+02 0.  0.
         25    2    1    2    0    0  0.25305690372E+02  0.76989810614E+02  0.10612148194E+03  0.18297436535E+03  0.12510012208E+03 0.  0.
        -24    2    1    2    0    0  0.15581607970E+02 -0.83150900047E+02  0.72191986110E+03  0.73136955336E+03  0.81094260194E+02 0.  0.
        -13    1    3    3    0    0 -0.26460309704E+02 -0.22251631617E+02 -0.34190300905E+03  0.34364654909E+03  0.00000000000E+00 0.  1.
         14    1    3    3    0    0 -0.14426988638E+02  0.28412721051E+02 -0.49784470834E+02  0.59109341520E+02  0.00000000000E+00 0. -1.
         13    1    5    5    0    0  0.11316550347E+02  0.14911402135E+02  0.97269341070E+02  0.99054222210E+02  0.00000000000E+00 0. -1.
        -14    1    5    5    0    0  0.42650576232E+01 -0.98062302182E+02  0.62465052003E+03  0.63231533115E+03  0.00000000000E+00 0.  1.
          5    1    4    4  501    0  0.83509284782E+00  0.73900904001E+02  0.81838232912E-01  0.74023780569E+02  0.41800000000E+01 0. -1.
         -5    1    4    4    0  501  0.24470597524E+02  0.30889066123E+01  0.10603964371E+03  0.10895058478E+03  0.41800000000E+01 0. -1.
</event>
<event>
11    1  0.8551154E-009  0.1381261E+03  0.7561462E-02  0.1109669E+00
         22   -1    0    0    0    0  0.00000000000E+00  0.00000000000E+00  0.46556829709E+03  0.46556829709E+03  0.00000000000E+00 0. -1.
         22   -1    0    0    0    0 -0.00000000000E+00 -0.00000000000E+00 -0.24045189285E+03  0.24045189285E+03  0.00000000000E+00 0.  1.
         24    2    1    2    0    0  0.57647482446E+01 -0.58887138672E+02 -0.19751475767E+03  0.22285793902E+03  0.84573364961E+02 0.  0.
         25    2    1    2    0    0  0.18457927611E+02  0.50928026407E+02  0.17777131341E+03  0.22401959277E+03  0.12509108324E+03 0.  0.
        -24    2    1    2    0    0 -0.24222675856E+02  0.79591122648E+01  0.24485984850E+03  0.25914265816E+03  0.80922718531E+02 0.  0.
        -13    1    3    3    0    0  0.39591758709E+02 -0.75808187396E+01 -0.60587841190E+02  0.72772678050E+02  0.00000000000E+00 0.  1.
         14    1    3    3    0    0 -0.33827010465E+02 -0.51306319932E+02 -0.13692691648E+03  0.15008526097E+03  0.00000000000E+00 0. -1.
         11    1    5    5    0    0 -0.22820845969E+01 -0.56677619613E+01  0.22847349924E+03  0.22855518216E+03  0.00000000000E+00 0. -1.
        -12    1    5    5    0    0 -0.21940591259E+02  0.13626874226E+02  0.16386349264E+02  0.30587476002E+02  0.00000000000E+00 0.  1.
          5    1    4    4  501    0  0.29924611035E+02 -0.36730967138E+02  0.55769827386E+02  0.73296605236E+02  0.41800000000E+01 0. -1.
         -5    1    4    4    0  501 -0.11466683424E+02  0.87658993545E+02  0.12200148602E+03  0.15072298753E+03  0.41800000000E+01 0. -1.
</event>
<event>
11    1  0.8551154E-009  0.1401858E+03  0.7561462E-02  0.1107351E+00
         22   -1    0    0    0    0  0.00000000000E+00  0.00000000000E+00  0.21982942929E+03  0.21982942929E+03  0.00000000000E+00 0. -1.
         22   -1    0    0    0    0 -0.00000000000E+00 -0.00000000000E+00 -0.10994907237E+04  0.10994907237E+04  0.00000000000E+00 0. -1.
        -24    2    1    2    0    0 -0.35020355580E+02  0.54122699438E+02 -0.98542682882E+03  0.99079075099E+03  0.80278175040E+02 0.  0.
         25    2    1    2    0    0  0.68897023815E+01 -0.47566950250E+02 -0.57463039176E+02  0.14580508153E+03  0.12508812163E+03 0.  0.
         24    2    1    2    0    0  0.28130653199E+02 -0.65557491884E+01  0.16322857355E+03  0.18272432051E+03  0.76878466328E+02 0.  0.
        -13    1    5    5    0    0  0.18483761882E+02  0.31659738575E+02  0.11347896356E+03  0.11925377843E+03  0.00000000000E+00 0.  1.
         14    1    5    5    0    0  0.96468913171E+01 -0.38215487763E+02  0.49749609991E+02  0.63470542075E+02  0.00000000000E+00 0. -1.
         11    1    3    3    0    0 -0.16087698921E+02  0.61801545928E+02 -0.92079021911E+03  0.92300209791E+03  0.00000000000E+00 0. -1.
        -12    1    3    3    0    0 -0.18932656659E+02 -0.76788464893E+01 -0.64636609705E+02  0.67788653075E+02  0.00000000000E+00 0.  1.
          5    1    4    4  501    0 -0.48680293687E+02 -0.87549291823E+01 -0.59970236701E+02  0.77848066568E+02  0.41800000000E+01 0. -1.
         -5    1    4    4    0  501  0.55569996069E+02 -0.38812021068E+02  0.25071975254E+01  0.67957014957E+02  0.41800000000E+01 0. -1.
</event>
<event>
11    1  0.8551154E-009  0.1442204E+03  0.7561462E-02  0.1102935E+00
         22   -1    0    0    0    0  0.00000000000E+00  0.00000000000E+00  0.45896518655E+03  0.45896518655E+03  0.00000000000E+00 0. -1.
         22   -1    0    0    0    0 -0.00000000000E+00 -0.00000000000E+00 -0.40962930510E+03  0.40962930510E+03  0.00000000000E+00 0. -1.
         24    2    1    2    0    0  0.88084394199E+01  0.69902084068E+02 -0.32495048152E+03  0.34232295330E+03  0.81414365799E+02 0.  0.
         25    2    1    2    0    0  0.23448146233E+01 -0.84757436231E+02  0.85995230316E+01  0.15136513313E+03  0.12509248810E+03 0.  0.
        -24    2    1    2    0    0 -0.11153254043E+02  0.14855352163E+02  0.36568683993E+03  0.37490640522E+03  0.80516279151E+02 0.  0.
        -11    1    3    3    0    0 -0.85131643328E+01 -0.32236109357E+01 -0.16864518943E+03  0.16889069114E+03  0.00000000000E+00 0.  1.
         12    1    3    3    0    0  0.17321603753E+02  0.73125695004E+02 -0.15630529209E+03  0.17343226217E+03  0.00000000000E+00 0. -1.
         13    1    5    5    0    0 -0.18800003277E+02 -0.15701454000E+02  0.30969795301E+03  0.31066508957E+03  0.00000000000E+00 0. -1.
        -14    1    5    5    0    0  0.76467492339E+01  0.30556806163E+02  0.55988886927E+02  0.64241315647E+02  0.00000000000E+00 0.  1.
          5    1    4    4  501    0 -0.19491340653E+02  0.19732580101E+02  0.31427566711E+02  0.42124238002E+02  0.41800000000E+01 0.  1.
         -5    1    4    4    0  501  0.21836155276E+02 -0.10449001633E+03 -0.22828043679E+02  0.10924089513E+03  0.41800000000E+01 0.  1.
</event>
<event>
11    1  0.1730138E-008  0.7403286E+03  0.7561462E-02  0.8974898E-01
         22   -1    0    0    0    0  0.00000000000E+00  0.00000000000E+00  0.55458851228E+03  0.55458851228E+03  0.00000000000E+00 0.  1.
         22   -1    0    0    0    0 -0.00000000000E+00 -0.00000000000E+00 -0.11753278381E+04  0.11753278381E+04  0.00000000000E+00 0.  1.
        -24    2    1    2    0    0 -0.37445580884E+02 -0.23058434969E+02 -0.46274222220E+02  0.10311162520E+03  0.80974320981E+02 0.  0.
         25    2    1    2    0    0 -0.31898645401E+03  0.65877728089E+03 -0.48787101741E+03  0.88848599035E+03  0.12509740907E+03 0.  0.
         24    2    1    2    0    0  0.35643203489E+03 -0.63571884592E+03 -0.86594086195E+02  0.73831873484E+03  0.80210796625E+02 0.  0.
        -11    1    5    5    0    0  0.10612449795E+03 -0.13224598343E+03 -0.39397093617E+02  0.17407912047E+03  0.00000000000E+00 0.  1.
         12    1    5    5    0    0  0.25030753694E+03 -0.50347286249E+03 -0.47196992578E+02  0.56423961437E+03  0.00000000000E+00 0. -1.
         13    1    3    3    0    0 -0.26841216699E+01  0.28846139475E+02 -0.20718678005E+02  0.35616960707E+02  0.00000000000E+00 0. -1.
        -14    1    3    3    0    0 -0.34761459214E+02 -0.51904574443E+02 -0.25555544214E+02  0.67494664493E+02  0.00000000000E+00 0.  1.
          5    1    4    4  501    0 -0.26788983194E+03  0.42190687469E+03 -0.31455959957E+03  0.59053838745E+03  0.41800000000E+01 0. -1.
         -5    1    4    4    0  501 -0.51096622071E+02  0.23687040620E+03 -0.17331141784E+03  0.29794760290E+03  0.41800000000E+01 0. -1.
</event>
<event>
11    1  0.8551154E-009  0.1323103E+03  0.7561462E-02  0.1116462E+00
         22   -1    0    0    0    0  0.00000000000E+00  0.00000000000E+00  0.50142494285E+03  0.50142494285E+03  0.00000000000E+00 0.  1.
         22   -1    0    0    0    0 -0.00000000000E+00 -0.00000000000E+00 -0.21463959812E+04  0.21463959812E+04  0.00000000000E+00 0. -1.
        -24    2    1    2    0    0 -0.31384990975E+01 -0.46251171901E+01 -0.16814100558E+04  0.16832952381E+04  0.79447096749E+02 0.  0.
         25    2    1    2    0    0 -0.39220102132E+02 -0.35705416252E+01 -0.45046251615E+03  0.46916432455E+03  0.12509084615E+03 0.  0.
         24    2    1    2    0    0  0.42358601230E+02  0.81956588153E+01  0.48690153361E+03  0.49536136134E+03  0.80301649740E+02 0.  0.
        -11    1    5    5    0    0  0.39004671159E+02  0.34945754182E+02  0.41968549256E+03  0.42294028275E+03  0.00000000000E+00 0.  1.
         12    1    5    5    0    0  0.33539300702E+01 -0.26750095367E+02  0.67216041053E+02  0.72421078588E+02  0.00000000000E+00 0. -1.
         13    1    3    3    0    0 -0.19590815247E+02 -0.36379031602E+02 -0.11086983490E+04  0.11094680091E+04  0.00000000000E+00 0. -1.
        -14    1    3    3    0    0  0.16452316150E+02  0.31753914411E+02 -0.57271170673E+03  0.57382722907E+03  0.00000000000E+00 0.  1.
          5    1    4    4  501    0 -0.45025626959E+02 -0.58773713551E+02 -0.22376553549E+03  0.23573320462E+03  0.41800000000E+01 0. -1.
         -5    1    4    4    0  501  0.58055248272E+01  0.55203171925E+02 -0.22669698066E+03  0.23343111992E+03  0.41800000000E+01 0. -1.
</event>
<event>
11    1  0.8551154E-009  0.1320859E+03  0.7561462E-02  0.1116732E+00
         22   -1    0    0    0    0  0.00000000000E+00  0.00000000000E+00  0.75334666460E+03  0.75334666460E+03  0.00000000000E+00 0. -1.
         22   -1    0    0    0    0 -0.00000000000E+00 -0.00000000000E+00 -0.21760280660E+04  0.21760280660E+04  0.00000000000E+00 0.  1.
         24    2    1    2    0    0 -0.12651239448E+02 -0.40814815023E+02 -0.20989506036E+04  0.21009442542E+04  0.80914893101E+02 0.  0.
         25    2    1    2    0    0  0.26029355103E+02  0.17750773315E+02 -0.16988010293E+02  0.13010969658E+03  0.12508926160E+03 0.  0.
        -24    2    1    2    0    0 -0.13378115655E+02  0.23064041708E+02  0.69325721247E+03  0.69832077984E+03  0.79595382458E+02 0.  0.
        -11    1    3    3    0    0 -0.34226374873E+02 -0.50731389310E+02 -0.10917910253E+04  0.10935048064E+04  0.00000000000E+00 0.  1.
         12    1    3    3    0    0  0.21575135425E+02  0.99165742862E+01 -0.10071595783E+04  0.10074394478E+04  0.00000000000E+00 0. -1.
         11    1    5    5    0    0 -0.52268954792E+01 -0.27276557891E+02  0.37261239353E+03  0.37364599136E+03  0.00000000000E+00 0. -1.
        -12    1    5    5    0    0 -0.81512201760E+01  0.50340599599E+02  0.32064481894E+03  0.32467478848E+03  0.00000000000E+00 0.  1.
          5    1    4    4  501    0  0.13472977526E+02  0.71573782766E+02 -0.33352581344E+01  0.73026870737E+02  0.41800000000E+01 0. -1.
         -5    1    4    4    0  501  0.12556377577E+02 -0.53823009451E+02 -0.13652752158E+02  0.57082825838E+02  0.41800000000E+01 0. -1.
</event>
<event>
11    1  0.8551154E-009  0.1339549E+03  0.7561462E-02  0.1114503E+00
         22   -1    0    0    0    0  0.00000000000E+00  0.00000000000E+00  0.15530204313E+03  0.15530204313E+03  0.00000000000E+00 0. -1.
         22   -1    0    0    0    0 -0.00000000000E+00 -0.00000000000E+00 -0.35745074066E+04  0.35745074066E+04  0.00000000000E+00 0. -1.
         24    2    1    2    0    0  0.88743603476E+01 -0.21943260754E+02 -0.32271843519E+04  0.32282393698E+04  0.79059008661E+02 0.  0.
         25    2    1    2    0    0  0.36710813018E+02  0.36989977765E+02 -0.31508004901E+03  0.34298256189E+03  0.12508260562E+03 0.  0.
        -24    2    1    2    0    0 -0.45585173365E+02 -0.15046717011E+02  0.12305903745E+03  0.15858751799E+03  0.87761394932E+02 0.  0.
        -13    1    3    3    0    0 -0.10770615632E+02 -0.24227690029E+02 -0.35566168739E+03  0.35664859877E+03  0.00000000000E+00 0.  1.
         14    1    3    3    0    0  0.19644975980E+02  0.22844292749E+01 -0.28715226645E+04  0.28715907711E+04  0.00000000000E+00 0. -1.
         13    1    5    5    0    0 -0.27944906586E+02 -0.43871099670E+02  0.11121589072E+03  0.12277852230E+03  0.00000000000E+00 0. -1.
        -14    1    5    5    0    0 -0.17640266779E+02  0.28824382658E+02  0.11843146732E+02  0.35808995688E+02  0.00000000000E+00 0.  1.
          5    1    4    4  501    0  0.80794241764E+02  0.11142354884E+02 -0.15983697114E+03  0.17949147980E+03  0.41800000000E+01 0. -1.
         -5    1    4    4    0  501 -0.44083428747E+02  0.25847622881E+02 -0.15524307786E+03  0.16349108209E+03  0.41800000000E+01 0. -1.
</event>
<event>
11    1  0.8551154E-009  0.2886835E+03  0.7561462E-02  0.1005098E+00
         22   -1    0    0    0    0  0.00000000000E+00  0.00000000000E+00  0.62881154954E+03  0.62881154954E+03  0.00000000000E+00 0. -1.
         22   -1    0    0    0    0 -0.00000000000E+00 -0.00000000000E+00 -0.64693571943E+03  0.64693571943E+03  0.00000000000E+00 0. -1.
        -24    2    1    2    0    0 -0.17457600388E+02  0.63021683986E+02 -0.44222305623E+03  0.45499891537E+03  0.84771935573E+02 0.  0.
         25    2    1    2    0    0  0.56388142717E+02 -0.30760545038E+03  0.16942157256E+02  0.33724692259E+03  0.12509082444E+03 0.  0.
         24    2    1    2    0    0 -0.38930542329E+02  0.24458376640E+03  0.40715672908E+03  0.48350143101E+03  0.81610206742E+02 0.  0.
        -11    1    5    5    0    0  0.11700901467E+02  0.31751801095E+02  0.10599647365E+03  0.11126697801E+03  0.00000000000E+00 0.  1.
         12    1    5    5    0    0 -0.50631443796E+02  0.21283196530E+03  0.30116025543E+03  0.37223445301E+03  0.00000000000E+00 0. -1.
         13    1    3    3    0    0 -0.91370414963E+01  0.25727744604E+02 -0.38632644024E+03  0.38728996992E+03  0.00000000000E+00 0. -1.
        -14    1    3    3    0    0 -0.83205588916E+01  0.37293939382E+02 -0.55896615987E+02  0.67708945448E+02  0.00000000000E+00 0.  1.
          5    1    4    4  501    0 -0.27753280468E+02 -0.14292718725E+03  0.39454730313E+02  0.15090584341E+03  0.41800000000E+01 0. -1.
         -5    1    4    4    0  501  0.84141423185E+02 -0.16467826314E+03 -0.22512573056E+02  0.18634107918E+03  0.41800000000E+01 0. -1.
</event>
<event>
11    1  0.8551154E-009  0.1415721E+03  0.7561462E-02  0.1105815E+00
         22   -1    0    0    0    0  0.00000000000E+00  0.00000000000E+00  0.31681944846E+03  0.31681944846E+03  0.00000000000E+00 0. -1.
         22   -1    0    0    0    0 -0.00000000000E+00 -0.00000000000E+00 -0.58486457479E+03  0.58486457479E+03  0.00000000000E+00 0.  1.
         24    2    1    2    0    0 -0.26337769913E+02 -0.34986570940E+02 -0.43458195405E+03  0.44402612540E+03  0.79874820717E+02 0.  0.
         25    2    1    2    0    0 -0.19741523437E+02  0.81917439043E+02 -0.93030575869E+02  0.17720157414E+03  0.12508203415E+03 0.  0.
        -24    2    1    2    0    0  0.46079293350E+02 -0.46930868102E+02  0.25956740359E+03  0.28045632369E+03  0.83394872970E+02 0.  0.
        -13    1    3    3    0    0 -0.26739069937E+02 -0.57320313712E+02 -0.24108042884E+03  0.24923958232E+03  0.00000000000E+00 0.  1.
         14    1    3    3    0    0  0.40130002393E+00  0.22333742772E+02 -0.19350152521E+03  0.19478654308E+03  0.00000000000E+00 0. -1.
         11    1    5    5    0    0  0.50730062728E+02 -0.58587425937E+02  0.13823792853E+03  0.15847949592E+03  0.00000000000E+00 0. -1.
        -12    1    5    5    0    0 -0.46507693774E+01  0.11656557835E+02  0.12132947505E+03  0.12197682777E+03  0.00000000000E+00 0.  1.
          5    1    4    4  501    0 -0.61302527539E+02  0.38428543659E+01 -0.29809728214E+02  0.68402190817E+02  0.41800000000E+01 0. -1.
         -5    1    4    4    0  501  0.41561004101E+02  0.78074584677E+02 -0.63220847655E+02  0.10879938333E+03  0.41800000000E+01 0. -1.
</event>
<event>
11    1  0.8551154E-009  0.2134219E+03  0.7561462E-02  0.1045418E+00
         22   -1    0    0    0    0  0.00000000000E+00  0.00000000000E+00  0.17062360074E+04  0.17062360074E+04  0.00000000000E+00 0. -1.
         22   -1    0    0    0    0 -0.00000000000E+00 -0.00000000000E+00 -0.13735270869E+04  0.13735270869E+04  0.00000000000E+00 0.  1.
        -24    2    1    2    0    0 -0.13957073393E+03  0.30419990368E+02 -0.13296009988E+04  0.13392993816E+04  0.74017917061E+02 0.  0.
         25    2    1    2    0    0  0.11374987952E+03 -0.19747813320E+03  0.50397811113E+03  0.56707839192E+03  0.12508923978E+03 0.  0.
         24    2    1    2    0    0  0.25820854401E+02  0.16705814283E+03  0.11583318082E+04  0.11733853207E+04  0.80779906814E+02 0.  0.
        -13    1    5    5    0    0  0.16821599560E+02 -0.11767394029E+01  0.16590904730E+03  0.16676379374E+03  0.00000000000E+00 0.  1.
         14    1    5    5    0    0  0.89992548410E+01  0.16823488223E+03  0.99242276092E+03  0.10066215270E+04  0.00000000000E+00 0. -1.
         13    1    3    3    0    0 -0.11965339629E+03  0.15017327265E+00 -0.85719449878E+03  0.86550526661E+03  0.00000000000E+00 0. -1.
        -14    1    3    3    0    0 -0.19917337638E+02  0.30269817095E+02 -0.47240650002E+03  0.47379411502E+03  0.00000000000E+00 0.  1.
          5    1    4    4  501    0  0.12661930745E+03 -0.13353684541E+03  0.29129040421E+03  0.34457526041E+03  0.41800000000E+01 0. -1.
         -5    1    4    4    0  501 -0.12869427930E+02 -0.63941287787E+02  0.21268770692E+03  0.22250313152E+03  0.41800000000E+01 0. -1.
</event>
<event>
11    1  0.8551154E-009  0.1285946E+03  0.7561462E-02  0.1121008E+00
         22   -1    0    0    0    0  0.00000000000E+00  0.00000000000E+00  0.63357256384E+03  0.63357256384E+03  0.00000000000E+00 0.  1.
         22   -1    0    0    0    0 -0.00000000000E+00 -0.00000000000E+00 -0.26133382204E+03  0.26133382204E+03  0.00000000000E+00 0. -1.
        -24    2    1    2    0    0  0.47029109397E+01  0.17836130546E+02 -0.21284224232E+03  0.22848411585E+03  0.81011888984E+02 0.  0.
         25    2    1    2    0    0  0.23544427717E+02 -0.57399319532E+01  0.72771674848E+02  0.14675030367E+03  0.12511054341E+03 0.  0.
         24    2    1    2    0    0 -0.28247338657E+02 -0.12096198593E+02  0.51230930928E+03  0.51967196636E+03  0.81571404819E+02 0.  0.
        -13    1    5    5    0    0 -0.50808698325E+02 -0.16814598799E+02  0.45115207601E+03  0.45431536431E+03  0.00000000000E+00 0.  1.
         14    1    5    5    0    0  0.22561359668E+02  0.47184002068E+01  0.61157233268E+02  0.65356602051E+02  0.00000000000E+00 0. -1.
         13    1    3    3    0    0  0.67917661719E+01 -0.22054691784E+02 -0.16292676663E+03  0.16455293617E+03  0.00000000000E+00 0. -1.
        -14    1    3    3    0    0 -0.20888552322E+01  0.39890822330E+02 -0.49915475694E+02  0.63931179687E+02  0.00000000000E+00 0.  1.
          5    1    4    4  501    0  0.71245861791E+01 -0.26188021236E+02  0.10295133142E+03  0.10655055713E+03  0.41800000000E+01 0.  1.
         -5    1    4    4    0  501  0.16419841538E+02  0.20448089283E+02 -0.30179656569E+02  0.40199746543E+02  0.41800000000E+01 0.  1.
</event>
<event>
11    1  0.8551154E-009  0.5808230E+03  0.7561462E-02  0.9229096E-01
         22   -1    0    0    0    0  0.00000000000E+00  0.00000000000E+00  0.85235686337E+03  0.85235686337E+03  0.00000000000E+00 0. -1.
         22   -1    0    0    0    0 -0.00000000000E+00 -0.00000000000E+00 -0.98947811279E+02  0.98947811279E+02  0.00000000000E+00 0.  1.
         24    2    1    2    0    0  0.29969183630E+02 -0.13369774467E+02  0.11105086779E+03  0.15003602449E+03  0.95402361455E+02 0.  0.
         25    2    1    2    0    0 -0.63339763512E+02  0.21132466936E+03  0.42262749916E+03  0.49286903629E+03  0.12504336192E+03 0.  0.
        -24    2    1    2    0    0  0.33370579882E+02 -0.19795489489E+03  0.21973068514E+03  0.30839961387E+03  0.80802300911E+02 0.  0.
        -13    1    3    3    0    0  0.53034700949E+02 -0.15213692739E+02  0.11405845597E+03  0.12670227831E+03  0.00000000000E+00 0.  1.
         14    1    3    3    0    0 -0.23065517319E+02  0.18439182728E+01 -0.30075881850E+01  0.23333746173E+02  0.00000000000E+00 0. -1.
         13    1    5    5    0    0  0.37683778854E+02 -0.30330805603E+02  0.42117677939E+02  0.64139876459E+02  0.00000000000E+00 0. -1.
        -14    1    5    5    0    0 -0.43131989713E+01 -0.16762408929E+03  0.17761300720E+03  0.24425973741E+03  0.00000000000E+00 0.  1.
          5    1    4    4  501    0  0.21265752829E+02  0.12669351113E+03  0.26862744684E+03  0.29779465341E+03  0.41800000000E+01 0.  1.
         -5    1    4    4    0  501 -0.84605516341E+02  0.84631158224E+02  0.15400005233E+03  0.19507438288E+03  0.41800000000E+01 0.  1.
</event>
<event>
11    1  0.8551154E-009  0.1404348E+03  0.7561462E-02  0.1107074E+00
         22   -1    0    0    0    0  0.00000000000E+00  0.00000000000E+00  0.19663758633E+03  0.19663758633E+03  0.00000000000E+00 0.  1.
         22   -1    0    0    0    0 -0.00000000000E+00 -0.00000000000E+00 -0.99477868987E+03  0.99477868987E+03  0.00000000000E+00 0. -1.
         24    2    1    2    0    0  0.17607961909E+02  0.63188307109E+02 -0.88790237585E+03  0.89393352945E+03  0.80272807073E+02 0.  0.
         25    2    1    2    0    0  0.29202487492E+02 -0.32264898061E+01 -0.32542232633E+02  0.13255071428E+03  0.12508996538E+03 0.  0.
        -24    2    1    2    0    0 -0.46810449401E+02 -0.59961817303E+02  0.12230350495E+03  0.16493203246E+03  0.80360377688E+02 0.  0.
        -13    1    3    3    0    0 -0.28569860288E+02  0.35540244402E+02 -0.28400392461E+03  0.28764140015E+03  0.00000000000E+00 0.  1.
         14    1    3    3    0    0  0.46177822197E+02  0.27648062707E+02 -0.60389845124E+03  0.60629212930E+03  0.00000000000E+00 0. -1.
         11    1    5    5    0    0 -0.18770284431E+02 -0.40980615368E+02  0.80772858702E+01  0.45792761006E+02  0.00000000000E+00 0. -1.
        -12    1    5    5    0    0 -0.28040164970E+02 -0.18981201935E+02  0.11422621908E+03  0.11913927145E+03  0.00000000000E+00 0.  1.
          5    1    4    4  501    0  0.40992420377E+01 -0.22133266868E+02 -0.75650894910E+02  0.79039329376E+02  0.41800000000E+01 0. -1.
         -5    1    4    4    0  501  0.25103245455E+02  0.18906777062E+02  0.43108662277E+02  0.53511384906E+02  0.41800000000E+01 0. -1.
</event>
<event>
11    1  0.8551154E-009  0.1119760E+04  0.7561462E-02  0.8572767E-01
         22   -1    0    0    0    0  0.00000000000E+00  0.00000000000E+00  0.90113205130E+03  0.90113205130E+03  0.00000000000E+00 0.  1.
         22   -1    0    0    0    0 -0.00000000000E+00 -0.00000000000E+00 -0.27337061168E+04  0.27337061168E+04  0.00000000000E+00 0.  1.
        -24    2    1    2    0    0  0.22678806488E+03  0.10574160259E+04 -0.18880761170E+04  0.21773387796E+04  0.80070340449E+02 0.  0.
         25    2    1    2    0    0 -0.25331793114E+03 -0.12306965300E+04  0.64235261827E+02  0.12643402672E+04  0.12508484791E+03 0.  0.
         24    2    1    2    0    0  0.26529866252E+02  0.17328050412E+03 -0.87332103324E+01  0.19315912134E+03  0.80648684331E+02 0.  0.
        -13    1    5    5    0    0  0.30235959588E+02  0.18112026765E+03 -0.11686991587E+02  0.18399823471E+03  0.00000000000E+00 0.  1.
         14    1    5    5    0    0 -0.37060933360E+01 -0.78397635338E+01  0.29537812542E+01  0.91608866262E+01  0.00000000000E+00 0. -1.
         13    1    3    3    0    0  0.83725605318E+02  0.32406068674E+03 -0.65469334235E+03  0.73528815997E+03  0.00000000000E+00 0. -1.
        -14    1    3    3    0    0  0.14306245957E+03  0.73335533913E+03 -0.12333827747E+04  0.14420506196E+04  0.00000000000E+00 0.  1.
          5    1    4    4  501    0 -0.19682688855E+03 -0.10683648725E+04  0.91755875449E+02  0.10902205914E+04  0.41800000000E+01 0. -1.
         -5    1    4    4    0  501 -0.56491042584E+02 -0.16233165750E+03 -0.27520613622E+02  0.17411967577E+03  0.41800000000E+01 0. -1.
</event>
<event>
11    1  0.8551154E-009  0.1321849E+03  0.7561462E-02  0.1116613E+00
         22   -1    0    0    0    0  0.00000000000E+00  0.00000000000E+00  0.96454141250E+02  0.96454141250E+02  0.00000000000E+00 0.  1.
         22   -1    0    0    0    0 -0.00000000000E+00 -0.00000000000E+00 -0.18406138650E+04  0.18406138650E+04  0.00000000000E+00 0.  1.
         24    2    1    2    0    0 -0.20145818831E+02 -0.10160878182E+02 -0.16911664561E+04  0.16930289780E+04  0.76118595935E+02 0.  0.
         25    2    1    2    0    0 -0.13022289128E+02  0.39830140526E+02 -0.71617673230E+02  0.15010267309E+03  0.12508277756E+03 0.  0.
        -24    2    1    2    0    0  0.33168107958E+02 -0.29669262344E+02  0.18624405614E+02  0.93936355124E+02  0.80602616682E+02 0.  0.
        -11    1    3    3    0    0 -0.30020386268E+02 -0.73085891437E+01 -0.16584107140E+04  0.16586985065E+04  0.00000000000E+00 0.  1.
         12    1    3    3    0    0  0.98745674369E+01 -0.28522890384E+01 -0.32755742140E+02  0.34330471566E+02  0.00000000000E+00 0. -1.
         11    1    5    5    0    0  0.44370342923E+02  0.10688885991E+02 -0.48936391998E+01  0.45901277972E+02  0.00000000000E+00 0. -1.
        -12    1    5    5    0    0 -0.11202234964E+02 -0.40358148334E+02  0.23518044814E+02  0.48035077153E+02  0.00000000000E+00 0.  1.
          5    1    4    4  501    0 -0.31979708278E+02  0.64459498077E+02 -0.88778685950E+02  0.11435408219E+03  0.41800000000E+01 0.  1.
         -5    1    4    4    0  501  0.18957419150E+02 -0.24629357551E+02  0.17161012719E+02  0.35748590906E+02  0.41800000000E+01 0.  1.
</event>
<event>
11    1  0.8551154E-009  0.1290909E+03  0.7561462E-02  0.1120391E+00
         22   -1    0    0    0    0  0.00000000000E+00  0.00000000000E+00  0.20296590477E+04  0.20296590477E+04  0.00000000000E+00 0. -1.
         22   -1    0    0    0    0 -0.00000000000E+00 -0.00000000000E+00 -0.21670732597E+03  0.21670732597E+03  0.00000000000E+00 0. -1.
        -24    2    1    2    0    0 -0.55332763825E+01 -0.33050178401E+02 -0.18136129549E+03  0.20438631444E+03  0.88084701211E+02 0.  0.
         25    2    1    2    0    0 -0.27850875773E+02  0.10389358462E+02  0.15903856394E+03  0.20450877681E+03  0.12508782884E+03 0.  0.
         24    2    1    2    0    0  0.33384152155E+02  0.22660819938E+02  0.18352744532E+04  0.18374712824E+04  0.80251981093E+02 0.  0.
        -13    1    5    5    0    0 -0.34653347626E+00  0.35416461918E+01  0.26503680709E+01  0.44370929796E+01  0.00000000000E+00 0.  1.
         14    1    5    5    0    0  0.33730685632E+02  0.19119173747E+02  0.18326240852E+04  0.18330341894E+04  0.00000000000E+00 0. -1.
         11    1    3    3    0    0 -0.26306610640E+02  0.80322955322E+01 -0.13942780594E+03  0.14211498374E+03  0.00000000000E+00 0. -1.
        -12    1    3    3    0    0  0.20773334258E+02 -0.41082473933E+02 -0.41933489552E+02  0.62271330696E+02  0.00000000000E+00 0.  1.
          5    1    4    4  501    0 -0.27226965494E+02  0.78464198811E+01  0.18036215803E+03  0.18262216296E+03  0.41800000000E+01 0. -1.
         -5    1    4    4    0  501 -0.62391027860E+00  0.25429385811E+01 -0.21323594096E+02  0.21886613850E+02  0.41800000000E+01 0. -1.
</event>
<event>
11    1  0.8551154E-009  0.1786960E+03  0.7561462E-02  0.1070702E+00
         22   -1    0    0    0    0  0.00000000000E+00  0.00000000000E+00  0.33309554126E+04  0.33309554126E+04  0.00000000000E+00 0. -1.
         22   -1    0    0    0    0 -0.00000000000E+00 -0.00000000000E+00 -0.18306779676E+03  0.18306779676E+03  0.00000000000E+00 0.  1.
         24    2    1    2    0    0  0.24724495864E+02 -0.33458504848E+02 -0.14609402757E+03  0.17071828435E+03  0.77913384449E+02 0.  0.
         25    2    1    2    0    0 -0.14645938015E+03 -0.71908880859E+00  0.38462622439E+03  0.43015790646E+03  0.12509046681E+03 0.  0.
        -24    2    1    2    0    0  0.12173488428E+03  0.34177593657E+02  0.29093554190E+04  0.29131470185E+04  0.78032733556E+02 0.  0.
        -11    1    3    3    0    0  0.27537752943E+02 -0.56844273807E+02 -0.11969667528E+03  0.13533991789E+03  0.00000000000E+00 0.  1.
         12    1    3    3    0    0 -0.28132570796E+01  0.23385768959E+02 -0.26397352295E+02  0.35378366460E+02  0.00000000000E+00 0. -1.
         11    1    5    5    0    0  0.88066875929E+02 -0.20810330165E+01  0.12733220065E+04  0.12763655580E+04  0.00000000000E+00 0. -1.
        -12    1    5    5    0    0  0.33668008354E+02  0.36258626673E+02  0.16360334125E+04  0.16367814606E+04  0.00000000000E+00 0.  1.
          5    1    4    4  501    0 -0.12547691441E+03  0.51797877144E+02  0.26527256783E+03  0.29801758970E+03  0.41800000000E+01 0.  1.
         -5    1    4    4    0  501 -0.20982465734E+02 -0.52516965952E+02  0.11935365656E+03  0.13214031676E+03  0.41800000000E+01 0.  1.
</event>
<event>
11    1  0.8551154E-009  0.2387842E+03  0.7561462E-02  0.1030050E+00
         22   -1    0    0    0    0  0.00000000000E+00  0.00000000000E+00  0.18211468587E+04  0.18211468587E+04  0.00000000000E+00 0. -1.
         22   -1    0    0    0    0 -0.00000000000E+00 -0.00000000000E+00 -0.12635751779E+04  0.12635751779E+04  0.00000000000E+00 0. -1.
        -24    2    1    2    0    0 -0.50578437826E+02 -0.25755962838E+02 -0.95198911590E+03  0.95718365808E+03  0.81827443542E+02 0.  0.
         25    2    1    2    0    0  0.24292773100E+03 -0.37624947637E+02 -0.23931376295E+03  0.36516837850E+03  0.12508936144E+03 0.  0.
         24    2    1    2    0    0 -0.19234929317E+03  0.63380910475E+02  0.17488745597E+04  0.17623700000E+04  0.79814792955E+02 0.  0.
        -11    1    5    5    0    0 -0.60406344225E+02 -0.68881378426E+01  0.32227512570E+03  0.32795979862E+03  0.00000000000E+00 0.  1.
         12    1    5    5    0    0 -0.13194294895E+03  0.70269048317E+02  0.14265994340E+04  0.14344102014E+04  0.00000000000E+00 0. -1.
         13    1    3    3    0    0 -0.55138821663E+02 -0.28757551062E+02 -0.94885057730E+03  0.95088627314E+03  0.00000000000E+00 0. -1.
        -14    1    3    3    0    0  0.45603838362E+01  0.30015882244E+01 -0.31385385955E+01  0.62973849428E+01  0.00000000000E+00 0.  1.
          5    1    4    4  501    0  0.18851512203E+03 -0.38708605791E+02 -0.24353231328E+03  0.31042191837E+03  0.41800000000E+01 0.  1.
         -5    1    4    4    0  501  0.54412608969E+02  0.10836581542E+01  0.42185503241E+01  0.54746460129E+02  0.41800000000E+01 0.  1.
</event>
<event>
11    1  0.8551154E-009  0.1309576E+03  0.7561462E-02  0.1118098E+00
         22   -1    0    0    0    0  0.00000000000E+00  0.00000000000E+00  0.60983692946E+03  0.60983692946E+03  0.00000000000E+00 0.  1.
         22   -1    0    0    0    0 -0.00000000000E+00 -0.00000000000E+00 -0.36461121195E+03  0.36461121195E+03  0.00000000000E+00 0.  1.
         24    2    1    2    0    0 -0.39538761789E+02  0.64042838271E+01 -0.29470905013E+03  0.30833967669E+03  0.81336360025E+02 0.  0.
         25    2    1    2    0    0  0.23506256642E+02 -0.15400256372E+02  0.89172426123E+01  0.12851472322E+03  0.12508718908E+03 0.  0.
        -24    2    1    2    0    0  0.16032505147E+02  0.89959725447E+01  0.53101752502E+03  0.53759374150E+03  0.81789059608E+02 0.  0.
        -13    1    3    3    0    0 -0.18886529969E+02 -0.25838901101E+02 -0.23656494906E+03  0.23872018128E+03  0.00000000000E+00 0.  1.
         14    1    3    3    0    0 -0.20652231821E+02  0.32243184928E+02 -0.58144101063E+02  0.69619495415E+02  0.00000000000E+00 0. -1.
         11    1    5    5    0    0  0.11684452512E+02  0.55691490644E+01  0.95222273358E+01  0.16069059252E+02  0.00000000000E+00 0. -1.
        -12    1    5    5    0    0  0.43480526354E+01  0.34268234804E+01  0.52149529769E+03  0.52152468225E+03  0.00000000000E+00 0.  1.
          5    1    4    4  501    0  0.22801191795E+02 -0.69372977977E+02  0.12724423842E+02  0.74242089025E+02  0.41800000000E+01 0.  1.
         -5    1    4    4    0  501  0.70506484763E+00  0.53972721605E+02 -0.38071812299E+01  0.54272634199E+02  0.41800000000E+01 0.  1.
</event>
<event>
11    1  0.8551154E-009  0.1319695E+03  0.7561462E-02  0.1116872E+00
         22   -1    0    0    0    0  0.00000000000E+00  0.00000000000E+00  0.94313671527E+03  0.94313671527E+03  0.00000000000E+00 0.  1.
         22   -1    0    0    0    0 -0.00000000000E+00 -0.00000000000E+00 -0.15880717903E+04  0.15880717903E+04  0.00000000000E+00 0.  1.
        -24    2    1    2    0    0  0.14087340116E+02  0.39075627565E+02 -0.15146351416E+04  0.15172976333E+04  0.79668928057E+02 0.  0.
         25    2    1    2    0    0 -0.40671689029E+02 -0.61089206609E+02  0.54505193468E+01  0.14513139546E+03  0.12508931343E+03 0.  0.
         24    2    1    2    0    0  0.26584348913E+02  0.22013579044E+02  0.86424954718E+03  0.86877947683E+03  0.81603763902E+02 0.  0.
        -13    1    5    5    0    0  0.55184039931E+02  0.95298240196E+01  0.47739349627E+03  0.48066687642E+03  0.00000000000E+00 0.  1.
         14    1    5    5    0    0 -0.28599691018E+02  0.12483755024E+02  0.38685605091E+03  0.38811260041E+03  0.00000000000E+00 0. -1.
         13    1    3    3    0    0 -0.22184091796E+02  0.25471652507E+02 -0.27634430618E+03  0.27840099599E+03  0.00000000000E+00 0. -1.
        -14    1    3    3    0    0  0.36271431912E+02  0.13603975058E+02 -0.12382908354E+04  0.12388966373E+04  0.00000000000E+00 0.  1.
          5    1    4    4  501    0 -0.74705877418E+02 -0.12175375262E+02  0.28662133316E+02  0.81044420967E+02  0.41800000000E+01 0.  1.
         -5    1    4    4    0  501  0.34034188390E+02 -0.48913831347E+02 -0.23211613969E+02  0.64086974491E+02  0.41800000000E+01 0.  1.
</event>
<event>
11    1  0.8551154E-009  0.2401995E+03  0.7561462E-02  0.1029254E+00
         22   -1    0    0    0    0  0.00000000000E+00  0.00000000000E+00  0.78912229684E+02  0.78912229684E+02  0.00000000000E+00 0. -1.
         22   -1    0    0    0    0 -0.00000000000E+00 -0.00000000000E+00 -0.11679048616E+04  0.11679048616E+04  0.00000000000E+00 0. -1.
         24    2    1    2    0    0 -0.51752001810E+02  0.18145127819E+03 -0.54736172106E+03  0.58428073607E+03  0.78589368310E+02 0.  0.
         25    2    1    2    0    0  0.11397338515E+03 -0.21576968306E+03 -0.42742498537E+03  0.50782441026E+03  0.12508806853E+03 0.  0.
        -24    2    1    2    0    0 -0.62221383344E+02  0.34318404872E+02 -0.11420592551E+03  0.15471194498E+03  0.76443044418E+02 0.  0.
        -11    1    3    3    0    0  0.61149778604E+01  0.12150362095E+02 -0.12291675778E+03  0.12366710798E+03  0.00000000000E+00 0.  1.
         12    1    3    3    0    0 -0.57866979670E+02  0.16930091609E+03 -0.42444496329E+03  0.46061362809E+03  0.00000000000E+00 0. -1.
         13    1    5    5    0    0  0.54534808221E+01  0.27475211346E+02 -0.64943406102E+02  0.70726753691E+02  0.00000000000E+00 0. -1.
        -14    1    5    5    0    0 -0.67674864166E+02  0.68431935263E+01 -0.49262519411E+02  0.83985191292E+02  0.00000000000E+00 0.  1.
          5    1    4    4  501    0  0.78124170131E+01  0.90219449281E+01  0.78023297530E+00  0.12669274382E+02  0.41800000000E+01 0. -1.
         -5    1    4    4    0  501  0.10616096814E+03 -0.22479162799E+03 -0.42820521834E+03  0.49515513588E+03  0.41800000000E+01 0. -1.
</event>
<event>
11    1  0.8551154E-009  0.1335218E+03  0.7561462E-02  0.1115016E+00
         22   -1    0    0    0    0  0.00000000000E+00  0.00000000000E+00  0.92648897724E+03  0.92648897724E+03  0.00000000000E+00 0.  1.
         22   -1    0    0    0    0 -0.00000000000E+00 -0.00000000000E+00 -0.50258122401E+03  0.50258122401E+03  0.00000000000E+00 0.  1.
         24    2    1    2    0    0  0.49066456366E+01 -0.11147320568E+02 -0.44897448436E+03  0.45586074194E+03  0.77990964292E+02 0.  0.
         25    2    1    2    0    0  0.41644118720E+02  0.41702298641E+01  0.43884158903E+02  0.13900092843E+03  0.12507523840E+03 0.  0.
        -24    2    1    2    0    0 -0.46550764356E+02  0.69770907038E+01  0.82899807869E+03  0.83420853087E+03  0.80314413796E+02 0.  0.
        -13    1    3    3    0    0  0.15720029686E+02  0.31338307388E+02 -0.19268713264E+03  0.19585081039E+03  0.00000000000E+00 0.  1.
         14    1    3    3    0    0 -0.10813384049E+02 -0.42485627956E+02 -0.25628735171E+03  0.26000993155E+03  0.00000000000E+00 0. -1.
         13    1    5    5    0    0 -0.20318514741E+02 -0.10855935632E+02  0.55910159549E+02  0.60470152311E+02  0.00000000000E+00 0. -1.
        -14    1    5    5    0    0 -0.26232249616E+02  0.17833026335E+02  0.77308791914E+03  0.77373837856E+03  0.00000000000E+00 0.  1.
          5    1    4    4  501    0 -0.14683916868E+02  0.46894412475E+01  0.73505045477E+02  0.75220159428E+02  0.41800000000E+01 0.  1.
         -5    1    4    4    0  501  0.56328035588E+02 -0.51921138344E+00 -0.29620886574E+02  0.63780769006E+02  0.41800000000E+01 0.  1.
</event>
<event>
11    1  0.8551154E-009  0.2125034E+03  0.7561462E-02  0.1046018E+00
         22   -1    0    0    0    0  0.00000000000E+00  0.00000000000E+00  0.40911383881E+03  0.40911383881E+03  0.00000000000E+00 0.  1.
         22   -1    0    0    0    0 -0.00000000000E+00 -0.00000000000E+00 -0.47459891151E+03  0.47459891151E+03  0.00000000000E+00 0.  1.
        -24    2    1    2    0    0 -0.12932546671E+03 -0.11923511578E+03 -0.34618974839E+03  0.39719396397E+03  0.83508166990E+02 0.  0.
         25    2    1    2    0    0  0.42575054018E+02  0.16922280131E+03  0.46489090810E+02  0.21967689938E+03  0.12509081842E+03 0.  0.
         24    2    1    2    0    0  0.86750412690E+02 -0.49987685529E+02  0.23421558487E+03  0.26684188696E+03  0.79518863390E+02 0.  0.
        -11    1    5    5    0    0  0.64397753056E+02 -0.64794573723E+02  0.21572960705E+03  0.23427477615E+03  0.00000000000E+00 0.  1.
         12    1    5    5    0    0  0.22352659634E+02  0.14806888193E+02  0.18485977823E+02  0.32567110814E+02  0.00000000000E+00 0. -1.
         11    1    3    3    0    0 -0.49297464399E+02  0.14840667161E+01 -0.10158557977E+03  0.11292507457E+03  0.00000000000E+00 0. -1.
        -12    1    3    3    0    0 -0.80028002310E+02 -0.12071918249E+03 -0.24460416863E+03  0.28426888941E+03  0.00000000000E+00 0.  1.
          5    1    4    4  501    0  0.36822658602E+02  0.18634180666E+03  0.25533839306E+02  0.19169931259E+03  0.41800000000E+01 0.  1.
         -5    1    4    4    0  501  0.57523954157E+01 -0.17119005356E+02  0.20955251504E+02  0.27977586797E+02  0.41800000000E+01 0.  1.
</event>
<event>
11    1  0.8551154E-009  0.1391483E+03  0.7561462E-02  0.1108513E+00
         22   -1    0    0    0    0  0.00000000000E+00  0.00000000000E+00  0.25472274156E+04  0.25472274156E+04  0.00000000000E+00 0. -1.
         22   -1    0    0    0    0 -0.00000000000E+00 -0.00000000000E+00 -0.31414421486E+03  0.31414421486E+03  0.00000000000E+00 0. -1.
         24    2    1    2    0    0  0.28268347091E+02  0.34518735472E+02 -0.24615743537E+03  0.26191731895E+03  0.77566464623E+02 0.  0.
         25    2    1    2    0    0  0.33139803544E+02 -0.31172403695E+02  0.16056245384E+02  0.13407065086E+03  0.12508865286E+03 0.  0.
        -24    2    1    2    0    0 -0.61408150635E+02 -0.33463317774E+01  0.24631843907E+04  0.24653836606E+04  0.84006503493E+02 0.  0.
        -11    1    3    3    0    0  0.32781663428E+02  0.24440261275E+00 -0.20743094113E+03  0.21000545833E+03  0.00000000000E+00 0.  1.
         12    1    3    3    0    0 -0.45133163362E+01  0.34274332859E+02 -0.38726494233E+02  0.51911860619E+02  0.00000000000E+00 0. -1.
         13    1    5    5    0    0 -0.78532624113E+01  0.31908627791E+02  0.13149274516E+04  0.13153379936E+04  0.00000000000E+00 0. -1.
        -14    1    5    5    0    0 -0.53554888224E+02 -0.35254959569E+02  0.11482569391E+04  0.11500456671E+04  0.00000000000E+00 0.  1.
          5    1    4    4  501    0  0.64049136540E+02 -0.60740805218E+02  0.52296420274E+00  0.88371280412E+02  0.41800000000E+01 0.  1.
         -5    1    4    4    0  501 -0.30909332996E+02  0.29568401524E+02  0.15533281181E+02  0.45699370446E+02  0.41800000000E+01 0.  1.
</event>
<event>
11    1  0.8551154E-009  0.1439204E+03  0.7561462E-02  0.1103258E+00
         22   -1    0    0    0    0  0.00000000000E+00  0.00000000000E+00  0.27326490586E+03  0.27326490586E+03  0.00000000000E+00 0.  1.
         22   -1    0    0    0    0 -0.00000000000E+00 -0.00000000000E+00 -0.31992770603E+03  0.31992770603E+03  0.00000000000E+00 0. -1.
        -24    2    1    2    0    0 -0.21751171101E+02 -0.51985517892E+02 -0.13795425042E+03  0.16953370412E+03  0.80837454868E+02 0.  0.
         25    2    1    2    0    0 -0.51198526691E+02  0.46156161434E+02 -0.11961288178E+03  0.18627225253E+03  0.12505370927E+03 0.  0.
         24    2    1    2    0    0  0.72949697792E+02  0.58293564575E+01  0.21090433203E+03  0.23738665524E+03  0.80722654891E+02 0.  0.
        -13    1    5    5    0    0  0.68851149635E+02  0.27222533029E+02  0.10034676904E+03  0.12470373357E+03  0.00000000000E+00 0.  1.
         14    1    5    5    0    0  0.40985481565E+01 -0.21393176571E+02  0.11055756299E+03  0.11268292167E+03  0.00000000000E+00 0. -1.
         11    1    3    3    0    0  0.17047784734E+02 -0.48201806250E+02 -0.42707465109E+02  0.66618080625E+02  0.00000000000E+00 0. -1.
        -12    1    3    3    0    0 -0.38798955835E+02 -0.37837116414E+01 -0.95246785308E+02  0.10291562349E+03  0.00000000000E+00 0.  1.
          5    1    4    4  501    0  0.98210620367E+01 -0.25905164344E+02  0.64111733442E+01  0.28742065737E+02  0.41800000000E+01 0. -1.
         -5    1    4    4    0  501 -0.61019588728E+02  0.72061325778E+02 -0.12602405513E+03  0.15753018680E+03  0.41800000000E+01 0. -1.
</event>
<event>
11    1  0.8551154E-009  0.1384328E+03  0.7561462E-02  0.1109321E+00
         22   -1    0    0    0    0  0.00000000000E+00  0.00000000000E+00  0.67284887954E+03  0.67284887954E+03  0.00000000000E+00 0.  1.
         22   -1    0    0    0    0 -0.00000000000E+00 -0.00000000000E+00 -0.26497696789E+03  0.26497696789E+03  0.00000000000E+00 0. -1.
         24    2    1    2    0    0 -0.56800224189E+02 -0.61974582917E+01 -0.21040849529E+03  0.23207949935E+03  0.79526631848E+02 0.  0.
         25    2    1    2    0    0  0.87305011488E+02  0.14727746558E+02  0.10576692853E+03  0.18620728315E+03  0.12508971811E+03 0.  0.
        -24    2    1    2    0    0 -0.30504787299E+02 -0.85302882664E+01  0.51251347840E+03  0.51953906493E+03  0.79040917119E+02 0.  0.
        -11    1    3    3    0    0 -0.19942993974E+02  0.17987134820E+02 -0.13052813620E+02  0.29860274129E+02  0.00000000000E+00 0.  1.
         12    1    3    3    0    0 -0.36857230216E+02 -0.24184593112E+02 -0.19735568167E+03  0.20221922522E+03  0.00000000000E+00 0. -1.
         13    1    5    5    0    0  0.20594232927E+02  0.18180374450E+02  0.17089309117E+03  0.17308696385E+03  0.00000000000E+00 0. -1.
        -14    1    5    5    0    0 -0.51099020226E+02 -0.26710662717E+02  0.34162038722E+03  0.34645210107E+03  0.00000000000E+00 0.  1.
          5    1    4    4  501    0  0.22956225233E+02  0.62845825564E+02  0.23245056383E+02  0.70953443285E+02  0.41800000000E+01 0. -1.
         -5    1    4    4    0  501  0.64348786254E+02 -0.48118079006E+02  0.82521872152E+02  0.11525383986E+03  0.41800000000E+01 0. -1.
</event>
<event>
11    1  0.8551154E-009  0.1292144E+03  0.7561462E-02  0.1120238E+00
         22   -1    0    0    0    0  0.00000000000E+00  0.00000000000E+00  0.11415146570E+03  0.11415146570E+03  0.00000000000E+00 0.  1.
         22   -1    0    0    0    0 -0.00000000000E+00 -0.00000000000E+00 -0.89594022161E+03  0.89594022161E+03  0.00000000000E+00 0.  1.
        -24    2    1    2    0    0 -0.17200052224E+02 -0.26227379279E+02 -0.73145417486E+03  0.73625130755E+03  0.77827120757E+02 0.  0.
         25    2    1    2    0    0  0.14123943455E+02  0.45978701588E+02 -0.10858311681E+03  0.17248062570E+03  0.12508295730E+03 0.  0.
         24    2    1    2    0    0  0.30761087691E+01 -0.19751322309E+02  0.58248535762E+02  0.10135975405E+03  0.80506711800E+02 0.  0.
        -11    1    5    5    0    0 -0.12021401365E+02 -0.32999025624E+02  0.69837059717E+02  0.78170740644E+02  0.00000000000E+00 0.  1.
         12    1    5    5    0    0  0.15097510134E+02  0.13247703315E+02 -0.11588523955E+02  0.23189013407E+02  0.00000000000E+00 0. -1.
         13    1    3    3    0    0 -0.21501788060E+02  0.11155397181E+02 -0.77092204402E+02  0.80808277767E+02  0.00000000000E+00 0. -1.
        -14    1    3    3    0    0  0.43017358360E+01 -0.37382776460E+02 -0.65436197046E+03  0.65544302978E+03  0.00000000000E+00 0.  1.
          5    1    4    4  501    0  0.12777211598E+02 -0.15753291068E+02 -0.10863621534E+03  0.11059259921E+03  0.41800000000E+01 0.  1.
         -5    1    4    4    0  501  0.13467318573E+01  0.61731992655E+02  0.53098529570E-01  0.61888026494E+02  0.41800000000E+01 0.  1.
</event>
<event>
11    1  0.8551154E-009  0.1557949E+03  0.7561462E-02  0.1091100E+00
         22   -1    0    0    0    0  0.00000000000E+00  0.00000000000E+00  0.25259650777E+03  0.25259650777E+03  0.00000000000E+00 0. -1.
         22   -1    0    0    0    0 -0.00000000000E+00 -0.00000000000E+00 -0.31014609647E+03  0.31014609647E+03  0.00000000000E+00 0. -1.
         24    2    1    2    0    0 -0.73495165290E+02 -0.23432181315E+02 -0.20509383123E+03  0.23615080865E+03  0.88051793714E+02 0.  0.
         25    2    1    2    0    0 -0.29718657274E+01  0.93786507009E+02  0.55740076048E+02  0.16601148763E+03  0.12509243408E+03 0.  0.
        -24    2    1    2    0    0  0.76467031017E+02 -0.70354325694E+02  0.91804166485E+02  0.16058030796E+03  0.81000570033E+02 0.  0.
        -11    1    3    3    0    0  0.14224022700E+02  0.40189802805E+01 -0.44181165931E+01  0.15427079390E+02  0.00000000000E+00 0.  1.
         12    1    3    3    0    0 -0.87719187990E+02 -0.27451161596E+02 -0.20067571464E+03  0.22072372926E+03  0.00000000000E+00 0. -1.
         13    1    5    5    0    0  0.54624494506E+02 -0.84455297012E+02  0.52507610975E+02  0.11346180769E+03  0.00000000000E+00 0. -1.
        -14    1    5    5    0    0  0.21842536511E+02  0.14100971319E+02  0.39296555510E+02  0.47118500277E+02  0.00000000000E+00 0.  1.
          5    1    4    4  501    0 -0.81252519314E+01 -0.26171304872E+02 -0.94953154251E+01  0.29301712112E+02  0.41800000000E+01 0.  1.
         -5    1    4    4    0  501  0.51533862039E+01  0.11995781188E+03  0.65235391473E+02  0.13670977552E+03  0.41800000000E+01 0.  1.
</event>
<event>
11    1  0.8551154E-009  0.1298706E+03  0.7561462E-02  0.1119428E+00
         22   -1    0    0    0    0  0.00000000000E+00  0.00000000000E+00  0.55362632598E+03  0.55362632598E+03  0.00000000000E+00 0. -1.
         22   -1    0    0    0    0 -0.00000000000E+00 -0.00000000000E+00 -0.14239333686E+03  0.14239333686E+03  0.00000000000E+00 0.  1.
         24    2    1    2    0    0  0.11772064029E+02  0.32485333984E+02 -0.86139286130E+02  0.12356259576E+03  0.81571196151E+02 0.  0.
         25    2    1    2    0    0 -0.34293293739E+02 -0.26405716699E+02  0.99058142115E+02  0.16532743139E+03  0.12508937677E+03 0.  0.
        -24    2    1    2    0    0  0.22521229710E+02 -0.60796172852E+01  0.39831413314E+03  0.40712963569E+03  0.80970513572E+02 0.  0.
        -11    1    3    3    0    0  0.47206083435E+01  0.59978610268E+02 -0.56776386398E+02  0.82724094950E+02  0.00000000000E+00 0.  1.
         12    1    3    3    0    0  0.70514556855E+01 -0.27493276284E+02 -0.29362899732E+02  0.40838500814E+02  0.00000000000E+00 0. -1.
         11    1    5    5    0    0 -0.12743918752E+02 -0.35890812819E+02  0.18064618222E+03  0.18461744517E+03  0.00000000000E+00 0. -1.
        -12    1    5    5    0    0  0.35265148462E+02  0.29811195533E+02  0.21766795091E+03  0.22251219052E+03  0.00000000000E+00 0.  1.
          5    1    4    4  501    0  0.17586026988E+02  0.55504801177E+01 -0.22438697684E+02  0.29343546625E+02  0.41800000000E+01 0. -1.
         -5    1    4    4    0  501 -0.51879320727E+02 -0.31956196817E+02  0.12149683980E+03  0.13598388476E+03  0.41800000000E+01 0. -1.
</event>
<event>
11    1  0.8551154E-009  0.1516245E+03  0.7561462E-02  0.1095230E+00
         22   -1    0    0    0    0  0.00000000000E+00  0.00000000000E+00  0.11178700008E+04  0.11178700008E+04  0.00000000000E+00 0.  1.
         22   -1    0    0    0    0 -0.00000000000E+00 -0.00000000000E+00 -0.30158283595E+03  0.30158283595E+03  0.00000000000E+00 0.  1.
        -24    2    1    2    0    0 -0.49974475489E+02  0.38332281589E+00 -0.26265663333E+03  0.27873569262E+03  0.78787588943E+02 0.  0.
         25    2    1    2    0    0 -0.42152200347E+02 -0.24131842437E+01  0.13514114990E+03  0.18892614260E+03  0.12508927016E+03 0.  0.
         24    2    1    2    0    0  0.92126675837E+02  0.20298614278E+01  0.94380264831E+03  0.95179100156E+03  0.81555054779E+02 0.  0.
        -13    1    5    5    0    0  0.55939444442E+02  0.10453426338E+02  0.83266062249E+03  0.83460302409E+03  0.00000000000E+00 0.  1.
         14    1    5    5    0    0  0.36187231395E+02 -0.84235649106E+01  0.11114202582E+03  0.11718797748E+03  0.00000000000E+00 0. -1.
         13    1    3    3    0    0 -0.15181500427E+02  0.33478892369E+02 -0.17469096711E+03  0.17851680083E+03  0.00000000000E+00 0. -1.
        -14    1    3    3    0    0 -0.34792975062E+02 -0.33095569553E+02 -0.87965666219E+02  0.10021889179E+03  0.00000000000E+00 0.  1.
          5    1    4    4  501    0 -0.65272855654E+02 -0.28855658375E+02  0.13588787023E+03  0.15354536913E+03  0.41800000000E+01 0. -1.
         -5    1    4    4    0  501  0.23120655307E+02  0.26442474131E+02 -0.74672032903E+00  0.35380773469E+02  0.41800000000E+01 0. -1.
</event>
<event>
11    1  0.8551154E-009  0.1480662E+03  0.7561462E-02  0.1098871E+00
         22   -1    0    0    0    0  0.00000000000E+00  0.00000000000E+00  0.77886571836E+03  0.77886571836E+03  0.00000000000E+00 0. -1.
         22   -1    0    0    0    0 -0.00000000000E+00 -0.00000000000E+00 -0.97498641164E+03  0.97498641164E+03  0.00000000000E+00 0.  1.
        -24    2    1    2    0    0 -0.43382567744E+02 -0.68141726653E+02 -0.80054350363E+03  0.80865046658E+03  0.80748583889E+02 0.  0.
         25    2    1    2    0    0  0.89304359680E+02  0.17521468390E+02 -0.13065997482E+03  0.20248476180E+03  0.12508308930E+03 0.  0.
         24    2    1    2    0    0 -0.45921791936E+02  0.50620258263E+02  0.73508278517E+03  0.74271690163E+03  0.81304817765E+02 0.  0.
        -13    1    5    5    0    0 -0.95054754500E+00  0.13055454665E+00 -0.21686966755E+01  0.23714616580E+01  0.00000000000E+00 0.  1.
         14    1    5    5    0    0 -0.44971244391E+02  0.50489703716E+02  0.73725148184E+03  0.74034543997E+03  0.00000000000E+00 0. -1.
         13    1    3    3    0    0  0.14857026902E+02 -0.50773634294E+02 -0.33361084724E+03  0.33777935193E+03  0.00000000000E+00 0. -1.
        -14    1    3    3    0    0 -0.58239594646E+02 -0.17368092358E+02 -0.46693265639E+03  0.47087111466E+03  0.00000000000E+00 0.  1.
          5    1    4    4  501    0  0.33191416003E+02  0.61728068316E+02 -0.24304667526E+02  0.74298141147E+02  0.41800000000E+01 0. -1.
         -5    1    4    4    0  501  0.56112943676E+02 -0.44206599926E+02 -0.10635530729E+03  0.12818662065E+03  0.41800000000E+01 0. -1.
</event>
<event>
11    1  0.8551154E-009  0.1650342E+03  0.7561462E-02  0.1082436E+00
         22   -1    0    0    0    0  0.00000000000E+00  0.00000000000E+00  0.17976985409E+03  0.17976985409E+03  0.00000000000E+00 0. -1.
         22   -1    0    0    0    0 -0.00000000000E+00 -0.00000000000E+00 -0.42448512133E+03  0.42448512133E+03  0.00000000000E+00 0. -1.
         24    2    1    2    0    0 -0.32069101373E+01  0.13894810923E+02 -0.16295909122E+03  0.18240035812E+03  0.80689994356E+02 0.  0.
         25    2    1    2    0    0  0.10877429645E+03  0.67862777702E+01 -0.18761488650E+03  0.25044876022E+03  0.12508930700E+03 0.  0.
        -24    2    1    2    0    0 -0.10556738631E+03 -0.20681088693E+02  0.10585871047E+03  0.17140585708E+03  0.81250974005E+02 0.  0.
        -13    1    3    3    0    0 -0.26028283870E+02  0.32049698396E+02 -0.45783589132E+02  0.61650561736E+02  0.00000000000E+00 0.  1.
         14    1    3    3    0    0  0.22821373733E+02 -0.18154887473E+02 -0.11717550209E+03  0.12074979639E+03  0.00000000000E+00 0. -1.
         13    1    5    5    0    0 -0.93402319206E+02 -0.29818402611E+02  0.11692472739E+03  0.15259266772E+03  0.00000000000E+00 0. -1.
        -14    1    5    5    0    0 -0.12165067106E+02  0.91373139173E+01 -0.11066016920E+02  0.18813189358E+02  0.00000000000E+00 0.  1.
          5    1    4    4  501    0  0.67783344323E+02 -0.57052399010E+02 -0.11611935599E+03  0.14611890786E+03  0.41800000000E+01 0. -1.
         -5    1    4    4    0  501  0.40990952126E+02  0.63838676780E+02 -0.71495530514E+02  0.10432985236E+03  0.41800000000E+01 0. -1.
</event>
<event>
11    1  0.8551154E-009  0.1616845E+03  0.7561462E-02  0.1085504E+00
         22   -1    0    0    0    0  0.00000000000E+00  0.00000000000E+00  0.30160424641E+03  0.30160424641E+03  0.00000000000E+00 0. -1.
         22   -1    0    0    0    0 -0.00000000000E+00 -0.00000000000E+00 -0.44432396748E+03  0.44432396748E+03  0.00000000000E+00 0. -1.
        -24    2    1    2    0    0 -0.44713073981E+02  0.45090361518E+02 -0.28441716986E+03  0.30235862333E+03  0.80592871277E+02 0.  0.
         25    2    1    2    0    0  0.50215137573E+01  0.56785377021E+02 -0.97509675476E+02  0.16852572428E+03  0.12507193246E+03 0.  0.
         24    2    1    2    0    0  0.39691560224E+02 -0.10187573854E+03  0.23920712427E+03  0.27504386628E+03  0.80467347538E+02 0.  0.
        -13    1    5    5    0    0 -0.80551407014E+01 -0.50133501730E+02  0.42832815861E+02  0.66429687656E+02  0.00000000000E+00 0.  1.
         14    1    5    5    0    0  0.47746700925E+02 -0.51742236809E+02  0.19637430841E+03  0.20861417862E+03  0.00000000000E+00 0. -1.
         11    1    3    3    0    0 -0.57439109810E+02  0.53346898474E+02 -0.27098818165E+03  0.28209880805E+03  0.00000000000E+00 0. -1.
        -12    1    3    3    0    0  0.12726035829E+02 -0.82565369558E+01 -0.13428988215E+02  0.20259815273E+02  0.00000000000E+00 0.  1.
          5    1    4    4  501    0  0.15781563660E+02  0.21447566755E+02  0.27259826806E+02  0.38335706968E+02  0.41800000000E+01 0.  1.
         -5    1    4    4    0  501 -0.10760049903E+02  0.35337810267E+02 -0.12476950228E+03  0.13019001731E+03  0.41800000000E+01 0.  1.
</event>
<event>
11    1  0.8551154E-009  0.1808308E+03  0.7561462E-02  0.1068973E+00
         22   -1    0    0    0    0  0.00000000000E+00  0.00000000000E+00  0.26082939501E+03  0.26082939501E+03  0.00000000000E+00 0. -1.
         22   -1    0    0    0    0 -0.00000000000E+00 -0.00000000000E+00 -0.10300480789E+04  0.10300480789E+04  0.00000000000E+00 0.  1.
        -24    2    1    2    0    0 -0.58867539453E+02 -0.22718985252E+02 -0.87657716539E+03  0.88265914106E+03  0.81963973295E+02 0.  0.
         25    2    1    2    0    0  0.12139036125E+03  0.12509435331E+03 -0.22737030047E+02  0.21575390520E+03  0.12509419667E+03 0.  0.
         24    2    1    2    0    0 -0.62522821796E+02 -0.10237536806E+03  0.13009551152E+03  0.19246442767E+03  0.75682855185E+02 0.  0.
        -11    1    5    5    0    0  0.17337745626E+01 -0.58703171612E+02  0.82783423457E+02  0.10149957404E+03  0.00000000000E+00 0.  1.
         12    1    5    5    0    0 -0.64256596358E+02 -0.43672196447E+02  0.47312088063E+02  0.90964853625E+02  0.00000000000E+00 0. -1.
         11    1    3    3    0    0 -0.26093769192E+01 -0.22585744526E+02 -0.60272474958E+02  0.64418133637E+02  0.00000000000E+00 0. -1.
        -12    1    3    3    0    0 -0.56258162534E+02 -0.13324072586E+00 -0.81630469043E+03  0.81824100742E+03  0.00000000000E+00 0.  1.
          5    1    4    4  501    0  0.73239893130E+02  0.78386080957E+02  0.48506877168E+02  0.11780852756E+03  0.41800000000E+01 0.  1.
         -5    1    4    4    0  501  0.48150468119E+02  0.46708272354E+02 -0.71243907215E+02  0.97945377643E+02  0.41800000000E+01 0.  1.
</event>
<event>
11    1  0.8551154E-009  0.1296478E+03  0.7561462E-02  0.1119702E+00
         22   -1    0    0    0    0  0.00000000000E+00  0.00000000000E+00  0.10504736626E+04  0.10504736626E+04  0.00000000000E+00 0. -1.
         22   -1    0    0    0    0 -0.00000000000E+00 -0.00000000000E+00 -0.44063074361E+03  0.44063074361E+03  0.00000000000E+00 0.  1.
         24    2    1    2    0    0 -0.14093025933E+02  0.78601876589E+01 -0.34095875547E+03  0.35106357460E+03  0.82050987502E+02 0.  0.
         25    2    1    2    0    0  0.90298946039E+01 -0.41446682684E+02 -0.45478984934E+02  0.13969313113E+03  0.12508583578E+03 0.  0.
        -24    2    1    2    0    0  0.50631313287E+01  0.33586495025E+02  0.99628065939E+03  0.10003477005E+04  0.83466649740E+02 0.  0.
        -13    1    3    3    0    0 -0.97455335400E+01  0.37607530328E+02 -0.28412087288E+03  0.28676466339E+03  0.00000000000E+00 0.  1.
         14    1    3    3    0    0 -0.43474923926E+01 -0.29747342669E+02 -0.56837882588E+02  0.64298911212E+02  0.00000000000E+00 0. -1.
         11    1    5    5    0    0  0.30027700898E+02  0.12774383039E+02  0.84430762748E+03  0.84493799624E+03  0.00000000000E+00 0. -1.
        -12    1    5    5    0    0 -0.24964569569E+02  0.20812111986E+02  0.15197303192E+03  0.15540970423E+03  0.00000000000E+00 0.  1.
          5    1    4    4  501    0  0.53206740526E+01 -0.58251983340E+02 -0.81000911144E+02  0.10000111570E+03  0.41800000000E+01 0.  1.
         -5    1    4    4    0  501  0.37092205512E+01  0.16805300656E+02  0.35521926210E+02  0.39692015430E+02  0.41800000000E+01 0.  1.
</event>
<event>
11    1  0.8551154E-009  0.4836375E+03  0.7561462E-02  0.9430846E-01
         22   -1    0    0    0    0  0.00000000000E+00  0.00000000000E+00  0.16134094292E+04  0.16134094292E+04  0.00000000000E+00 0.  1.
         22   -1    0    0    0    0 -0.00000000000E+00 -0.00000000000E+00 -0.21964607642E+03  0.21964607642E+03  0.00000000000E+00 0.  1.
         24    2    1    2    0    0  0.22065565547E+02  0.11356111830E+03  0.14679034697E+03  0.20444350810E+03  0.82865706226E+02 0.  0.
         25    2    1    2    0    0 -0.48152849846E+03 -0.47376831490E+02  0.33348854560E+03  0.60081261979E+03  0.12508770949E+03 0.  0.
        -24    2    1    2    0    0  0.45946293291E+03 -0.66184286812E+02  0.91348446017E+03  0.10277993777E+04  0.80194484044E+02 0.  0.
        -13    1    3    3    0    0  0.49530816939E+02  0.96273679724E+02  0.99205714000E+02  0.14684582706E+03  0.00000000000E+00 0.  1.
         14    1    3    3    0    0 -0.27465251392E+02  0.17287438578E+02  0.47584632972E+02  0.57597681044E+02  0.00000000000E+00 0. -1.
         13    1    5    5    0    0  0.23154380795E+03 -0.62090265929E+02  0.52969301572E+03  0.58141416135E+03  0.00000000000E+00 0. -1.
        -14    1    5    5    0    0  0.22791912496E+03 -0.40940208833E+01  0.38379144445E+03  0.44638521633E+03  0.00000000000E+00 0.  1.
          5    1    4    4  501    0 -0.16608417907E+03  0.38159000785E+02  0.14295339516E+03  0.22247069350E+03  0.41800000000E+01 0. -1.
         -5    1    4    4    0  501 -0.31544431938E+03 -0.85535832275E+02  0.19053515044E+03  0.37834192629E+03  0.41800000000E+01 0. -1.
</event>
<event>
11    1  0.8551154E-009  0.3732977E+03  0.7561462E-02  0.9732005E-01
         22   -1    0    0    0    0  0.00000000000E+00  0.00000000000E+00  0.53364329729E+03  0.53364329729E+03  0.00000000000E+00 0. -1.
         22   -1    0    0    0    0 -0.00000000000E+00 -0.00000000000E+00 -0.17365475704E+04  0.17365475704E+04  0.00000000000E+00 0.  1.
         24    2    1    2    0    0  0.91855898540E+02 -0.94854862128E+02 -0.44595207173E+03  0.47225567846E+03  0.81958676137E+02 0.  0.
         25    2    1    2    0    0 -0.38741942239E+03 -0.93089754526E+02 -0.11746128348E+04  0.12466443859E+04  0.12508957633E+03 0.  0.
        -24    2    1    2    0    0  0.29556352385E+03  0.18794461665E+03  0.41766063343E+03  0.55129080327E+03  0.82463140221E+02 0.  0.
        -11    1    3    3    0    0 -0.11507927767E+02 -0.18493616015E+02 -0.11856618451E+03  0.12055034775E+03  0.00000000000E+00 0.  1.
         12    1    3    3    0    0  0.10336382631E+03 -0.76361246113E+02 -0.32738588722E+03  0.35170533071E+03  0.00000000000E+00 0. -1.
         13    1    5    5    0    0  0.24762639647E+03  0.18269569827E+03  0.38578622494E+03  0.49348511806E+03  0.00000000000E+00 0. -1.
        -14    1    5    5    0    0  0.47937127387E+02  0.52489183842E+01  0.31874408485E+02  0.57805685210E+02  0.00000000000E+00 0.  1.
          5    1    4    4  501    0 -0.33781956207E+02  0.71939253501E+01 -0.23706399008E+03  0.23960338253E+03  0.41800000000E+01 0. -1.
         -5    1    4    4    0  501 -0.35363746619E+03 -0.10028367988E+03 -0.93754884470E+03  0.10070410034E+04  0.41800000000E+01 0. -1.
</event>
<event>
11    1  0.8551154E-009  0.2207470E+03  0.7561462E-02  0.1040751E+00
         22   -1    0    0    0    0  0.00000000000E+00  0.00000000000E+00  0.26054768498E+04  0.26054768498E+04  0.00000000000E+00 0.  1.
         22   -1    0    0    0    0 -0.00000000000E+00 -0.00000000000E+00 -0.12620024735E+03  0.12620024735E+03  0.00000000000E+00 0. -1.
         24    2    1    2    0    0 -0.13311326530E+03  0.12274325306E+03 -0.30653760410E+02  0.19975003966E+03  0.78583571732E+02 0.  0.
         25    2    1    2    0    0  0.12038182741E+03 -0.16050717822E+03  0.16065885226E+04  0.16238930803E+04  0.12509083418E+03 0.  0.
        -24    2    1    2    0    0  0.12731437891E+02  0.37763925156E+02  0.90334184034E+03  0.90803397724E+03  0.83132543309E+02 0.  0.
        -11    1    3    3    0    0  0.31442471600E+01 -0.58632308733E+01  0.58531757522E+01  0.88613448676E+01  0.00000000000E+00 0.  1.
         12    1    3    3    0    0 -0.13625751246E+03  0.12860648394E+03 -0.36506936162E+02  0.19088869479E+03  0.00000000000E+00 0. -1.
         11    1    5    5    0    0 -0.33115053080E+02  0.16498672605E+01  0.27640597604E+03  0.27838748606E+03  0.00000000000E+00 0. -1.
        -12    1    5    5    0    0  0.45846490971E+02  0.36114057896E+02  0.62693586430E+03  0.62964649118E+03  0.00000000000E+00 0.  1.
          5    1    4    4  501    0  0.52239779557E+02  0.69656215780E+01  0.27028936086E+03  0.27541119339E+03  0.41800000000E+01 0. -1.
         -5    1    4    4    0  501  0.68142047850E+02 -0.16747279980E+03  0.13362991617E+04  0.13484818869E+04  0.41800000000E+01 0. -1.
</event>
<event>
11    1  0.8551154E-009  0.1406894E+03  0.7561462E-02  0.1106791E+00
         22   -1    0    0    0    0  0.00000000000E+00  0.00000000000E+00  0.27713214503E+03  0.27713214503E+03  0.00000000000E+00 0.  1.
         22   -1    0    0    0    0 -0.00000000000E+00 -0.00000000000E+00 -0.10419106919E+04  0.10419106919E+04  0.00000000000E+00 0.  1.
        -24    2    1    2    0    0 -0.65189240446E+02  0.32212838226E+01 -0.85120844600E+03  0.85753508405E+03  0.80935703472E+02 0.  0.
         25    2    1    2    0    0  0.57609527835E+02  0.66535077208E+01 -0.15462364347E+03  0.20716264451E+03  0.12507902822E+03 0.  0.
         24    2    1    2    0    0  0.75797126111E+01 -0.98747915434E+01  0.24105354263E+03  0.25434510835E+03  0.80185161817E+02 0.  0.
        -11    1    5    5    0    0 -0.27558664459E+02  0.16332373312E+02  0.14876637011E+03  0.15217640843E+03  0.00000000000E+00 0.  1.
         12    1    5    5    0    0  0.35138377070E+02 -0.26207164855E+02  0.92287172514E+02  0.10216869992E+03  0.00000000000E+00 0. -1.
         13    1    3    3    0    0  0.87327797525E+01 -0.65978962968E+01 -0.18506858584E+02  0.21501104446E+02  0.00000000000E+00 0. -1.
        -14    1    3    3    0    0 -0.73922020198E+02  0.98191801194E+01 -0.83270158742E+03  0.83603397960E+03  0.00000000000E+00 0.  1.
          5    1    4    4  501    0  0.41916434810E+01  0.47865690347E+02 -0.12563507192E+02  0.49839826449E+02  0.41800000000E+01 0.  1.
         -5    1    4    4    0  501  0.53417884354E+02 -0.41212182626E+02 -0.14206013627E+03  0.15732281807E+03  0.41800000000E+01 0.  1.
</event>
<event>
11    1  0.8551154E-009  0.1730547E+03  0.7561462E-02  0.1075404E+00
         22   -1    0    0    0    0  0.00000000000E+00  0.00000000000E+00  0.27153346316E+03  0.27153346316E+03  0.00000000000E+00 0.  1.
         22   -1    0    0    0    0 -0.00000000000E+00 -0.00000000000E+00 -0.39651777727E+03  0.39651777727E+03  0.00000000000E+00 0.  1.
        -24    2    1    2    0    0 -0.48566425073E+02  0.42651322352E+02 -0.14072834547E+03  0.17580117917E+03  0.83209100679E+02 0.  0.
         25    2    1    2    0    0 -0.60911398636E+02  0.19874296488E+02 -0.19069879899E+03  0.23689513815E+03  0.12509231950E+03 0.  0.
         24    2    1    2    0    0  0.10947782371E+03 -0.62525618839E+02  0.20644283036E+03  0.25535492310E+03  0.81808603773E+02 0.  0.
        -13    1    5    5    0    0  0.62598068790E+02 -0.38455897758E+02  0.18391142210E+03  0.19804238300E+03  0.00000000000E+00 0.  1.
         14    1    5    5    0    0  0.46879754919E+02 -0.24069721081E+02  0.22531408260E+02  0.57312540096E+02  0.00000000000E+00 0. -1.
         11    1    3    3    0    0 -0.52039859308E+02 -0.88984878532E+01 -0.82589060978E+02  0.98021849789E+02  0.00000000000E+00 0. -1.
        -12    1    3    3    0    0  0.34734342348E+01  0.51549810205E+02 -0.58139284492E+02  0.77779329380E+02  0.00000000000E+00 0.  1.
          5    1    4    4  501    0 -0.52056114296E+02 -0.48239838651E+02 -0.10815790093E+03  0.12943154562E+03  0.41800000000E+01 0.  1.
         -5    1    4    4    0  501 -0.88552843394E+01  0.68114135139E+02 -0.82540898067E+02  0.10746359253E+03  0.41800000000E+01 0.  1.
</event>
<event>
11    1  0.8551154E-009  0.1728195E+03  0.7561462E-02  0.1075604E+00
         22   -1    0    0    0    0  0.00000000000E+00  0.00000000000E+00  0.15909041653E+04  0.15909041653E+04  0.00000000000E+00 0.  1.
         22   -1    0    0    0    0 -0.00000000000E+00 -0.00000000000E+00 -0.15703498302E+03  0.15703498302E+03  0.00000000000E+00 0.  1.
        -24    2    1    2    0    0 -0.94220071383E+02  0.67413498772E+02 -0.89125497190E+02  0.16476266081E+03  0.76035376493E+02 0.  0.
         25    2    1    2    0    0  0.14338141718E+03 -0.57657879442E+02  0.32255065072E+03  0.37890459280E+03  0.12508839399E+03 0.  0.
         24    2    1    2    0    0 -0.49161345794E+02 -0.97556193300E+01  0.12004440287E+04  0.12042718947E+04  0.81810269640E+02 0.  0.
        -11    1    5    5    0    0 -0.69980072187E+02 -0.17080136206E+02  0.80666864479E+03  0.80987853660E+03  0.00000000000E+00 0.  1.
         12    1    5    5    0    0  0.20818726393E+02  0.73245168762E+01  0.39377538393E+03  0.39439335809E+03  0.00000000000E+00 0. -1.
         13    1    3    3    0    0 -0.13074484085E+01  0.35074258576E+02 -0.52656451039E+01  0.35491408177E+02  0.00000000000E+00 0. -1.
        -14    1    3    3    0    0 -0.92912622974E+02  0.32339240196E+02 -0.83859852086E+02  0.12927125263E+03  0.00000000000E+00 0.  1.
          5    1    4    4  501    0  0.16424517799E+03 -0.43336382240E+02  0.25289497031E+03  0.30467664650E+03  0.41800000000E+01 0. -1.
         -5    1    4    4    0  501 -0.20863760811E+02 -0.14321497202E+02  0.69655680418E+02  0.74227946299E+02  0.41800000000E+01 0. -1.
</event>
<event>
11    1  0.8551154E-009  0.1404975E+03  0.7561462E-02  0.1107004E+00
         22   -1    0    0    0    0  0.00000000000E+00  0.00000000000E+00  0.35859410701E+03  0.35859410701E+03  0.00000000000E+00 0. -1.
         22   -1    0    0    0    0 -0.00000000000E+00 -0.00000000000E+00 -0.20241344829E+04  0.20241344829E+04  0.00000000000E+00 0.  1.
        -24    2    1    2    0    0 -0.42540012041E+02  0.45946418442E+02 -0.18267589850E+04  0.18296008136E+04  0.80436447086E+02 0.  0.
         25    2    1    2    0    0  0.57995533611E+02 -0.75653695119E+02 -0.15752414519E+03  0.22259474432E+03  0.12509036884E+03 0.  0.
         24    2    1    2    0    0 -0.15455521570E+02  0.29707276677E+02  0.31874275433E+03  0.33053303192E+03  0.80831592316E+02 0.  0.
        -13    1    5    5    0    0  0.31073430295E+02 -0.15818813010E+01  0.10077052222E+03  0.10546448960E+03  0.00000000000E+00 0.  1.
         14    1    5    5    0    0 -0.46528951865E+02  0.31289157978E+02  0.21797223211E+03  0.22506854232E+03  0.00000000000E+00 0. -1.
         13    1    3    3    0    0 -0.52309821670E+01 -0.17752062447E+02 -0.13879570042E+03  0.14002408847E+03  0.00000000000E+00 0. -1.
        -14    1    3    3    0    0 -0.37309029874E+02  0.63698480888E+02 -0.16879632846E+04  0.16895767252E+04  0.00000000000E+00 0.  1.
          5    1    4    4  501    0 -0.51194219285E+00 -0.74132318450E+02 -0.14454354034E+03  0.16249975439E+03  0.41800000000E+01 0. -1.
         -5    1    4    4    0  501  0.58507475804E+02 -0.15213766691E+01 -0.12980604849E+02  0.60094989925E+02  0.41800000000E+01 0. -1.
</event>
<event>
11    1  0.8551154E-009  0.1773745E+03  0.7561462E-02  0.1071787E+00
         22   -1    0    0    0    0  0.00000000000E+00  0.00000000000E+00  0.74944460023E+02  0.74944460023E+02  0.00000000000E+00 0.  1.
         22   -1    0    0    0    0 -0.00000000000E+00 -0.00000000000E+00 -0.83163993946E+03  0.83163993946E+03  0.00000000000E+00 0. -1.
         24    2    1    2    0    0 -0.46612547247E+02  0.99994344294E+01 -0.28691906380E+03  0.30186321120E+03  0.80784471633E+02 0.  0.
         25    2    1    2    0    0  0.15291252121E+03 -0.54255391353E+02 -0.39042947222E+03  0.44091414731E+03  0.12507687990E+03 0.  0.
        -24    2    1    2    0    0 -0.10629997396E+03  0.44255956923E+02 -0.79346943415E+02  0.16380704097E+03  0.85314330877E+02 0.  0.
        -11    1    3    3    0    0 -0.34129964606E+02  0.43260091582E+02 -0.21045847889E+03  0.21755243355E+03  0.00000000000E+00 0.  1.
         12    1    3    3    0    0 -0.12482582641E+02 -0.33260657153E+02 -0.76460584915E+02  0.84310777657E+02  0.00000000000E+00 0. -1.
         13    1    5    5    0    0 -0.30334018894E+02  0.21555771871E+02 -0.75800820634E+02  0.84442693065E+02  0.00000000000E+00 0. -1.
        -14    1    5    5    0    0 -0.75965955070E+02  0.22700185053E+02 -0.35461227813E+01  0.79364347902E+02  0.00000000000E+00 0.  1.
          5    1    4    4  501    0 -0.29026267019E+01  0.24726052678E+02 -0.23445347338E+02  0.34452280543E+02  0.41800000000E+01 0.  1.
         -5    1    4    4    0  501  0.15581514791E+03 -0.78981444031E+02 -0.36698412488E+03  0.40646186676E+03  0.41800000000E+01 0.  1.
</event>
<event>
11    1  0.8551154E-009  0.1997832E+03  0.7561462E-02  0.1054677E+00
         22   -1    0    0    0    0  0.00000000000E+00  0.00000000000E+00  0.39032320222E+03  0.39032320222E+03  0.00000000000E+00 0.  1.
         22   -1    0    0    0    0 -0.00000000000E+00 -0.00000000000E+00 -0.16132788673E+04  0.16132788673E+04  0.00000000000E+00 0.  1.
        -24    2    1    2    0    0 -0.82188999225E+01  0.95557502832E+01 -0.13595440998E+04  0.13617453699E+04  0.76363803200E+02 0.  0.
         25    2    1    2    0    0 -0.12523804800E+03  0.72799394873E+02 -0.19090090055E+03  0.27032366695E+03  0.12508960998E+03 0.  0.
         24    2    1    2    0    0  0.13345694792E+03 -0.82355145156E+02  0.32748933531E+03  0.37153303263E+03  0.78704527916E+02 0.  0.
        -11    1    5    5    0    0  0.40615098125E+02 -0.30842692870E+02  0.19601131081E+03  0.20253713700E+03  0.00000000000E+00 0.  1.
         12    1    5    5    0    0  0.92841849799E+02 -0.51512452286E+02  0.13147802450E+03  0.16899589563E+03  0.00000000000E+00 0. -1.
         11    1    3    3    0    0  0.19043636969E+02  0.14889863793E+02 -0.15438157017E+03  0.15626271903E+03  0.00000000000E+00 0. -1.
        -12    1    3    3    0    0 -0.27262536892E+02 -0.53341135097E+01 -0.12051625297E+04  0.12054826509E+04  0.00000000000E+00 0.  1.
          5    1    4    4  501    0 -0.72171841210E+02 -0.42750955141E+01 -0.19501308877E+02  0.74998830346E+02  0.41800000000E+01 0. -1.
         -5    1    4    4    0  501 -0.53066206791E+02  0.77074490387E+02 -0.17139959167E+03  0.19532483661E+03  0.41800000000E+01 0. -1.
</event>
<event>
11    1  0.8551154E-009  0.1319158E+03  0.7561462E-02  0.1116937E+00
         22   -1    0    0    0    0  0.00000000000E+00  0.00000000000E+00  0.15858830351E+03  0.15858830351E+03  0.00000000000E+00 0.  1.
         22   -1    0    0    0    0 -0.00000000000E+00 -0.00000000000E+00 -0.69827715855E+03  0.69827715855E+03  0.00000000000E+00 0.  1.
        -24    2    1    2    0    0  0.22024059778E+02 -0.36597358993E+02 -0.41860740559E+03  0.42744803967E+03  0.75201334485E+02 0.  0.
         25    2    1    2    0    0 -0.62702846335E+02  0.35242435124E+02 -0.23991884560E+03  0.27996450944E+03  0.12508156498E+03 0.  0.
         24    2    1    2    0    0  0.40678786556E+02  0.13549238690E+01  0.11883739616E+03  0.14945291294E+03  0.80976829819E+02 0.  0.
        -13    1    5    5    0    0 -0.64300493618E+01 -0.12576373227E+02  0.92771028825E+02  0.93840153920E+02  0.00000000000E+00 0.  1.
         14    1    5    5    0    0  0.47108835918E+02  0.13931297096E+02  0.26066367330E+02  0.55612759023E+02  0.00000000000E+00 0. -1.
         11    1    3    3    0    0 -0.23198375452E+02  0.63363326135E+01 -0.12492378252E+03  0.12721739336E+03  0.00000000000E+00 0. -1.
        -12    1    3    3    0    0  0.45222435230E+02 -0.42933691607E+02 -0.29368362308E+03  0.30023064631E+03  0.00000000000E+00 0.  1.
          5    1    4    4  501    0 -0.14725000547E+02  0.44814084349E+02 -0.14891320817E+02  0.49642236380E+02  0.41800000000E+01 0.  1.
         -5    1    4    4    0  501 -0.47977845788E+02 -0.95716492250E+01 -0.22502752478E+03  0.23032227306E+03  0.41800000000E+01 0.  1.
</event>
<event>
11    1  0.8551154E-009  0.1957300E+03  0.7561462E-02  0.1057585E+00
         22   -1    0    0    0    0  0.00000000000E+00  0.00000000000E+00  0.25420466913E+04  0.25420466913E+04  0.00000000000E+00 0.  1.
         22   -1    0    0    0    0 -0.00000000000E+00 -0.00000000000E+00 -0.14055897828E+03  0.14055897828E+03  0.00000000000E+00 0.  1.
        -24    2    1    2    0    0 -0.48053151934E+00 -0.53918282390E+02 -0.10365710667E+03  0.14158445564E+03  0.79962179990E+02 0.  0.
         25    2    1    2    0    0 -0.13023836122E+03  0.11592592098E+03  0.82906811278E+03  0.85638936331E+03  0.12509179057E+03 0.  0.
         24    2    1    2    0    0  0.13071889274E+03 -0.62007638594E+02  0.16760767069E+04  0.16846318506E+04  0.88424931901E+02 0.  0.
        -13    1    5    5    0    0  0.51941195318E+02 -0.14319354481E+02  0.10930832562E+04  0.10944103146E+04  0.00000000000E+00 0.  1.
         14    1    5    5    0    0  0.78777697419E+02 -0.47688284113E+02  0.58299345066E+03  0.59022153601E+03  0.00000000000E+00 0. -1.
         11    1    3    3    0    0 -0.20206564336E+02  0.30397391103E+01  0.13802162057E+01  0.20480484685E+02  0.00000000000E+00 0. -1.
        -12    1    3    3    0    0  0.19726032817E+02 -0.56958021500E+02 -0.10503732287E+03  0.12110397095E+03  0.00000000000E+00 0.  1.
          5    1    4    4  501    0 -0.21455842344E+02 -0.26163450013E+02  0.17381926021E+03  0.17713127027E+03  0.41800000000E+01 0. -1.
         -5    1    4    4    0  501 -0.10878251887E+03  0.14208937100E+03  0.65524885257E+03  0.67925809304E+03  0.41800000000E+01 0. -1.
</event>
<event>
11    1  0.8551154E-009  0.1297258E+03  0.7561462E-02  0.1119606E+00
         22   -1    0    0    0    0  0.00000000000E+00  0.00000000000E+00  0.19771157874E+03  0.19771157874E+03  0.00000000000E+00 0.  1.
         22   -1    0    0    0    0 -0.00000000000E+00 -0.00000000000E+00 -0.74187513082E+03  0.74187513082E+03  0.00000000000E+00 0. -1.
         24    2    1    2    0    0 -0.31808289225E+02  0.11958182805E+02 -0.67539846411E+03  0.68055886420E+03  0.76436358585E+02 0.  0.
         25    2    1    2    0    0  0.50008911040E+02 -0.54088565901E+01  0.47431793293E+02  0.14292392516E+03  0.12508927394E+03 0.  0.
        -24    2    1    2    0    0 -0.18200621815E+02 -0.65493262152E+01  0.83803118743E+02  0.11610392021E+03  0.77993597607E+02 0.  0.
        -13    1    3    3    0    0  0.93309801463E+01 -0.20619506927E+02 -0.89583419897E+02  0.92398162194E+02  0.00000000000E+00 0.  1.
         14    1    3    3    0    0 -0.41139269372E+02  0.32577689732E+02 -0.58581504422E+03  0.58816070201E+03  0.00000000000E+00 0. -1.
         13    1    5    5    0    0  0.51700134144E+01 -0.14366314947E+02 -0.10567624550E+02  0.18568649183E+02  0.00000000000E+00 0. -1.
        -14    1    5    5    0    0 -0.23370635229E+02  0.78169887316E+01  0.94370743292E+02  0.97535271022E+02  0.00000000000E+00 0.  1.
          5    1    4    4  501    0  0.10821122959E+02  0.10551456904E+02  0.84848638653E+02  0.86285536599E+02  0.41800000000E+01 0.  1.
         -5    1    4    4    0  501  0.39187788081E+02 -0.15960313494E+02 -0.37416845360E+02  0.56638388556E+02  0.41800000000E+01 0.  1.
</event>
<event>
11    1  0.8551154E-009  0.1404333E+03  0.7561462E-02  0.1107076E+00
         22   -1    0    0    0    0  0.00000000000E+00  0.00000000000E+00  0.26325251596E+04  0.26325251596E+04  0.00000000000E+00 0. -1.
         22   -1    0    0    0    0 -0.00000000000E+00 -0.00000000000E+00 -0.17345724036E+03  0.17345724036E+03  0.00000000000E+00 0.  1.
         24    2    1    2    0    0 -0.66252575464E+02 -0.18225600910E+02 -0.13111889689E+03  0.16921717137E+03  0.81979934623E+02 0.  0.
         25    2    1    2    0    0  0.19067910924E+02 -0.20950109608E+01  0.15690554183E+03  0.20158045626E+03  0.12508939600E+03 0.  0.
        -24    2    1    2    0    0  0.47184664539E+02  0.20320611871E+02  0.24332812743E+04  0.24351847723E+04  0.81411274767E+02 0.  0.
        -13    1    3    3    0    0 -0.18281657726E+02 -0.46299248519E+02 -0.47458048116E+02  0.68775764290E+02  0.00000000000E+00 0.  1.
         14    1    3    3    0    0 -0.47970917737E+02  0.28073647610E+02 -0.83660848776E+02  0.10044140708E+03  0.00000000000E+00 0. -1.
         11    1    5    5    0    0  0.25624240732E+02 -0.18376975935E+02  0.18329928083E+04  0.18332640154E+04  0.00000000000E+00 0. -1.
        -12    1    5    5    0    0  0.21560423807E+02  0.38697587805E+02  0.60028846600E+03  0.60192075690E+03  0.00000000000E+00 0.  1.
          5    1    4    4  501    0 -0.38034520858E+02 -0.34356600415E+02  0.32358474781E+02  0.60758078139E+02  0.41800000000E+01 0.  1.
         -5    1    4    4    0  501  0.57102431782E+02  0.32261589454E+02  0.12454706704E+03  0.14082237812E+03  0.41800000000E+01 0.  1.
</event>
<event>
11    1  0.8551154E-009  0.1994913E+03  0.7561462E-02  0.1054884E+00
         22   -1    0    0    0    0  0.00000000000E+00  0.00000000000E+00  0.13687628697E+03  0.13687628697E+03  0.00000000000E+00 0. -1.
         22   -1    0    0    0    0 -0.00000000000E+00 -0.00000000000E+00 -0.24282931765E+04  0.24282931765E+04  0.00000000000E+00 0.  1.
         24    2    1    2    0    0  0.52021751486E+02  0.13938326522E+03 -0.19419230887E+04  0.19492114841E+04  0.78906083226E+02 0.  0.
         25    2    1    2    0    0 -0.52133093604E+02 -0.21631639197E+03 -0.41453530505E+03  0.48682441557E+03  0.12509137295E+03 0.  0.
        -24    2    1    2    0    0  0.11134211756E+00  0.76933126743E+02  0.65041504223E+02  0.12913356381E+03  0.80785900035E+02 0.  0.
        -11    1    3    3    0    0  0.45648343892E+02  0.11937593811E+03 -0.18679142725E+04  0.18722815267E+04  0.00000000000E+00 0.  1.
         12    1    3    3    0    0  0.63734075939E+01  0.20007327117E+02 -0.74008816189E+02  0.76929957341E+02  0.00000000000E+00 0. -1.
         11    1    5    5    0    0  0.16268016286E+02  0.80704959252E+02  0.73630696361E+02  0.11045097667E+03  0.00000000000E+00 0. -1.
        -12    1    5    5    0    0 -0.16156674168E+02 -0.37718325095E+01 -0.85891921383E+01  0.18682587140E+02  0.00000000000E+00 0.  1.
          5    1    4    4  501    0 -0.38164680092E+02 -0.11575648128E+03 -0.10464023125E+03  0.16069584985E+03  0.41800000000E+01 0. -1.
         -5    1    4    4    0  501 -0.13968413511E+02 -0.10055991069E+03 -0.30989507380E+03  0.32612856572E+03  0.41800000000E+01 0. -1.
</event>
<event>
11    1  0.8551154E-009  0.2501121E+03  0.7561462E-02  0.1023840E+00
         22   -1    0    0    0    0  0.00000000000E+00  0.00000000000E+00  0.18598539565E+03  0.18598539565E+03  0.00000000000E+00 0. -1.
         22   -1    0    0    0    0 -0.00000000000E+00 -0.00000000000E+00 -0.15898776031E+04  0.15898776031E+04  0.00000000000E+00 0.  1.
         24    2    1    2    0    0 -0.55165398717E+02 -0.16149066514E+03 -0.12051191557E+04  0.12196464315E+04  0.78120306274E+02 0.  0.
         25    2    1    2    0    0 -0.17162529035E+03  0.16752829302E+03 -0.15538245768E+03  0.31195067339E+03  0.12509414543E+03 0.  0.
        -24    2    1    2    0    0  0.22679068907E+03 -0.60376278744E+01 -0.43390594092E+02  0.24426589391E+03  0.79451958258E+02 0.  0.
        -11    1    3    3    0    0 -0.39746305209E+02 -0.12112023150E+03 -0.10751600930E+04  0.10826906783E+04  0.00000000000E+00 0.  1.
         12    1    3    3    0    0 -0.15419093509E+02 -0.40370433645E+02 -0.12995906268E+03  0.13695575318E+03  0.00000000000E+00 0. -1.
         13    1    5    5    0    0  0.47619550826E+02 -0.23657310945E+02 -0.35741072315E+02  0.64068043768E+02  0.00000000000E+00 0. -1.
        -14    1    5    5    0    0  0.17917113824E+03  0.17619683071E+02 -0.76495217771E+01  0.18019785014E+03  0.00000000000E+00 0.  1.
          5    1    4    4  501    0 -0.29948955810E+02  0.80468213827E+02 -0.10985813051E+03  0.13949320639E+03  0.41800000000E+01 0. -1.
         -5    1    4    4    0  501 -0.14167633454E+03  0.87060079192E+02 -0.45524327172E+02  0.17245746700E+03  0.41800000000E+01 0. -1.
</event>
<event>
11    1  0.8551154E-009  0.1324548E+03  0.7561462E-02  0.1116289E+00
         22   -1    0    0    0    0  0.00000000000E+00  0.00000000000E+00  0.36118147165E+02  0.36118147165E+02  0.00000000000E+00 0.  1.
         22   -1    0    0    0    0 -0.00000000000E+00 -0.00000000000E+00 -0.43421304000E+04  0.43421304000E+04  0.00000000000E+00 0. -1.
        -24    2    1    2    0    0  0.18667274842E+02  0.72393503318E+01 -0.35371010686E+04  0.35380839999E+04  0.80953971136E+02 0.  0.
         25    2    1    2    0    0  0.73319776270E+01 -0.42711663201E+02 -0.72723421970E+03  0.73918539598E+03  0.12508954899E+03 0.  0.
         24    2    1    2    0    0 -0.25999252469E+02  0.35472312870E+02 -0.41676964529E+02  0.10097915128E+03  0.80781021981E+02 0.  0.
        -11    1    5    5    0    0 -0.22701770509E+02  0.28862654815E+01  0.20486784062E+02  0.30714967587E+02  0.00000000000E+00 0.  1.
         12    1    5    5    0    0 -0.32974819597E+01  0.32586047388E+02 -0.62163748591E+02  0.70264183696E+02  0.00000000000E+00 0. -1.
         11    1    3    3    0    0  0.37506339619E+02 -0.23901831467E+02 -0.23644368827E+04  0.23648551320E+04  0.00000000000E+00 0. -1.
        -12    1    3    3    0    0 -0.18839064777E+02  0.31141181799E+02 -0.11726641858E+04  0.11732288678E+04  0.00000000000E+00 0.  1.
          5    1    4    4  501    0  0.43849617105E+02  0.19201959993E+02 -0.15077473347E+03  0.15824663295E+03  0.41800000000E+01 0. -1.
         -5    1    4    4    0  501 -0.36517639478E+02 -0.61913623195E+02 -0.57645948623E+03  0.58093876303E+03  0.41800000000E+01 0. -1.
</event>
<event>
11    1  0.8551154E-009  0.2388546E+03  0.7561462E-02  0.1030010E+00
         22   -1    0    0    0    0  0.00000000000E+00  0.00000000000E+00  0.19796818847E+04  0.19796818847E+04  0.00000000000E+00 0.  1.
         22   -1    0    0    0    0 -0.00000000000E+00 -0.00000000000E+00 -0.39588605342E+03  0.39588605342E+03  0.00000000000E+00 0. -1.
        -24    2    1    2    0    0 -0.16148909448E+03  0.13327405494E+03 -0.29696187368E+03  0.37211379212E+03  0.80259694179E+02 0.  0.
         25    2    1    2    0    0  0.13287454806E+03 -0.11178318117E+03  0.12981977933E+03  0.25030248330E+03  0.12508810065E+03 0.  0.
         24    2    1    2    0    0  0.28614546414E+02 -0.21490873776E+02  0.17509379256E+04  0.17531516627E+04  0.80476599882E+02 0.  0.
        -13    1    5    5    0    0  0.45128078180E+02 -0.23557887384E+02  0.16548737000E+04  0.16556565104E+04  0.00000000000E+00 0.  1.
         14    1    5    5    0    0 -0.16513531766E+02  0.20670136086E+01  0.96064225594E+02  0.97495152267E+02  0.00000000000E+00 0. -1.
         13    1    3    3    0    0 -0.13673287375E+03  0.11518095151E+03 -0.28998523247E+03  0.34066694205E+03  0.00000000000E+00 0. -1.
        -14    1    3    3    0    0 -0.24756220725E+02  0.18093103428E+02 -0.69766412018E+01  0.31446850061E+02  0.00000000000E+00 0.  1.
          5    1    4    4  501    0  0.12687030839E+03 -0.30510697405E+02  0.63646543475E+02  0.14524232408E+03  0.41800000000E+01 0. -1.
         -5    1    4    4    0  501  0.60042396716E+01 -0.81272483761E+02  0.66173235858E+02  0.10506015922E+03  0.41800000000E+01 0. -1.
</event>
<event>
11    1  0.8551154E-009  0.1419465E+03  0.7561462E-02  0.1105404E+00
         22   -1    0    0    0    0  0.00000000000E+00  0.00000000000E+00  0.47992543887E+02  0.47992543887E+02  0.00000000000E+00 0. -1.
         22   -1    0    0    0    0 -0.00000000000E+00 -0.00000000000E+00 -0.18867573915E+04  0.18867573915E+04  0.00000000000E+00 0. -1.
         24    2    1    2    0    0 -0.60830117061E+02  0.28105870667E+02 -0.96532488005E+03  0.97108289551E+03  0.81606512089E+02 0.  0.
         25    2    1    2    0    0  0.65409263353E+02 -0.18001400537E+02 -0.87077153206E+03  0.88232309735E+03  0.12509422419E+03 0.  0.
        -24    2    1    2    0    0 -0.45791462911E+01 -0.10104470130E+02 -0.26684355030E+01  0.81343942514E+02  0.80539726461E+02 0.  0.
        -11    1    3    3    0    0 -0.47330240350E+02  0.24539503889E+02 -0.24998738959E+03  0.25560914274E+03  0.00000000000E+00 0.  1.
         12    1    3    3    0    0 -0.13499876711E+02  0.35663667779E+01 -0.71533749046E+03  0.71547375277E+03  0.00000000000E+00 0. -1.
         13    1    5    5    0    0  0.35871259824E+02 -0.17837764062E+02 -0.28189358088E+01  0.40160671150E+02  0.00000000000E+00 0. -1.
        -14    1    5    5    0    0 -0.40450406115E+02  0.77332939315E+01  0.15050030584E+00  0.41183271364E+02  0.00000000000E+00 0.  1.
          5    1    4    4  501    0  0.71075212652E+02 -0.10940150226E+02 -0.22035335909E+03  0.23182848833E+03  0.41800000000E+01 0.  1.
         -5    1    4    4    0  501 -0.56659492993E+01 -0.70612503106E+01 -0.65041817297E+03  0.65049460902E+03  0.41800000000E+01 0.  1.
</event>
<event>
11    1  0.1120805E-008  0.1533269E+03  0.7561462E-02  0.1093527E+00
         22   -1    0    0    0    0  0.00000000000E+00  0.00000000000E+00  0.69991691219E+03  0.69991691219E+03  0.00000000000E+00 0.  1.
         22   -1    0    0    0    0 -0.00000000000E+00 -0.00000000000E+00 -0.29992654687E+03  0.29992654687E+03  0.00000000000E+00 0. -1.
         24    2    1    2    0    0 -0.51002014136E+02 -0.57884267143E+02 -0.22985581166E+03  0.25593466818E+03  0.81957711026E+02 0.  0.
         25    2    1    2    0    0  0.69351120129E+01 -0.28847377770E+02  0.31479693993E+02  0.13235304538E+03  0.12508433357E+03 0.  0.
        -24    2    1    2    0    0  0.44066902123E+02  0.86731644913E+02  0.59836648299E+03  0.61155574549E+03  0.80583570193E+02 0.  0.
        -13    1    3    3    0    0  0.61687901095E+00 -0.48084188359E+02 -0.53579079154E+02  0.71994356951E+02  0.00000000000E+00 0.  1.
         14    1    3    3    0    0 -0.51618893147E+02 -0.98000787839E+01 -0.17627673250E+03  0.18394031123E+03  0.00000000000E+00 0. -1.
         11    1    5    5    0    0  0.66611017498E+01  0.20957068594E+02  0.25323930433E+02  0.33539088436E+02  0.00000000000E+00 0. -1.
        -12    1    5    5    0    0  0.37405800373E+02  0.65774576319E+02  0.57304255256E+03  0.57801665706E+03  0.00000000000E+00 0.  1.
          5    1    4    4  501    0 -0.47468498204E+02  0.19948824487E+02 -0.23515202188E+01  0.51712822080E+02  0.41800000000E+01 0.  1.
         -5    1    4    4    0  501  0.54403610217E+02 -0.48796202257E+02  0.33831214211E+02  0.80640223303E+02  0.41800000000E+01 0.  1.
</event>
<event>
11    1  0.8551154E-009  0.5900241E+03  0.7561462E-02  0.9212187E-01
         22   -1    0    0    0    0  0.00000000000E+00  0.00000000000E+00  0.40410773751E+03  0.40410773751E+03  0.00000000000E+00 0.  1.
         22   -1    0    0    0    0 -0.00000000000E+00 -0.00000000000E+00 -0.21536854569E+03  0.21536854569E+03  0.00000000000E+00 0.  1.
         24    2    1    2    0    0 -0.58534303237E+02  0.89089979820E+02 -0.37951847171E+02  0.14069336144E+03  0.83612140804E+02 0.  0.
         25    2    1    2    0    0  0.17655111304E+03 -0.15321323277E+03  0.16519723480E+03  0.31238183755E+03  0.12509075040E+03 0.  0.
        -24    2    1    2    0    0 -0.11801680981E+03  0.64123252947E+02  0.61493804184E+02  0.16640108421E+03  0.76603354411E+02 0.  0.
        -11    1    3    3    0    0 -0.36114738423E+02  0.18966725618E+01  0.11534857103E+02  0.37959512991E+02  0.00000000000E+00 0.  1.
         12    1    3    3    0    0 -0.22419564814E+02  0.87193307258E+02 -0.49486704274E+02  0.10273384845E+03  0.00000000000E+00 0. -1.
         11    1    5    5    0    0 -0.14003497470E+01 -0.88773732760E+01  0.21223215910E+02  0.23047638257E+02  0.00000000000E+00 0. -1.
        -12    1    5    5    0    0 -0.11661646006E+03  0.73000626223E+02  0.40270588274E+02  0.14335344595E+03  0.00000000000E+00 0.  1.
          5    1    4    4  501    0  0.18740365412E+03 -0.10884997008E+03  0.11897170519E+03  0.24726541327E+03  0.41800000000E+01 0. -1.
         -5    1    4    4    0  501 -0.10852541072E+02 -0.44363262684E+02  0.46225529615E+02  0.65116424287E+02  0.41800000000E+01 0. -1.
</event>
<event>
11    1  0.8551154E-009  0.1363358E+03  0.7561462E-02  0.1111720E+00
         22   -1    0    0    0    0  0.00000000000E+00  0.00000000000E+00  0.70607950085E+03  0.70607950085E+03  0.00000000000E+00 0.  1.
         22   -1    0    0    0    0 -0.00000000000E+00 -0.00000000000E+00 -0.22263292655E+03  0.22263292655E+03  0.00000000000E+00 0.  1.
         24    2    1    2    0    0 -0.16493538046E+02 -0.10444735728E+02 -0.18478559373E+03  0.20225043087E+03  0.79864834775E+02 0.  0.
         25    2    1    2    0    0  0.10345807479E+02 -0.45393681504E+02  0.15892777633E+03  0.20754064387E+03  0.12508980261E+03 0.  0.
        -24    2    1    2    0    0  0.61477305670E+01  0.55838417231E+02  0.50930439170E+03  0.51892135266E+03  0.82052930536E+02 0.  0.
        -13    1    3    3    0    0  0.20891290511E+02  0.17981941027E+02 -0.11411878730E+03  0.11740057000E+03  0.00000000000E+00 0.  1.
         14    1    3    3    0    0 -0.37384828557E+02 -0.28426676755E+02 -0.70666806436E+02  0.84849860869E+02  0.00000000000E+00 0. -1.
         11    1    5    5    0    0  0.35905507964E+02  0.19726366428E+02  0.11968964192E+03  0.12650670108E+03  0.00000000000E+00 0. -1.
        -12    1    5    5    0    0 -0.29757777397E+02  0.36112050803E+02  0.38961474978E+03  0.39241465158E+03  0.00000000000E+00 0.  1.
          5    1    4    4  501    0 -0.31424795927E+02 -0.75033638349E+02  0.10708295317E+03  0.13454291488E+03  0.41800000000E+01 0.  1.
         -5    1    4    4    0  501  0.41770603406E+02  0.29639956845E+02  0.51844823156E+02  0.72997728997E+02  0.41800000000E+01 0.  1.
</event>
<event>
11    1  0.8551154E-009  0.2894078E+03  0.7561462E-02  0.1004776E+00
         22   -1    0    0    0    0  0.00000000000E+00  0.00000000000E+00  0.61954264430E+03  0.61954264430E+03  0.00000000000E+00 0. -1.
         22   -1    0    0    0    0 -0.00000000000E+00 -0.00000000000E+00 -0.38299979146E+03  0.38299979146E+03  0.00000000000E+00 0. -1.
         24    2    1    2    0    0  0.23297698960E+03  0.75209842625E+02 -0.19443888990E+03  0.32701102633E+03  0.95890204533E+02 0.  0.
         25    2    1    2    0    0 -0.34083581618E+03 -0.11288745077E+03  0.31236409150E+03  0.49206934859E+03  0.12509311746E+03 0.  0.
        -24    2    1    2    0    0  0.10785882658E+03  0.37677608146E+02  0.11861765123E+03  0.18346206084E+03  0.80839668209E+02 0.  0.
        -13    1    3    3    0    0  0.12332396695E+03  0.75990294700E+02 -0.69157057839E+02  0.16051798766E+03  0.00000000000E+00 0.  1.
         14    1    3    3    0    0  0.10965302265E+03 -0.78045207521E+00 -0.12528183206E+03  0.16649303867E+03  0.00000000000E+00 0. -1.
         13    1    5    5    0    0  0.10292339593E+03  0.56792271226E+02  0.87228659042E+02  0.14638110008E+03  0.00000000000E+00 0. -1.
        -14    1    5    5    0    0  0.49354306494E+01 -0.19114663080E+02  0.31388992190E+02  0.37080960762E+02  0.00000000000E+00 0.  1.
          5    1    4    4  501    0 -0.32951354756E+03 -0.13406392379E+03  0.29461299450E+03  0.46191622901E+03  0.41800000000E+01 0.  1.
         -5    1    4    4    0  501 -0.11322268614E+02  0.21176473020E+02  0.17751097000E+02  0.30153119588E+02  0.41800000000E+01 0.  1.
</event>
<event>
11    1  0.8551154E-009  0.1681353E+03  0.7561462E-02  0.1079666E+00
         22   -1    0    0    0    0  0.00000000000E+00  0.00000000000E+00  0.23379029187E+03  0.23379029187E+03  0.00000000000E+00 0.  1.
         22   -1    0    0    0    0 -0.00000000000E+00 -0.00000000000E+00 -0.99533957933E+03  0.99533957933E+03  0.00000000000E+00 0.  1.
         24    2    1    2    0    0  0.32402521210E+02 -0.11509015783E+03 -0.80628955133E+03  0.81911700520E+03  0.80957765596E+02 0.  0.
         25    2    1    2    0    0 -0.25813383987E+02  0.73236327586E+02 -0.14395433332E+03  0.20591122518E+03  0.12508673832E+03 0.  0.
        -24    2    1    2    0    0 -0.65891372233E+01  0.41853830243E+02  0.18869459719E+03  0.20410164082E+03  0.65243152441E+02 0.  0.
        -13    1    3    3    0    0 -0.49460463876E+01 -0.67923989214E+02 -0.61064559836E+03  0.61443158975E+03  0.00000000000E+00 0.  1.
         14    1    3    3    0    0  0.37348567598E+02 -0.47166168616E+02 -0.19564395297E+03  0.20468541545E+03  0.00000000000E+00 0. -1.
         11    1    5    5    0    0  0.28701897302E+01  0.33108686014E+02  0.29652556604E+02  0.44538715651E+02  0.00000000000E+00 0. -1.
        -12    1    5    5    0    0 -0.94593269535E+01  0.87451442288E+01  0.15904204059E+03  0.15956292517E+03  0.00000000000E+00 0.  1.
          5    1    4    4  501    0 -0.76577592246E+02  0.46691747135E+02 -0.88610344258E+02  0.12614877088E+03  0.41800000000E+01 0.  1.
         -5    1    4    4    0  501  0.50764208259E+02  0.26544580452E+02 -0.55343989060E+02  0.79762454304E+02  0.41800000000E+01 0.  1.
</event>
<event>
11    1  0.8551154E-009  0.1350271E+03  0.7561462E-02  0.1113242E+00
         22   -1    0    0    0    0  0.00000000000E+00  0.00000000000E+00  0.22205646108E+03  0.22205646108E+03  0.00000000000E+00 0. -1.
         22   -1    0    0    0    0 -0.00000000000E+00 -0.00000000000E+00 -0.35804112654E+03  0.35804112654E+03  0.00000000000E+00 0. -1.
         24    2    1    2    0    0 -0.20683429182E+02 -0.44543725219E+02 -0.28207720505E+03  0.29753049241E+03  0.80900535263E+02 0.  0.
         25    2    1    2    0    0  0.59115227231E+02  0.53165334839E+02  0.51318501008E+02  0.15685914515E+03  0.12510011971E+03 0.  0.
        -24    2    1    2    0    0 -0.38431798050E+02 -0.86216096202E+01  0.94774038580E+02  0.12570795006E+03  0.72588119309E+02 0.  0.
        -11    1    3    3    0    0 -0.15184888922E+01 -0.38430963003E+02 -0.43330023827E+02  0.57937342800E+02  0.00000000000E+00 0.  1.
         12    1    3    3    0    0 -0.19164940289E+02 -0.61127622156E+01 -0.23874718122E+03  0.23959314961E+03  0.00000000000E+00 0. -1.
         13    1    5    5    0    0 -0.58034136228E+02 -0.96557457478E+01  0.86021096967E+02  0.10421527487E+03  0.00000000000E+00 0. -1.
        -14    1    5    5    0    0  0.19602338178E+02  0.10341361276E+01  0.87529416129E+01  0.21492675182E+02  0.00000000000E+00 0.  1.
          5    1    4    4  501    0 -0.61541676970E+01  0.54622099832E+02  0.69739171578E+02  0.88895849299E+02  0.41800000000E+01 0.  1.
         -5    1    4    4    0  501  0.65269394928E+02 -0.14567649934E+01 -0.18420670570E+02  0.67963295850E+02  0.41800000000E+01 0.  1.
</event>
<event>
11    1  0.8551154E-009  0.1490287E+03  0.7561462E-02  0.1097875E+00
         22   -1    0    0    0    0  0.00000000000E+00  0.00000000000E+00  0.10538188357E+04  0.10538188357E+04  0.00000000000E+00 0. -1.
         22   -1    0    0    0    0 -0.00000000000E+00 -0.00000000000E+00 -0.12971035842E+03  0.12971035842E+03  0.00000000000E+00 0. -1.
        -24    2    1    2    0    0 -0.63972922798E+01 -0.79908002738E+02 -0.86047219593E+02  0.14252615560E+03  0.80519356558E+02 0.  0.
         25    2    1    2    0    0  0.19287128471E+02  0.95494054071E+02  0.51936602787E+03  0.54302892897E+03  0.12509292191E+03 0.  0.
         24    2    1    2    0    0 -0.12889836191E+02 -0.15586051332E+02  0.49078966900E+03  0.49797410955E+03  0.81820790208E+02 0.  0.
        -11    1    5    5    0    0  0.68768208999E+01  0.30081105203E+02  0.26352022860E+03  0.26532070111E+03  0.00000000000E+00 0.  1.
         12    1    5    5    0    0 -0.19766657091E+02 -0.45667156535E+02  0.22726944041E+03  0.23265340845E+03  0.00000000000E+00 0. -1.
         13    1    3    3    0    0 -0.20228406998E+02 -0.88546360431E+02 -0.87545798405E+02  0.12615035955E+03  0.00000000000E+00 0. -1.
        -14    1    3    3    0    0  0.13831114718E+02  0.86383576927E+01  0.14985788114E+01  0.16375796055E+02  0.00000000000E+00 0.  1.
          5    1    4    4  501    0 -0.27693162330E+02  0.51602022025E+02  0.81488288740E+02  0.10043651487E+03  0.41800000000E+01 0. -1.
         -5    1    4    4    0  501  0.46980290800E+02  0.43892032046E+02  0.43787773913E+03  0.44259241410E+03  0.41800000000E+01 0. -1.
</event>
<event>
11    1  0.8551154E-009  0.1498462E+03  0.7561462E-02  0.1097036E+00
         22   -1    0    0    0    0  0.00000000000E+00  0.00000000000E+00  0.87018509242E+03  0.87018509242E+03  0.00000000000E+00 0.  1.
         22   -1    0    0    0    0 -0.00000000000E+00 -0.00000000000E+00 -0.17056824908E+04  0.17056824908E+04  0.00000000000E+00 0. -1.
         24    2    1    2    0    0  0.42566529888E+02  0.47679104400E+02 -0.16484183129E+04  0.16516797465E+04  0.81718078558E+02 0.  0.
         25    2    1    2    0    0 -0.18579624664E+02  0.36053815946E+02  0.33364744016E+02  0.13567091529E+03  0.12509320931E+03 0.  0.
        -24    2    1    2    0    0 -0.23986905224E+02 -0.83732920347E+02  0.77955617051E+03  0.78851692138E+03  0.80402355314E+02 0.  0.
        -11    1    3    3    0    0  0.10545233581E+02 -0.23261973528E+02 -0.34995712465E+03  0.35088788873E+03  0.00000000000E+00 0.  1.
         12    1    3    3    0    0  0.32021296307E+02  0.70941077928E+02 -0.12984611882E+04  0.13007918578E+04  0.00000000000E+00 0. -1.
         13    1    5    5    0    0  0.16198275849E+01 -0.70243527230E+01  0.30771480909E+01  0.78379980196E+01  0.00000000000E+00 0. -1.
        -14    1    5    5    0    0 -0.25606732809E+02 -0.76708567624E+02  0.77647902242E+03  0.78067892336E+03  0.00000000000E+00 0.  1.
          5    1    4    4  501    0 -0.96449252082E+01 -0.90931874747E+01  0.73292652229E+02  0.74598900203E+02  0.41800000000E+01 0.  1.
         -5    1    4    4    0  501 -0.89346994555E+01  0.45147003421E+02 -0.39927908213E+02  0.61072015084E+02  0.41800000000E+01 0.  1.
</event>
<event>
11    1  0.8551154E-009  0.1471109E+03  0.7561462E-02  0.1099868E+00
         22   -1    0    0    0    0  0.00000000000E+00  0.00000000000E+00  0.24763552801E+03  0.24763552801E+03  0.00000000000E+00 0.  1.
         22   -1    0    0    0    0 -0.00000000000E+00 -0.00000000000E+00 -0.39178351403E+03  0.39178351403E+03  0.00000000000E+00 0. -1.
         24    2    1    2    0    0 -0.36148117492E+02 -0.14388466848E+02 -0.29886732416E+03  0.31237527673E+03  0.82115295083E+02 0.  0.
         25    2    1    2    0    0  0.18038645401E+02  0.87800893698E+02  0.24428838280E+02  0.15581780168E+03  0.12509208415E+03 0.  0.
        -24    2    1    2    0    0  0.18109472091E+02 -0.73412426851E+02  0.13029049986E+03  0.17122596363E+03  0.81396430324E+02 0.  0.
        -11    1    3    3    0    0 -0.55721626893E+02  0.12554676770E+02 -0.17350810719E+03  0.18266795798E+03  0.00000000000E+00 0.  1.
         12    1    3    3    0    0  0.19573509401E+02 -0.26943143618E+02 -0.12535921697E+03  0.12970731875E+03  0.00000000000E+00 0. -1.
         13    1    5    5    0    0  0.21039652223E+02 -0.18989815016E+02 -0.17331288876E+01  0.28395136480E+02  0.00000000000E+00 0. -1.
        -14    1    5    5    0    0 -0.29301801320E+01 -0.54422611834E+02  0.13202362875E+03  0.14283082715E+03  0.00000000000E+00 0.  1.
          5    1    4    4  501    0  0.48111238121E+02  0.10633314148E+03  0.92742823694E+01  0.11715337351E+03  0.41800000000E+01 0. -1.
         -5    1    4    4    0  501 -0.30072592720E+02 -0.18532247784E+02  0.15154555911E+02  0.38664428169E+02  0.41800000000E+01 0. -1.
</event>
<event>
11    1  0.8551154E-009  0.2055899E+03  0.7561462E-02  0.1050640E+00
         22   -1    0    0    0    0  0.00000000000E+00  0.00000000000E+00  0.41029424345E+03  0.41029424345E+03  0.00000000000E+00 0. -1.
         22   -1    0    0    0    0 -0.00000000000E+00 -0.00000000000E+00 -0.25201272428E+04  0.25201272428E+04  0.00000000000E+00 0. -1.
        -24    2    1    2    0    0  0.12517316756E+03  0.10376252185E+03 -0.23797407526E+04  0.23867071825E+04  0.82280878147E+02 0.  0.
         25    2    1    2    0    0 -0.17678071781E+03 -0.67359485634E+02 -0.28251331330E+02  0.22854809262E+03  0.12508944970E+03 0.  0.
         24    2    1    2    0    0  0.51607550245E+02 -0.36403036214E+02  0.29815908458E+03  0.31516621107E+03  0.80264441657E+02 0.  0.
        -11    1    5    5    0    0 -0.32767430397E+01  0.17383330305E+02  0.20537571689E+02  0.27105517304E+02  0.00000000000E+00 0.  1.
         12    1    5    5    0    0  0.54884293285E+02 -0.53786366520E+02  0.27762151289E+03  0.28806069377E+03  0.00000000000E+00 0. -1.
         11    1    3    3    0    0  0.13354457330E+03  0.89505620623E+02 -0.19378095269E+04  0.19444668091E+04  0.00000000000E+00 0. -1.
        -12    1    3    3    0    0 -0.83714057440E+01  0.14256901225E+02 -0.44193122563E+03  0.44224037339E+03  0.00000000000E+00 0.  1.
          5    1    4    4  501    0 -0.29978971532E+02 -0.87934327719E+01 -0.59544590527E+02  0.67372797590E+02  0.41800000000E+01 0.  1.
         -5    1    4    4    0  501 -0.14680174627E+03 -0.58566052862E+02  0.31293259197E+02  0.16117529503E+03  0.41800000000E+01 0.  1.
</event>
<event>
11    1  0.8551154E-009  0.1470770E+03  0.7561462E-02  0.1099904E+00
         22   -1    0    0    0    0  0.00000000000E+00  0.00000000000E+00  0.62959580659E+03  0.62959580659E+03  0.00000000000E+00 0.  1.
         22   -1    0    0    0    0 -0.00000000000E+00 -0.00000000000E+00 -0.17661405539E+03  0.17661405539E+03  0.00000000000E+00 0.  1.
         24    2    1    2    0    0  0.34594114794E+02  0.18040302774E+02 -0.12744913857E+03  0.15576663547E+03  0.80608662684E+02 0.  0.
         25    2    1    2    0    0 -0.94839713555E+01 -0.89429381153E+02  0.18977605415E+03  0.24443860447E+03  0.12509084978E+03 0.  0.
        -24    2    1    2    0    0 -0.25110143438E+02  0.71389078378E+02  0.39065483561E+03  0.40600462204E+03  0.80632702530E+02 0.  0.
        -13    1    3    3    0    0  0.44330670691E+02 -0.21104316434E+02 -0.73944898412E+02  0.88760624925E+02  0.00000000000E+00 0.  1.
         14    1    3    3    0    0 -0.97365558968E+01  0.39144619208E+02 -0.53504240158E+02  0.67006010540E+02  0.00000000000E+00 0. -1.
         13    1    5    5    0    0 -0.27125271878E+02 -0.41172724425E+01  0.49566709485E+02  0.56653252299E+02  0.00000000000E+00 0. -1.
        -14    1    5    5    0    0  0.20151284396E+01  0.75506350821E+02  0.34108812613E+03  0.34935136974E+03  0.00000000000E+00 0.  1.
          5    1    4    4  501    0 -0.50276905255E+02 -0.87643749989E+01  0.26243108569E+02  0.57539157263E+02  0.41800000000E+01 0. -1.
         -5    1    4    4    0  501  0.40792933900E+02 -0.80665006154E+02  0.16353294558E+03  0.18689944720E+03  0.41800000000E+01 0. -1.
</event>
<event>
11    1  0.8551154E-009  0.1466191E+03  0.7561462E-02  0.1100384E+00
         22   -1    0    0    0    0  0.00000000000E+00  0.00000000000E+00  0.34102351014E+03  0.34102351014E+03  0.00000000000E+00 0. -1.
         22   -1    0    0    0    0 -0.00000000000E+00 -0.00000000000E+00 -0.37706345508E+03  0.37706345508E+03  0.00000000000E+00 0. -1.
        -24    2    1    2    0    0  0.48950882762E+02  0.55756523586E+02 -0.22920220588E+03  0.25238702740E+03  0.75236836548E+02 0.  0.
         25    2    1    2    0    0 -0.49518793377E+02 -0.69741870023E+02 -0.85871339832E+02  0.17417741994E+03  0.12509135574E+03 0.  0.
         24    2    1    2    0    0  0.56791061565E+00  0.13985346437E+02  0.27903360078E+03  0.29152251787E+03  0.83244913500E+02 0.  0.
        -11    1    5    5    0    0 -0.29940593735E+02 -0.21247043191E+02  0.14661218031E+03  0.15113903339E+03  0.00000000000E+00 0.  1.
         12    1    5    5    0    0  0.30508504350E+02  0.35232389628E+02  0.13242142047E+03  0.14038348448E+03  0.00000000000E+00 0. -1.
         11    1    3    3    0    0  0.37999571665E+02  0.73119033791E+02 -0.20309771554E+03  0.21917810704E+03  0.00000000000E+00 0. -1.
        -12    1    3    3    0    0  0.10951311097E+02 -0.17362510205E+02 -0.26104490342E+02  0.33208920358E+02  0.00000000000E+00 0.  1.
          5    1    4    4  501    0 -0.20694450397E+02 -0.64936744153E+02  0.14285516734E+02  0.69760944710E+02  0.41800000000E+01 0. -1.
         -5    1    4    4    0  501 -0.28824342980E+02 -0.48051258694E+01 -0.10015685657E+03  0.10441647523E+03  0.41800000000E+01 0. -1.
</event>
<event>
11    1  0.8551154E-009  0.1480711E+03  0.7561462E-02  0.1098866E+00
         22   -1    0    0    0    0  0.00000000000E+00  0.00000000000E+00  0.53964508317E+03  0.53964508317E+03  0.00000000000E+00 0. -1.
         22   -1    0    0    0    0 -0.00000000000E+00 -0.00000000000E+00 -0.40919106893E+03  0.40919106893E+03  0.00000000000E+00 0.  1.
         24    2    1    2    0    0  0.46260516219E+02  0.62023583948E+02 -0.32066735289E+03  0.34019533671E+03  0.83176652868E+02 0.  0.
         25    2    1    2    0    0 -0.87219082246E+02 -0.53489948977E+02  0.14030192163E+02  0.16221424200E+03  0.12509304963E+03 0.  0.
        -24    2    1    2    0    0  0.40958566027E+02 -0.85336349713E+01  0.43709117497E+03  0.44642657338E+03  0.80607463266E+02 0.  0.
        -11    1    3    3    0    0  0.44811573032E+02 -0.22752525012E+01 -0.18023297668E+03  0.18573416415E+03  0.00000000000E+00 0.  1.
         12    1    3    3    0    0  0.14489431862E+01  0.64298836449E+02 -0.14043437621E+03  0.15446117256E+03  0.00000000000E+00 0. -1.
         13    1    5    5    0    0  0.64534547237E+02 -0.50850609779E+01  0.27038677442E+03  0.27802800832E+03  0.00000000000E+00 0. -1.
        -14    1    5    5    0    0 -0.23575981210E+02 -0.34485739935E+01  0.16670440055E+03  0.16839856506E+03  0.00000000000E+00 0.  1.
          5    1    4    4  501    0 -0.22806512270E+02 -0.20373062997E+02 -0.54360805103E+02  0.62512144654E+02  0.41800000000E+01 0. -1.
         -5    1    4    4    0  501 -0.64412569975E+02 -0.33116885980E+02  0.68390997266E+02  0.99702097345E+02  0.41800000000E+01 0. -1.
</event>
<event>
11    1  0.8551154E-009  0.1413410E+03  0.7561462E-02  0.1106070E+00
         22   -1    0    0    0    0  0.00000000000E+00  0.00000000000E+00  0.93410843769E+02  0.93410843769E+02  0.00000000000E+00 0.  1.
         22   -1    0    0    0    0 -0.00000000000E+00 -0.00000000000E+00 -0.20392792444E+04  0.20392792444E+04  0.00000000000E+00 0.  1.
         24    2    1    2    0    0  0.46138257663E+02 -0.49330433364E+02 -0.16880260789E+04  0.16912473098E+04  0.79518484331E+02 0.  0.
         25    2    1    2    0    0 -0.36068636858E+02  0.36266076575E+02 -0.32354452679E+03  0.35063505784E+03  0.12509079940E+03 0.  0.
        -24    2    1    2    0    0 -0.10069620805E+02  0.13064356789E+02  0.65702204985E+02  0.90807720615E+02  0.60474686456E+02 0.  0.
        -13    1    3    3    0    0  0.55948371162E+01 -0.61565351778E+02 -0.10479534723E+04  0.10497752497E+04  0.00000000000E+00 0.  1.
         14    1    3    3    0    0  0.40543420547E+02  0.12234918414E+02 -0.64007260659E+03  0.64147206010E+03  0.00000000000E+00 0. -1.
         11    1    5    5    0    0  0.75932598820E+01 -0.21848279360E+02  0.29642420529E+02  0.37598909577E+02  0.00000000000E+00 0. -1.
        -12    1    5    5    0    0 -0.17662880687E+02  0.34912636148E+02  0.36059784457E+02  0.53208811038E+02  0.00000000000E+00 0.  1.
          5    1    4    4  501    0 -0.34211508750E+02 -0.28644586800E+02 -0.41155205905E+02  0.60845402924E+02  0.41800000000E+01 0. -1.
         -5    1    4    4    0  501 -0.18571281081E+01  0.64910663375E+02 -0.28238932089E+03  0.28978965492E+03  0.41800000000E+01 0. -1.
</event>
<event>
11    1  0.8551154E-009  0.1289080E+03  0.7561462E-02  0.1120618E+00
         22   -1    0    0    0    0  0.00000000000E+00  0.00000000000E+00  0.59564642515E+02  0.59564642515E+02  0.00000000000E+00 0.  1.
         22   -1    0    0    0    0 -0.00000000000E+00 -0.00000000000E+00 -0.66551422292E+03  0.66551422292E+03  0.00000000000E+00 0.  1.
        -24    2    1    2    0    0 -0.10349095034E+02  0.33935044999E+02 -0.35509860631E+03  0.36591044468E+03  0.80850122288E+02 0.  0.
         25    2    1    2    0    0 -0.35238040647E+00 -0.19683838006E+02 -0.25136684743E+03  0.28146652960E+03  0.12510210888E+03 0.  0.
         24    2    1    2    0    0  0.10701475441E+02 -0.14251206993E+02  0.51587333904E+00  0.77701891155E+02  0.75628693539E+02 0.  0.
        -11    1    5    5    0    0  0.19611870558E+02 -0.27310014970E+02  0.29472228150E+02  0.44711012251E+02  0.00000000000E+00 0.  1.
         12    1    5    5    0    0 -0.89103951166E+01  0.13058807977E+02 -0.28956354811E+02  0.32990878904E+02  0.00000000000E+00 0. -1.
         11    1    3    3    0    0 -0.36304686036E+02 -0.80522325028E+01 -0.11772437487E+03  0.12345807837E+03  0.00000000000E+00 0. -1.
        -12    1    3    3    0    0  0.25955591001E+02  0.41987277502E+02 -0.23737423144E+03  0.24245236631E+03  0.00000000000E+00 0.  1.
          5    1    4    4  501    0 -0.57977766295E+02 -0.88847716923E+01 -0.17798315040E+03  0.18744555151E+03  0.41800000000E+01 0. -1.
         -5    1    4    4    0  501  0.57625385888E+02 -0.10799066314E+02 -0.73383697030E+02  0.94020978094E+02  0.41800000000E+01 0. -1.
</event>
<event>
11    1  0.8551154E-009  0.2451600E+03  0.7561462E-02  0.1026510E+00
         22   -1    0    0    0    0  0.00000000000E+00  0.00000000000E+00  0.22844532334E+04  0.22844532334E+04  0.00000000000E+00 0. -1.
         22   -1    0    0    0    0 -0.00000000000E+00 -0.00000000000E+00 -0.36439151998E+02  0.36439151998E+02  0.00000000000E+00 0. -1.
         24    2    1    2    0    0  0.27047681794E+02 -0.47496810019E+02  0.38509302298E+03  0.39714511810E+03  0.80250136627E+02 0.  0.
         25    2    1    2    0    0 -0.82678389180E+02 -0.17765452053E+03  0.81988129582E+03  0.85220257047E+03  0.12508811763E+03 0.  0.
        -24    2    1    2    0    0  0.55630707385E+02  0.22515133055E+03  0.10430397626E+04  0.10715446968E+04  0.80549324610E+02 0.  0.
        -13    1    3    3    0    0  0.20656477040E+02  0.16523189468E+02  0.57481619423E+02  0.63275922793E+02  0.00000000000E+00 0.  1.
         14    1    3    3    0    0  0.63912047543E+01 -0.64019999487E+02  0.32761140356E+03  0.33386919530E+03  0.00000000000E+00 0. -1.
         11    1    5    5    0    0  0.56299545395E+02  0.20034282197E+03  0.77819779032E+03  0.80554247932E+03  0.00000000000E+00 0. -1.
        -12    1    5    5    0    0 -0.66883801017E+00  0.24808508582E+02  0.26484197229E+03  0.26600221753E+03  0.00000000000E+00 0.  1.
          5    1    4    4  501    0 -0.80122408048E+02 -0.70444341865E+02  0.24297256879E+03  0.26539620788E+03  0.41800000000E+01 0.  1.
         -5    1    4    4    0  501 -0.25559811316E+01 -0.10721017866E+03  0.57690872703E+03  0.58680636259E+03  0.41800000000E+01 0.  1.
</event>
<event>
11    1  0.8551154E-009  0.1620269E+03  0.7561462E-02  0.1085186E+00
         22   -1    0    0    0    0  0.00000000000E+00  0.00000000000E+00  0.15140640354E+04  0.15140640354E+04  0.00000000000E+00 0.  1.
         22   -1    0    0    0    0 -0.00000000000E+00 -0.00000000000E+00 -0.82572050247E+02  0.82572050247E+02  0.00000000000E+00 0.  1.
         24    2    1    2    0    0  0.68302204561E+02 -0.79153977094E+02  0.18431858813E+02  0.13333806300E+03  0.80676901203E+02 0.  0.
         25    2    1    2    0    0 -0.11266052848E+03  0.24263691294E+02  0.29780683278E+03  0.34294783516E+03  0.12507272524E+03 0.  0.
        -24    2    1    2    0    0  0.44358323921E+02  0.54890285800E+02  0.11152532936E+04  0.11203501875E+04  0.80087635930E+02 0.  0.
        -13    1    3    3    0    0 -0.62520977063E+01  0.12255463216E+02 -0.98328985381E+00  0.13793185394E+02  0.00000000000E+00 0.  1.
         14    1    3    3    0    0  0.74554302267E+02 -0.91409440310E+02  0.19415148667E+02  0.11954487761E+03  0.00000000000E+00 0. -1.
         11    1    5    5    0    0 -0.10772107391E+02  0.27054874180E+00  0.23620105647E+02  0.25961912199E+02  0.00000000000E+00 0. -1.
        -12    1    5    5    0    0  0.55130431313E+02  0.54619737058E+02  0.10916331880E+04  0.10943882753E+04  0.00000000000E+00 0.  1.
          5    1    4    4  501    0 -0.94251146979E+02  0.88033846048E+00  0.29832713945E+03  0.31289072891E+03  0.41800000000E+01 0. -1.
         -5    1    4    4    0  501 -0.18409381503E+02  0.23383352833E+02 -0.52030667616E+00  0.30057106249E+02  0.41800000000E+01 0. -1.
</event>
<event>
11    1  0.8551154E-009  0.1380968E+03  0.7561462E-02  0.1109702E+00
         22   -1    0    0    0    0  0.00000000000E+00  0.00000000000E+00  0.13426605240E+03  0.13426605240E+03  0.00000000000E+00 0. -1.
         22   -1    0    0    0    0 -0.00000000000E+00 -0.00000000000E+00 -0.28482539193E+04  0.28482539193E+04  0.00000000000E+00 0.  1.
        -24    2    1    2    0    0  0.32287013899E+02  0.62184598392E+02 -0.21191086814E+04  0.21217680642E+04  0.79804380225E+02 0.  0.
         25    2    1    2    0    0  0.10073213289E+01 -0.11715299147E+02 -0.70066247326E+03  0.71183728805E+03  0.12508461255E+03 0.  0.
         24    2    1    2    0    0 -0.33294335228E+02 -0.50469299245E+02  0.10578328780E+03  0.14891461941E+03  0.85614233460E+02 0.  0.
        -11    1    5    5    0    0 -0.19065369322E+02 -0.68679148555E+01 -0.11276290744E+02  0.23190758823E+02  0.00000000000E+00 0.  1.
         12    1    5    5    0    0 -0.14228965906E+02 -0.43601384390E+02  0.11705957854E+03  0.12572386058E+03  0.00000000000E+00 0. -1.
         11    1    3    3    0    0 -0.25684152237E+02  0.15283806421E+02 -0.44743339037E+03  0.44843049544E+03  0.00000000000E+00 0. -1.
        -12    1    3    3    0    0  0.57971166136E+02  0.46900791971E+02 -0.16716752911E+04  0.16733375688E+04  0.00000000000E+00 0.  1.
          5    1    4    4  501    0  0.57503846243E+02  0.15873147532E+02 -0.41659186709E+03  0.42086209769E+03  0.41800000000E+01 0.  1.
         -5    1    4    4    0  501 -0.56496524914E+02 -0.27588446679E+02 -0.28407060617E+03  0.29097519037E+03  0.41800000000E+01 0.  1.
</event>
<event>
11    1  0.8551154E-009  0.1740991E+03  0.7561462E-02  0.1074519E+00
         22   -1    0    0    0    0  0.00000000000E+00  0.00000000000E+00  0.10105310555E+03  0.10105310555E+03  0.00000000000E+00 0. -1.
         22   -1    0    0    0    0 -0.00000000000E+00 -0.00000000000E+00 -0.21734141262E+04  0.21734141262E+04  0.00000000000E+00 0. -1.
        -24    2    1    2    0    0 -0.80678915718E+01 -0.88663290762E+01 -0.17682721142E+04  0.17701380593E+04  0.80366514854E+02 0.  0.
         25    2    1    2    0    0  0.27876271629E+01  0.12836586255E+03 -0.31097069405E+03  0.35894031891E+03  0.12509921842E+03 0.  0.
         24    2    1    2    0    0  0.52802644089E+01 -0.11949953347E+03  0.68817875747E+01  0.14538885349E+03  0.82356177833E+02 0.  0.
        -11    1    5    5    0    0 -0.16931074001E+02  0.17789857330E+01 -0.11760996603E+02  0.20691715689E+02  0.00000000000E+00 0.  1.
         12    1    5    5    0    0  0.22211338409E+02 -0.12127851921E+03  0.18642784178E+02  0.12469713780E+03  0.00000000000E+00 0. -1.
         13    1    3    3    0    0 -0.13924551114E+02  0.24310282302E+02 -0.14116976103E+04  0.14119755756E+04  0.00000000000E+00 0. -1.
        -14    1    3    3    0    0  0.58566595424E+01 -0.33176611378E+02 -0.35657450381E+03  0.35816248376E+03  0.00000000000E+00 0.  1.
          5    1    4    4  501    0  0.59877679247E+02  0.34618308082E+02 -0.12699729470E+03  0.14467048416E+03  0.41800000000E+01 0. -1.
         -5    1    4    4    0  501 -0.57090052084E+02  0.93747554467E+02 -0.18397339936E+03  0.21426983476E+03  0.41800000000E+01 0. -1.
</event>
<event>
11    1  0.8551154E-009  0.3191152E+03  0.7561462E-02  0.9924108E-01
         22   -1    0    0    0    0  0.00000000000E+00  0.00000000000E+00  0.17681403439E+04  0.17681403439E+04  0.00000000000E+00 0.  1.
         22   -1    0    0    0    0 -0.00000000000E+00 -0.00000000000E+00 -0.23189360873E+03  0.23189360873E+03  0.00000000000E+00 0. -1.
         24    2    1    2    0    0  0.19778941925E+03 -0.11684841071E+03  0.11854470427E+03  0.26707924929E+03  0.67113881131E+02 0.  0.
         25    2    1    2    0    0 -0.30776285509E+03  0.22826573978E+03  0.11596525391E+03  0.41942656158E+03  0.12508987773E+03 0.  0.
        -24    2    1    2    0    0  0.10997343584E+03 -0.11141732907E+03  0.13017367769E+04  0.13135281417E+04  0.79558562365E+02 0.  0.
        -11    1    3    3    0    0  0.11170033789E+03 -0.78914839818E+02  0.34784403965E+02  0.14111864578E+03  0.00000000000E+00 0.  1.
         12    1    3    3    0    0  0.86089081360E+02 -0.37933570894E+02  0.83760300307E+02  0.12596060351E+03  0.00000000000E+00 0. -1.
         11    1    5    5    0    0 -0.12681210202E+02 -0.68041659030E+01  0.10988049901E+03  0.11081892360E+03  0.00000000000E+00 0. -1.
        -12    1    5    5    0    0  0.12265464604E+03 -0.10461316317E+03  0.11918562779E+04  0.12027092181E+04  0.00000000000E+00 0.  1.
          5    1    4    4  501    0 -0.29492419373E+03  0.24364837257E+03  0.11129045114E+03  0.39843173370E+03  0.41800000000E+01 0.  1.
         -5    1    4    4    0  501 -0.12838661355E+02 -0.15382632783E+02  0.46748027739E+01  0.20994827880E+02  0.41800000000E+01 0.  1.
</event>
<event>
11    1  0.8551154E-009  0.1318130E+03  0.7561462E-02  0.1117061E+00
         22   -1    0    0    0    0  0.00000000000E+00  0.00000000000E+00  0.87238219133E+03  0.87238219133E+03  0.00000000000E+00 0. -1.
         22   -1    0    0    0    0 -0.00000000000E+00 -0.00000000000E+00 -0.27701344320E+03  0.27701344320E+03  0.00000000000E+00 0. -1.
         24    2    1    2    0    0  0.28584949170E+02 -0.30062910830E+02 -0.21694096403E+03  0.23512582386E+03  0.80621915428E+02 0.  0.
         25    2    1    2    0    0 -0.29078767016E+02  0.30088950347E+02  0.40745392176E+02  0.13806568383E+03  0.12510406246E+03 0.  0.
        -24    2    1    2    0    0  0.49381784542E+00 -0.26039516956E-01  0.77156431998E+03  0.77620412684E+03  0.84741383811E+02 0.  0.
        -11    1    3    3    0    0 -0.21764540719E+02 -0.13962063347E+02 -0.13611025871E+03  0.13854471109E+03  0.00000000000E+00 0.  1.
         12    1    3    3    0    0  0.50349489890E+02 -0.16100847483E+02 -0.80830705320E+02  0.96581112772E+02  0.00000000000E+00 0. -1.
         11    1    5    5    0    0 -0.30555836727E+01  0.10795491964E+02  0.75961138234E+03  0.75969423547E+03  0.00000000000E+00 0. -1.
        -12    1    5    5    0    0  0.35494015181E+01 -0.10821531481E+02  0.11952937642E+02  0.16509891368E+02  0.00000000000E+00 0.  1.
          5    1    4    4  501    0 -0.33322775522E+02 -0.26543955282E+02 -0.26190764317E+02  0.50183836701E+02  0.41800000000E+01 0. -1.
         -5    1    4    4    0  501  0.42440085064E+01  0.56632905629E+02  0.66936156493E+02  0.87881847126E+02  0.41800000000E+01 0. -1.
</event>
<event>
11    1  0.8551154E-009  0.1545213E+03  0.7561462E-02  0.1092346E+00
         22   -1    0    0    0    0  0.00000000000E+00  0.00000000000E+00  0.21812044256E+03  0.21812044256E+03  0.00000000000E+00 0.  1.
         22   -1    0    0    0    0 -0.00000000000E+00 -0.00000000000E+00 -0.32166515519E+03  0.32166515519E+03  0.00000000000E+00 0.  1.
         24    2    1    2    0    0  0.52602754423E+02  0.63822735068E+02 -0.17347000383E+03  0.20827647990E+03  0.80292331939E+02 0.  0.
         25    2    1    2    0    0 -0.69754963202E+02 -0.98390742715E+02 -0.52550133003E+02  0.18153814879E+03  0.12509232527E+03 0.  0.
        -24    2    1    2    0    0  0.17152208779E+02  0.34568007646E+02  0.12247542421E+03  0.14997096906E+03  0.77472037593E+02 0.  0.
        -11    1    3    3    0    0  0.46408699304E+02  0.68592949371E+02 -0.17996892419E+03  0.19811000416E+03  0.00000000000E+00 0.  1.
         12    1    3    3    0    0  0.61940551199E+01 -0.47702143024E+01  0.64989203566E+01  0.10166475747E+02  0.00000000000E+00 0. -1.
         11    1    5    5    0    0  0.41323255711E+02  0.29069343853E+02  0.41801093562E+02  0.65574153731E+02  0.00000000000E+00 0. -1.
        -12    1    5    5    0    0 -0.24171046933E+02  0.54986637936E+01  0.80674330645E+02  0.84396815333E+02  0.00000000000E+00 0.  1.
          5    1    4    4  501    0 -0.78681175766E+02 -0.43109896825E+01 -0.28862126023E+02  0.84022656293E+02  0.41800000000E+01 0. -1.
         -5    1    4    4    0  501  0.89262125639E+01 -0.94079753032E+02 -0.23688006980E+02  0.97515492492E+02  0.41800000000E+01 0. -1.
</event>
<event>
11    1  0.8551154E-009  0.1579916E+03  0.7561462E-02  0.1088982E+00
         22   -1    0    0    0    0  0.00000000000E+00  0.00000000000E+00  0.11349975071E+04  0.11349975071E+04  0.00000000000E+00 0. -1.
         22   -1    0    0    0    0 -0.00000000000E+00 -0.00000000000E+00 -0.19199028641E+03  0.19199028641E+03  0.00000000000E+00 0.  1.
        -24    2    1    2    0    0 -0.52728705406E+02  0.54837758479E+01 -0.11693858542E+03  0.15193668709E+03  0.81238758922E+02 0.  0.
         25    2    1    2    0    0  0.12510527227E+03 -0.64580584619E+02  0.11187416224E+03  0.21905455232E+03  0.12508831942E+03 0.  0.
         24    2    1    2    0    0 -0.72376566859E+02  0.59096808771E+02  0.94807164387E+03  0.95599655411E+03  0.79741891834E+02 0.  0.
        -13    1    5    5    0    0 -0.48555036613E+01 -0.14557829308E+02  0.47949349416E+02  0.50345272066E+02  0.00000000000E+00 0.  1.
         14    1    5    5    0    0 -0.67521063198E+02  0.73654638079E+02  0.90012229446E+03  0.90565128204E+03  0.00000000000E+00 0. -1.
         13    1    3    3    0    0  0.71638457057E+01 -0.26343656406E+02 -0.20989927096E+02  0.34436694929E+02  0.00000000000E+00 0. -1.
        -14    1    3    3    0    0 -0.59892551112E+02  0.31827432254E+02 -0.95948658324E+02  0.11749999216E+03  0.00000000000E+00 0.  1.
          5    1    4    4  501    0  0.52120496948E+02  0.12253745336E+02 -0.12965721331E+02  0.55247468780E+02  0.41800000000E+01 0. -1.
         -5    1    4    4    0  501  0.72984775317E+02 -0.76834329955E+02  0.12483988357E+03  0.16380708354E+03  0.41800000000E+01 0. -1.
</event>
<event>
11    1  0.8551154E-009  0.1656268E+03  0.7561462E-02  0.1081901E+00
         22   -1    0    0    0    0  0.00000000000E+00  0.00000000000E+00  0.39573093883E+03  0.39573093883E+03  0.00000000000E+00 0.  1.
         22   -1    0    0    0    0 -0.00000000000E+00 -0.00000000000E+00 -0.48189157034E+03  0.48189157034E+03  0.00000000000E+00 0.  1.
        -24    2    1    2    0    0 -0.24497254613E+02  0.94647336050E+02 -0.26325700597E+03  0.29160886764E+03  0.78570012031E+02 0.  0.
         25    2    1    2    0    0  0.48581672802E+02 -0.13546995898E+03 -0.15201516878E+03  0.24386236705E+03  0.12509178152E+03 0.  0.
         24    2    1    2    0    0 -0.24084418190E+02  0.40822622931E+02  0.32911154323E+03  0.34215127448E+03  0.80663132834E+02 0.  0.
        -13    1    5    5    0    0 -0.15833943669E+02  0.61525029115E+02  0.29225918624E+03  0.29908439431E+03  0.00000000000E+00 0.  1.
         14    1    5    5    0    0 -0.82504745202E+01 -0.20702406184E+02  0.36852356990E+02  0.43066880168E+02  0.00000000000E+00 0. -1.
         13    1    3    3    0    0 -0.18792484314E+02  0.13750817638E+02 -0.93983226644E+01  0.25111171245E+02  0.00000000000E+00 0. -1.
        -14    1    3    3    0    0 -0.57047702986E+01  0.80896518412E+02 -0.25385868331E+03  0.26649769640E+03  0.00000000000E+00 0.  1.
          5    1    4    4  501    0  0.37501361543E+02 -0.15074209291E+03 -0.15991953370E+03  0.22298264585E+03  0.41800000000E+01 0.  1.
         -5    1    4    4    0  501  0.11080311260E+02  0.15272133928E+02  0.79043649219E+01  0.20879721194E+02  0.41800000000E+01 0.  1.
</event>
<event>
11    1  0.8551154E-009  0.1285233E+03  0.7561462E-02  0.1121097E+00
         22   -1    0    0    0    0  0.00000000000E+00  0.00000000000E+00  0.53639856221E+03  0.53639856221E+03  0.00000000000E+00 0.  1.
         22   -1    0    0    0    0 -0.00000000000E+00 -0.00000000000E+00 -0.22454923241E+03  0.22454923241E+03  0.00000000000E+00 0. -1.
        -24    2    1    2    0    0  0.38630029688E+02 -0.49933505071E+00 -0.17921986835E+03  0.19846425665E+03  0.75998496207E+02 0.  0.
         25    2    1    2    0    0 -0.53548748295E+02 -0.21173283838E+02  0.12313641642E+03  0.18471678264E+03  0.12506772705E+03 0.  0.
         24    2    1    2    0    0  0.14918718607E+02  0.21672618888E+02  0.36793278173E+03  0.37776675532E+03  0.81491833821E+02 0.  0.
        -11    1    5    5    0    0  0.26354441877E+02 -0.25254082365E+02  0.18489619758E+03  0.18846466290E+03  0.00000000000E+00 0.  1.
         12    1    5    5    0    0 -0.11435723270E+02  0.46926701253E+02  0.18303658415E+03  0.18930209242E+03  0.00000000000E+00 0. -1.
         11    1    3    3    0    0  0.61810996018E+01 -0.15198430032E+02 -0.15386995612E+03  0.15474224266E+03  0.00000000000E+00 0. -1.
        -12    1    3    3    0    0  0.32448930086E+02  0.14699094981E+02 -0.25349912237E+02  0.43722013991E+02  0.00000000000E+00 0.  1.
          5    1    4    4  501    0  0.20057271548E+02 -0.53413859302E+02  0.49938646288E+02  0.75938628514E+02  0.41800000000E+01 0. -1.
         -5    1    4    4    0  501 -0.73606019843E+02  0.32240575465E+02  0.73197770135E+02  0.10877815413E+03  0.41800000000E+01 0. -1.
</event>
<event>
11    1  0.8551154E-009  0.1397620E+03  0.7561462E-02  0.1107824E+00
         22   -1    0    0    0    0  0.00000000000E+00  0.00000000000E+00  0.81434393761E+03  0.81434393761E+03  0.00000000000E+00 0. -1.
         22   -1    0    0    0    0 -0.00000000000E+00 -0.00000000000E+00 -0.31141994953E+03  0.31141994953E+03  0.00000000000E+00 0. -1.
        -24    2    1    2    0    0  0.61638105327E+02  0.10856636850E+02 -0.21477687818E+03  0.23766252386E+03  0.80232445161E+02 0.  0.
         25    2    1    2    0    0 -0.51227153362E+02 -0.49423962188E+02 -0.19714196123E+02  0.14526774137E+03  0.12508844021E+03 0.  0.
         24    2    1    2    0    0 -0.10410951964E+02  0.38567325339E+02  0.73741506238E+03  0.74283362191E+03  0.80156029821E+02 0.  0.
        -13    1    5    5    0    0 -0.41352727132E+02  0.21476111418E+01  0.30929018684E+03  0.31204980364E+03  0.00000000000E+00 0.  1.
         14    1    5    5    0    0  0.30941775167E+02  0.36419714197E+02  0.42812487554E+03  0.43078381827E+03  0.00000000000E+00 0. -1.
         13    1    3    3    0    0  0.10171069597E+02  0.44259523545E+01 -0.16629528289E+03  0.16666481579E+03  0.00000000000E+00 0. -1.
        -14    1    3    3    0    0  0.51467035730E+02  0.64306844954E+01 -0.48481595290E+02  0.70997708074E+02  0.00000000000E+00 0.  1.
          5    1    4    4  501    0 -0.56951992166E+02  0.29779360934E+02 -0.89975204533E+01  0.65028974493E+02  0.41800000000E+01 0. -1.
         -5    1    4    4    0  501  0.57248388034E+01 -0.79203323123E+02 -0.10716675670E+02  0.80238766880E+02  0.41800000000E+01 0. -1.
</event>
<event>
11    1  0.8551154E-009  0.1736846E+03  0.7561462E-02  0.1074869E+00
         22   -1    0    0    0    0  0.00000000000E+00  0.00000000000E+00  0.35780092769E+03  0.35780092769E+03  0.00000000000E+00 0.  1.
         22   -1    0    0    0    0 -0.00000000000E+00 -0.00000000000E+00 -0.38129979196E+03  0.38129979196E+03  0.00000000000E+00 0. -1.
        -24    2    1    2    0    0  0.11518702261E+03 -0.75121080153E+01 -0.24966043765E+03  0.28680985122E+03  0.81271610559E+02 0.  0.
         25    2    1    2    0    0 -0.14249552063E+03  0.24585394882E+02 -0.20241599220E+02  0.19226389221E+03  0.12508503854E+03 0.  0.
         24    2    1    2    0    0  0.27308498022E+02 -0.17073286866E+02  0.24640317260E+03  0.26002697623E+03  0.76565355830E+02 0.  0.
        -11    1    5    5    0    0  0.35595884537E+02 -0.53731716318E+01  0.24251359580E+03  0.24517092429E+03  0.00000000000E+00 0.  1.
         12    1    5    5    0    0 -0.82873865149E+01 -0.11700115235E+02  0.38895768031E+01  0.14856051947E+02  0.00000000000E+00 0. -1.
         11    1    3    3    0    0  0.10337016895E+03  0.24100684386E+02 -0.20480652500E+03  0.23067714993E+03  0.00000000000E+00 0. -1.
        -12    1    3    3    0    0  0.11816853660E+02 -0.31612792401E+02 -0.44853912644E+02  0.56132701283E+02  0.00000000000E+00 0.  1.
          5    1    4    4  501    0 -0.14179840478E+03  0.11926579579E+02 -0.56854233071E+02  0.15329353254E+03  0.41800000000E+01 0.  1.
         -5    1    4    4    0  501 -0.69711584886E+00  0.12658815302E+02  0.36612633851E+02  0.38970359671E+02  0.41800000000E+01 0.  1.
</event>
<event>
11    1  0.8551154E-009  0.1269343E+03  0.7561462E-02  0.1123094E+00
         22   -1    0    0    0    0  0.00000000000E+00  0.00000000000E+00  0.59251086255E+03  0.59251086255E+03  0.00000000000E+00 0.  1.
         22   -1    0    0    0    0 -0.00000000000E+00 -0.00000000000E+00 -0.54347437016E+03  0.54347437016E+03  0.00000000000E+00 0.  1.
         24    2    1    2    0    0  0.33059342345E+01 -0.60340230126E+01 -0.31729627587E+03  0.32735275211E+03  0.80221935892E+02 0.  0.
         25    2    1    2    0    0  0.74466799950E+01 -0.12810220616E+02 -0.19851684063E+03  0.23510832356E+03  0.12508969982E+03 0.  0.
        -24    2    1    2    0    0 -0.10752614230E+02  0.18844243629E+02  0.56484960889E+03  0.57352415703E+03  0.96975016384E+02 0.  0.
        -13    1    3    3    0    0  0.32717384341E+02  0.16172296264E+02 -0.22551314067E+03  0.22844725216E+03  0.00000000000E+00 0.  1.
         14    1    3    3    0    0 -0.29411450107E+02 -0.22206319277E+02 -0.91783135199E+02  0.98905499949E+02  0.00000000000E+00 0. -1.
         13    1    5    5    0    0 -0.26017209832E+02 -0.29264075120E+02  0.37644944530E+03  0.37848047000E+03  0.00000000000E+00 0. -1.
        -14    1    5    5    0    0  0.15264595603E+02  0.48108318749E+02  0.18840016359E+03  0.19504368703E+03  0.00000000000E+00 0.  1.
          5    1    4    4  501    0  0.45151658391E+01  0.39224176914E+02 -0.12112659203E+02  0.41510380511E+02  0.41800000000E+01 0. -1.
         -5    1    4    4    0  501  0.29315141559E+01 -0.52034397531E+02 -0.18640418143E+03  0.19359794305E+03  0.41800000000E+01 0. -1.
</event>
<event>
11    1  0.8551154E-009  0.1276416E+03  0.7561462E-02  0.1122201E+00
         22   -1    0    0    0    0  0.00000000000E+00  0.00000000000E+00  0.10666131212E+03  0.10666131212E+03  0.00000000000E+00 0.  1.
         22   -1    0    0    0    0 -0.00000000000E+00 -0.00000000000E+00 -0.70436883972E+03  0.70436883972E+03  0.00000000000E+00 0.  1.
         24    2    1    2    0    0  0.12313882671E+02 -0.14753698360E+02 -0.58958358723E+03  0.59535623630E+03  0.80442143490E+02 0.  0.
         25    2    1    2    0    0 -0.33130966335E+02  0.90782421319E+01 -0.10510076253E+02  0.13014657447E+03  0.12509034229E+03 0.  0.
        -24    2    1    2    0    0  0.20817083664E+02  0.56754562286E+01  0.23861358831E+01  0.85527341067E+02  0.82726480947E+02 0.  0.
        -11    1    3    3    0    0  0.39223800751E+02 -0.22112863743E+02 -0.48600353502E+03  0.48808495300E+03  0.00000000000E+00 0.  1.
         12    1    3    3    0    0 -0.26909918080E+02  0.73591653821E+01 -0.10358005221E+03  0.10727128331E+03  0.00000000000E+00 0. -1.
         13    1    5    5    0    0  0.34353882573E+02  0.26462894714E+02 -0.23792224245E+02  0.49462551279E+02  0.00000000000E+00 0. -1.
        -14    1    5    5    0    0 -0.13536798909E+02 -0.20787438486E+02  0.26178360128E+02  0.36064789788E+02  0.00000000000E+00 0.  1.
          5    1    4    4  501    0 -0.65906018663E+02 -0.34901043275E+02 -0.49236095997E+01  0.74855864495E+02  0.41800000000E+01 0.  1.
         -5    1    4    4    0  501  0.32775052328E+02  0.43979285407E+02 -0.55864666537E+01  0.55290709977E+02  0.41800000000E+01 0.  1.
</event>
<event>
11    1  0.8551154E-009  0.2664377E+03  0.7561462E-02  0.1015490E+00
         22   -1    0    0    0    0  0.00000000000E+00  0.00000000000E+00  0.64840780640E+03  0.64840780640E+03  0.00000000000E+00 0.  1.
         22   -1    0    0    0    0 -0.00000000000E+00 -0.00000000000E+00 -0.12156414257E+04  0.12156414257E+04  0.00000000000E+00 0. -1.
         24    2    1    2    0    0  0.21480175118E+03 -0.57601217385E+02 -0.68740305496E+03  0.72705531495E+03  0.81417310691E+02 0.  0.
         25    2    1    2    0    0 -0.25556546329E+03  0.59869718654E+02 -0.46296426164E+03  0.54670055707E+03  0.12508997684E+03 0.  0.
        -24    2    1    2    0    0  0.40763712108E+02 -0.22685012693E+01  0.58313369730E+03  0.59029336007E+03  0.82064095094E+02 0.  0.
        -11    1    3    3    0    0  0.20161907746E+02  0.18626200995E+02 -0.67998986535E+02  0.73330076076E+02  0.00000000000E+00 0.  1.
         12    1    3    3    0    0  0.19463984343E+03 -0.76227418380E+02 -0.61940406842E+03  0.65372523888E+03  0.00000000000E+00 0. -1.
         11    1    5    5    0    0 -0.47113657059E+01 -0.26391806702E+02  0.76703653297E+02  0.81253768263E+02  0.00000000000E+00 0. -1.
        -12    1    5    5    0    0  0.45475077814E+02  0.24123305433E+02  0.50643004400E+03  0.50903959181E+03  0.00000000000E+00 0.  1.
          5    1    4    4  501    0 -0.37504434413E+02  0.20738567581E+02 -0.19150993556E+03  0.19629110679E+03  0.41800000000E+01 0.  1.
         -5    1    4    4    0  501 -0.21806102887E+03  0.39131151073E+02 -0.27145432608E+03  0.35040945028E+03  0.41800000000E+01 0.  1.
</event>
<event>
11    1  0.8551154E-009  0.1477908E+03  0.7561462E-02  0.1099158E+00
         22   -1    0    0    0    0  0.00000000000E+00  0.00000000000E+00  0.29068327695E+02  0.29068327695E+02  0.00000000000E+00 0. -1.
         22   -1    0    0    0    0 -0.00000000000E+00 -0.00000000000E+00 -0.31964829674E+04  0.31964829674E+04  0.00000000000E+00 0. -1.
         24    2    1    2    0    0  0.67784402449E+02 -0.83171776558E+01 -0.15208204121E+04  0.15244695614E+04  0.80304527432E+02 0.  0.
         25    2    1    2    0    0 -0.10386131158E+03 -0.14791605502E+02 -0.15789856362E+04  0.15874032688E+04  0.12509010721E+03 0.  0.
        -24    2    1    2    0    0  0.36076909129E+02  0.23108783158E+02 -0.67608591340E+02  0.11367846480E+03  0.80723679950E+02 0.  0.
        -11    1    3    3    0    0 -0.75668458357E+01  0.23132702560E+01 -0.17288794381E+02  0.19013436994E+02  0.00000000000E+00 0.  1.
         12    1    3    3    0    0  0.75351248285E+02 -0.10630447912E+02 -0.15035316177E+04  0.15054561244E+04  0.00000000000E+00 0. -1.
         11    1    5    5    0    0  0.14437664863E+02 -0.21587597606E+01  0.17211021033E+02  0.22568244403E+02  0.00000000000E+00 0. -1.
        -12    1    5    5    0    0  0.21639244265E+02  0.25267542919E+02 -0.84819612373E+02  0.91110220396E+02  0.00000000000E+00 0.  1.
          5    1    4    4  501    0 -0.11384531664E+03 -0.51200134650E+02 -0.11631985663E+04  0.11698848605E+04  0.41800000000E+01 0. -1.
         -5    1    4    4    0  501  0.99840050627E+01  0.36408529148E+02 -0.41578706993E+03  0.41751840831E+03  0.41800000000E+01 0. -1.
</event>
<event>
11    1  0.8551154E-009  0.1875935E+03  0.7561462E-02  0.1063661E+00
         22   -1    0    0    0    0  0.00000000000E+00  0.00000000000E+00  0.70301689042E+03  0.70301689042E+03  0.00000000000E+00 0.  1.
         22   -1    0    0    0    0 -0.00000000000E+00 -0.00000000000E+00 -0.16022992418E+04  0.16022992418E+04  0.00000000000E+00 0. -1.
        -24    2    1    2    0    0  0.46501453116E+01  0.38329340022E+02 -0.14120858912E+04  0.14148539871E+04  0.79589437545E+02 0.  0.
         25    2    1    2    0    0 -0.12043449225E+03  0.41697156582E+02 -0.13424765150E+03  0.22340628365E+03  0.12507923829E+03 0.  0.
         24    2    1    2    0    0  0.11578434694E+03 -0.80026496605E+02  0.64705119139E+03  0.66705586139E+03  0.80486165220E+02 0.  0.
        -13    1    5    5    0    0  0.12731852951E+03 -0.64332919210E+02  0.56672152100E+03  0.58439884909E+03  0.00000000000E+00 0.  1.
         14    1    5    5    0    0 -0.11534182573E+02 -0.15693577394E+02  0.80329670383E+02  0.82657012304E+02  0.00000000000E+00 0. -1.
         11    1    3    3    0    0 -0.21377111286E+01  0.45752611260E+02 -0.13879550416E+04  0.13887105778E+04  0.00000000000E+00 0. -1.
        -12    1    3    3    0    0  0.67878564402E+01 -0.74232712373E+01 -0.24130849611E+02  0.26143409377E+02  0.00000000000E+00 0.  1.
          5    1    4    4  501    0 -0.13222915252E+03  0.59481849703E+02 -0.81564950544E+02  0.16641199709E+03  0.41800000000E+01 0.  1.
         -5    1    4    4    0  501  0.11794660270E+02 -0.17784693121E+02 -0.52682700953E+02  0.56994286555E+02  0.41800000000E+01 0.  1.
</event>
<event>
11    1  0.8551154E-009  0.3081084E+03  0.7561462E-02  0.9968168E-01
         22   -1    0    0    0    0  0.00000000000E+00  0.00000000000E+00  0.43398386087E+03  0.43398386087E+03  0.00000000000E+00 0.  1.
         22   -1    0    0    0    0 -0.00000000000E+00 -0.00000000000E+00 -0.33620876854E+04  0.33620876854E+04  0.00000000000E+00 0. -1.
        -24    2    1    2    0    0 -0.25583959883E+03  0.11717383289E+03 -0.31936646139E+04  0.32070675524E+04  0.81271224651E+02 0.  0.
         25    2    1    2    0    0  0.30393505515E+03 -0.22988020780E+02  0.45929343256E+02  0.33265868418E+03  0.12508928308E+03 0.  0.
         24    2    1    2    0    0 -0.48095456327E+02 -0.94185812114E+02  0.21963144612E+03  0.25634530970E+03  0.79314598634E+02 0.  0.
        -13    1    5    5    0    0 -0.45155485774E+02 -0.55539917824E+02  0.20095452082E+03  0.21332233780E+03  0.00000000000E+00 0.  1.
         14    1    5    5    0    0 -0.29399705525E+01 -0.38645894290E+02  0.18676925306E+02  0.43022971901E+02  0.00000000000E+00 0. -1.
         13    1    3    3    0    0 -0.23550294299E+03  0.96514153207E+02 -0.25298501911E+04  0.25426204214E+04  0.00000000000E+00 0. -1.
        -14    1    3    3    0    0 -0.20336655836E+02  0.20659679687E+02 -0.66381442283E+03  0.66444713100E+03  0.00000000000E+00 0.  1.
          5    1    4    4  501    0  0.17985027439E+03  0.33446223330E+02  0.66593453628E+02  0.19472270417E+03  0.41800000000E+01 0. -1.
         -5    1    4    4    0  501  0.12408478077E+03 -0.56434244110E+02 -0.20664110371E+02  0.13793598002E+03  0.41800000000E+01 0. -1.
</event>
<event>
11    1  0.8551154E-009  0.1663526E+03  0.7561462E-02  0.1081250E+00
         22   -1    0    0    0    0  0.00000000000E+00  0.00000000000E+00  0.24199043287E+03  0.24199043287E+03  0.00000000000E+00 0.  1.
         22   -1    0    0    0    0 -0.00000000000E+00 -0.00000000000E+00 -0.62470610744E+03  0.62470610744E+03  0.00000000000E+00 0. -1.
         24    2    1    2    0    0 -0.10302622716E+03 -0.19701131342E+02 -0.37870732815E+03  0.40118930783E+03  0.80815111614E+02 0.  0.
         25    2    1    2    0    0  0.13130190160E+03 -0.36819554194E+02 -0.18434089768E+03  0.26120695803E+03  0.12510651233E+03 0.  0.
        -24    2    1    2    0    0 -0.28275674440E+02  0.56520685536E+02  0.18033255126E+03  0.20430027445E+03  0.72281888721E+02 0.  0.
        -11    1    3    3    0    0 -0.12353852483E+02 -0.18704732948E+02 -0.16579984881E+02  0.27881545948E+02  0.00000000000E+00 0.  1.
         12    1    3    3    0    0 -0.90672374676E+02 -0.99639839424E+00 -0.36212734327E+03  0.37330776188E+03  0.00000000000E+00 0. -1.
         13    1    5    5    0    0  0.20993006196E+02  0.26932830244E+02  0.39626772003E+02  0.52310273498E+02  0.00000000000E+00 0. -1.
        -14    1    5    5    0    0 -0.49268680635E+02  0.29587855291E+02  0.14070577926E+03  0.15199000095E+03  0.00000000000E+00 0.  1.
          5    1    4    4  501    0 -0.12604457616E+02 -0.33978424810E+02 -0.16434454555E+02  0.40012115676E+02  0.41800000000E+01 0.  1.
         -5    1    4    4    0  501  0.14390635921E+03 -0.28411293835E+01 -0.16790644313E+03  0.22119484235E+03  0.41800000000E+01 0.  1.
</event>
<event>
11    1  0.8551154E-009  0.1600320E+03  0.7561462E-02  0.1087047E+00
         22   -1    0    0    0    0  0.00000000000E+00  0.00000000000E+00  0.50462242977E+03  0.50462242977E+03  0.00000000000E+00 0. -1.
         22   -1    0    0    0    0 -0.00000000000E+00 -0.00000000000E+00 -0.20205078659E+03  0.20205078659E+03  0.00000000000E+00 0. -1.
        -24    2    1    2    0    0 -0.48352681590E+02  0.77016442267E+02 -0.96016370873E+02  0.15517906149E+03  0.81190414791E+02 0.  0.
         25    2    1    2    0    0  0.57998273221E+02 -0.12494333583E+03  0.53792324871E+02  0.19368975714E+03  0.12508985148E+03 0.  0.
         24    2    1    2    0    0 -0.96455916310E+01  0.47926893561E+02  0.34479568919E+03  0.35780439772E+03  0.82157745719E+02 0.  0.
        -13    1    5    5    0    0 -0.42196735251E+02  0.83187468603E+01  0.18729663488E+03  0.19217126594E+03  0.00000000000E+00 0.  1.
         14    1    5    5    0    0  0.32551143620E+02  0.39608146701E+02  0.15749905430E+03  0.16563313178E+03  0.00000000000E+00 0. -1.
         11    1    3    3    0    0 -0.48019761472E+02  0.90886062071E+02 -0.96916521912E+02  0.14127627540E+03  0.00000000000E+00 0. -1.
        -12    1    3    3    0    0 -0.33292011742E+00 -0.13869619804E+02  0.90015103964E+00  0.13902786095E+02  0.00000000000E+00 0.  1.
          5    1    4    4  501    0  0.58465599791E+02 -0.89130267388E+02 -0.22753065401E+02  0.10907614455E+03  0.41800000000E+01 0. -1.
         -5    1    4    4    0  501 -0.46732657059E+00 -0.35813068440E+02  0.76545390272E+02  0.84613612599E+02  0.41800000000E+01 0. -1.
</event>
<event>
11    1  0.8551154E-009  0.1288536E+03  0.7561462E-02  0.1120686E+00
         22   -1    0    0    0    0  0.00000000000E+00  0.00000000000E+00  0.96411436826E+03  0.96411436826E+03  0.00000000000E+00 0.  1.
         22   -1    0    0    0    0 -0.00000000000E+00 -0.00000000000E+00 -0.56914411311E+02  0.56914411311E+02  0.00000000000E+00 0. -1.
         24    2    1    2    0    0  0.33212282764E+02  0.35328526407E+02  0.34733753004E+02  0.97349145994E+02  0.76936741051E+02 0.  0.
         25    2    1    2    0    0 -0.29892413507E+02 -0.61958376941E+02  0.20388967665E+03  0.24889908224E+03  0.12508939218E+03 0.  0.
        -24    2    1    2    0    0 -0.33198692571E+01  0.26629850533E+02  0.66857652729E+03  0.67478055134E+03  0.87258519050E+02 0.  0.
        -13    1    3    3    0    0  0.52103810302E+02  0.78502735054E+01  0.36269386393E+02  0.63967978172E+02  0.00000000000E+00 0.  1.
         14    1    3    3    0    0 -0.18891527538E+02  0.27478252902E+02 -0.15356333894E+01  0.33381167822E+02  0.00000000000E+00 0. -1.
         11    1    5    5    0    0  0.19153036321E+02 -0.26703873658E+02  0.27896527300E+03  0.28089421355E+03  0.00000000000E+00 0. -1.
        -12    1    5    5    0    0 -0.22472905578E+02  0.53333724191E+02  0.38961125430E+03  0.39388633779E+03  0.00000000000E+00 0.  1.
          5    1    4    4  501    0  0.27553019438E+02 -0.21979719159E+02  0.24166849194E+01  0.35575127553E+02  0.41800000000E+01 0.  1.
         -5    1    4    4    0  501 -0.57445432945E+02 -0.39978657782E+02  0.20147299174E+03  0.21332395469E+03  0.41800000000E+01 0.  1.
</event>
<event>
11    1  0.8551154E-009  0.1710543E+03  0.7561462E-02  0.1077118E+00
         22   -1    0    0    0    0  0.00000000000E+00  0.00000000000E+00  0.95671258995E+03  0.95671258995E+03  0.00000000000E+00 0. -1.
         22   -1    0    0    0    0 -0.00000000000E+00 -0.00000000000E+00 -0.19890450100E+03  0.19890450100E+03  0.00000000000E+00 0. -1.
        -24    2    1    2    0    0 -0.96661433962E+02  0.74058055694E+02 -0.15246734865E+03  0.20464782709E+03  0.61696128699E+02 0.  0.
         25    2    1    2    0    0  0.65656575592E+02  0.84161252952E+01  0.33869401143E+03  0.36707443444E+03  0.12509352486E+03 0.  0.
         24    2    1    2    0    0  0.31004858370E+02 -0.82474180989E+02  0.57158142619E+03  0.58389482943E+03  0.80402445845E+02 0.  0.
        -11    1    5    5    0    0  0.76468240329E+01 -0.48076755939E+02  0.10814244758E+03  0.11859442376E+03  0.00000000000E+00 0.  1.
         12    1    5    5    0    0  0.23358034337E+02 -0.34397425050E+02  0.46343897860E+03  0.46530040566E+03  0.00000000000E+00 0. -1.
         13    1    3    3    0    0 -0.72452062050E+02  0.82646000814E+02 -0.13225045897E+03  0.17195885160E+03  0.00000000000E+00 0. -1.
        -14    1    3    3    0    0 -0.24209371912E+02 -0.85879451204E+01 -0.20216889685E+02  0.32688975486E+02  0.00000000000E+00 0.  1.
          5    1    4    4  501    0 -0.26929282418E+02  0.31118617600E+02  0.15037631354E+03  0.15596173468E+03  0.41800000000E+01 0. -1.
         -5    1    4    4    0  501  0.92585858010E+02 -0.22702492304E+02  0.18831769789E+03  0.21111269976E+03  0.41800000000E+01 0. -1.
</event>
<event>
11    1  0.8551154E-009  0.2553027E+03  0.7561462E-02  0.1021112E+00
         22   -1    0    0    0    0  0.00000000000E+00  0.00000000000E+00  0.13664416752E+04  0.13664416752E+04  0.00000000000E+00 0. -1.
         22   -1    0    0    0    0 -0.00000000000E+00 -0.00000000000E+00 -0.30373124377E+03  0.30373124377E+03  0.00000000000E+00 0.  1.
        -24    2    1    2    0    0 -0.50998723221E+02  0.73189599129E+02 -0.23195112260E+03  0.26122513687E+03  0.80496345679E+02 0.  0.
         25    2    1    2    0    0  0.55464258503E+02 -0.27572716660E+03  0.52089431952E+03  0.60504537260E+03  0.12508899402E+03 0.  0.
         24    2    1    2    0    0 -0.44655352818E+01  0.20253756747E+03  0.77376723449E+03  0.80390240948E+03  0.80634629956E+02 0.  0.
        -13    1    5    5    0    0 -0.34117240409E+02  0.41478442594E+02  0.16700923540E+03  0.17543241435E+03  0.00000000000E+00 0.  1.
         14    1    5    5    0    0  0.29651705127E+02  0.16105912487E+03  0.60675799909E+03  0.62846999513E+03  0.00000000000E+00 0. -1.
         13    1    3    3    0    0 -0.51053939465E+02  0.22966056134E+02 -0.59874161478E+02  0.81968650605E+02  0.00000000000E+00 0. -1.
        -14    1    3    3    0    0  0.55216244345E-01  0.50223542996E+02 -0.17207696113E+03  0.17925648627E+03  0.00000000000E+00 0.  1.
          5    1    4    4  501    0  0.24369014113E+02 -0.15636832725E+02  0.13825852328E+03  0.14131967678E+03  0.41800000000E+01 0. -1.
         -5    1    4    4    0  501  0.31095244390E+02 -0.26009033387E+03  0.38263579624E+03  0.46372569582E+03  0.41800000000E+01 0. -1.
</event>
<event>
11    1  0.8551154E-009  0.2907473E+03  0.7561462E-02  0.1004185E+00
         22   -1    0    0    0    0  0.00000000000E+00  0.00000000000E+00  0.13592352405E+04  0.13592352405E+04  0.00000000000E+00 0.  1.
         22   -1    0    0    0    0 -0.00000000000E+00 -0.00000000000E+00 -0.48995024136E+03  0.48995024136E+03  0.00000000000E+00 0. -1.
         24    2    1    2    0    0 -0.22563056997E+02 -0.15147783835E+02 -0.34601383986E+03  0.35785435025E+03  0.87152806774E+02 0.  0.
         25    2    1    2    0    0  0.18323743973E+03 -0.19209668985E+03  0.54302838860E+02  0.29844798969E+03  0.12508120031E+03 0.  0.
        -24    2    1    2    0    0 -0.16067438273E+03  0.20724447369E+03  0.11609960002E+04  0.11928831420E+04  0.79321805207E+02 0.  0.
        -11    1    3    3    0    0 -0.10718578553E+02 -0.25894063444E+02 -0.28614051803E+02  0.40051896440E+02  0.00000000000E+00 0.  1.
         12    1    3    3    0    0 -0.11844478444E+02  0.10746279609E+02 -0.31739978805E+03  0.31780245382E+03  0.00000000000E+00 0. -1.
         11    1    5    5    0    0 -0.25910338105E+02  0.91935616507E+02  0.35708077887E+03  0.36963520644E+03  0.00000000000E+00 0. -1.
        -12    1    5    5    0    0 -0.13476404463E+03  0.11530885718E+03  0.80391522131E+03  0.82324793551E+03  0.00000000000E+00 0.  1.
          5    1    4    4  501    0 -0.25143247304E+01  0.90743408127E+00 -0.19859464291E+02  0.20469880005E+02  0.41800000000E+01 0.  1.
         -5    1    4    4    0  501  0.18575176446E+03 -0.19300412393E+03  0.74162303151E+02  0.27797810969E+03  0.41800000000E+01 0.  1.
</event>
<event>
11    1  0.8551154E-009  0.1617411E+03  0.7561462E-02  0.1085451E+00
         22   -1    0    0    0    0  0.00000000000E+00  0.00000000000E+00  0.16555917926E+04  0.16555917926E+04  0.00000000000E+00 0. -1.
         22   -1    0    0    0    0 -0.00000000000E+00 -0.00000000000E+00 -0.11385288958E+04  0.11385288958E+04  0.00000000000E+00 0. -1.
         24    2    1    2    0    0 -0.21515028241E+02 -0.95723187386E+02 -0.93095996769E+03  0.93934271436E+03  0.77797484159E+02 0.  0.
         25    2    1    2    0    0  0.86626567238E+02  0.14308985566E+03 -0.14726805043E+03  0.25556775769E+03  0.12509249039E+03 0.  0.
        -24    2    1    2    0    0 -0.65111538997E+02 -0.47366668270E+02  0.15952909149E+04  0.15992102164E+04  0.77698772645E+02 0.  0.
        -13    1    3    3    0    0 -0.14010381893E+02 -0.87396194314E+02 -0.47090710758E+03  0.47915330485E+03  0.00000000000E+00 0.  1.
         14    1    3    3    0    0 -0.75046463472E+01 -0.83269930724E+01 -0.46005286011E+03  0.46018940951E+03  0.00000000000E+00 0. -1.
         11    1    5    5    0    0 -0.67971880115E+02 -0.64326957422E+02  0.12547037629E+04  0.12581890425E+04  0.00000000000E+00 0. -1.
        -12    1    5    5    0    0  0.28603411183E+01  0.16960289152E+02  0.34058715197E+03  0.34102117390E+03  0.00000000000E+00 0.  1.
          5    1    4    4  501    0  0.16166128261E+02  0.13201215272E+03 -0.70089778753E+02  0.15039481924E+03  0.41800000000E+01 0.  1.
         -5    1    4    4    0  501  0.70460438976E+02  0.11077702934E+02 -0.77178271677E+02  0.10517293845E+03  0.41800000000E+01 0.  1.
</event>
<event>
11    1  0.8551154E-009  0.1456332E+03  0.7561462E-02  0.1101426E+00
         22   -1    0    0    0    0  0.00000000000E+00  0.00000000000E+00  0.45823996375E+03  0.45823996375E+03  0.00000000000E+00 0.  1.
         22   -1    0    0    0    0 -0.00000000000E+00 -0.00000000000E+00 -0.14643263703E+03  0.14643263703E+03  0.00000000000E+00 0. -1.
         24    2    1    2    0    0 -0.60980074020E+01  0.34283665161E+02 -0.88974656300E+02  0.12432332910E+03  0.79543983454E+02 0.  0.
         25    2    1    2    0    0 -0.67047802075E+02 -0.13812423610E+01  0.15752234206E+03  0.21203275796E+03  0.12508911466E+03 0.  0.
        -24    2    1    2    0    0  0.73145809477E+02 -0.32902422800E+02  0.24325964096E+03  0.26831651373E+03  0.79910072879E+02 0.  0.
        -13    1    3    3    0    0 -0.42887352436E+02  0.20615780825E+02 -0.48501193594E+02  0.67946311144E+02  0.00000000000E+00 0.  1.
         14    1    3    3    0    0  0.36789345034E+02  0.13667884336E+02 -0.40473462706E+02  0.56377017957E+02  0.00000000000E+00 0. -1.
         13    1    5    5    0    0  0.41533160152E+01  0.80763129656E+01 -0.27993773252E+01  0.95033351224E+01  0.00000000000E+00 0. -1.
        -14    1    5    5    0    0  0.68992493462E+02 -0.40978735765E+02  0.24605901829E+03  0.25881317860E+03  0.00000000000E+00 0.  1.
          5    1    4    4  501    0 -0.64791928708E+01  0.56474034001E+02  0.51211149495E+02  0.76624739407E+02  0.41800000000E+01 0.  1.
         -5    1    4    4    0  501 -0.60568609204E+02 -0.57855276362E+02  0.10631119257E+03  0.13540801855E+03  0.41800000000E+01 0.  1.
</event>
<event>
11    1  0.8551154E-009  0.1554167E+03  0.7561462E-02  0.1091469E+00
         22   -1    0    0    0    0  0.00000000000E+00  0.00000000000E+00  0.32131477927E+03  0.32131477927E+03  0.00000000000E+00 0.  1.
         22   -1    0    0    0    0 -0.00000000000E+00 -0.00000000000E+00 -0.54667803236E+03  0.54667803236E+03  0.00000000000E+00 0. -1.
        -24    2    1    2    0    0  0.78348411310E+02 -0.58461404364E+02 -0.41664227968E+03  0.43530337197E+03  0.79636844951E+02 0.  0.
         25    2    1    2    0    0  0.87988589941E+01  0.10183042737E+03 -0.42486106573E+02  0.16702761190E+03  0.12508516309E+03 0.  0.
         24    2    1    2    0    0 -0.87147270304E+02 -0.43369023006E+02  0.23376513316E+03  0.26566182776E+03  0.80340216395E+02 0.  0.
        -11    1    5    5    0    0 -0.42039650690E+02 -0.56213732568E+02  0.18561641232E+03  0.19844588300E+03  0.00000000000E+00 0.  1.
         12    1    5    5    0    0 -0.45107619614E+02  0.12844709562E+02  0.48148720844E+02  0.67215944759E+02  0.00000000000E+00 0. -1.
         11    1    3    3    0    0  0.96069300316E+01  0.84710419693E+01 -0.17265608310E+03  0.17313051345E+03  0.00000000000E+00 0. -1.
        -12    1    3    3    0    0  0.68741481278E+02 -0.66932446333E+02 -0.24398619658E+03  0.26217285852E+03  0.00000000000E+00 0.  1.
          5    1    4    4  501    0 -0.46027215563E+02  0.66768195358E+02  0.11953319474E+02  0.82078320708E+02  0.41800000000E+01 0. -1.
         -5    1    4    4    0  501  0.54826074557E+02  0.35062232012E+02 -0.54439426047E+02  0.84949291188E+02  0.41800000000E+01 0. -1.
</event>
<event>
11    1  0.8551154E-009  0.1880511E+03  0.7561462E-02  0.1063310E+00
         22   -1    0    0    0    0  0.00000000000E+00  0.00000000000E+00  0.19449125703E+04  0.19449125703E+04  0.00000000000E+00 0. -1.
         22   -1    0    0    0    0 -0.00000000000E+00 -0.00000000000E+00 -0.17815435567E+03  0.17815435567E+03  0.00000000000E+00 0. -1.
        -24    2    1    2    0    0 -0.10906882968E+03  0.99706493690E+02 -0.11695316083E+03  0.20737161254E+03  0.86530626747E+02 0.  0.
         25    2    1    2    0    0  0.49582651758E+02 -0.60156842464E+02  0.37406257195E+03  0.40205385169E+03  0.12508879598E+03 0.  0.
         24    2    1    2    0    0  0.59486177925E+02 -0.39549651226E+02  0.15096488035E+04  0.15136414617E+04  0.83475652087E+02 0.  0.
        -13    1    5    5    0    0  0.40623220669E+02 -0.36340739926E+02  0.38595414772E+03  0.38978391396E+03  0.00000000000E+00 0.  1.
         14    1    5    5    0    0  0.18862957255E+02 -0.32089112995E+01  0.11236946558E+04  0.11238575478E+04  0.00000000000E+00 0. -1.
         11    1    3    3    0    0 -0.57546002413E+02  0.63255161365E+02 -0.11617351045E+03  0.14425339636E+03  0.00000000000E+00 0. -1.
        -12    1    3    3    0    0 -0.51522827269E+02  0.36451332324E+02 -0.77965038464E+00  0.63118216172E+02  0.00000000000E+00 0.  1.
          5    1    4    4  501    0  0.50291002501E+02  0.28921852488E+02  0.14266839096E+03  0.15406946700E+03  0.41800000000E+01 0. -1.
         -5    1    4    4    0  501 -0.70835074356E+00 -0.89078694951E+02  0.23139418099E+03  0.24798438469E+03  0.41800000000E+01 0. -1.
</event>
<event>
11    1  0.8551154E-009  0.1491639E+03  0.7561462E-02  0.1097736E+00
         22   -1    0    0    0    0  0.00000000000E+00  0.00000000000E+00  0.28160119007E+03  0.28160119007E+03  0.00000000000E+00 0.  1.
         22   -1    0    0    0    0 -0.00000000000E+00 -0.00000000000E+00 -0.53068491633E+03  0.53068491633E+03  0.00000000000E+00 0. -1.
         24    2    1    2    0    0 -0.52161320649E+02  0.60849724634E+01 -0.38880016243E+03  0.39920713614E+03  0.73776290078E+02 0.  0.
         25    2    1    2    0    0  0.11672510135E+03  0.35113599302E+02 -0.58442625061E+02  0.18417749294E+03  0.12509234326E+03 0.  0.
        -24    2    1    2    0    0 -0.64563780702E+02 -0.41198571765E+02  0.19815906123E+03  0.22890147731E+03  0.85223639187E+02 0.  0.
        -13    1    3    3    0    0  0.10799134536E+02 -0.70074401944E+01 -0.14362767804E+02  0.19287680623E+02  0.00000000000E+00 0.  1.
         14    1    3    3    0    0 -0.62960455185E+02  0.13092412658E+02 -0.37443739462E+03  0.37991945552E+03  0.00000000000E+00 0. -1.
         13    1    5    5    0    0  0.14146689079E+02  0.92212085925E+01  0.58182615497E+02  0.60583630181E+02  0.00000000000E+00 0. -1.
        -14    1    5    5    0    0 -0.78710469781E+02 -0.50419780357E+02  0.13997644573E+03  0.16831784713E+03  0.00000000000E+00 0.  1.
          5    1    4    4  501    0  0.63222895194E+02 -0.32924994038E+02  0.12120311376E+02  0.72426266347E+02  0.41800000000E+01 0.  1.
         -5    1    4    4    0  501  0.53502206157E+02  0.68038593340E+02 -0.70562936438E+02  0.11175122660E+03  0.41800000000E+01 0.  1.
</event>
<event>
11    1  0.8551154E-009  0.2037357E+03  0.7561462E-02  0.1051913E+00
         22   -1    0    0    0    0  0.00000000000E+00  0.00000000000E+00  0.85384237004E+03  0.85384237004E+03  0.00000000000E+00 0.  1.
         22   -1    0    0    0    0 -0.00000000000E+00 -0.00000000000E+00 -0.58693731921E+03  0.58693731921E+03  0.00000000000E+00 0.  1.
        -24    2    1    2    0    0  0.15172327517E+03 -0.80600526193E+01 -0.40733315343E+03  0.44234044061E+03  0.81607909180E+02 0.  0.
         25    2    1    2    0    0 -0.20624568869E+03  0.64161173335E+02 -0.59925772575E+02  0.25669684853E+03  0.12509289971E+03 0.  0.
         24    2    1    2    0    0  0.54522413524E+02 -0.56101120715E+02  0.73416397684E+03  0.74174240011E+03  0.71168911140E+02 0.  0.
        -13    1    5    5    0    0  0.55879449139E+02 -0.32324890676E+02  0.67325996799E+03  0.67634783647E+03  0.00000000000E+00 0.  1.
         14    1    5    5    0    0 -0.13570356145E+01 -0.23776230040E+02  0.60904008845E+02  0.65394563642E+02  0.00000000000E+00 0. -1.
         13    1    3    3    0    0  0.61000339032E+02  0.20853764192E+02 -0.87825235445E+02  0.10894582518E+03  0.00000000000E+00 0. -1.
        -14    1    3    3    0    0  0.90722936137E+02 -0.28913816811E+02 -0.31950791799E+03  0.33339461544E+03  0.00000000000E+00 0.  1.
          5    1    4    4  501    0 -0.18764394773E+01 -0.25675104639E+02 -0.97728728773E+01  0.27851633123E+02  0.41800000000E+01 0.  1.
         -5    1    4    4    0  501 -0.20436924922E+03  0.89836277974E+02 -0.50152899697E+02  0.22884521540E+03  0.41800000000E+01 0.  1.
</event>
<event>
11    1  0.8551154E-009  0.1455911E+03  0.7561462E-02  0.1101471E+00
         22   -1    0    0    0    0  0.00000000000E+00  0.00000000000E+00  0.11901655589E+03  0.11901655589E+03  0.00000000000E+00 0.  1.
         22   -1    0    0    0    0 -0.00000000000E+00 -0.00000000000E+00 -0.14703877354E+04  0.14703877354E+04  0.00000000000E+00 0. -1.
        -24    2    1    2    0    0 -0.29717466314E+01  0.32927708952E+02 -0.11094265877E+04  0.11126140540E+04  0.77392598786E+02 0.  0.
         25    2    1    2    0    0 -0.59984812658E+02 -0.70453801530E+02 -0.31186177511E+03  0.34852151711E+03  0.12509022831E+03 0.  0.
         24    2    1    2    0    0  0.62956559289E+02  0.37526092578E+02  0.69917183325E+02  0.12826872016E+03  0.78693812110E+02 0.  0.
        -13    1    5    5    0    0  0.48669582629E+02  0.11427909608E+02  0.82095693203E+02  0.96119863888E+02  0.00000000000E+00 0.  1.
         14    1    5    5    0    0  0.14286976661E+02  0.26098182970E+02 -0.12178509878E+02  0.32148856267E+02  0.00000000000E+00 0. -1.
         13    1    3    3    0    0 -0.65161878841E+01  0.56656255768E+02 -0.90275190545E+03  0.90455148820E+03  0.00000000000E+00 0. -1.
        -14    1    3    3    0    0  0.35444412527E+01 -0.23728546815E+02 -0.20667468228E+03  0.20806256581E+03  0.00000000000E+00 0.  1.
          5    1    4    4  501    0 -0.58420397149E+02  0.17633297793E+02 -0.81858799279E+02  0.10218713918E+03  0.41800000000E+01 0.  1.
         -5    1    4    4    0  501 -0.15644155094E+01 -0.88087099323E+02 -0.23000297583E+03  0.24633437794E+03  0.41800000000E+01 0.  1.
</event>
<event>
11    1  0.8551154E-009  0.1609438E+03  0.7561462E-02  0.1086193E+00
         22   -1    0    0    0    0  0.00000000000E+00  0.00000000000E+00  0.17593497757E+03  0.17593497757E+03  0.00000000000E+00 0. -1.
         22   -1    0    0    0    0 -0.00000000000E+00 -0.00000000000E+00 -0.28295584451E+04  0.28295584451E+04  0.00000000000E+00 0. -1.
        -24    2    1    2    0    0  0.14884371486E+02 -0.24179491647E+02 -0.22043019468E+04  0.22059525859E+04  0.80458348747E+02 0.  0.
         25    2    1    2    0    0 -0.59251744976E+02 -0.67532490912E+02 -0.58920553817E+03  0.60900159162E+03  0.12509342820E+03 0.  0.
         24    2    1    2    0    0  0.44367373490E+02  0.91711982559E+02  0.13988401743E+03  0.19053924523E+03  0.79737783175E+02 0.  0.
        -13    1    5    5    0    0  0.64969782289E+02  0.81926203348E+02  0.10050515896E+03  0.14503193574E+03  0.00000000000E+00 0.  1.
         14    1    5    5    0    0 -0.20602408799E+02  0.97857792111E+01  0.39378858473E+02  0.45507309498E+02  0.00000000000E+00 0. -1.
         13    1    3    3    0    0  0.10261312505E+02 -0.45060747552E+02 -0.71243341775E+03  0.71393076711E+03  0.00000000000E+00 0. -1.
        -14    1    3    3    0    0  0.46230589813E+01  0.20881255906E+02 -0.14918685291E+04  0.14920218187E+04  0.00000000000E+00 0.  1.
          5    1    4    4  501    0 -0.64300604980E+02 -0.43118599517E+02 -0.14805415170E+03  0.16712655582E+03  0.41800000000E+01 0. -1.
         -5    1    4    4    0  501  0.50488600043E+01 -0.24413891395E+02 -0.44115138647E+03  0.44187503580E+03  0.41800000000E+01 0. -1.
</event>
<event>
11    1  0.8551154E-009  0.1387772E+03  0.7561462E-02  0.1108932E+00
         22   -1    0    0    0    0  0.00000000000E+00  0.00000000000E+00  0.80308679834E+03  0.80308679834E+03  0.00000000000E+00 0.  1.
         22   -1    0    0    0    0 -0.00000000000E+00 -0.00000000000E+00 -0.47810254068E+03  0.47810254068E+03  0.00000000000E+00 0.  1.
         24    2    1    2    0    0 -0.34879902521E+02  0.30316405576E+02 -0.40870449965E+03  0.41913377136E+03  0.80610534152E+02 0.  0.
         25    2    1    2    0    0  0.87526416180E+02 -0.34500449567E+01  0.35429457063E+02  0.15676519664E+03  0.12508918463E+03 0.  0.
        -24    2    1    2    0    0 -0.52646513659E+02 -0.26866360620E+02  0.69825930024E+03  0.70529037101E+03  0.79843599277E+02 0.  0.
        -13    1    3    3    0    0 -0.15583611226E+02  0.56174481607E+01 -0.36487303751E+03  0.36524887154E+03  0.00000000000E+00 0.  1.
         14    1    3    3    0    0 -0.19296291295E+02  0.24698957416E+02 -0.43831462139E+02  0.53884899818E+02  0.00000000000E+00 0. -1.
         11    1    5    5    0    0 -0.10157894499E+02 -0.27597312082E+02  0.74629831686E+02  0.80214750715E+02  0.00000000000E+00 0. -1.
        -12    1    5    5    0    0 -0.42488619160E+02  0.73095146200E+00  0.62362946855E+03  0.62507562030E+03  0.00000000000E+00 0.  1.
          5    1    4    4  501    0  0.90074034510E+02 -0.59220334579E+01 -0.26830447616E+02  0.94264242916E+02  0.41800000000E+01 0.  1.
         -5    1    4    4    0  501 -0.25476183300E+01  0.24719885011E+01  0.62259904679E+02  0.62500953728E+02  0.41800000000E+01 0.  1.
</event>
<event>
11    1  0.8551154E-009  0.1310235E+03  0.7561462E-02  0.1118018E+00
         22   -1    0    0    0    0  0.00000000000E+00  0.00000000000E+00  0.16120881019E+04  0.16120881019E+04  0.00000000000E+00 0. -1.
         22   -1    0    0    0    0 -0.00000000000E+00 -0.00000000000E+00 -0.30682923012E+03  0.30682923012E+03  0.00000000000E+00 0. -1.
         24    2    1    2    0    0  0.16307782166E+01 -0.31421615000E+02 -0.24294472302E+03  0.25789962070E+03  0.80623188884E+02 0.  0.
         25    2    1    2    0    0 -0.28413529746E+02  0.59055632000E+02  0.35812009561E+02  0.14565320091E+03  0.12504982432E+03 0.  0.
        -24    2    1    2    0    0  0.26782751529E+02 -0.27634017001E+02  0.15123915853E+04  0.15153645105E+04  0.86719880369E+02 0.  0.
        -13    1    3    3    0    0  0.27457122900E+02 -0.26541195878E+02 -0.48711755901E+02  0.61896396014E+02  0.00000000000E+00 0.  1.
         14    1    3    3    0    0 -0.25826344683E+02 -0.48804191218E+01 -0.19423296712E+03  0.19600322468E+03  0.00000000000E+00 0. -1.
         11    1    5    5    0    0  0.24668459967E+02 -0.37739686488E+02  0.14902738406E+04  0.14909557126E+04  0.00000000000E+00 0. -1.
        -12    1    5    5    0    0  0.21142915619E+01  0.10105669488E+02  0.22117744638E+02  0.24408797849E+02  0.00000000000E+00 0.  1.
          5    1    4    4  501    0 -0.33269862325E+02  0.41021421850E+02  0.80880686726E+02  0.96689185926E+02  0.41800000000E+01 0.  1.
         -5    1    4    4    0  501  0.48563325798E+01  0.18034210150E+02 -0.45068677165E+02  0.48964014983E+02  0.41800000000E+01 0.  1.
</event>
<event>
11    1  0.8551154E-009  0.1653631E+03  0.7561462E-02  0.1082139E+00
         22   -1    0    0    0    0  0.00000000000E+00  0.00000000000E+00  0.19592269670E+03  0.19592269670E+03  0.00000000000E+00 0.  1.
         22   -1    0    0    0    0 -0.00000000000E+00 -0.00000000000E+00 -0.62681929862E+03  0.62681929862E+03  0.00000000000E+00 0. -1.
         24    2    1    2    0    0 -0.10711045585E+01  0.39114656631E+02 -0.44748826623E+03  0.45614732031E+03  0.79331745138E+02 0.  0.
         25    2    1    2    0    0  0.30778529897E+02  0.72026603427E+02 -0.10463276376E+03  0.18091623669E+03  0.12509004734E+03 0.  0.
        -24    2    1    2    0    0 -0.29707425339E+02 -0.11114126006E+03  0.12122442808E+03  0.18567843831E+03  0.80908650241E+02 0.  0.
        -11    1    3    3    0    0  0.29683088654E+02 -0.31366249824E+01 -0.25321166154E+03  0.25496484015E+03  0.00000000000E+00 0.  1.
         12    1    3    3    0    0 -0.30754193213E+02  0.42251281614E+02 -0.19427660469E+03  0.20118248017E+03  0.00000000000E+00 0. -1.
         13    1    5    5    0    0  0.17197353320E+02  0.17868763433E+01  0.23329085928E+02  0.29037702018E+02  0.00000000000E+00 0. -1.
        -14    1    5    5    0    0 -0.46904778659E+02 -0.11292813640E+03  0.97895342148E+02  0.15664073629E+03  0.00000000000E+00 0.  1.
          5    1    4    4  501    0  0.37949150201E+02 -0.20244653305E+02 -0.69489903220E+02  0.81830941813E+02  0.41800000000E+01 0. -1.
         -5    1    4    4    0  501 -0.71706203036E+01  0.92271256732E+02 -0.35142860545E+02  0.99085294881E+02  0.41800000000E+01 0. -1.
</event>
<event>
11    1  0.8551154E-009  0.1631925E+03  0.7561462E-02  0.1084112E+00
         22   -1    0    0    0    0  0.00000000000E+00  0.00000000000E+00  0.52903788243E+03  0.52903788243E+03  0.00000000000E+00 0. -1.
         22   -1    0    0    0    0 -0.00000000000E+00 -0.00000000000E+00 -0.10064743351E+04  0.10064743351E+04  0.00000000000E+00 0.  1.
        -24    2    1    2    0    0  0.81500885931E+00 -0.15011441815E+02 -0.93123937164E+03  0.93461339833E+03  0.77906542871E+02 0.  0.
         25    2    1    2    0    0  0.41120377207E+02  0.10899804540E+03  0.52379594633E+02  0.17878198061E+03  0.12509162775E+03 0.  0.
         24    2    1    2    0    0 -0.41935386066E+02 -0.93986603587E+02  0.40142332430E+03  0.42211683862E+03  0.80311156752E+02 0.  0.
        -13    1    5    5    0    0  0.13213957481E+02 -0.17334411868E+02  0.21432754568E+02  0.30568831765E+02  0.00000000000E+00 0.  1.
         14    1    5    5    0    0 -0.55149343547E+02 -0.76652191718E+02  0.37999056973E+03  0.39154800686E+03  0.00000000000E+00 0. -1.
         13    1    3    3    0    0  0.28014608219E+02  0.17031110696E+02 -0.56901297921E+03  0.56995670671E+03  0.00000000000E+00 0. -1.
        -14    1    3    3    0    0 -0.27199599359E+02 -0.32042552511E+02 -0.36222639243E+03  0.36465669163E+03  0.00000000000E+00 0.  1.
          5    1    4    4  501    0 -0.21190894294E+02  0.10618746084E+03  0.30924219387E+02  0.11268811199E+03  0.41800000000E+01 0. -1.
         -5    1    4    4    0  501  0.62311271501E+02  0.28105845646E+01  0.21455375245E+02  0.66093868616E+02  0.41800000000E+01 0. -1.
</event>
<event>
11    1  0.8551154E-009  0.2355575E+03  0.7561462E-02  0.1031887E+00
         22   -1    0    0    0    0  0.00000000000E+00  0.00000000000E+00  0.87903719861E+03  0.87903719861E+03  0.00000000000E+00 0. -1.
         22   -1    0    0    0    0 -0.00000000000E+00 -0.00000000000E+00 -0.11394879515E+04  0.11394879515E+04  0.00000000000E+00 0.  1.
        -24    2    1    2    0    0  0.55338489073E+02 -0.44002991153E+02 -0.87692525501E+03  0.88348970882E+03  0.80978707751E+02 0.  0.
         25    2    1    2    0    0 -0.25196069490E+03  0.42503757838E+02 -0.16288128446E+03  0.32782561632E+03  0.12509420724E+03 0.  0.
         24    2    1    2    0    0  0.19662220583E+03  0.14992333144E+01  0.77935578660E+03  0.80720982496E+03  0.74362086277E+02 0.  0.
        -13    1    5    5    0    0  0.14253981218E+03  0.29253115706E+01  0.41378802500E+03  0.43766046788E+03  0.00000000000E+00 0.  1.
         14    1    5    5    0    0  0.54082393652E+02 -0.14260782563E+01  0.36556776159E+03  0.36954935708E+03  0.00000000000E+00 0. -1.
         11    1    3    3    0    0 -0.43588736070E+01 -0.25343979138E+02 -0.78210862628E+02  0.82330165132E+02  0.00000000000E+00 0. -1.
        -12    1    3    3    0    0  0.59697362680E+02 -0.18659012015E+02 -0.79871439238E+03  0.80115954368E+03  0.00000000000E+00 0.  1.
          5    1    4    4  501    0  0.26633611497E+01 -0.21199552306E+02 -0.91323920113E+01  0.23609055348E+02  0.41800000000E+01 0.  1.
         -5    1    4    4    0  501 -0.25462405605E+03  0.63703310144E+02 -0.15374889245E+03  0.30421656098E+03  0.41800000000E+01 0.  1.
</event>
<event>
11    1  0.8551154E-009  0.1692125E+03  0.7561462E-02  0.1078719E+00
         22   -1    0    0    0    0  0.00000000000E+00  0.00000000000E+00  0.89855595924E+02  0.89855595924E+02  0.00000000000E+00 0. -1.
         22   -1    0    0    0    0 -0.00000000000E+00 -0.00000000000E+00 -0.88479831451E+03  0.88479831451E+03  0.00000000000E+00 0. -1.
         24    2    1    2    0    0 -0.10937220787E+03  0.71129416597E+02 -0.58007694610E+03  0.59902481131E+03  0.72936872792E+02 0.  0.
         25    2    1    2    0    0  0.37805014021E+02 -0.73955867944E+02 -0.22429073512E+03  0.26990852128E+03  0.12508231894E+03 0.  0.
        -24    2    1    2    0    0  0.71567193849E+02  0.28264513476E+01  0.94249626307E+01  0.10572057784E+03  0.77189109307E+02 0.  0.
        -11    1    3    3    0    0  0.99426570511E+01  0.14001049772E+02 -0.69103254193E+02  0.71204954631E+02  0.00000000000E+00 0.  1.
         12    1    3    3    0    0 -0.11931486492E+03  0.57128366825E+02 -0.51097369191E+03  0.52781985668E+03  0.00000000000E+00 0. -1.
         13    1    5    5    0    0  0.35110681326E+02 -0.21964586646E+02 -0.26227808519E+02  0.49021433571E+02  0.00000000000E+00 0. -1.
        -14    1    5    5    0    0  0.36456512523E+02  0.24791037994E+02  0.35652771149E+02  0.56699144268E+02  0.00000000000E+00 0.  1.
          5    1    4    4  501    0  0.64489732031E+02  0.67881707753E+01 -0.99529861809E+02  0.11886408453E+03  0.41800000000E+01 0.  1.
         -5    1    4    4    0  501 -0.26684718010E+02 -0.80744038720E+02 -0.12476087331E+03  0.15104443675E+03  0.41800000000E+01 0.  1.
</event>
<event>
11    1  0.8551154E-009  0.2091867E+03  0.7561462E-02  0.1048211E+00
         22   -1    0    0    0    0  0.00000000000E+00  0.00000000000E+00  0.23577485103E+04  0.23577485103E+04  0.00000000000E+00 0.  1.
         22   -1    0    0    0    0 -0.00000000000E+00 -0.00000000000E+00 -0.10384747645E+03  0.10384747645E+03  0.00000000000E+00 0. -1.
        -24    2    1    2    0    0  0.16501990786E+03 -0.32802698122E+02 -0.15627671776E+01  0.18685353352E+03  0.81266313779E+02 0.  0.
         25    2    1    2    0    0 -0.14920720666E+03  0.63323648510E+02  0.13819478781E+04  0.13970327572E+04  0.12509161450E+03 0.  0.
         24    2    1    2    0    0 -0.15812701196E+02 -0.30520950388E+02  0.87351592296E+03  0.87770969602E+03  0.78502693475E+02 0.  0.
        -11    1    5    5    0    0 -0.28807823854E+02  0.33192319202E+01  0.69212060222E+03  0.69272782248E+03  0.00000000000E+00 0.  1.
         12    1    5    5    0    0  0.12995122658E+02 -0.33840182308E+02  0.18139532074E+03  0.18498187354E+03  0.00000000000E+00 0. -1.
         13    1    3    3    0    0  0.91819029066E+02 -0.36975401942E+02  0.34913858116E+02  0.10496138307E+03  0.00000000000E+00 0. -1.
        -14    1    3    3    0    0  0.73200878793E+02  0.41727038201E+01 -0.36476625293E+02  0.81892150454E+02  0.00000000000E+00 0.  1.
          5    1    4    4  501    0 -0.16076032590E+03  0.25549589727E+02  0.10205501805E+04  0.10334586625E+04  0.41800000000E+01 0.  1.
         -5    1    4    4    0  501  0.11553119236E+02  0.37774058783E+02  0.36139769762E+03  0.36357409469E+03  0.41800000000E+01 0.  1.
</event>
<event>
11    1  0.8551154E-009  0.2449943E+03  0.7561462E-02  0.1026600E+00
         22   -1    0    0    0    0  0.00000000000E+00  0.00000000000E+00  0.78332937218E+03  0.78332937218E+03  0.00000000000E+00 0. -1.
         22   -1    0    0    0    0 -0.00000000000E+00 -0.00000000000E+00 -0.29006193296E+03  0.29006193296E+03  0.00000000000E+00 0.  1.
        -24    2    1    2    0    0  0.17743864903E+03 -0.14448528841E+03 -0.17775214792E+03  0.30052431025E+03  0.79740593338E+02 0.  0.
         25    2    1    2    0    0 -0.42035074309E+02  0.15116121531E+03  0.22900887997E+03  0.30448108930E+03  0.12508799364E+03 0.  0.
         24    2    1    2    0    0 -0.13540357472E+03 -0.66759268996E+01  0.44201070718E+03  0.46838590560E+03  0.75054615163E+02 0.  0.
        -13    1    5    5    0    0 -0.56741345939E+02  0.20373364960E+02  0.27828784025E+03  0.28474335175E+03  0.00000000000E+00 0.  1.
         14    1    5    5    0    0 -0.78662228778E+02 -0.27049291860E+02  0.16372286693E+03  0.18364255384E+03  0.00000000000E+00 0. -1.
         11    1    3    3    0    0 -0.20801617521E+01 -0.10362018997E+01 -0.23832148887E+02  0.23945189661E+02  0.00000000000E+00 0. -1.
        -12    1    3    3    0    0  0.17951881078E+03 -0.14344908651E+03 -0.15391999904E+03  0.27657912059E+03  0.00000000000E+00 0.  1.
          5    1    4    4  501    0  0.16870303344E+02  0.12422716171E+03  0.19320980291E+03  0.23035732066E+03  0.41800000000E+01 0. -1.
         -5    1    4    4    0  501 -0.58905377653E+02  0.26934053601E+02  0.35799077058E+02  0.74123768644E+02  0.41800000000E+01 0. -1.
</event>
<event>
11    1  0.8551154E-009  0.1341232E+03  0.7561462E-02  0.1114304E+00
         22   -1    0    0    0    0  0.00000000000E+00  0.00000000000E+00  0.11293544815E+03  0.11293544815E+03  0.00000000000E+00 0. -1.
         22   -1    0    0    0    0 -0.00000000000E+00 -0.00000000000E+00 -0.33644725149E+04  0.33644725149E+04  0.00000000000E+00 0. -1.
         24    2    1    2    0    0  0.43617238565E+02 -0.23044792138E+02 -0.29872875952E+04  0.29893214170E+04  0.98599351095E+02 0.  0.
         25    2    1    2    0    0 -0.23712299295E+02  0.34154903966E+02 -0.34633149510E+03  0.37056916014E+03  0.12508863796E+03 0.  0.
        -24    2    1    2    0    0 -0.19904939270E+02 -0.11110111828E+02  0.82082023501E+02  0.11751738592E+03  0.80952061236E+02 0.  0.
        -13    1    3    3    0    0  0.59650016511E+01  0.14844610808E+02 -0.82177436488E+02  0.83720217286E+02  0.00000000000E+00 0.  1.
         14    1    3    3    0    0  0.37652236914E+02 -0.37889402946E+02 -0.29051101587E+04  0.29056011997E+04  0.00000000000E+00 0. -1.
         13    1    5    5    0    0 -0.96568160190E+01 -0.30098216432E+02  0.89328290403E+02  0.94756003474E+02  0.00000000000E+00 0. -1.
        -14    1    5    5    0    0 -0.10248123251E+02  0.18988104604E+02 -0.72462669024E+01  0.22761382442E+02  0.00000000000E+00 0.  1.
          5    1    4    4  501    0  0.39700594836E+02 -0.23004032910E+02 -0.13282824653E+03  0.14059209877E+03  0.41800000000E+01 0. -1.
         -5    1    4    4    0  501 -0.63412894131E+02  0.57158936876E+02 -0.21350324857E+03  0.22997706137E+03  0.41800000000E+01 0. -1.
</event>
<event>
11    1  0.8551154E-009  0.2354389E+03  0.7561462E-02  0.1031955E+00
         22   -1    0    0    0    0  0.00000000000E+00  0.00000000000E+00  0.22833428847E+03  0.22833428847E+03  0.00000000000E+00 0.  1.
         22   -1    0    0    0    0 -0.00000000000E+00 -0.00000000000E+00 -0.10058824603E+04  0.10058824603E+04  0.00000000000E+00 0. -1.
         24    2    1    2    0    0  0.34435350825E+02 -0.51022345225E+02 -0.66761463783E+03  0.67530351407E+03  0.80848366555E+02 0.  0.
         25    2    1    2    0    0 -0.16711639750E+03 -0.10177114565E+03 -0.21490145147E+03  0.31641136090E+03  0.12509300164E+03 0.  0.
        -24    2    1    2    0    0  0.13268104668E+03  0.15279349087E+03  0.10496791748E+03  0.24250187379E+03  0.82696941244E+02 0.  0.
        -13    1    3    3    0    0 -0.10467979052E+02 -0.15272530614E+02 -0.31013539033E+02  0.36120193523E+02  0.00000000000E+00 0.  1.
         14    1    3    3    0    0  0.44903329877E+02 -0.35749814611E+02 -0.63660109880E+03  0.63918332055E+03  0.00000000000E+00 0. -1.
         13    1    5    5    0    0  0.92586365138E+00  0.76684505302E+01 -0.11979143334E+02  0.14253498941E+02  0.00000000000E+00 0. -1.
        -14    1    5    5    0    0  0.13175518302E+03  0.14512504034E+03  0.11694706081E+03  0.22824837485E+03  0.00000000000E+00 0.  1.
          5    1    4    4  501    0  0.19859268947E+02 -0.23521853466E+01 -0.19049588088E+02  0.27933538003E+02  0.41800000000E+01 0.  1.
         -5    1    4    4    0  501 -0.18697566645E+03 -0.99418960303E+02 -0.19585186338E+03  0.28847782289E+03  0.41800000000E+01 0.  1.
</event>
<event>
11    1  0.8551154E-009  0.1829735E+03  0.7561462E-02  0.1067263E+00
         22   -1    0    0    0    0  0.00000000000E+00  0.00000000000E+00  0.74893950823E+03  0.74893950823E+03  0.00000000000E+00 0. -1.
         22   -1    0    0    0    0 -0.00000000000E+00 -0.00000000000E+00 -0.20512033516E+04  0.20512033516E+04  0.00000000000E+00 0.  1.
        -24    2    1    2    0    0 -0.16167761746E+02  0.59338290460E+02 -0.17341081655E+04  0.17371088602E+04  0.81447118791E+02 0.  0.
         25    2    1    2    0    0  0.14758600535E+03 -0.36600787907E+02 -0.27557315217E+03  0.33868722919E+03  0.12508888987E+03 0.  0.
         24    2    1    2    0    0 -0.13141824360E+03 -0.22737502552E+02  0.70741747430E+03  0.72434677049E+03  0.80318193503E+02 0.  0.
        -11    1    5    5    0    0 -0.19980342634E+02 -0.96147964893E+01  0.27953036056E+02  0.35679554763E+02  0.00000000000E+00 0.  1.
         12    1    5    5    0    0 -0.11143790097E+03 -0.13122706063E+02  0.67946443824E+03  0.68866721573E+03  0.00000000000E+00 0. -1.
         13    1    3    3    0    0 -0.46730868210E+01 -0.19571685337E+02 -0.51682761444E+03  0.51721917178E+03  0.00000000000E+00 0. -1.
        -14    1    3    3    0    0 -0.11494674925E+02  0.78909975797E+02 -0.12172805511E+04  0.12198896884E+04  0.00000000000E+00 0.  1.
          5    1    4    4  501    0  0.16669462649E+03 -0.33969939426E+02 -0.21047315532E+03  0.27066118450E+03  0.41800000000E+01 0.  1.
         -5    1    4    4    0  501 -0.19108621145E+02 -0.26308484814E+01 -0.65099996851E+02  0.68026044687E+02  0.41800000000E+01 0.  1.
</event>
<event>
11    1  0.8551154E-009  0.2096871E+03  0.7561462E-02  0.1047877E+00
         22   -1    0    0    0    0  0.00000000000E+00  0.00000000000E+00  0.45445426652E+03  0.45445426652E+03  0.00000000000E+00 0. -1.
         22   -1    0    0    0    0 -0.00000000000E+00 -0.00000000000E+00 -0.33471839134E+03  0.33471839134E+03  0.00000000000E+00 0. -1.
         24    2    1    2    0    0  0.24124662229E+02  0.37397863156E+01 -0.11032919915E+03  0.13909887290E+03  0.81117069288E+02 0.  0.
         25    2    1    2    0    0 -0.18975278426E+03  0.14601353896E+01 -0.11853909023E+03  0.25633426690E+03  0.12508992504E+03 0.  0.
        -24    2    1    2    0    0  0.16562812203E+03 -0.51999217053E+01  0.34860416456E+03  0.39373951805E+03  0.77757511073E+02 0.  0.
        -13    1    3    3    0    0 -0.91360507107E+01  0.29641062237E+02 -0.83635887738E+02  0.89202139609E+02  0.00000000000E+00 0.  1.
         14    1    3    3    0    0  0.33260712940E+02 -0.25901275922E+02 -0.26693311407E+02  0.49896733295E+02  0.00000000000E+00 0. -1.
         11    1    5    5    0    0  0.17336570607E+03 -0.10007902383E+02  0.33553256712E+03  0.37780673598E+03  0.00000000000E+00 0. -1.
        -12    1    5    5    0    0 -0.77375840335E+01  0.48079806777E+01  0.13071597442E+02  0.15932782072E+02  0.00000000000E+00 0.  1.
          5    1    4    4  501    0 -0.11874611136E+03  0.44245870175E+02 -0.21438469478E+02  0.12859010990E+03  0.41800000000E+01 0.  1.
         -5    1    4    4    0  501 -0.71006672905E+02 -0.42785734785E+02 -0.97100620756E+02  0.12774415701E+03  0.41800000000E+01 0.  1.
</event>
<event>
11    1  0.8551154E-009  0.2022638E+03  0.7561462E-02  0.1052934E+00
         22   -1    0    0    0    0  0.00000000000E+00  0.00000000000E+00  0.20675123828E+03  0.20675123828E+03  0.00000000000E+00 0.  1.
         22   -1    0    0    0    0 -0.00000000000E+00 -0.00000000000E+00 -0.89259451788E+03  0.89259451788E+03  0.00000000000E+00 0. -1.
        -24    2    1    2    0    0  0.32622030316E+02  0.59931743476E+02 -0.64059728005E+03  0.64919438236E+03  0.80202619238E+02 0.  0.
         25    2    1    2    0    0 -0.41415889953E+02  0.11140088223E+03 -0.15462701414E+03  0.23169590433E+03  0.12509215035E+03 0.  0.
         24    2    1    2    0    0  0.87938596376E+01 -0.17133262571E+03  0.10938101459E+03  0.21845546948E+03  0.79538576755E+02 0.  0.
        -13    1    5    5    0    0  0.26843057646E+02 -0.14669774630E+03  0.11380647693E+03  0.18759715538E+03  0.00000000000E+00 0.  1.
         14    1    5    5    0    0 -0.18049198008E+02 -0.24634879410E+02 -0.44254623424E+01  0.30858314102E+02  0.00000000000E+00 0. -1.
         11    1    3    3    0    0  0.15660966297E+01  0.83463206982E+00 -0.38555885925E+03  0.38556294326E+03  0.00000000000E+00 0. -1.
        -12    1    3    3    0    0  0.31055933686E+02  0.59097111406E+02 -0.25503842080E+03  0.26363143909E+03  0.00000000000E+00 0.  1.
          5    1    4    4  501    0 -0.81813090602E+01 -0.25327862195E+02 -0.48206308073E+02  0.55224586548E+02  0.41800000000E+01 0. -1.
         -5    1    4    4    0  501 -0.33234580893E+02  0.13672874443E+03 -0.10642070607E+03  0.17647131778E+03  0.41800000000E+01 0. -1.
</event>
<event>
11    1  0.8551154E-009  0.1460594E+03  0.7561462E-02  0.1100975E+00
         22   -1    0    0    0    0  0.00000000000E+00  0.00000000000E+00  0.33673161479E+03  0.33673161479E+03  0.00000000000E+00 0.  1.
         22   -1    0    0    0    0 -0.00000000000E+00 -0.00000000000E+00 -0.53374420519E+03  0.53374420519E+03  0.00000000000E+00 0.  1.
        -24    2    1    2    0    0  0.54879485890E+02 -0.57319951538E+02 -0.34811010732E+03  0.36591562559E+03  0.80101581877E+02 0.  0.
         25    2    1    2    0    0 -0.48642680224E+02  0.40086976179E+02 -0.14241595699E+03  0.19975698698E+03  0.12508985986E+03 0.  0.
         24    2    1    2    0    0 -0.62368056659E+01  0.17232975359E+02  0.29351347392E+03  0.30480320742E+03  0.80118429189E+02 0.  0.
        -13    1    5    5    0    0  0.31613766511E+02  0.21769809914E+02  0.20287500460E+03  0.20647426558E+03  0.00000000000E+00 0.  1.
         14    1    5    5    0    0 -0.37850572177E+02 -0.45368345546E+01  0.90638469321E+02  0.98328941837E+02  0.00000000000E+00 0. -1.
         13    1    3    3    0    0  0.28548346967E+02 -0.45142048143E+02 -0.79699508684E+02  0.95941775622E+02  0.00000000000E+00 0. -1.
        -14    1    3    3    0    0  0.26331138923E+02 -0.12177903395E+02 -0.26841059864E+03  0.26997384997E+03  0.00000000000E+00 0.  1.
          5    1    4    4  501    0 -0.24296521992E+01  0.58144469280E+02 -0.11198332540E+02  0.59410079695E+02  0.41800000000E+01 0.  1.
         -5    1    4    4    0  501 -0.46213028025E+02 -0.18057493101E+02 -0.13121762445E+03  0.14034690728E+03  0.41800000000E+01 0.  1.
</event>
<event>
11    1  0.8551154E-009  0.1423237E+03  0.7561462E-02  0.1104991E+00
         22   -1    0    0    0    0  0.00000000000E+00  0.00000000000E+00  0.18562646051E+04  0.18562646051E+04  0.00000000000E+00 0.  1.
         22   -1    0    0    0    0 -0.00000000000E+00 -0.00000000000E+00 -0.18122128734E+03  0.18122128734E+03  0.00000000000E+00 0. -1.
         24    2    1    2    0    0  0.49125100432E+02 -0.24167526619E+02 -0.15528670722E+03  0.18278329512E+03  0.79362627863E+02 0.  0.
         25    2    1    2    0    0 -0.89970580898E+02 -0.24983441413E+02  0.63664615003E+03  0.65550370057E+03  0.12509157985E+03 0.  0.
        -24    2    1    2    0    0  0.40845480466E+02  0.49150968032E+02  0.11936838749E+04  0.11991988967E+04  0.95460094863E+02 0.  0.
        -11    1    3    3    0    0 -0.80684844428E+01  0.17143290417E+02 -0.67773820769E+02  0.70372463572E+02  0.00000000000E+00 0.  1.
         12    1    3    3    0    0  0.57193584875E+02 -0.41310817036E+02 -0.87512886452E+02  0.11241083155E+03  0.00000000000E+00 0. -1.
         13    1    5    5    0    0 -0.28603362149E+02  0.16199592202E+01  0.41289768188E+03  0.41389041098E+03  0.00000000000E+00 0. -1.
        -14    1    5    5    0    0  0.69448842614E+02  0.47531008812E+02  0.78078619302E+03  0.78530848573E+03  0.00000000000E+00 0.  1.
          5    1    4    4  501    0  0.80282724556E+01  0.65282781351E+01  0.36196640108E+03  0.36213839825E+03  0.41800000000E+01 0.  1.
         -5    1    4    4    0  501 -0.97998853353E+02 -0.31511719548E+02  0.27467974895E+03  0.29336530233E+03  0.41800000000E+01 0.  1.
</event>
<event>
11    1  0.8551154E-009  0.1818334E+03  0.7561462E-02  0.1068169E+00
         22   -1    0    0    0    0  0.00000000000E+00  0.00000000000E+00  0.72519290495E+03  0.72519290495E+03  0.00000000000E+00 0.  1.
         22   -1    0    0    0    0 -0.00000000000E+00 -0.00000000000E+00 -0.22169232929E+04  0.22169232929E+04  0.00000000000E+00 0. -1.
         24    2    1    2    0    0 -0.84492495131E+02 -0.10199985381E+03 -0.21433853756E+04  0.21488960401E+04  0.78168861978E+02 0.  0.
         25    2    1    2    0    0  0.99000741514E+02  0.63561469982E+02  0.47958998712E+02  0.17829444436E+03  0.12509051141E+03 0.  0.
        -24    2    1    2    0    0 -0.14508246382E+02  0.38438383828E+02  0.60369598889E+03  0.61492571343E+03  0.10952984741E+03 0.  0.
        -13    1    3    3    0    0 -0.18619540177E+02 -0.31594959126E+02 -0.21526810346E+03  0.21836960660E+03  0.00000000000E+00 0.  1.
         14    1    3    3    0    0 -0.65872954955E+02 -0.70404894684E+02 -0.19281172721E+04  0.19305264335E+04  0.00000000000E+00 0. -1.
         13    1    5    5    0    0 -0.37742940052E+02  0.22082154805E+00  0.71473583586E+02  0.80827293884E+02  0.00000000000E+00 0. -1.
        -14    1    5    5    0    0  0.23234693670E+02  0.38217562280E+02  0.53222240530E+03  0.53409841955E+03  0.00000000000E+00 0.  1.
          5    1    4    4  501    0  0.76140955322E+02 -0.82835392894E+01  0.65395650308E+02  0.10079744828E+03  0.41800000000E+01 0.  1.
         -5    1    4    4    0  501  0.22859786191E+02  0.71845009271E+02 -0.17436651596E+02  0.77496996076E+02  0.41800000000E+01 0.  1.
</event>
<event>
11    1  0.8551154E-009  0.1288098E+03  0.7561462E-02  0.1120740E+00
         22   -1    0    0    0    0  0.00000000000E+00  0.00000000000E+00  0.36391974782E+03  0.36391974782E+03  0.00000000000E+00 0. -1.
         22   -1    0    0    0    0 -0.00000000000E+00 -0.00000000000E+00 -0.97165724304E+03  0.97165724304E+03  0.00000000000E+00 0.  1.
        -24    2    1    2    0    0  0.24554622045E+02 -0.18427679800E+02 -0.92408664639E+03  0.92810417266E+03  0.80614616692E+02 0.  0.
         25    2    1    2    0    0 -0.17361633049E+02  0.30698232872E+02  0.69106318310E+02  0.14719739370E+03  0.12509029409E+03 0.  0.
         24    2    1    2    0    0 -0.71929889961E+01 -0.12270553073E+02  0.24724283286E+03  0.26027542450E+03  0.80074793997E+02 0.  0.
        -11    1    5    5    0    0 -0.77254789366E+00 -0.18632618337E+02  0.70874666548E+01  0.19950024560E+02  0.00000000000E+00 0.  1.
         12    1    5    5    0    0 -0.64204411025E+01  0.63620652649E+01  0.24015536621E+03  0.24032539994E+03  0.00000000000E+00 0. -1.
         11    1    3    3    0    0  0.43156653098E+02  0.15705369572E+02 -0.58402791362E+03  0.58583082817E+03  0.00000000000E+00 0. -1.
        -12    1    3    3    0    0 -0.18602031053E+02 -0.34133049372E+02 -0.34005873277E+03  0.34227334450E+03  0.00000000000E+00 0.  1.
          5    1    4    4  501    0 -0.47962819122E+02  0.22552506595E+02  0.93125396379E+02  0.10723273485E+03  0.41800000000E+01 0. -1.
         -5    1    4    4    0  501  0.30601186073E+02  0.81457262775E+01 -0.24019078069E+02  0.39964658849E+02  0.41800000000E+01 0. -1.
</event>
<event>
11    1  0.8551154E-009  0.2330636E+03  0.7561462E-02  0.1033329E+00
         22   -1    0    0    0    0  0.00000000000E+00  0.00000000000E+00  0.10040078012E+04  0.10040078012E+04  0.00000000000E+00 0.  1.
         22   -1    0    0    0    0 -0.00000000000E+00 -0.00000000000E+00 -0.52926719403E+03  0.52926719403E+03  0.00000000000E+00 0. -1.
         24    2    1    2    0    0 -0.17131201969E+03  0.97410786245E+02 -0.45838071348E+03  0.50534888700E+03  0.80174495539E+02 0.  0.
         25    2    1    2    0    0  0.17813290202E+03 -0.73758761980E+02  0.24993860079E+03  0.33953976023E+03  0.12508500654E+03 0.  0.
        -24    2    1    2    0    0 -0.68208823353E+01 -0.23652024265E+02  0.68318271988E+03  0.68838634802E+03  0.80815794895E+02 0.  0.
        -11    1    3    3    0    0 -0.73525131946E+01 -0.29180137489E+01  0.40689226576E+00  0.79208469138E+01  0.00000000000E+00 0.  1.
         12    1    3    3    0    0 -0.16395950649E+03  0.10032879999E+03 -0.45878760575E+03  0.49742804009E+03  0.00000000000E+00 0. -1.
         13    1    5    5    0    0  0.11383174629E+02 -0.24421767039E+02  0.71127398080E+02  0.76059885141E+02  0.00000000000E+00 0. -1.
        -14    1    5    5    0    0 -0.18204056965E+02  0.76974277387E+00  0.61205532180E+03  0.61232646288E+03  0.00000000000E+00 0.  1.
          5    1    4    4  501    0  0.34523871333E+02  0.34806446454E+02  0.44383795674E+02  0.66262961939E+02  0.41800000000E+01 0. -1.
         -5    1    4    4    0  501  0.14360903069E+03 -0.10856520843E+03  0.20555480512E+03  0.27327679829E+03  0.41800000000E+01 0. -1.
</event>
<event>
11    1  0.8551154E-009  0.1833799E+03  0.7561462E-02  0.1066941E+00
         22   -1    0    0    0    0  0.00000000000E+00  0.00000000000E+00  0.31496587195E+03  0.31496587195E+03  0.00000000000E+00 0.  1.
         22   -1    0    0    0    0 -0.00000000000E+00 -0.00000000000E+00 -0.73391137436E+03  0.73391137436E+03  0.00000000000E+00 0.  1.
        -24    2    1    2    0    0 -0.90992416738E+01  0.43589151250E+02 -0.57607401494E+03  0.58339385756E+03  0.80649315229E+02 0.  0.
         25    2    1    2    0    0 -0.22945067188E+02 -0.16703269468E+03 -0.43558102081E+02  0.21440736686E+03  0.12508722359E+03 0.  0.
         24    2    1    2    0    0  0.32044308862E+02  0.12344354343E+03  0.20068661460E+03  0.25107602189E+03  0.80615788417E+02 0.  0.
        -13    1    5    5    0    0 -0.20346767280E+02  0.77623693732E+02  0.92762646196E+02  0.12265535984E+03  0.00000000000E+00 0.  1.
         14    1    5    5    0    0  0.52391076142E+02  0.45819849703E+02  0.10792396841E+03  0.12842066206E+03  0.00000000000E+00 0. -1.
         13    1    3    3    0    0 -0.21096846933E+02 -0.18920682486E+02 -0.16314273242E+03  0.16558568875E+03  0.00000000000E+00 0. -1.
        -14    1    3    3    0    0  0.11997605259E+02  0.62509833736E+02 -0.41293128251E+03  0.41780816881E+03  0.00000000000E+00 0.  1.
          5    1    4    4  501    0 -0.18845162686E+02 -0.85476649137E+02 -0.85570765818E+02  0.12247949243E+03  0.41800000000E+01 0. -1.
         -5    1    4    4    0  501 -0.40999045019E+01 -0.81556045548E+02  0.42012663737E+02  0.91927874427E+02  0.41800000000E+01 0. -1.
</event>
<event>
11    1  0.8551154E-009  0.1283534E+03  0.7561462E-02  0.1121309E+00
         22   -1    0    0    0    0  0.00000000000E+00  0.00000000000E+00  0.36047470326E+03  0.36047470326E+03  0.00000000000E+00 0. -1.
         22   -1    0    0    0    0 -0.00000000000E+00 -0.00000000000E+00 -0.41947702343E+03  0.41947702343E+03  0.00000000000E+00 0. -1.
         24    2    1    2    0    0 -0.18694407173E+02  0.23410266611E+02 -0.32961866760E+03  0.34072773332E+03  0.80928368209E+02 0.  0.
         25    2    1    2    0    0 -0.71192750249E+01 -0.27169876617E+02 -0.28735348592E+02  0.13138588337E+03  0.12509054248E+03 0.  0.
        -24    2    1    2    0    0  0.25813682198E+02  0.37596100051E+01  0.29935169603E+03  0.30783811001E+03  0.66875879075E+02 0.  0.
        -11    1    3    3    0    0 -0.31702164592E+02  0.20394079971E+02 -0.60530018509E+02  0.71307986078E+02  0.00000000000E+00 0.  1.
         12    1    3    3    0    0  0.13007757419E+02  0.30161866401E+01 -0.26908864909E+03  0.26941974724E+03  0.00000000000E+00 0. -1.
         13    1    5    5    0    0  0.31331761667E+02 -0.26939428994E+01  0.29748726834E+03  0.29914480012E+03  0.00000000000E+00 0. -1.
        -14    1    5    5    0    0 -0.55180794691E+01  0.64535529045E+01  0.18644276889E+01  0.86933098832E+01  0.00000000000E+00 0.  1.
          5    1    4    4  501    0  0.12227085371E+02 -0.63066881544E+02 -0.53316480723E+02  0.83588591812E+02  0.41800000000E+01 0.  1.
         -5    1    4    4    0  501 -0.19346360396E+02  0.35897004928E+02  0.24581132131E+02  0.47797291557E+02  0.41800000000E+01 0.  1.
</event>
<event>
11    1  0.8551154E-009  0.1283591E+03  0.7561462E-02  0.1121302E+00
         22   -1    0    0    0    0  0.00000000000E+00  0.00000000000E+00  0.51675181466E+03  0.51675181466E+03  0.00000000000E+00 0.  1.
         22   -1    0    0    0    0 -0.00000000000E+00 -0.00000000000E+00 -0.20818694441E+03  0.20818694441E+03  0.00000000000E+00 0. -1.
         24    2    1    2    0    0 -0.30747809665E+02 -0.18893272527E+00 -0.16899756708E+03  0.19339623152E+03  0.88862034600E+02 0.  0.
         25    2    1    2    0    0 -0.32460085478E+01 -0.12253213774E+02  0.17777293862E+03  0.21774251599E+03  0.12509159743E+03 0.  0.
        -24    2    1    2    0    0  0.33993818212E+02  0.12442146499E+02  0.29978949870E+03  0.31380001155E+03  0.85359926381E+02 0.  0.
        -13    1    3    3    0    0  0.21601745259E+02  0.25172086369E+02 -0.40531877289E+02  0.52374635149E+02  0.00000000000E+00 0.  1.
         14    1    3    3    0    0 -0.52349554924E+02 -0.25361019094E+02 -0.12846568979E+03  0.14102159637E+03  0.00000000000E+00 0. -1.
         11    1    5    5    0    0  0.24294935168E+02  0.53087135985E+01  0.15601284879E+02  0.29356880024E+02  0.00000000000E+00 0. -1.
        -12    1    5    5    0    0  0.96988830446E+01  0.71334329007E+01  0.28418821383E+03  0.28444313153E+03  0.00000000000E+00 0.  1.
          5    1    4    4  501    0 -0.74597380144E+01  0.48872357653E+02  0.13238663706E+03  0.14137838981E+03  0.41800000000E+01 0.  1.
         -5    1    4    4    0  501  0.42137294666E+01 -0.61125571427E+02  0.45386301556E+02  0.76364126180E+02  0.41800000000E+01 0.  1.
</event>
<event>
11    1  0.8551154E-009  0.1721218E+03  0.7561462E-02  0.1076200E+00
         22   -1    0    0    0    0  0.00000000000E+00  0.00000000000E+00  0.65153913424E+03  0.65153913424E+03  0.00000000000E+00 0. -1.
         22   -1    0    0    0    0 -0.00000000000E+00 -0.00000000000E+00 -0.25628001878E+03  0.25628001878E+03  0.00000000000E+00 0. -1.
        -24    2    1    2    0    0 -0.76315425143E+02  0.91819160597E+02 -0.14629624446E+03  0.20595439364E+03  0.82218116918E+02 0.  0.
         25    2    1    2    0    0  0.27237616160E+02 -0.12185814992E+03  0.28190538780E+02  0.17897782706E+03  0.12508820755E+03 0.  0.
         24    2    1    2    0    0  0.49077808983E+02  0.30038989322E+02  0.51336482114E+03  0.52288693231E+03  0.80971181216E+02 0.  0.
        -13    1    5    5    0    0  0.39984672975E+01  0.26124886873E+02  0.43865008773E+02  0.51211682744E+02  0.00000000000E+00 0.  1.
         14    1    5    5    0    0  0.45079341686E+02  0.39141024486E+01  0.46949981237E+03  0.47167524957E+03  0.00000000000E+00 0. -1.
         13    1    3    3    0    0 -0.61759965754E+02  0.15725157385E+02 -0.43196295037E+02  0.76990219182E+02  0.00000000000E+00 0. -1.
        -14    1    3    3    0    0 -0.14555459389E+02  0.76094003213E+02 -0.10309994943E+03  0.12896417446E+03  0.00000000000E+00 0.  1.
          5    1    4    4  501    0 -0.24710633115E+02 -0.33879078983E+02 -0.38348888286E+02  0.56978215261E+02  0.41800000000E+01 0.  1.
         -5    1    4    4    0  501  0.51948249275E+02 -0.87979070936E+02  0.66539427065E+02  0.12199961180E+03  0.41800000000E+01 0.  1.
</event>
<event>
11    1  0.8551154E-009  0.1422164E+03  0.7561462E-02  0.1105108E+00
         22   -1    0    0    0    0  0.00000000000E+00  0.00000000000E+00  0.73298016033E+03  0.73298016033E+03  0.00000000000E+00 0.  1.
         22   -1    0    0    0    0 -0.00000000000E+00 -0.00000000000E+00 -0.29910622276E+03  0.29910622276E+03  0.00000000000E+00 0. -1.
        -24    2    1    2    0    0 -0.24274905519E+02  0.13852365534E+02 -0.11848523134E+03  0.14527131312E+03  0.79270708969E+02 0.  0.
         25    2    1    2    0    0  0.16544834360E+02 -0.80795499207E+02 -0.12869050203E+03  0.19751018818E+03  0.12508950751E+03 0.  0.
         24    2    1    2    0    0  0.77300711598E+01  0.66943133673E+02  0.68104967093E+03  0.68930488179E+03  0.82288690837E+02 0.  0.
        -13    1    5    5    0    0  0.47861402994E+01  0.48536414883E+02  0.65733092971E+03  0.65913780187E+03  0.00000000000E+00 0.  1.
         14    1    5    5    0    0  0.29439308604E+01  0.18406718790E+02  0.23718741224E+02  0.30167079918E+02  0.00000000000E+00 0. -1.
         13    1    3    3    0    0 -0.47295797405E+02 -0.10392892573E+02 -0.85762524494E+02  0.98489163240E+02  0.00000000000E+00 0. -1.
        -14    1    3    3    0    0  0.23020891885E+02  0.24245258107E+02 -0.32722706846E+02  0.46782149878E+02  0.00000000000E+00 0.  1.
          5    1    4    4  501    0  0.54960469912E+02 -0.44870143974E+02 -0.12601956111E+03  0.14468028634E+03  0.41800000000E+01 0.  1.
         -5    1    4    4    0  501 -0.38415635552E+02 -0.35925355233E+02 -0.26709409170E+01  0.52829901844E+02  0.41800000000E+01 0.  1.
</event>
<event>
11    1  0.8551154E-009  0.2001016E+03  0.7561462E-02  0.1054452E+00
         22   -1    0    0    0    0  0.00000000000E+00  0.00000000000E+00  0.17917296959E+04  0.17917296959E+04  0.00000000000E+00 0. -1.
         22   -1    0    0    0    0 -0.00000000000E+00 -0.00000000000E+00 -0.24601525101E+03  0.24601525101E+03  0.00000000000E+00 0. -1.
        -24    2    1    2    0    0  0.14765671451E+02  0.14935974681E+03 -0.17162282490E+03  0.24251191483E+03  0.82651532278E+02 0.  0.
         25    2    1    2    0    0 -0.55846072823E+02 -0.25745566205E+03  0.57978078941E+03  0.64899542001E+03  0.12508832739E+03 0.  0.
         24    2    1    2    0    0  0.41080401371E+02  0.10809591524E+03  0.11375564804E+04  0.11462376121E+04  0.80334245543E+02 0.  0.
        -11    1    5    5    0    0 -0.25979293644E+01 -0.92129045581E+01  0.21680314559E+03  0.21701435617E+03  0.00000000000E+00 0.  1.
         12    1    5    5    0    0  0.43678330736E+02  0.11730881980E+03  0.92075333484E+03  0.92922325595E+03  0.00000000000E+00 0. -1.
         13    1    3    3    0    0  0.40556004097E+02  0.85717595900E+02 -0.62469796759E+02  0.11355514617E+03  0.00000000000E+00 0. -1.
        -14    1    3    3    0    0 -0.25790332646E+02  0.63642150910E+02 -0.10915302814E+03  0.12895676866E+03  0.00000000000E+00 0.  1.
          5    1    4    4  501    0  0.31022810940E+02 -0.11686153805E+03  0.18557584891E+03  0.22152855792E+03  0.41800000000E+01 0.  1.
         -5    1    4    4    0  501 -0.86868883762E+02 -0.14059412400E+03  0.39420494051E+03  0.42746686209E+03  0.41800000000E+01 0.  1.
</event>
<event>
11    1  0.8551154E-009  0.1306529E+03  0.7561462E-02  0.1118469E+00
         22   -1    0    0    0    0  0.00000000000E+00  0.00000000000E+00  0.15838584001E+03  0.15838584001E+03  0.00000000000E+00 0. -1.
         22   -1    0    0    0    0 -0.00000000000E+00 -0.00000000000E+00 -0.10840467691E+04  0.10840467691E+04  0.00000000000E+00 0.  1.
         24    2    1    2    0    0 -0.20098393336E+02 -0.31616331650E+02 -0.93741577043E+03  0.94176561295E+03  0.82283687499E+02 0.  0.
         25    2    1    2    0    0 -0.37386749245E+01  0.51749577232E+02 -0.93990904238E+02  0.16483763271E+03  0.12508060858E+03 0.  0.
        -24    2    1    2    0    0  0.23837068260E+02 -0.20133245583E+02  0.10574574553E+03  0.13582936350E+03  0.79334102933E+02 0.  0.
        -13    1    3    3    0    0 -0.33298404025E+02 -0.70506401956E+00 -0.78417443295E+03  0.78488140640E+03  0.00000000000E+00 0.  1.
         14    1    3    3    0    0  0.13200010689E+02 -0.30911267630E+02 -0.15324133749E+03  0.15688420655E+03  0.00000000000E+00 0. -1.
         13    1    5    5    0    0  0.36283720679E+02  0.54296305794E+01  0.10040793843E+03  0.10690062383E+03  0.00000000000E+00 0. -1.
        -14    1    5    5    0    0 -0.12446652419E+02 -0.25562876162E+02  0.53378071015E+01  0.28928739668E+02  0.00000000000E+00 0.  1.
          5    1    4    4  501    0 -0.58704491681E+02  0.53836205116E+02 -0.48623924150E+02  0.93414735051E+02  0.41800000000E+01 0. -1.
         -5    1    4    4    0  501  0.54965816756E+02 -0.20866278841E+01 -0.45366980088E+02  0.71422897659E+02  0.41800000000E+01 0. -1.
</event>
<event>
11    1  0.8551154E-009  0.1343589E+03  0.7561462E-02  0.1114026E+00
         22   -1    0    0    0    0  0.00000000000E+00  0.00000000000E+00  0.53118473457E+03  0.53118473457E+03  0.00000000000E+00 0. -1.
         22   -1    0    0    0    0 -0.00000000000E+00 -0.00000000000E+00 -0.13938791900E+03  0.13938791900E+03  0.00000000000E+00 0.  1.
        -24    2    1    2    0    0 -0.60244483030E+01 -0.43467057289E+02 -0.59261021600E+02  0.10924190016E+03  0.80599286735E+02 0.  0.
         25    2    1    2    0    0 -0.43255197155E+02  0.33798668818E+02  0.43318327454E+02  0.14330804205E+03  0.12508938935E+03 0.  0.
         24    2    1    2    0    0  0.49279645458E+02  0.96683884718E+01  0.40773950971E+03  0.41802271136E+03  0.77262657459E+02 0.  0.
        -13    1    5    5    0    0 -0.75088549299E+01  0.27266418326E+02  0.78058389227E+02  0.83023807426E+02  0.00000000000E+00 0.  1.
         14    1    5    5    0    0  0.56788500388E+02 -0.17598029854E+02  0.32968112048E+03  0.33499890393E+03  0.00000000000E+00 0. -1.
         13    1    3    3    0    0 -0.13632378826E+02 -0.21756069692E+02  0.16195984401E+02  0.30355859922E+02  0.00000000000E+00 0. -1.
        -14    1    3    3    0    0  0.76079305232E+01 -0.21710987598E+02 -0.75457006001E+02  0.78886040235E+02  0.00000000000E+00 0.  1.
          5    1    4    4  501    0 -0.30420320263E+02  0.72403179121E+02 -0.64298765889E+01  0.78907743249E+02  0.41800000000E+01 0.  1.
         -5    1    4    4    0  501 -0.12834876892E+02 -0.38604510303E+02  0.49748204043E+02  0.64400298804E+02  0.41800000000E+01 0.  1.
</event>
<event>
11    1  0.8551154E-009  0.1465006E+03  0.7561462E-02  0.1100509E+00
         22   -1    0    0    0    0  0.00000000000E+00  0.00000000000E+00  0.14872583110E+03  0.14872583110E+03  0.00000000000E+00 0.  1.
         22   -1    0    0    0    0 -0.00000000000E+00 -0.00000000000E+00 -0.23115370235E+04  0.23115370235E+04  0.00000000000E+00 0. -1.
        -24    2    1    2    0    0  0.38469291821E+02  0.17294271369E+02 -0.21746097874E+04  0.21765185777E+04  0.80786217952E+02 0.  0.
         25    2    1    2    0    0 -0.10473092547E+03 -0.24383011079E+02 -0.37856963611E+02  0.16924100622E+03  0.12508505312E+03 0.  0.
         24    2    1    2    0    0  0.66261633647E+02  0.70887397099E+01  0.49655558696E+02  0.11450327068E+03  0.78768459182E+02 0.  0.
        -13    1    5    5    0    0  0.82432895261E+02  0.15191199397E+02  0.33555008658E+02  0.90287836203E+02  0.00000000000E+00 0.  1.
         14    1    5    5    0    0 -0.16171261614E+02 -0.81024596876E+01  0.16100550038E+02  0.24215434473E+02  0.00000000000E+00 0. -1.
         13    1    3    3    0    0  0.53961192373E+02 -0.10513363919E+02 -0.16707833670E+04  0.16716875906E+04  0.00000000000E+00 0. -1.
        -14    1    3    3    0    0 -0.15491900553E+02  0.27807635288E+02 -0.50382642047E+03  0.50483098709E+03  0.00000000000E+00 0.  1.
          5    1    4    4  501    0 -0.10900782659E+03 -0.53254051223E+02 -0.17204082498E+00  0.12139276020E+03  0.41800000000E+01 0. -1.
         -5    1    4    4    0  501  0.42769011275E+01  0.28871040144E+02 -0.37684922786E+02  0.47848246025E+02  0.41800000000E+01 0. -1.
</event>
<event>
11    1  0.8551154E-009  0.1305067E+03  0.7561462E-02  0.1118648E+00
         22   -1    0    0    0    0  0.00000000000E+00  0.00000000000E+00  0.12262235892E+04  0.12262235892E+04  0.00000000000E+00 0.  1.
         22   -1    0    0    0    0 -0.00000000000E+00 -0.00000000000E+00 -0.21523968463E+03  0.21523968463E+03  0.00000000000E+00 0.  1.
         24    2    1    2    0    0 -0.31307876900E+02 -0.22334958379E+02 -0.14163363810E+03  0.16675620015E+03  0.79173918214E+02 0.  0.
         25    2    1    2    0    0  0.65627399589E+01  0.39426257033E+02  0.13119546584E+02  0.13198060405E+03  0.12509699454E+03 0.  0.
        -24    2    1    2    0    0  0.24745136941E+02 -0.17091298654E+02  0.11394979961E+04  0.11427264697E+04  0.80396934122E+02 0.  0.
        -13    1    3    3    0    0  0.20529583978E+01 -0.16480858896E+02 -0.12982974390E+03  0.13088772192E+03  0.00000000000E+00 0.  1.
         14    1    3    3    0    0 -0.33360835298E+02 -0.58540994833E+01 -0.11803894206E+02  0.35868478236E+02  0.00000000000E+00 0. -1.
         11    1    5    5    0    0 -0.11145958492E+02 -0.29172294378E+02  0.19630311059E+03  0.19877164380E+03  0.00000000000E+00 0. -1.
        -12    1    5    5    0    0  0.35891095433E+02  0.12080995724E+02  0.94319488554E+03  0.94395482588E+03  0.00000000000E+00 0.  1.
          5    1    4    4  501    0  0.51298514769E+01  0.55044475207E+02  0.60402858108E+02  0.81988946173E+02  0.41800000000E+01 0.  1.
         -5    1    4    4    0  501  0.14328884819E+01 -0.15618218174E+02 -0.47283311524E+02  0.49991657874E+02  0.41800000000E+01 0.  1.
</event>
<event>
11    1  0.8551154E-009  0.1303675E+03  0.7561462E-02  0.1118818E+00
         22   -1    0    0    0    0  0.00000000000E+00  0.00000000000E+00  0.48571633339E+03  0.48571633339E+03  0.00000000000E+00 0. -1.
         22   -1    0    0    0    0 -0.00000000000E+00 -0.00000000000E+00 -0.40041448813E+03  0.40041448813E+03  0.00000000000E+00 0.  1.
        -24    2    1    2    0    0  0.40458388528E+02 -0.19991944891E+02 -0.26136786876E+03  0.27734545716E+03  0.81060352344E+02 0.  0.
         25    2    1    2    0    0  0.12616398135E+02  0.26066968942E+02 -0.94702174949E+02  0.15954852728E+03  0.12509424546E+03 0.  0.
         24    2    1    2    0    0 -0.53074786662E+02 -0.60750240505E+01  0.44137188896E+03  0.44923683708E+03  0.64426334060E+02 0.  0.
        -13    1    5    5    0    0 -0.30811905027E+02 -0.28883243947E+02  0.14128457551E+03  0.14746167824E+03  0.00000000000E+00 0.  1.
         14    1    5    5    0    0 -0.22262881636E+02  0.22808219897E+02  0.30008731345E+03  0.30177515883E+03  0.00000000000E+00 0. -1.
         13    1    3    3    0    0  0.51129652247E+02 -0.83629223163E+01 -0.80120197319E+02  0.95411874664E+02  0.00000000000E+00 0. -1.
        -14    1    3    3    0    0 -0.10671263719E+02 -0.11629022575E+02 -0.18124767144E+03  0.18193358249E+03  0.00000000000E+00 0.  1.
          5    1    4    4  501    0  0.19961662469E+02  0.75210137467E+02 -0.50060258969E+02  0.92620379369E+02  0.41800000000E+01 0. -1.
         -5    1    4    4    0  501 -0.73452643341E+01 -0.49143168526E+02 -0.44641915980E+02  0.66928147915E+02  0.41800000000E+01 0. -1.
</event>
<event>
11    1  0.8551154E-009  0.1384752E+03  0.7561462E-02  0.1109273E+00
         22   -1    0    0    0    0  0.00000000000E+00  0.00000000000E+00  0.14866591192E+04  0.14866591192E+04  0.00000000000E+00 0.  1.
         22   -1    0    0    0    0 -0.00000000000E+00 -0.00000000000E+00 -0.39662681714E+02  0.39662681714E+02  0.00000000000E+00 0.  1.
        -24    2    1    2    0    0  0.57854345803E+02 -0.72348080597E+01  0.76047741880E+02  0.12234857406E+03  0.76068697601E+02 0.  0.
         25    2    1    2    0    0 -0.64822521918E+02 -0.24680082566E+02  0.33343249949E+03  0.36281585664E+03  0.12508816208E+03 0.  0.
         24    2    1    2    0    0  0.69681761142E+01  0.31914890626E+02  0.10375161961E+04  0.10411573702E+04  0.80633098703E+02 0.  0.
        -13    1    5    5    0    0  0.40691746551E+02  0.91926373239E+00  0.54374256982E+03  0.54526383111E+03  0.00000000000E+00 0.  1.
         14    1    5    5    0    0 -0.33723570437E+02  0.30995626894E+02  0.49377362632E+03  0.49589353912E+03  0.00000000000E+00 0. -1.
         13    1    3    3    0    0 -0.46174847404E+01  0.18916036906E+02  0.42548018989E+02  0.46791789210E+02  0.00000000000E+00 0. -1.
        -14    1    3    3    0    0  0.62471830544E+02 -0.26150844966E+02  0.33499722891E+02  0.75556784855E+02  0.00000000000E+00 0.  1.
          5    1    4    4  501    0 -0.80566153298E+02  0.67414995287E-01  0.10471679116E+03  0.13218921421E+03  0.41800000000E+01 0.  1.
         -5    1    4    4    0  501  0.15743631381E+02 -0.24747497562E+02  0.22871570833E+03  0.23062664243E+03  0.41800000000E+01 0.  1.
</event>
<event>
11    1  0.8551154E-009  0.3116811E+03  0.7561462E-02  0.9953652E-01
         22   -1    0    0    0    0  0.00000000000E+00  0.00000000000E+00  0.10014298782E+04  0.10014298782E+04  0.00000000000E+00 0. -1.
         22   -1    0    0    0    0 -0.00000000000E+00 -0.00000000000E+00 -0.21263702116E+03  0.21263702116E+03  0.00000000000E+00 0. -1.
         24    2    1    2    0    0  0.18422942023E+03 -0.66683909348E+02  0.63575426967E+02  0.22091244063E+03  0.79832627841E+02 0.  0.
         25    2    1    2    0    0 -0.37165140760E+03 -0.10038034827E+03  0.35366931005E+03  0.53752295600E+03  0.12509182336E+03 0.  0.
        -24    2    1    2    0    0  0.18742198737E+03  0.16706425762E+03  0.37154812005E+03  0.45563150274E+03  0.80713030269E+02 0.  0.
        -13    1    3    3    0    0  0.28843865799E+02  0.53122119713E+01 -0.14479656000E+02  0.32708540599E+02  0.00000000000E+00 0.  1.
         14    1    3    3    0    0  0.15538555443E+03 -0.71996121319E+02  0.78055082967E+02  0.18820390003E+03  0.00000000000E+00 0. -1.
         11    1    5    5    0    0  0.11616909793E+03  0.14544150974E+03  0.23183577685E+03  0.29731518545E+03  0.00000000000E+00 0. -1.
        -12    1    5    5    0    0  0.71252889434E+02  0.21622747872E+02  0.13971234319E+03  0.15831631729E+03  0.00000000000E+00 0.  1.
          5    1    4    4  501    0 -0.25361920287E+03 -0.64582871718E+01  0.22877291007E+03  0.34164151727E+03  0.41800000000E+01 0. -1.
         -5    1    4    4    0  501 -0.11803220472E+03 -0.93922061097E+02  0.12489639998E+03  0.19588143873E+03  0.41800000000E+01 0. -1.
</event>
<event>
11    1  0.8551154E-009  0.1728197E+03  0.7561462E-02  0.1075604E+00
         22   -1    0    0    0    0  0.00000000000E+00  0.00000000000E+00  0.43973393153E+03  0.43973393153E+03  0.00000000000E+00 0.  1.
         22   -1    0    0    0    0 -0.00000000000E+00 -0.00000000000E+00 -0.17739947274E+03  0.17739947274E+03  0.00000000000E+00 0. -1.
         24    2    1    2    0    0  0.54198309051E+02  0.23678078288E+02 -0.86952913160E+02  0.13237930767E+03  0.80407486568E+02 0.  0.
         25    2    1    2    0    0  0.16345645760E+01 -0.12899454719E+03  0.12717364074E+03  0.22014296083E+03  0.12509006074E+03 0.  0.
        -24    2    1    2    0    0 -0.55832873627E+02  0.10531646890E+03  0.22211373121E+03  0.26461113578E+03  0.80471579989E+02 0.  0.
        -13    1    3    3    0    0  0.21804877573E+01 -0.23678328578E+02 -0.43840108240E+02  0.49873568768E+02  0.00000000000E+00 0.  1.
         14    1    3    3    0    0  0.52017821294E+02  0.47356406866E+02 -0.43112804920E+02  0.82505738900E+02  0.00000000000E+00 0. -1.
         11    1    5    5    0    0 -0.65181817336E+02  0.43198799447E+02  0.96839660781E+02  0.12446977740E+03  0.00000000000E+00 0. -1.
        -12    1    5    5    0    0  0.93489437093E+01  0.62117669453E+02  0.12527407043E+03  0.14014135838E+03  0.00000000000E+00 0.  1.
          5    1    4    4  501    0 -0.56050544211E+02 -0.58267948809E+02  0.28904963424E+02  0.85963868429E+02  0.41800000000E+01 0. -1.
         -5    1    4    4    0  501  0.57685108787E+02 -0.70726598379E+02  0.98268677321E+02  0.13417909240E+03  0.41800000000E+01 0. -1.
</event>
<event>
11    1  0.8551154E-009  0.2715568E+03  0.7561462E-02  0.1013004E+00
         22   -1    0    0    0    0  0.00000000000E+00  0.00000000000E+00  0.20272470141E+03  0.20272470141E+03  0.00000000000E+00 0.  1.
         22   -1    0    0    0    0 -0.00000000000E+00 -0.00000000000E+00 -0.13133128973E+04  0.13133128973E+04  0.00000000000E+00 0.  1.
         24    2    1    2    0    0  0.18743400228E+03  0.14333937225E+03 -0.10409999789E+04  0.10704023592E+04  0.80016082628E+02 0.  0.
         25    2    1    2    0    0 -0.27133285235E+03 -0.11430179004E+03 -0.64967571413E+02  0.32642654885E+03  0.12508833076E+03 0.  0.
        -24    2    1    2    0    0  0.83898850071E+02 -0.29037582209E+02 -0.46206455265E+01  0.11920869069E+03  0.79417651352E+02 0.  0.
        -13    1    3    3    0    0  0.16253652419E+03  0.85710538478E+02 -0.70273392567E+03  0.72636037088E+03  0.00000000000E+00 0.  1.
         14    1    3    3    0    0  0.24897478084E+02  0.57628833770E+02 -0.33826605327E+03  0.34404198827E+03  0.00000000000E+00 0. -1.
         13    1    5    5    0    0  0.93398038932E+02 -0.12769015046E+02 -0.18171758163E+02  0.96002365681E+02  0.00000000000E+00 0. -1.
        -14    1    5    5    0    0 -0.94991888608E+01 -0.16268567164E+02  0.13551112637E+02  0.23206325006E+02  0.00000000000E+00 0.  1.
          5    1    4    4  501    0 -0.13025913543E+03 -0.99689745891E+02 -0.82153107211E+02  0.18349957282E+03  0.41800000000E+01 0.  1.
         -5    1    4    4    0  501 -0.14107371691E+03 -0.14612044148E+02  0.17185535798E+02  0.14292697604E+03  0.41800000000E+01 0.  1.
</event>
<event>
11    1  0.8551154E-009  0.1524565E+03  0.7561462E-02  0.1094395E+00
         22   -1    0    0    0    0  0.00000000000E+00  0.00000000000E+00  0.19729257445E+04  0.19729257445E+04  0.00000000000E+00 0.  1.
         22   -1    0    0    0    0 -0.00000000000E+00 -0.00000000000E+00 -0.11231933065E+04  0.11231933065E+04  0.00000000000E+00 0.  1.
        -24    2    1    2    0    0 -0.81548237560E+01  0.19909094142E+02 -0.10848826098E+04  0.10878248176E+04  0.77004439035E+02 0.  0.
         25    2    1    2    0    0 -0.65939590487E+02 -0.65432515628E+02  0.13923959906E+03  0.20895916897E+03  0.12508726815E+03 0.  0.
         24    2    1    2    0    0  0.74094414243E+02  0.45523421486E+02  0.17953754488E+04  0.17993350644E+04  0.81678074273E+02 0.  0.
        -11    1    5    5    0    0 -0.20271090085E+01  0.31021046465E+02  0.92340737658E+03  0.92393051558E+03  0.00000000000E+00 0.  1.
         12    1    5    5    0    0  0.76121523251E+02  0.14502375020E+02  0.87196807221E+03  0.87540454884E+03  0.00000000000E+00 0. -1.
         11    1    3    3    0    0 -0.14206734461E+02 -0.28040676092E+02 -0.39154430181E+03  0.39280408743E+03  0.00000000000E+00 0. -1.
        -12    1    3    3    0    0  0.60519107051E+01  0.47949770235E+02 -0.69333830800E+03  0.69502073022E+03  0.00000000000E+00 0.  1.
          5    1    4    4  501    0  0.24139429994E+02  0.10379713951E+02  0.52086674084E-01  0.26606872330E+02  0.41800000000E+01 0. -1.
         -5    1    4    4    0  501 -0.90079020481E+02 -0.75812229579E+02  0.13918751238E+03  0.18235229664E+03  0.41800000000E+01 0. -1.
</event>
<event>
11    1  0.8551154E-009  0.1558593E+03  0.7561462E-02  0.1091038E+00
         22   -1    0    0    0    0  0.00000000000E+00  0.00000000000E+00  0.37106295033E+03  0.37106295033E+03  0.00000000000E+00 0. -1.
         22   -1    0    0    0    0 -0.00000000000E+00 -0.00000000000E+00 -0.15089545218E+03  0.15089545218E+03  0.00000000000E+00 0. -1.
        -24    2    1    2    0    0  0.87572524779E+02 -0.25874365087E+02 -0.52052425144E+02  0.13308146951E+03  0.81625931529E+02 0.  0.
         25    2    1    2    0    0 -0.10694408688E+03 -0.22987810205E+02  0.10557427199E+03  0.19687334711E+03  0.12509081005E+03 0.  0.
         24    2    1    2    0    0  0.19371562102E+02  0.48862175292E+02  0.16664565131E+03  0.19200358590E+03  0.79572823926E+02 0.  0.
        -13    1    5    5    0    0 -0.13560100911E+02  0.56171397283E+02  0.77368141205E+02  0.96565684811E+02  0.00000000000E+00 0.  1.
         14    1    5    5    0    0  0.32931663013E+02 -0.73092219915E+01  0.89277510101E+02  0.95437901092E+02  0.00000000000E+00 0. -1.
         13    1    3    3    0    0  0.24460093123E+02  0.34420669710E+01 -0.58196592186E+02  0.63221731412E+02  0.00000000000E+00 0. -1.
        -14    1    3    3    0    0  0.63112431656E+02 -0.29316432058E+02  0.61441670416E+01  0.69859738095E+02  0.00000000000E+00 0.  1.
          5    1    4    4  501    0 -0.45550588961E+02  0.35240352065E+01  0.11988056149E+03  0.12835924744E+03  0.41800000000E+01 0. -1.
         -5    1    4    4    0  501 -0.61393497921E+02 -0.26511845411E+02 -0.14306289508E+02  0.68514099669E+02  0.41800000000E+01 0. -1.
</event>
<event>
11    1  0.8551154E-009  0.2393087E+03  0.7561462E-02  0.1029754E+00
         22   -1    0    0    0    0  0.00000000000E+00  0.00000000000E+00  0.25083039745E+03  0.25083039745E+03  0.00000000000E+00 0. -1.
         22   -1    0    0    0    0 -0.00000000000E+00 -0.00000000000E+00 -0.17052654558E+04  0.17052654558E+04  0.00000000000E+00 0.  1.
        -24    2    1    2    0    0  0.17419718389E+03 -0.10600490362E+03 -0.14264213775E+04  0.14431701781E+04  0.80501667540E+02 0.  0.
         25    2    1    2    0    0 -0.16702005774E+03  0.11906682424E+03 -0.20677333427E+03  0.31697865516E+03  0.12509055814E+03 0.  0.
         24    2    1    2    0    0 -0.71771261482E+01 -0.13061920619E+02  0.17875965343E+03  0.19594701993E+03  0.78854904827E+02 0.  0.
        -13    1    5    5    0    0 -0.34718571429E+02  0.14478044743E+02  0.58616284409E+02  0.69648128328E+02  0.00000000000E+00 0.  1.
         14    1    5    5    0    0  0.27541445281E+02 -0.27539965362E+02  0.12014336902E+03  0.12629889160E+03  0.00000000000E+00 0. -1.
         11    1    3    3    0    0  0.19854019615E+02 -0.47639828305E+02 -0.44369066243E+03  0.44668236955E+03  0.00000000000E+00 0. -1.
        -12    1    3    3    0    0  0.15434316428E+03 -0.58365075312E+02 -0.98273071502E+03  0.99648780857E+03  0.00000000000E+00 0.  1.
          5    1    4    4  501    0 -0.88010839090E+02  0.13219710641E+03 -0.12225402073E+03  0.20046321539E+03  0.41800000000E+01 0. -1.
         -5    1    4    4    0  501 -0.79009218655E+02 -0.13130282172E+02 -0.84519313540E+02  0.11651543977E+03  0.41800000000E+01 0. -1.
</event>
<event>
11    1  0.8551154E-009  0.1712924E+03  0.7561462E-02  0.1076912E+00
         22   -1    0    0    0    0  0.00000000000E+00  0.00000000000E+00  0.38116689522E+04  0.38116689522E+04  0.00000000000E+00 0.  1.
         22   -1    0    0    0    0 -0.00000000000E+00 -0.00000000000E+00 -0.63756512672E+02  0.63756512672E+02  0.00000000000E+00 0.  1.
        -24    2    1    2    0    0  0.25365785542E+02  0.14777727809E+03  0.79679512550E+02  0.18805934089E+03  0.80845185264E+02 0.  0.
         25    2    1    2    0    0  0.82639267019E+02 -0.67370502060E+01  0.91870404497E+03  0.93088118995E+03  0.12509209109E+03 0.  0.
         24    2    1    2    0    0 -0.10800505256E+03 -0.14104022788E+03  0.27495288820E+04  0.27564849341E+04  0.82113831435E+02 0.  0.
        -13    1    5    5    0    0 -0.11396923338E+03 -0.14756711770E+03  0.26572235968E+04  0.26637571743E+04  0.00000000000E+00 0.  1.
         14    1    5    5    0    0  0.59641808155E+01  0.65268898209E+01  0.92305285266E+02  0.92727759768E+02  0.00000000000E+00 0. -1.
         13    1    3    3    0    0  0.36932976122E+02  0.19940220689E+02  0.20668957986E+02  0.46785285620E+02  0.00000000000E+00 0. -1.
        -14    1    3    3    0    0 -0.11567190580E+02  0.12783705740E+03  0.59010554564E+02  0.14127405527E+03  0.00000000000E+00 0.  1.
          5    1    4    4  501    0 -0.75498932222E+01 -0.43710137739E+02  0.44562131392E+03  0.44784305828E+03  0.41800000000E+01 0. -1.
         -5    1    4    4    0  501  0.90189160241E+02  0.36973087533E+02  0.47308273105E+03  0.48303813166E+03  0.41800000000E+01 0. -1.
</event>
<event>
11    1  0.8551154E-009  0.1713149E+03  0.7561462E-02  0.1076893E+00
         22   -1    0    0    0    0  0.00000000000E+00  0.00000000000E+00  0.12929556904E+04  0.12929556904E+04  0.00000000000E+00 0. -1.
         22   -1    0    0    0    0 -0.00000000000E+00 -0.00000000000E+00 -0.20420724803E+03  0.20420724803E+03  0.00000000000E+00 0. -1.
        -24    2    1    2    0    0  0.26360908153E+02 -0.27036679421E+02 -0.11171547710E+03  0.14068078234E+03  0.76712809767E+02 0.  0.
         25    2    1    2    0    0  0.69957207345E+02 -0.43026208030E+02  0.22469586343E+01  0.14965917300E+03  0.12509018268E+03 0.  0.
         24    2    1    2    0    0 -0.96318115498E+02  0.70062887451E+02  0.11982169609E+04  0.12068229831E+04  0.80695970938E+02 0.  0.
        -11    1    5    5    0    0  0.13411345508E+01  0.30887624504E+01  0.66741112687E+00  0.34328607561E+01  0.00000000000E+00 0.  1.
         12    1    5    5    0    0 -0.97659250049E+02  0.66974125000E+02  0.11975495497E+04  0.12033901224E+04  0.00000000000E+00 0. -1.
         11    1    3    3    0    0 -0.12968757837E+02 -0.10236856635E+01 -0.85984753140E+02  0.86963293318E+02  0.00000000000E+00 0. -1.
        -12    1    3    3    0    0  0.39329665990E+02 -0.26012993757E+02 -0.25730723965E+02  0.53717489022E+02  0.00000000000E+00 0.  1.
          5    1    4    4  501    0  0.16136414155E+02  0.39869774222E+02 -0.20991451794E+02  0.48042649872E+02  0.41800000000E+01 0.  1.
         -5    1    4    4    0  501  0.53820793190E+02 -0.82895982252E+02  0.23238410428E+02  0.10161652313E+03  0.41800000000E+01 0.  1.
</event>
<event>
11    1  0.8551154E-009  0.1562904E+03  0.7561462E-02  0.1090619E+00
         22   -1    0    0    0    0  0.00000000000E+00  0.00000000000E+00  0.20428772221E+04  0.20428772221E+04  0.00000000000E+00 0. -1.
         22   -1    0    0    0    0 -0.00000000000E+00 -0.00000000000E+00 -0.21922591894E+02  0.21922591894E+02  0.00000000000E+00 0.  1.
        -24    2    1    2    0    0  0.10555306806E+03  0.25656405283E+02  0.32546230504E+03  0.35250509251E+03  0.80835802322E+02 0.  0.
         25    2    1    2    0    0 -0.59490045136E+02  0.79009618602E+01  0.83509755752E+03  0.84654414531E+03  0.12509024226E+03 0.  0.
         24    2    1    2    0    0 -0.46063022922E+02 -0.33557367143E+02  0.86039476766E+03  0.86575057619E+03  0.77440331766E+02 0.  0.
        -11    1    5    5    0    0 -0.17857416622E+02 -0.34455745475E+02  0.15475827114E+03  0.15955001789E+03  0.00000000000E+00 0.  1.
         12    1    5    5    0    0 -0.28205606301E+02  0.89837833267E+00  0.70563649652E+03  0.70620055829E+03  0.00000000000E+00 0. -1.
         13    1    3    3    0    0  0.43793419334E+02 -0.28900068903E+02  0.11172440781E+03  0.12343184703E+03  0.00000000000E+00 0. -1.
        -14    1    3    3    0    0  0.61759648724E+02  0.54556474185E+02  0.21373789723E+03  0.22907324549E+03  0.00000000000E+00 0.  1.
          5    1    4    4  501    0  0.25361163203E+02  0.37454155105E+02  0.19901731960E+03  0.20413566135E+03  0.41800000000E+01 0. -1.
         -5    1    4    4    0  501 -0.84851208338E+02 -0.29553193245E+02  0.63608023793E+03  0.64240848396E+03  0.41800000000E+01 0. -1.
</event>
<event>
11    1  0.8551154E-009  0.1339259E+03  0.7561462E-02  0.1114537E+00
         22   -1    0    0    0    0  0.00000000000E+00  0.00000000000E+00  0.53690352108E+03  0.53690352108E+03  0.00000000000E+00 0.  1.
         22   -1    0    0    0    0 -0.00000000000E+00 -0.00000000000E+00 -0.21057897031E+04  0.21057897031E+04  0.00000000000E+00 0. -1.
        -24    2    1    2    0    0  0.30054451153E+02  0.12512706724E+02 -0.19591766466E+04  0.19609822011E+04  0.77577205640E+02 0.  0.
         25    2    1    2    0    0  0.18557570716E+02 -0.84481346759E+01 -0.11286635305E+03  0.16971108529E+03  0.12508910587E+03 0.  0.
         24    2    1    2    0    0 -0.48612021869E+02 -0.40645720478E+01  0.50315681760E+03  0.51199993775E+03  0.81225019194E+02 0.  0.
        -13    1    5    5    0    0 -0.41305483436E+02 -0.61223930333E+01  0.50266159609E+03  0.50439300832E+03  0.00000000000E+00 0.  1.
         14    1    5    5    0    0 -0.73065384335E+01  0.20578209855E+01  0.49522151505E+00  0.76069294356E+01  0.00000000000E+00 0. -1.
         11    1    3    3    0    0 -0.76292193949E+01  0.34177843697E+02 -0.12391210182E+04  0.12396157581E+04  0.00000000000E+00 0. -1.
        -12    1    3    3    0    0  0.37683670548E+02 -0.21665136973E+02 -0.72005562840E+03  0.72136644306E+03  0.00000000000E+00 0.  1.
          5    1    4    4  501    0 -0.26206876905E+02 -0.55027303423E+02 -0.64968706385E+02  0.89180769948E+02  0.41800000000E+01 0.  1.
         -5    1    4    4    0  501  0.44764447621E+02  0.46579168747E+02 -0.47897646669E+02  0.80530315338E+02  0.41800000000E+01 0.  1.
</event>
<event>
11    1  0.8551154E-009  0.1446879E+03  0.7561462E-02  0.1102434E+00
         22   -1    0    0    0    0  0.00000000000E+00  0.00000000000E+00  0.12637770485E+04  0.12637770485E+04  0.00000000000E+00 0.  1.
         22   -1    0    0    0    0 -0.00000000000E+00 -0.00000000000E+00 -0.33971651150E+03  0.33971651150E+03  0.00000000000E+00 0.  1.
         24    2    1    2    0    0 -0.61772387036E+02  0.25536631170E+02 -0.26361486802E+03  0.28866123507E+03  0.96770670446E+02 0.  0.
         25    2    1    2    0    0  0.13023105371E+03 -0.52920818033E+02  0.84400661600E+02  0.20623925090E+03  0.12510162509E+03 0.  0.
        -24    2    1    2    0    0 -0.68458666678E+02  0.27384186863E+02  0.11032747434E+04  0.11085930740E+04  0.79542199938E+02 0.  0.
        -13    1    3    3    0    0 -0.41463782449E+01 -0.10589296706E+02 -0.18228999435E+03  0.18264437494E+03  0.00000000000E+00 0.  1.
         14    1    3    3    0    0 -0.57626008791E+02  0.36125927876E+02 -0.81324873672E+02  0.10601686013E+03  0.00000000000E+00 0. -1.
         11    1    5    5    0    0 -0.18730422337E+02  0.49780378430E+02  0.48048160316E+03  0.48341647238E+03  0.00000000000E+00 0. -1.
        -12    1    5    5    0    0 -0.49728244340E+02 -0.22396191567E+02  0.62279314028E+03  0.62517660166E+03  0.00000000000E+00 0.  1.
          5    1    4    4  501    0  0.60814791204E+02  0.39080776605E+02  0.39469387211E+02  0.82468484017E+02  0.41800000000E+01 0.  1.
         -5    1    4    4    0  501  0.69416262510E+02 -0.92001594638E+02  0.44931274388E+02  0.12377076688E+03  0.41800000000E+01 0.  1.
</event>
<event>
11    1  0.8551154E-009  0.1421079E+03  0.7561462E-02  0.1105227E+00
         22   -1    0    0    0    0  0.00000000000E+00  0.00000000000E+00  0.11256714627E+04  0.11256714627E+04  0.00000000000E+00 0. -1.
         22   -1    0    0    0    0 -0.00000000000E+00 -0.00000000000E+00 -0.40152992657E+03  0.40152992657E+03  0.00000000000E+00 0. -1.
         24    2    1    2    0    0 -0.49552355709E+02 -0.19477334267E+02 -0.36056515169E+03  0.37350806382E+03  0.81647061302E+02 0.  0.
         25    2    1    2    0    0  0.10805154956E+03  0.42232743415E+02  0.19972364261E+03  0.26267112414E+03  0.12509134288E+03 0.  0.
        -24    2    1    2    0    0 -0.58499193847E+02 -0.22755409148E+02  0.88498304516E+03  0.89102220127E+03  0.82374805593E+02 0.  0.
        -11    1    3    3    0    0 -0.38038542628E+01 -0.14349184991E+00  0.40312227744E+01  0.55444255086E+01  0.00000000000E+00 0.  1.
         12    1    3    3    0    0 -0.45748501446E+02 -0.19333842417E+02 -0.36459637446E+03  0.36796363831E+03  0.00000000000E+00 0. -1.
         13    1    5    5    0    0 -0.61876301589E+02 -0.10511889956E+02  0.86545176136E+03  0.86772456907E+03  0.00000000000E+00 0. -1.
        -14    1    5    5    0    0  0.33771077415E+01 -0.12243519192E+02  0.19531283806E+02  0.23297632198E+02  0.00000000000E+00 0.  1.
          5    1    4    4  501    0  0.94168160116E+02  0.18188975189E+01  0.49603052415E+02  0.10653115026E+03  0.41800000000E+01 0.  1.
         -5    1    4    4    0  501  0.13883389440E+02  0.40413845896E+02  0.15012059020E+03  0.15613997388E+03  0.41800000000E+01 0.  1.
</event>
<event>
11    1  0.8551154E-009  0.1554775E+03  0.7561462E-02  0.1091410E+00
         22   -1    0    0    0    0  0.00000000000E+00  0.00000000000E+00  0.18412447894E+04  0.18412447894E+04  0.00000000000E+00 0. -1.
         22   -1    0    0    0    0 -0.00000000000E+00 -0.00000000000E+00 -0.59139148091E+02  0.59139148091E+02  0.00000000000E+00 0.  1.
        -24    2    1    2    0    0 -0.56937552653E+02 -0.74002492792E+01  0.17135369084E+02  0.10202974684E+03  0.82582079019E+02 0.  0.
         25    2    1    2    0    0  0.13900000630E+03  0.16122354441E+02  0.62255501402E+03  0.65023308603E+03  0.12508952245E+03 0.  0.
         24    2    1    2    0    0 -0.82062453646E+02 -0.87221051614E+01  0.11424152583E+04  0.11481211047E+04  0.79114646378E+02 0.  0.
        -13    1    5    5    0    0 -0.34469563247E+02 -0.17275972857E+02  0.16242536028E+03  0.16693893401E+03  0.00000000000E+00 0.  1.
         14    1    5    5    0    0 -0.47592890400E+02  0.85538676952E+01  0.97998989798E+03  0.98118217065E+03  0.00000000000E+00 0. -1.
         13    1    3    3    0    0  0.17542197231E+01  0.39426547172E+01  0.38355332077E+02  0.38597322599E+02  0.00000000000E+00 0. -1.
        -14    1    3    3    0    0 -0.58691772376E+02 -0.11342903996E+02 -0.21219962993E+02  0.63432424242E+02  0.00000000000E+00 0.  1.
          5    1    4    4  501    0  0.94866038127E+02  0.68417217084E+02  0.43760249062E+03  0.45298332528E+03  0.41800000000E+01 0.  1.
         -5    1    4    4    0  501  0.44133968172E+02 -0.52294862643E+02  0.18495252340E+03  0.19724976075E+03  0.41800000000E+01 0.  1.
</event>
<event>
11    1  0.8551154E-009  0.1775263E+03  0.7561462E-02  0.1071662E+00
         22   -1    0    0    0    0  0.00000000000E+00  0.00000000000E+00  0.17720405049E+03  0.17720405049E+03  0.00000000000E+00 0. -1.
         22   -1    0    0    0    0 -0.00000000000E+00 -0.00000000000E+00 -0.14108784801E+04  0.14108784801E+04  0.00000000000E+00 0. -1.
         24    2    1    2    0    0 -0.86537601121E+02 -0.85290580617E+02 -0.11019422811E+04  0.11116388289E+04  0.81858753111E+02 0.  0.
         25    2    1    2    0    0  0.18379176843E+03  0.52020314350E+02 -0.22156742419E+03  0.31815749511E+03  0.12508613426E+03 0.  0.
        -24    2    1    2    0    0 -0.97254167313E+02  0.33270266267E+02  0.89835275637E+02  0.15828620663E+03  0.80117805661E+02 0.  0.
        -11    1    3    3    0    0  0.89830486119E+01  0.85002697535E+01 -0.11372314546E+03  0.11439363427E+03  0.00000000000E+00 0.  1.
         12    1    3    3    0    0 -0.95520649733E+02 -0.93790850371E+02 -0.98821913564E+03  0.99724519462E+03  0.00000000000E+00 0. -1.
         13    1    5    5    0    0 -0.10351787023E+03  0.13209199676E+02  0.89160832500E+02  0.13725919447E+03  0.00000000000E+00 0. -1.
        -14    1    5    5    0    0  0.62637029197E+01  0.20061066591E+02  0.67444313680E+00  0.21027012165E+02  0.00000000000E+00 0.  1.
          5    1    4    4  501    0  0.15087450318E+03  0.16761397405E+02 -0.22290885285E+03  0.26972187385E+03  0.41800000000E+01 0. -1.
         -5    1    4    4    0  501  0.32917265251E+02  0.35258916945E+02  0.13414286677E+01  0.48435621258E+02  0.41800000000E+01 0. -1.
</event>
<event>
11    1  0.8551154E-009  0.1863581E+03  0.7561462E-02  0.1064613E+00
         22   -1    0    0    0    0  0.00000000000E+00  0.00000000000E+00  0.74176199645E+03  0.74176199645E+03  0.00000000000E+00 0. -1.
         22   -1    0    0    0    0 -0.00000000000E+00 -0.00000000000E+00 -0.36178795732E+03  0.36178795732E+03  0.00000000000E+00 0. -1.
        -24    2    1    2    0    0 -0.15055897829E+02  0.91121717367E+00 -0.18731714884E+03  0.20491935520E+03  0.81711183505E+02 0.  0.
         25    2    1    2    0    0 -0.12024055989E+03  0.30946234742E+02 -0.10633875106E+03  0.20584183548E+03  0.12508984598E+03 0.  0.
         24    2    1    2    0    0  0.13529645772E+03 -0.31857451916E+02  0.67362993904E+03  0.69278876309E+03  0.82818758628E+02 0.  0.
        -11    1    5    5    0    0  0.70129305540E+02  0.16074084055E+02  0.20575002254E+03  0.21796689530E+03  0.00000000000E+00 0.  1.
         12    1    5    5    0    0  0.65167152178E+02 -0.47931535971E+02  0.46787991650E+03  0.47482186779E+03  0.00000000000E+00 0. -1.
         13    1    3    3    0    0 -0.34725560081E+02 -0.21105963714E+02 -0.15863559452E+03  0.16375768097E+03  0.00000000000E+00 0. -1.
        -14    1    3    3    0    0  0.19669662251E+02  0.22017180888E+02 -0.28681554318E+02  0.41161674230E+02  0.00000000000E+00 0.  1.
          5    1    4    4  501    0 -0.37399900421E+02  0.29453544529E+02 -0.11292580101E+03  0.12262125742E+03  0.41800000000E+01 0. -1.
         -5    1    4    4    0  501 -0.82840659467E+02  0.14926902132E+01  0.65870499505E+01  0.83220578057E+02  0.41800000000E+01 0. -1.
</event>
<event>
11    1  0.8551154E-009  0.1411221E+04  0.7561462E-02  0.8363500E-01
         22   -1    0    0    0    0  0.00000000000E+00  0.00000000000E+00  0.38218496094E+03  0.38218496094E+03  0.00000000000E+00 0.  1.
         22   -1    0    0    0    0 -0.00000000000E+00 -0.00000000000E+00 -0.13027355386E+04  0.13027355386E+04  0.00000000000E+00 0.  1.
        -24    2    1    2    0    0  0.45245320910E+02 -0.17816731965E+03 -0.13689241771E+03  0.24298322515E+03  0.80688170292E+02 0.  0.
         25    2    1    2    0    0 -0.21617037503E+03  0.50852759709E+03 -0.88293187912E+03  0.10490689974E+04  0.12508840872E+03 0.  0.
         24    2    1    2    0    0  0.17092505412E+03 -0.33036027744E+03  0.99273719172E+02  0.39286827703E+03  0.78338526549E+02 0.  0.
        -11    1    5    5    0    0  0.21497255004E+02 -0.95258925714E+02  0.15892996461E+01  0.97667398728E+02  0.00000000000E+00 0.  1.
         12    1    5    5    0    0  0.14942779912E+03 -0.23510135173E+03  0.97684419526E+02  0.29520087831E+03  0.00000000000E+00 0. -1.
         13    1    3    3    0    0 -0.23385895523E+02 -0.43445533565E+02 -0.28898636696E+02  0.57179941405E+02  0.00000000000E+00 0. -1.
        -14    1    3    3    0    0  0.68631216433E+02 -0.13472178609E+03 -0.10799378101E+03  0.18580328375E+03  0.00000000000E+00 0.  1.
          5    1    4    4  501    0 -0.22868301790E+03  0.50213973764E+03 -0.85656932561E+03  0.10189056486E+04  0.41800000000E+01 0.  1.
         -5    1    4    4    0  501  0.12512642868E+02  0.63878594581E+01 -0.26362553519E+02  0.30163348754E+02  0.41800000000E+01 0.  1.
</event>
<event>
11    1  0.8551154E-009  0.1399799E+03  0.7561462E-02  0.1107581E+00
         22   -1    0    0    0    0  0.00000000000E+00  0.00000000000E+00  0.72901861044E+03  0.72901861044E+03  0.00000000000E+00 0. -1.
         22   -1    0    0    0    0 -0.00000000000E+00 -0.00000000000E+00 -0.12234987043E+04  0.12234987043E+04  0.00000000000E+00 0. -1.
        -24    2    1    2    0    0 -0.29053367722E+02 -0.53248733277E+02 -0.10621178907E+04  0.10669126977E+04  0.80800773909E+02 0.  0.
         25    2    1    2    0    0  0.69109831156E+02  0.76834230689E+02 -0.11366903467E+03  0.19811336952E+03  0.12509432429E+03 0.  0.
         24    2    1    2    0    0 -0.40056463434E+02 -0.23585497412E+02  0.68130683149E+03  0.68749124751E+03  0.79400382968E+02 0.  0.
        -11    1    5    5    0    0  0.15974191350E+02  0.31975663712E+01  0.40083885593E+02  0.43267968570E+02  0.00000000000E+00 0.  1.
         12    1    5    5    0    0 -0.56030654784E+02 -0.26783063784E+02  0.64122294590E+03  0.64422327894E+03  0.00000000000E+00 0. -1.
         11    1    3    3    0    0 -0.46388247246E+02 -0.65033399687E+02 -0.81344389586E+03  0.81735682800E+03  0.00000000000E+00 0. -1.
        -12    1    3    3    0    0  0.17334879524E+02  0.11784666410E+02 -0.24867399485E+03  0.24955586974E+03  0.00000000000E+00 0.  1.
          5    1    4    4  501    0 -0.12984817418E+02  0.63028271854E+02 -0.10267733440E+02  0.65299826081E+02  0.41800000000E+01 0. -1.
         -5    1    4    4    0  501  0.82094648575E+02  0.13805958836E+02 -0.10340130123E+03  0.13281354344E+03  0.41800000000E+01 0. -1.
</event>
<event>
11    1  0.8551154E-009  0.1916233E+03  0.7561462E-02  0.1060611E+00
         22   -1    0    0    0    0  0.00000000000E+00  0.00000000000E+00  0.72174849938E+02  0.72174849938E+02  0.00000000000E+00 0.  1.
         22   -1    0    0    0    0 -0.00000000000E+00 -0.00000000000E+00 -0.14903857247E+04  0.14903857247E+04  0.00000000000E+00 0. -1.
        -24    2    1    2    0    0  0.13643177346E+03 -0.49370476558E+02 -0.11959265309E+04  0.12074481741E+04  0.81484679757E+02 0.  0.
         25    2    1    2    0    0 -0.14389198010E+03  0.30306703734E+02 -0.15695331881E+03  0.24880488286E+03  0.12508448034E+03 0.  0.
         24    2    1    2    0    0  0.74602066382E+01  0.19063772824E+02 -0.65331025071E+02  0.10630751770E+03  0.81326892024E+02 0.  0.
        -13    1    5    5    0    0  0.55314226098E+01  0.50819065153E+02 -0.32416282349E+02  0.60530896082E+02  0.00000000000E+00 0.  1.
         14    1    5    5    0    0  0.19287840284E+01 -0.31755292329E+02 -0.32914742722E+02  0.45776621623E+02  0.00000000000E+00 0. -1.
         11    1    3    3    0    0  0.14467093083E+03 -0.44245653936E+02 -0.11704464296E+04  0.11801831217E+04  0.00000000000E+00 0. -1.
        -12    1    3    3    0    0 -0.82391573667E+01 -0.51248226222E+01 -0.25480101313E+02  0.27265052429E+02  0.00000000000E+00 0.  1.
          5    1    4    4  501    0  0.17293239533E+02 -0.16677722330E+02 -0.13152095862E+02  0.27706544014E+02  0.41800000000E+01 0. -1.
         -5    1    4    4    0  501 -0.16118521963E+03  0.46984426064E+02 -0.14380122295E+03  0.22109833885E+03  0.41800000000E+01 0. -1.
</event>
<event>
11    1  0.8551154E-009  0.2045279E+03  0.7561462E-02  0.1051367E+00
         22   -1    0    0    0    0  0.00000000000E+00  0.00000000000E+00  0.11311272376E+04  0.11311272376E+04  0.00000000000E+00 0. -1.
         22   -1    0    0    0    0 -0.00000000000E+00 -0.00000000000E+00 -0.90659696637E+03  0.90659696637E+03  0.00000000000E+00 0.  1.
        -24    2    1    2    0    0  0.38468111682E+02  0.39780344614E+02 -0.80702674914E+03  0.81296566952E+03  0.80986014644E+02 0.  0.
         25    2    1    2    0    0 -0.14561737420E+03 -0.15465452700E+03  0.83603103455E+02  0.26030732481E+03  0.12509189444E+03 0.  0.
         24    2    1    2    0    0  0.10714926252E+03  0.11487418239E+03  0.94795391692E+03  0.96445120964E+03  0.82900331281E+02 0.  0.
        -11    1    5    5    0    0  0.19224973711E+02  0.49083233939E+02  0.15035060289E+03  0.15932378121E+03  0.00000000000E+00 0.  1.
         12    1    5    5    0    0  0.87924288806E+02  0.65790948449E+02  0.79760331403E+03  0.80512742843E+03  0.00000000000E+00 0. -1.
         13    1    3    3    0    0  0.21602050264E+02  0.45427084742E+01 -0.46895370406E+02  0.51831076985E+02  0.00000000000E+00 0. -1.
        -14    1    3    3    0    0  0.16866061418E+02  0.35237636139E+02 -0.76013137873E+03  0.76113459254E+03  0.00000000000E+00 0.  1.
          5    1    4    4  501    0 -0.12029006493E+03 -0.38613513754E+02  0.56240979662E+02  0.13835181010E+03  0.41800000000E+01 0.  1.
         -5    1    4    4    0  501 -0.25327309268E+02 -0.11604101325E+03  0.27362123793E+02  0.12195551471E+03  0.41800000000E+01 0.  1.
</event>
<event>
11    1  0.8551154E-009  0.1604319E+03  0.7561462E-02  0.1086672E+00
         22   -1    0    0    0    0  0.00000000000E+00  0.00000000000E+00  0.87299016854E+02  0.87299016854E+02  0.00000000000E+00 0.  1.
         22   -1    0    0    0    0 -0.00000000000E+00 -0.00000000000E+00 -0.18545538618E+04  0.18545538618E+04  0.00000000000E+00 0.  1.
        -24    2    1    2    0    0  0.10709822986E+03  0.78256875544E+01 -0.15268950155E+04  0.15326437996E+04  0.77829017647E+02 0.  0.
         25    2    1    2    0    0 -0.59008495247E+02 -0.15131364017E+02 -0.26962943961E+03  0.30339728355E+03  0.12505565270E+03 0.  0.
         24    2    1    2    0    0 -0.48089734617E+02  0.73056764626E+01  0.29269610186E+02  0.10581179545E+03  0.89294067501E+02 0.  0.
        -11    1    5    5    0    0 -0.23763163047E+02 -0.15549913840E+01  0.60633613905E+02  0.65142467342E+02  0.00000000000E+00 0.  1.
         12    1    5    5    0    0 -0.24326571570E+02  0.88606678466E+01 -0.31364003720E+02  0.40669328103E+02  0.00000000000E+00 0. -1.
         11    1    3    3    0    0  0.82462956967E+01 -0.83444568614E+01 -0.27386066545E+02  0.29793086343E+02  0.00000000000E+00 0. -1.
        -12    1    3    3    0    0  0.98851934168E+02  0.16170144416E+02 -0.14995089489E+04  0.15028507133E+04  0.00000000000E+00 0.  1.
          5    1    4    4  501    0 -0.14830328568E+02 -0.64658302161E+02 -0.90228356610E+02  0.11206811955E+03  0.41800000000E+01 0.  1.
         -5    1    4    4    0  501 -0.44178166679E+02  0.49526938144E+02 -0.17940108300E+03  0.19132916399E+03  0.41800000000E+01 0.  1.
</event>
<event>
11    1  0.8551154E-009  0.1498486E+03  0.7561462E-02  0.1097034E+00
         22   -1    0    0    0    0  0.00000000000E+00  0.00000000000E+00  0.20179990641E+03  0.20179990641E+03  0.00000000000E+00 0.  1.
         22   -1    0    0    0    0 -0.00000000000E+00 -0.00000000000E+00 -0.78277938651E+03  0.78277938651E+03  0.00000000000E+00 0.  1.
         24    2    1    2    0    0 -0.72818526996E+02  0.43916750044E+02 -0.61042452500E+03  0.62124470981E+03  0.78074771469E+02 0.  0.
         25    2    1    2    0    0 -0.26837240128E+01 -0.88027912564E+02 -0.10350355034E+03  0.18470591336E+03  0.12508866348E+03 0.  0.
        -24    2    1    2    0    0  0.75502251009E+02  0.44111162520E+02  0.13294859524E+03  0.17862866976E+03  0.81157181558E+02 0.  0.
        -13    1    3    3    0    0  0.71051341775E+01 -0.27365969864E+01 -0.21501902355E+03  0.21515378775E+03  0.00000000000E+00 0.  1.
         14    1    3    3    0    0 -0.79923661173E+02  0.46653347030E+02 -0.39540550145E+03  0.40609092206E+03  0.00000000000E+00 0. -1.
         11    1    5    5    0    0 -0.99861007173E+01  0.22227304590E+02  0.79738814999E+01  0.25638994969E+02  0.00000000000E+00 0. -1.
        -12    1    5    5    0    0  0.85488351726E+02  0.21883857930E+02  0.12497471374E+03  0.15298967479E+03  0.00000000000E+00 0.  1.
          5    1    4    4  501    0  0.32569313803E+02 -0.31680272524E+02 -0.10871747674E+03  0.11790403732E+03  0.41800000000E+01 0. -1.
         -5    1    4    4    0  501 -0.35253037816E+02 -0.56347640040E+02  0.52139263948E+01  0.66801876035E+02  0.41800000000E+01 0. -1.
</event>
<event>
11    1  0.8551154E-009  0.3071435E+03  0.7561462E-02  0.9972124E-01
         22   -1    0    0    0    0  0.00000000000E+00  0.00000000000E+00  0.13921522135E+04  0.13921522135E+04  0.00000000000E+00 0. -1.
         22   -1    0    0    0    0 -0.00000000000E+00 -0.00000000000E+00 -0.25397936708E+03  0.25397936708E+03  0.00000000000E+00 0.  1.
         24    2    1    2    0    0  0.37473308119E+02  0.80650900359E+02 -0.85104660954E+02  0.14653638902E+03  0.79506562244E+02 0.  0.
         25    2    1    2    0    0  0.12749453821E+03 -0.30029954254E+03  0.13540534599E+03  0.37472111883E+03  0.12508651665E+03 0.  0.
        -24    2    1    2    0    0 -0.16496784633E+03  0.21964864219E+03  0.10878721614E+04  0.11248740727E+04  0.80099460922E+02 0.  0.
        -11    1    3    3    0    0  0.36254025358E+02  0.24228671403E+02 -0.78391784622E+02  0.89703148043E+02  0.00000000000E+00 0.  1.
         12    1    3    3    0    0  0.12192827612E+01  0.56422228957E+02 -0.67128763314E+01  0.56833240973E+02  0.00000000000E+00 0. -1.
         11    1    5    5    0    0 -0.15409473732E+02  0.53323171207E+02  0.33174805314E+03  0.33635930674E+03  0.00000000000E+00 0. -1.
        -12    1    5    5    0    0 -0.14955837260E+03  0.16632547098E+03  0.75612410824E+03  0.78851476598E+03  0.00000000000E+00 0.  1.
          5    1    4    4  501    0  0.72649472129E+02 -0.18722346760E+03  0.14630989621E+03  0.24850479019E+03  0.41800000000E+01 0.  1.
         -5    1    4    4    0  501  0.54845066082E+02 -0.11307607495E+03 -0.10904550220E+02  0.12621632863E+03  0.41800000000E+01 0.  1.
</event>
<event>
11    1  0.8551154E-009  0.1571273E+03  0.7561462E-02  0.1089811E+00
         22   -1    0    0    0    0  0.00000000000E+00  0.00000000000E+00  0.72972846705E+03  0.72972846705E+03  0.00000000000E+00 0. -1.
         22   -1    0    0    0    0 -0.00000000000E+00 -0.00000000000E+00 -0.67587757157E+03  0.67587757157E+03  0.00000000000E+00 0. -1.
        -24    2    1    2    0    0  0.26167299205E+02 -0.87833502041E+02 -0.57850698439E+03  0.59124336794E+03  0.80615988039E+02 0.  0.
         25    2    1    2    0    0 -0.52575128889E+02  0.15044001385E+03  0.32355713766E+02  0.20516030290E+03  0.12509003049E+03 0.  0.
         24    2    1    2    0    0  0.26407829684E+02 -0.62606511808E+02  0.60000216610E+03  0.60920236778E+03  0.80672032298E+02 0.  0.
        -11    1    5    5    0    0  0.20685674742E+02 -0.25881837093E+02  0.65439462375E+02  0.73349095882E+02  0.00000000000E+00 0.  1.
         12    1    5    5    0    0  0.57221549423E+01 -0.36724674715E+02  0.53456270372E+03  0.53585327189E+03  0.00000000000E+00 0. -1.
         13    1    3    3    0    0  0.50136257218E+02 -0.79623879386E+02 -0.39825846030E+03  0.40922293149E+03  0.00000000000E+00 0. -1.
        -14    1    3    3    0    0 -0.23968958013E+02 -0.82096226544E+01 -0.18024852409E+03  0.18202043646E+03  0.00000000000E+00 0.  1.
          5    1    4    4  501    0 -0.10548768176E+02  0.60360601049E+02 -0.47455002338E+02  0.77615258267E+02  0.41800000000E+01 0. -1.
         -5    1    4    4    0  501 -0.42026360714E+02  0.90079412800E+02  0.79810716104E+02  0.12754504463E+03  0.41800000000E+01 0. -1.
</event>
<event>
11    1  0.8551154E-009  0.1484770E+03  0.7561462E-02  0.1098445E+00
         22   -1    0    0    0    0  0.00000000000E+00  0.00000000000E+00  0.51125391369E+03  0.51125391369E+03  0.00000000000E+00 0.  1.
         22   -1    0    0    0    0 -0.00000000000E+00 -0.00000000000E+00 -0.10130528496E+04  0.10130528496E+04  0.00000000000E+00 0. -1.
        -24    2    1    2    0    0 -0.18440126187E+02  0.56693054738E+01 -0.91847265035E+03  0.92223722103E+03  0.80977176571E+02 0.  0.
         25    2    1    2    0    0  0.38216366328E+02  0.71892747529E+02 -0.19969742354E+02  0.15058526081E+03  0.12509225539E+03 0.  0.
         24    2    1    2    0    0 -0.19776240141E+02 -0.77562053003E+02  0.43664345681E+03  0.45148428143E+03  0.82301739160E+02 0.  0.
        -11    1    5    5    0    0 -0.45868129009E+02 -0.58606697302E+02  0.37045880942E+03  0.37786023832E+03  0.00000000000E+00 0.  1.
         12    1    5    5    0    0  0.26091888868E+02 -0.18955355701E+02  0.66184647388E+02  0.73624043113E+02  0.00000000000E+00 0. -1.
         13    1    3    3    0    0  0.14074121273E+02 -0.54531010814E+01 -0.75690758184E+03  0.75705805897E+03  0.00000000000E+00 0. -1.
        -14    1    3    3    0    0 -0.32514247460E+02  0.11122406555E+02 -0.16156506851E+03  0.16517916206E+03  0.00000000000E+00 0.  1.
          5    1    4    4  501    0  0.54338426965E+02 -0.14955722951E+02 -0.25459782639E+02  0.61983959425E+02  0.41800000000E+01 0. -1.
         -5    1    4    4    0  501 -0.16122060637E+02  0.86848470480E+02  0.54900402848E+01  0.88601301380E+02  0.41800000000E+01 0. -1.
</event>
<event>
11    1  0.8551154E-009  0.1617985E+03  0.7561462E-02  0.1085398E+00
         22   -1    0    0    0    0  0.00000000000E+00  0.00000000000E+00  0.64473633801E+02  0.64473633801E+02  0.00000000000E+00 0.  1.
         22   -1    0    0    0    0 -0.00000000000E+00 -0.00000000000E+00 -0.13939687665E+04  0.13939687665E+04  0.00000000000E+00 0.  1.
         24    2    1    2    0    0  0.29648810289E+02  0.99506720040E+02 -0.95155851948E+03  0.96051955955E+03  0.79709278077E+02 0.  0.
         25    2    1    2    0    0  0.56096163372E+02 -0.11125894902E+03 -0.32129391303E+03  0.36660926287E+03  0.12508892753E+03 0.  0.
        -24    2    1    2    0    0 -0.85744973661E+02  0.11752228977E+02 -0.56642700206E+02  0.13131357789E+03  0.80898361282E+02 0.  0.
        -13    1    3    3    0    0  0.18272870884E+02  0.10072422240E+03 -0.93380247004E+03  0.93939678509E+03  0.00000000000E+00 0.  1.
         14    1    3    3    0    0  0.11375939405E+02 -0.12175023631E+01 -0.17756049438E+02  0.21122774463E+02  0.00000000000E+00 0. -1.
         11    1    5    5    0    0 -0.60165957468E+02 -0.31718342013E+02 -0.33599578915E+02  0.75861237541E+02  0.00000000000E+00 0. -1.
        -12    1    5    5    0    0 -0.25579016194E+02  0.43470570989E+02 -0.23043121291E+02  0.55452340351E+02  0.00000000000E+00 0.  1.
          5    1    4    4  501    0  0.64861793125E+02 -0.32151220547E+01 -0.15445398844E+03  0.16760338947E+03  0.41800000000E+01 0. -1.
         -5    1    4    4    0  501 -0.87656297524E+01 -0.10804382696E+03 -0.16683992459E+03  0.19900587340E+03  0.41800000000E+01 0. -1.
</event>
<event>
11    1  0.8551154E-009  0.1461024E+03  0.7561462E-02  0.1100929E+00
         22   -1    0    0    0    0  0.00000000000E+00  0.00000000000E+00  0.31752370480E+04  0.31752370480E+04  0.00000000000E+00 0.  1.
         22   -1    0    0    0    0 -0.00000000000E+00 -0.00000000000E+00 -0.31350154001E+02  0.31350154001E+02  0.00000000000E+00 0. -1.
         24    2    1    2    0    0  0.14559353642E+02  0.21345338778E+02  0.56973267194E+02  0.10257006239E+03  0.81283862219E+02 0.  0.
         25    2    1    2    0    0  0.17570259497E+02  0.51320745635E+02  0.63682847779E+03  0.65126078701E+03  0.12509024591E+03 0.  0.
        -24    2    1    2    0    0 -0.32129613139E+02 -0.72666084413E+02  0.24500851490E+04  0.24527563526E+04  0.82363923871E+02 0.  0.
        -11    1    3    3    0    0 -0.31957074639E+02 -0.29206830821E+01  0.15212131582E+02  0.35513292672E+02  0.00000000000E+00 0.  1.
         12    1    3    3    0    0  0.46516428281E+02  0.24266021860E+02  0.41761135612E+02  0.67056769714E+02  0.00000000000E+00 0. -1.
         11    1    5    5    0    0 -0.43980074322E+01  0.81837541426E+01  0.36687339925E+02  0.37845438457E+02  0.00000000000E+00 0. -1.
        -12    1    5    5    0    0 -0.27731605706E+02 -0.80849838556E+02  0.24133978091E+04  0.24149109141E+04  0.00000000000E+00 0.  1.
          5    1    4    4  501    0 -0.53644664998E+02  0.13024794981E+02  0.26374971092E+03  0.26949726859E+03  0.41800000000E+01 0. -1.
         -5    1    4    4    0  501  0.71214924495E+02  0.38295950655E+02  0.37307876687E+03  0.38176351842E+03  0.41800000000E+01 0. -1.
</event>
<event>
11    1  0.8551154E-009  0.2027383E+03  0.7561462E-02  0.1052604E+00
         22   -1    0    0    0    0  0.00000000000E+00  0.00000000000E+00  0.13481716908E+03  0.13481716908E+03  0.00000000000E+00 0. -1.
         22   -1    0    0    0    0 -0.00000000000E+00 -0.00000000000E+00 -0.23565219723E+04  0.23565219723E+04  0.00000000000E+00 0. -1.
         24    2    1    2    0    0  0.17237340904E+02 -0.38630347966E+02 -0.20459010867E+04  0.20479024243E+04  0.80022829760E+02 0.  0.
         25    2    1    2    0    0  0.14691003756E+03  0.13287201345E+02 -0.17317379860E+03  0.25960695756E+03  0.12508996376E+03 0.  0.
        -24    2    1    2    0    0 -0.16414737847E+03  0.25343146621E+02 -0.26299179797E+01  0.18382975956E+03  0.78738980772E+02 0.  0.
        -11    1    3    3    0    0  0.22305413481E+02 -0.10662819971E+02 -0.17022359030E+03  0.17200958664E+03  0.00000000000E+00 0.  1.
         12    1    3    3    0    0 -0.50680725772E+01 -0.27967527995E+02 -0.18756774964E+04  0.18758928377E+04  0.00000000000E+00 0. -1.
         11    1    5    5    0    0 -0.13722470538E+03  0.24413770656E+02  0.28915321631E+02  0.14234727882E+03  0.00000000000E+00 0. -1.
        -12    1    5    5    0    0 -0.26922673093E+02  0.92937596543E+00 -0.31545239611E+02  0.41482480739E+02  0.00000000000E+00 0.  1.
          5    1    4    4  501    0 -0.11721401639E+01  0.25531855729E+02  0.62160971183E+01  0.26633847505E+02  0.41800000000E+01 0.  1.
         -5    1    4    4    0  501  0.14808217773E+03 -0.12244654384E+02 -0.17938989572E+03  0.23297311005E+03  0.41800000000E+01 0.  1.
</event>
<event>
11    1  0.8551154E-009  0.1321564E+03  0.7561462E-02  0.1116647E+00
         22   -1    0    0    0    0  0.00000000000E+00  0.00000000000E+00  0.14252488901E+04  0.14252488901E+04  0.00000000000E+00 0.  1.
         22   -1    0    0    0    0 -0.00000000000E+00 -0.00000000000E+00 -0.32523715711E+02  0.32523715711E+02  0.00000000000E+00 0. -1.
        -24    2    1    2    0    0 -0.19253423117E+02 -0.47374800219E+02  0.92968167804E+02  0.13439357908E+03  0.82483258155E+02 0.  0.
         25    2    1    2    0    0  0.18577395598E+01  0.12109458254E+02  0.40157644234E+03  0.42078526483E+03  0.12508600991E+03 0.  0.
         24    2    1    2    0    0  0.17395683558E+02  0.35265341966E+02  0.89818056427E+03  0.90259376193E+03  0.80005742861E+02 0.  0.
        -11    1    5    5    0    0 -0.75002774176E+01  0.32834704407E+02  0.81590017239E+03  0.81659504241E+03  0.00000000000E+00 0.  1.
         12    1    5    5    0    0  0.24895960975E+02  0.24306375582E+01  0.82280391879E+02  0.85998719523E+02  0.00000000000E+00 0. -1.
         11    1    3    3    0    0 -0.40387415328E+02 -0.49660053709E+02  0.93284754923E+02  0.11313403446E+03  0.00000000000E+00 0. -1.
        -12    1    3    3    0    0  0.21133992210E+02  0.22852534897E+01 -0.31658711895E+00  0.21259544625E+02  0.00000000000E+00 0.  1.
          5    1    4    4  501    0  0.23184917666E+02 -0.47570522048E+02  0.26360151679E+03  0.26889352359E+03  0.41800000000E+01 0.  1.
         -5    1    4    4    0  501 -0.21327178106E+02  0.59679980302E+02  0.13797492555E+03  0.15189174124E+03  0.41800000000E+01 0.  1.
</event>
<event>
11    1  0.8551154E-009  0.1336238E+03  0.7561462E-02  0.1114895E+00
         22   -1    0    0    0    0  0.00000000000E+00  0.00000000000E+00  0.24291398313E+03  0.24291398313E+03  0.00000000000E+00 0. -1.
         22   -1    0    0    0    0 -0.00000000000E+00 -0.00000000000E+00 -0.17028844981E+04  0.17028844981E+04  0.00000000000E+00 0.  1.
        -24    2    1    2    0    0 -0.42572131705E+02  0.18996756864E+02 -0.16379394496E+04  0.16406041655E+04  0.81013110559E+02 0.  0.
         25    2    1    2    0    0  0.65314823488E+02 -0.48097511804E+02  0.67578451921E+02  0.16368714588E+03  0.12508891939E+03 0.  0.
         24    2    1    2    0    0 -0.22742691782E+02  0.29100754940E+02  0.11039048273E+03  0.14150716984E+03  0.80462018815E+02 0.  0.
        -13    1    5    5    0    0  0.14406327335E+02 -0.17776233509E+02  0.10720848623E+02  0.25268030003E+02  0.00000000000E+00 0.  1.
         14    1    5    5    0    0 -0.37149019118E+02  0.46876988449E+02  0.99669634106E+02  0.11623913984E+03  0.00000000000E+00 0. -1.
         11    1    3    3    0    0 -0.67041071895E+02  0.14390614535E+02 -0.11971447797E+04  0.11991068420E+04  0.00000000000E+00 0. -1.
        -12    1    3    3    0    0  0.24468940190E+02  0.46061423294E+01 -0.44079466991E+03  0.44149732344E+03  0.00000000000E+00 0.  1.
          5    1    4    4  501    0  0.92262791289E+02 -0.52906393329E+00  0.29593687434E+02  0.96984335338E+02  0.41800000000E+01 0.  1.
         -5    1    4    4    0  501 -0.26947967801E+02 -0.47568447871E+02  0.37984764487E+02  0.66702810545E+02  0.41800000000E+01 0.  1.
</event>
<event>
11    1  0.8551154E-009  0.2357092E+03  0.7561462E-02  0.1031800E+00
         22   -1    0    0    0    0  0.00000000000E+00  0.00000000000E+00  0.73811355538E+03  0.73811355538E+03  0.00000000000E+00 0. -1.
         22   -1    0    0    0    0 -0.00000000000E+00 -0.00000000000E+00 -0.24821400409E+04  0.24821400409E+04  0.00000000000E+00 0. -1.
         24    2    1    2    0    0 -0.12352487002E+03 -0.15893968518E+03 -0.23647664170E+04  0.23746957265E+04  0.80866368765E+02 0.  0.
         25    2    1    2    0    0  0.16479281568E+03  0.79444016334E+02  0.89667797026E+01  0.22179999350E+03  0.12508721017E+03 0.  0.
        -24    2    1    2    0    0 -0.41267945662E+02  0.79495668847E+02  0.61177315180E+03  0.62375787622E+03  0.82370469150E+02 0.  0.
        -11    1    3    3    0    0 -0.43891146446E+02 -0.61366376748E+02 -0.13560482892E+04  0.13581455105E+04  0.00000000000E+00 0.  1.
         12    1    3    3    0    0 -0.79633723573E+02 -0.97573308433E+02 -0.10087181277E+04  0.10165502160E+04  0.00000000000E+00 0. -1.
         11    1    5    5    0    0 -0.48333370283E+02  0.12653410013E+02  0.34739018685E+03  0.35096462128E+03  0.00000000000E+00 0. -1.
        -12    1    5    5    0    0  0.70654246216E+01  0.66842258834E+02  0.26438296494E+03  0.27279325494E+03  0.00000000000E+00 0.  1.
          5    1    4    4  501    0  0.16999101441E+03  0.94474389920E+02  0.28130599126E+02  0.19654810693E+03  0.41800000000E+01 0.  1.
         -5    1    4    4    0  501 -0.51981987340E+01 -0.15030373586E+02 -0.19163819423E+02  0.25251886565E+02  0.41800000000E+01 0.  1.
</event>
<event>
11    1  0.8551154E-009  0.1984218E+03  0.7561462E-02  0.1055645E+00
         22   -1    0    0    0    0  0.00000000000E+00  0.00000000000E+00  0.70588514910E+02  0.70588514910E+02  0.00000000000E+00 0. -1.
         22   -1    0    0    0    0 -0.00000000000E+00 -0.00000000000E+00 -0.15343600186E+04  0.15343600186E+04  0.00000000000E+00 0. -1.
         24    2    1    2    0    0  0.57071607486E+01 -0.27732379292E+02 -0.63263893696E+03  0.63843042720E+03  0.80992155549E+02 0.  0.
         25    2    1    2    0    0 -0.13162574680E+03 -0.63960918997E+02 -0.74869439986E+03  0.77305160098E+03  0.12509651079E+03 0.  0.
        -24    2    1    2    0    0  0.12591858606E+03  0.91693298289E+02 -0.82438166847E+02  0.19346650532E+03  0.79812818906E+02 0.  0.
        -13    1    3    3    0    0 -0.54948972856E+01 -0.45373097574E+02 -0.19467215676E+03  0.19996539825E+03  0.00000000000E+00 0.  1.
         14    1    3    3    0    0  0.11202058034E+02  0.17640718281E+02 -0.43796678020E+03  0.43846502895E+03  0.00000000000E+00 0. -1.
         11    1    5    5    0    0  0.10577748105E+03  0.10341882537E+03 -0.55887937572E+02  0.15813851683E+03  0.00000000000E+00 0. -1.
        -12    1    5    5    0    0  0.20141105007E+02 -0.11725527083E+02 -0.26550229275E+02  0.35327988491E+02  0.00000000000E+00 0.  1.
          5    1    4    4  501    0 -0.39076738076E+02  0.38014847405E+02 -0.20328611078E+03  0.21051089121E+03  0.41800000000E+01 0.  1.
         -5    1    4    4    0  501 -0.92549008728E+02 -0.10197576640E+03 -0.54540828908E+03  0.56254070977E+03  0.41800000000E+01 0.  1.
</event>
<event>
11    1  0.8551154E-009  0.1386604E+03  0.7561462E-02  0.1109064E+00
         22   -1    0    0    0    0  0.00000000000E+00  0.00000000000E+00  0.16486943899E+03  0.16486943899E+03  0.00000000000E+00 0.  1.
         22   -1    0    0    0    0 -0.00000000000E+00 -0.00000000000E+00 -0.22476003272E+04  0.22476003272E+04  0.00000000000E+00 0.  1.
         24    2    1    2    0    0 -0.95415214475E+01 -0.20465655948E+02 -0.20538972304E+04  0.20555861954E+04  0.80192829898E+02 0.  0.
         25    2    1    2    0    0  0.67506553270E+02  0.29698755185E+02 -0.14588150043E+03  0.20583317952E+03  0.12508690910E+03 0.  0.
        -24    2    1    2    0    0 -0.57965031822E+02 -0.92330992369E+01  0.11704784260E+03  0.15105039129E+03  0.75304901662E+02 0.  0.
        -13    1    3    3    0    0 -0.13313082633E+02 -0.49422206021E+02 -0.10279650615E+04  0.10292385342E+04  0.00000000000E+00 0.  1.
         14    1    3    3    0    0  0.37715611859E+01  0.28956550073E+02 -0.10259321689E+04  0.10263476612E+04  0.00000000000E+00 0. -1.
         11    1    5    5    0    0 -0.40297471619E+02 -0.75067890459E+00  0.90752610210E+01  0.41313558310E+02  0.00000000000E+00 0. -1.
        -12    1    5    5    0    0 -0.17667560204E+02 -0.84824203323E+01  0.10797258158E+03  0.10973683298E+03  0.00000000000E+00 0.  1.
          5    1    4    4  501    0  0.32434344598E+02  0.76041025772E+02 -0.60770859449E+02  0.10268784771E+03  0.41800000000E+01 0. -1.
         -5    1    4    4    0  501  0.35072208672E+02 -0.46342270587E+02 -0.85110640984E+02  0.10314533180E+03  0.41800000000E+01 0. -1.
</event>
<event>
11    1  0.9250495E-009  0.1557217E+03  0.7561462E-02  0.1091172E+00
         22   -1    0    0    0    0  0.00000000000E+00  0.00000000000E+00  0.18344387152E+03  0.18344387152E+03  0.00000000000E+00 0.  1.
         22   -1    0    0    0    0 -0.00000000000E+00 -0.00000000000E+00 -0.13954016887E+04  0.13954016887E+04  0.00000000000E+00 0. -1.
         24    2    1    2    0    0  0.41740153691E+02 -0.53786343257E+01 -0.10761229949E+04  0.10798621390E+04  0.79311846667E+02 0.  0.
         25    2    1    2    0    0 -0.88609255092E+02 -0.73167481473E+02 -0.26950963927E+03  0.31857201288E+03  0.12509037253E+03 0.  0.
        -24    2    1    2    0    0  0.46869101401E+02  0.78546115799E+02  0.13367481693E+03  0.18041140837E+03  0.79455110702E+02 0.  0.
        -13    1    3    3    0    0 -0.12322161000E+02 -0.18713334485E+02 -0.11711941312E+03  0.11924337076E+03  0.00000000000E+00 0.  1.
         14    1    3    3    0    0  0.54062314691E+02  0.13334700159E+02 -0.95900358176E+03  0.96061876825E+03  0.00000000000E+00 0. -1.
         11    1    5    5    0    0  0.16799277029E+02 -0.12048306558E+02  0.70578303464E+01  0.21844687428E+02  0.00000000000E+00 0. -1.
        -12    1    5    5    0    0  0.30069824372E+02  0.90594422357E+02  0.12661698658E+03  0.15856672094E+03  0.00000000000E+00 0.  1.
          5    1    4    4  501    0 -0.49534724624E+02 -0.14473248100E+02 -0.23372260286E+03  0.23938857814E+03  0.41800000000E+01 0.  1.
         -5    1    4    4    0  501 -0.39074530469E+02 -0.58694233373E+02 -0.35787036400E+02  0.79183434738E+02  0.41800000000E+01 0.  1.
</event>
<event>
11    1  0.8551154E-009  0.1606444E+03  0.7561462E-02  0.1086473E+00
         22   -1    0    0    0    0  0.00000000000E+00  0.00000000000E+00  0.26316821621E+03  0.26316821621E+03  0.00000000000E+00 0. -1.
         22   -1    0    0    0    0 -0.00000000000E+00 -0.00000000000E+00 -0.55157843208E+03  0.55157843208E+03  0.00000000000E+00 0.  1.
        -24    2    1    2    0    0  0.75090138679E+02 -0.69644871090E+02 -0.44950700677E+03  0.46812344051E+03  0.81203875671E+02 0.  0.
         25    2    1    2    0    0 -0.57343959729E+02  0.68265601231E+02 -0.12839574532E+02  0.15414085773E+03  0.12508408099E+03 0.  0.
         24    2    1    2    0    0 -0.17746178950E+02  0.13792698586E+01  0.17393636543E+03  0.19248235006E+03  0.80490785885E+02 0.  0.
        -11    1    5    5    0    0 -0.34682807679E+02  0.91337724854E+01  0.28371155064E+02  0.45730136540E+02  0.00000000000E+00 0.  1.
         12    1    5    5    0    0  0.16936628730E+02 -0.77545026268E+01  0.14556521036E+03  0.14675221352E+03  0.00000000000E+00 0. -1.
         13    1    3    3    0    0  0.12808525583E+02 -0.61545661976E+02 -0.16053130650E+03  0.17240135499E+03  0.00000000000E+00 0. -1.
        -14    1    3    3    0    0  0.62281613096E+02 -0.80992091136E+01 -0.28897570027E+03  0.29572208552E+03  0.00000000000E+00 0.  1.
          5    1    4    4  501    0 -0.77975794731E+02  0.22614942613E+02  0.31425808474E+02  0.87159130512E+02  0.41800000000E+01 0. -1.
         -5    1    4    4    0  501  0.20631835002E+02  0.45650658619E+02 -0.44265383006E+02  0.66981727214E+02  0.41800000000E+01 0. -1.
</event>
<event>
11    1  0.8551154E-009  0.2906491E+03  0.7561462E-02  0.1004228E+00
         22   -1    0    0    0    0  0.00000000000E+00  0.00000000000E+00  0.11079823724E+03  0.11079823724E+03  0.00000000000E+00 0. -1.
         22   -1    0    0    0    0 -0.00000000000E+00 -0.00000000000E+00 -0.11191274826E+04  0.11191274826E+04  0.00000000000E+00 0. -1.
         24    2    1    2    0    0  0.14119589613E+02 -0.41932056258E+02 -0.16232348075E+03  0.18618744590E+03  0.79744544982E+02 0.  0.
         25    2    1    2    0    0 -0.25155470970E+03  0.13142241840E+03 -0.62463630181E+03  0.69740197716E+03  0.12508950465E+03 0.  0.
        -24    2    1    2    0    0  0.23743512008E+03 -0.89490362140E+02 -0.22136946284E+03  0.34633629681E+03  0.80996482950E+02 0.  0.
        -11    1    3    3    0    0 -0.74803869652E+01  0.56579640794E+01  0.51838817786E+01  0.10716406906E+02  0.00000000000E+00 0.  1.
         12    1    3    3    0    0  0.21599976579E+02 -0.47590020338E+02 -0.16750736253E+03  0.17547103899E+03  0.00000000000E+00 0. -1.
         11    1    5    5    0    0  0.10334620863E+03  0.62160642787E+00 -0.10424186921E+03  0.14678961996E+03  0.00000000000E+00 0. -1.
        -12    1    5    5    0    0  0.13408891145E+03 -0.90111968568E+02 -0.11712759363E+03  0.19954667685E+03  0.00000000000E+00 0.  1.
          5    1    4    4  501    0  0.21015777169E+01  0.27306901799E+02 -0.11909509060E+03  0.12227508544E+03  0.41800000000E+01 0. -1.
         -5    1    4    4    0  501 -0.25365628741E+03  0.10411551660E+03 -0.50554121121E+03  0.57512689171E+03  0.41800000000E+01 0. -1.
</event>
<event>
11    1  0.8551154E-009  0.1339279E+03  0.7561462E-02  0.1114535E+00
         22   -1    0    0    0    0  0.00000000000E+00  0.00000000000E+00  0.10005889282E+04  0.10005889282E+04  0.00000000000E+00 0. -1.
         22   -1    0    0    0    0 -0.00000000000E+00 -0.00000000000E+00 -0.28685615000E+03  0.28685615000E+03  0.00000000000E+00 0.  1.
         24    2    1    2    0    0 -0.54930340094E+01  0.36238912085E+02 -0.97508391089E+02  0.13180223274E+03  0.80749675234E+02 0.  0.
         25    2    1    2    0    0 -0.91616839193E+01 -0.68096257619E+02 -0.14029418492E+03  0.20012734675E+03  0.12508980710E+03 0.  0.
        -24    2    1    2    0    0  0.14654717929E+02  0.31857345534E+02  0.95153535419E+03  0.95551549868E+03  0.79753913524E+02 0.  0.
        -13    1    3    3    0    0  0.21442535083E+02  0.38201493275E+02 -0.95079294442E+02  0.10468623898E+03  0.00000000000E+00 0.  1.
         14    1    3    3    0    0 -0.26935569092E+02 -0.19625811898E+01 -0.24290966469E+01  0.27115993763E+02  0.00000000000E+00 0. -1.
         11    1    5    5    0    0  0.22912692124E+02  0.54260296702E+02  0.79393055409E+03  0.79611236391E+03  0.00000000000E+00 0. -1.
        -12    1    5    5    0    0 -0.82579741950E+01 -0.22402951168E+02  0.15760480010E+03  0.15940313477E+03  0.00000000000E+00 0.  1.
          5    1    4    4  501    0  0.17726364032E+01 -0.86710857939E+02 -0.15212218467E+03  0.17515863265E+03  0.41800000000E+01 0.  1.
         -5    1    4    4    0  501 -0.10934320322E+02  0.18614600320E+02  0.11827999743E+02  0.24968714102E+02  0.41800000000E+01 0.  1.
</event>
<event>
11    1  0.8551154E-009  0.1585275E+03  0.7561462E-02  0.1088470E+00
         22   -1    0    0    0    0  0.00000000000E+00  0.00000000000E+00  0.32878213086E+04  0.32878213086E+04  0.00000000000E+00 0.  1.
         22   -1    0    0    0    0 -0.00000000000E+00 -0.00000000000E+00 -0.38817531935E+03  0.38817531935E+03  0.00000000000E+00 0. -1.
        -24    2    1    2    0    0 -0.61528506265E+02 -0.74728207686E+02 -0.35947130542E+03  0.38079296145E+03  0.80084942177E+02 0.  0.
         25    2    1    2    0    0  0.11238163323E+03  0.67553516564E+02  0.45948823656E+03  0.49393194693E+03  0.12508484950E+03 0.  0.
         24    2    1    2    0    0 -0.50853126967E+02  0.71746911217E+01  0.27996290581E+04  0.28012717195E+04  0.81011524838E+02 0.  0.
        -11    1    5    5    0    0 -0.21720319654E+02 -0.14953135912E+02  0.23527302389E+04  0.23528780134E+04  0.00000000000E+00 0.  1.
         12    1    5    5    0    0 -0.29132807313E+02  0.22127827033E+02  0.44689881912E+03  0.44839370616E+03  0.00000000000E+00 0. -1.
         13    1    3    3    0    0 -0.66637583926E+02 -0.35297114074E+02 -0.29943340376E+03  0.30878279930E+03  0.00000000000E+00 0. -1.
        -14    1    3    3    0    0  0.51090776617E+01 -0.39431093612E+02 -0.60037901660E+02  0.72010162156E+02  0.00000000000E+00 0.  1.
          5    1    4    4  501    0  0.21581001477E+02  0.58476836255E+02  0.32756500099E+03  0.33346901247E+03  0.41800000000E+01 0. -1.
         -5    1    4    4    0  501  0.90800631755E+02  0.90766803092E+01  0.13192323556E+03  0.16046293446E+03  0.41800000000E+01 0. -1.
</event>
<event>
11    1  0.8551154E-009  0.1293090E+03  0.7561462E-02  0.1120121E+00
         22   -1    0    0    0    0  0.00000000000E+00  0.00000000000E+00  0.12349608532E+04  0.12349608532E+04  0.00000000000E+00 0. -1.
         22   -1    0    0    0    0 -0.00000000000E+00 -0.00000000000E+00 -0.46036868444E+03  0.46036868444E+03  0.00000000000E+00 0. -1.
         24    2    1    2    0    0  0.10470990836E+02  0.32894215809E+02 -0.33082520397E+03  0.34210826630E+03  0.80006744776E+02 0.  0.
         25    2    1    2    0    0 -0.26623084507E+02 -0.13925835638E+02 -0.88656933397E+02  0.15623493526E+03  0.12508631272E+03 0.  0.
        -24    2    1    2    0    0  0.16152093671E+02 -0.18968380171E+02  0.11940743061E+04  0.11969863361E+04  0.79637620757E+02 0.  0.
        -11    1    3    3    0    0  0.24107756851E+02 -0.45985858266E+01 -0.30516284754E+02  0.39160880572E+02  0.00000000000E+00 0.  1.
         12    1    3    3    0    0 -0.13636766015E+02  0.37492801636E+02 -0.30030891921E+03  0.30294738573E+03  0.00000000000E+00 0. -1.
         13    1    5    5    0    0  0.20818095576E+01 -0.49429248572E+02  0.76903779578E+03  0.77062748191E+03  0.00000000000E+00 0. -1.
        -14    1    5    5    0    0  0.14070284113E+02  0.30460868401E+02  0.42503651035E+03  0.42635885417E+03  0.00000000000E+00 0.  1.
          5    1    4    4  501    0 -0.37317154249E+02 -0.46823230920E+02 -0.10246925380E+03  0.11875354870E+03  0.41800000000E+01 0.  1.
         -5    1    4    4    0  501  0.10694069743E+02  0.32897395283E+02  0.13812320399E+02  0.37481386565E+02  0.41800000000E+01 0.  1.
</event>
<event>
11    1  0.8551154E-009  0.1833648E+03  0.7561462E-02  0.1066953E+00
         22   -1    0    0    0    0  0.00000000000E+00  0.00000000000E+00  0.84861952964E+03  0.84861952964E+03  0.00000000000E+00 0.  1.
         22   -1    0    0    0    0 -0.00000000000E+00 -0.00000000000E+00 -0.61231959208E+03  0.61231959208E+03  0.00000000000E+00 0.  1.
         24    2    1    2    0    0 -0.91943359881E+02 -0.97642949309E+02 -0.57118126158E+03  0.59274176672E+03  0.84303270773E+02 0.  0.
         25    2    1    2    0    0  0.85001586707E+02  0.10225035720E+03  0.28159962862E+03  0.33559843328E+03  0.12509017663E+03 0.  0.
        -24    2    1    2    0    0  0.69417731733E+01 -0.46074078898E+01  0.52588157051E+03  0.53259892172E+03  0.83909289059E+02 0.  0.
        -11    1    3    3    0    0 -0.78150648061E+02 -0.52962188222E+02 -0.49038422650E+03  0.49938883325E+03  0.00000000000E+00 0.  1.
         12    1    3    3    0    0 -0.13792711820E+02 -0.44680761087E+02 -0.80797035078E+02  0.93352933473E+02  0.00000000000E+00 0. -1.
         13    1    5    5    0    0  0.88611229397E+01 -0.38562662660E+02  0.14826468639E+03  0.15345362714E+03  0.00000000000E+00 0. -1.
        -14    1    5    5    0    0 -0.19193497664E+01  0.33955254770E+02  0.37761688412E+03  0.37914529458E+03  0.00000000000E+00 0.  1.
          5    1    4    4  501    0  0.54808532656E+02  0.23256374143E+02  0.23808607608E+02  0.64258512171E+02  0.41800000000E+01 0.  1.
         -5    1    4    4    0  501  0.30193054052E+02  0.78993983056E+02  0.25779102101E+03  0.27133992111E+03  0.41800000000E+01 0.  1.
</event>
<event>
11    1  0.8551154E-009  0.1653264E+03  0.7561462E-02  0.1082172E+00
         22   -1    0    0    0    0  0.00000000000E+00  0.00000000000E+00  0.95876157810E+03  0.95876157810E+03  0.00000000000E+00 0. -1.
         22   -1    0    0    0    0 -0.00000000000E+00 -0.00000000000E+00 -0.48553678117E+03  0.48553678117E+03  0.00000000000E+00 0. -1.
         24    2    1    2    0    0  0.36836127386E+02  0.10755268856E+02 -0.45636550553E+03  0.46527344744E+03  0.82081241282E+02 0.  0.
         25    2    1    2    0    0 -0.12355792537E+03 -0.47422102368E+02  0.51309981968E+03  0.54445637242E+03  0.12508357125E+03 0.  0.
        -24    2    1    2    0    0  0.86721797981E+02  0.36666833512E+02  0.41649048278E+03  0.43456853941E+03  0.80748784938E+02 0.  0.
        -11    1    3    3    0    0  0.29371017127E+02 -0.19254270524E+02 -0.76784482547E+02  0.84434828954E+02  0.00000000000E+00 0.  1.
         12    1    3    3    0    0  0.74651102587E+01  0.30009539380E+02 -0.37958102298E+03  0.38083861849E+03  0.00000000000E+00 0. -1.
         11    1    5    5    0    0  0.59299399100E+02  0.59179565070E+01  0.35857446883E+03  0.36349290314E+03  0.00000000000E+00 0. -1.
        -12    1    5    5    0    0  0.27422398881E+02  0.30748877005E+02  0.57916013956E+02  0.71075636262E+02  0.00000000000E+00 0.  1.
          5    1    4    4  501    0 -0.21026827899E+02  0.22731785913E+02  0.26623074551E+03  0.26805809787E+03  0.41800000000E+01 0.  1.
         -5    1    4    4    0  501 -0.10253109747E+03 -0.70153888281E+02  0.24686907418E+03  0.27639827455E+03  0.41800000000E+01 0.  1.
</event>
<event>
11    1  0.8551154E-009  0.1501358E+03  0.7561462E-02  0.1096740E+00
         22   -1    0    0    0    0  0.00000000000E+00  0.00000000000E+00  0.39494374980E+03  0.39494374980E+03  0.00000000000E+00 0. -1.
         22   -1    0    0    0    0 -0.00000000000E+00 -0.00000000000E+00 -0.63725047194E+03  0.63725047194E+03  0.00000000000E+00 0. -1.
         24    2    1    2    0    0  0.33546351349E+02  0.76788232925E+02 -0.58409774806E+03  0.59560363993E+03  0.80942734155E+02 0.  0.
         25    2    1    2    0    0 -0.46085394753E+02 -0.51923479159E+02  0.85357209965E+02  0.16659320163E+03  0.12509008849E+03 0.  0.
        -24    2    1    2    0    0  0.12539043404E+02 -0.24864753766E+02  0.25643381594E+03  0.26999738018E+03  0.79779695124E+02 0.  0.
        -13    1    3    3    0    0 -0.24185344253E+02  0.68616762009E+01 -0.10203651280E+03  0.10508788427E+03  0.00000000000E+00 0.  1.
         14    1    3    3    0    0  0.57731695602E+02  0.69926556725E+02 -0.48206123526E+03  0.49051575566E+03  0.00000000000E+00 0. -1.
         11    1    5    5    0    0  0.40125460323E+02 -0.20709035050E+02  0.21727431059E+03  0.22191674732E+03  0.00000000000E+00 0. -1.
        -12    1    5    5    0    0 -0.27586416918E+02 -0.41557187163E+01  0.39159505352E+02  0.48080632856E+02  0.00000000000E+00 0.  1.
          5    1    4    4  501    0 -0.30411292854E+02 -0.15677166220E+02 -0.29309261057E+02  0.45245170543E+02  0.41800000000E+01 0. -1.
         -5    1    4    4    0  501 -0.15674101900E+02 -0.36246312939E+02  0.11466647102E+03  0.12134803109E+03  0.41800000000E+01 0. -1.
</event>
<event>
11    1  0.8551154E-009  0.1506320E+03  0.7561462E-02  0.1096235E+00
         22   -1    0    0    0    0  0.00000000000E+00  0.00000000000E+00  0.93267291565E+03  0.93267291565E+03  0.00000000000E+00 0.  1.
         22   -1    0    0    0    0 -0.00000000000E+00 -0.00000000000E+00 -0.26056580312E+03  0.26056580312E+03  0.00000000000E+00 0.  1.
        -24    2    1    2    0    0 -0.36430127990E+02  0.75196434979E+02 -0.22662041692E+03  0.25539363723E+03  0.82990592914E+02 0.  0.
         25    2    1    2    0    0  0.11119145150E+02 -0.98869098722E+02  0.37980298657E+03  0.41206279295E+03  0.12508678049E+03 0.  0.
         24    2    1    2    0    0  0.25310982840E+02  0.23672663744E+02  0.51892454289E+03  0.52578228860E+03  0.77222360302E+02 0.  0.
        -13    1    5    5    0    0  0.15517513760E+01  0.35561914620E+02  0.45718977406E+03  0.45857338258E+03  0.00000000000E+00 0.  1.
         14    1    5    5    0    0  0.23759231464E+02 -0.11889250876E+02  0.61734768827E+02  0.67208906020E+02  0.00000000000E+00 0. -1.
         13    1    3    3    0    0 -0.27658437920E+02 -0.62990655388E+01 -0.25235752751E+02  0.37967231025E+02  0.00000000000E+00 0. -1.
        -14    1    3    3    0    0 -0.87716900706E+01  0.81495500517E+02 -0.20138466417E+03  0.21742640620E+03  0.00000000000E+00 0.  1.
          5    1    4    4  501    0  0.28566300431E+02 -0.24680549181E+02  0.29711252875E+03  0.29953044949E+03  0.41800000000E+01 0.  1.
         -5    1    4    4    0  501 -0.17447155282E+02 -0.74188549541E+02  0.82690457816E+02  0.11253234346E+03  0.41800000000E+01 0.  1.
</event>
<event>
11    1  0.8551154E-009  0.1285330E+03  0.7561462E-02  0.1121085E+00
         22   -1    0    0    0    0  0.00000000000E+00  0.00000000000E+00  0.21155748532E+04  0.21155748532E+04  0.00000000000E+00 0.  1.
         22   -1    0    0    0    0 -0.00000000000E+00 -0.00000000000E+00 -0.17034216433E+03  0.17034216433E+03  0.00000000000E+00 0.  1.
         24    2    1    2    0    0  0.23963767633E+02 -0.16477955199E+02 -0.14538750164E+03  0.16918549453E+03  0.81488776880E+02 0.  0.
         25    2    1    2    0    0 -0.38683724322E+02  0.18986613348E+02  0.34990824715E+03  0.37408868454E+03  0.12509852303E+03 0.  0.
        -24    2    1    2    0    0  0.14719956689E+02 -0.25086581489E+01  0.17407119433E+04  0.17426428384E+04  0.80641318263E+02 0.  0.
        -13    1    3    3    0    0  0.14753796943E+01  0.28769527853E+02 -0.88636976964E+02  0.93200730488E+02  0.00000000000E+00 0.  1.
         14    1    3    3    0    0  0.22488387939E+02 -0.45247483052E+02 -0.56750524680E+02  0.75984764039E+02  0.00000000000E+00 0. -1.
         11    1    5    5    0    0 -0.98117734915E+01 -0.12079464207E+01  0.26968624630E+02  0.28723452927E+02  0.00000000000E+00 0. -1.
        -12    1    5    5    0    0  0.24531730181E+02 -0.13007117282E+01  0.17137433187E+04  0.17139193855E+04  0.00000000000E+00 0.  1.
          5    1    4    4  501    0 -0.50643004948E+02 -0.44510265827E+02  0.18111988318E+03  0.19330742924E+03  0.41800000000E+01 0. -1.
         -5    1    4    4    0  501  0.11959280626E+02  0.63496879175E+02  0.16878836396E+03  0.18078125530E+03  0.41800000000E+01 0. -1.
</event>
<event>
11    1  0.8551154E-009  0.1457166E+03  0.7561462E-02  0.1101338E+00
         22   -1    0    0    0    0  0.00000000000E+00  0.00000000000E+00  0.81076242515E+03  0.81076242515E+03  0.00000000000E+00 0. -1.
         22   -1    0    0    0    0 -0.00000000000E+00 -0.00000000000E+00 -0.15222156742E+04  0.15222156742E+04  0.00000000000E+00 0.  1.
         24    2    1    2    0    0 -0.37642547169E+02  0.64290017750E+02 -0.14500837062E+04  0.14543255871E+04  0.82279951674E+02 0.  0.
         25    2    1    2    0    0  0.77487068821E+02 -0.52638355923E+02  0.23603845501E+02  0.15805121666E+03  0.12509197903E+03 0.  0.
        -24    2    1    2    0    0 -0.39844521652E+02 -0.11651661827E+02  0.71502661170E+03  0.72060129558E+03  0.79245344556E+02 0.  0.
        -11    1    3    3    0    0 -0.25604309380E+02  0.34638932874E+02 -0.13068827523E+04  0.13075924306E+04  0.00000000000E+00 0.  1.
         12    1    3    3    0    0 -0.12038237789E+02  0.29651084875E+02 -0.14320095388E+03  0.14673315642E+03  0.00000000000E+00 0. -1.
         11    1    5    5    0    0 -0.31485227743E+02  0.87539061437E+01  0.66648496267E+03  0.66728566290E+03  0.00000000000E+00 0. -1.
        -12    1    5    5    0    0 -0.83592939093E+01 -0.20405567971E+02  0.48541649024E+02  0.53315632687E+02  0.00000000000E+00 0.  1.
          5    1    4    4  501    0  0.34688207481E+02  0.40622251752E+02  0.79114258542E+01  0.54161814359E+02  0.41800000000E+01 0. -1.
         -5    1    4    4    0  501  0.42798861340E+02 -0.93260607675E+02  0.15692419646E+02  0.10388940230E+03  0.41800000000E+01 0. -1.
</event>
<event>
11    1  0.8551154E-009  0.1928612E+03  0.7561462E-02  0.1059690E+00
         22   -1    0    0    0    0  0.00000000000E+00  0.00000000000E+00  0.44182901016E+03  0.44182901016E+03  0.00000000000E+00 0. -1.
         22   -1    0    0    0    0 -0.00000000000E+00 -0.00000000000E+00 -0.32188107863E+04  0.32188107863E+04  0.00000000000E+00 0.  1.
         24    2    1    2    0    0 -0.70244938817E+02 -0.13064647209E+03 -0.31170785449E+04  0.31214779752E+04  0.73778334966E+02 0.  0.
         25    2    1    2    0    0  0.62523459448E+02  0.78324436089E+02 -0.24510139340E+02  0.16214693149E+03  0.12508788987E+03 0.  0.
        -24    2    1    2    0    0  0.77214793690E+01  0.52322036001E+02  0.36460690810E+03  0.37701488972E+03  0.80030075229E+02 0.  0.
        -11    1    3    3    0    0 -0.51027056416E+02 -0.13426002712E+03 -0.28867096808E+04  0.28902806606E+04  0.00000000000E+00 0.  1.
         12    1    3    3    0    0 -0.19217882401E+02  0.36135550276E+01 -0.23036886404E+03  0.23119731466E+03  0.00000000000E+00 0. -1.
         11    1    5    5    0    0 -0.29210129267E+02  0.48217340974E+02  0.25890708700E+03  0.26497362760E+03  0.00000000000E+00 0. -1.
        -12    1    5    5    0    0  0.36931608636E+02  0.41046950271E+01  0.10569982110E+03  0.11204126212E+03  0.00000000000E+00 0.  1.
          5    1    4    4  501    0  0.46781216980E+02  0.11176941487E+03 -0.81567616845E+01  0.12151086175E+03  0.41800000000E+01 0.  1.
         -5    1    4    4    0  501  0.15742242468E+02 -0.33444978780E+02 -0.16353377655E+02  0.40636069744E+02  0.41800000000E+01 0.  1.
</event>
<event>
11    1  0.8551154E-009  0.1605328E+03  0.7561462E-02  0.1086577E+00
         22   -1    0    0    0    0  0.00000000000E+00  0.00000000000E+00  0.71036815773E+02  0.71036815773E+02  0.00000000000E+00 0.  1.
         22   -1    0    0    0    0 -0.00000000000E+00 -0.00000000000E+00 -0.30221465117E+04  0.30221465117E+04  0.00000000000E+00 0.  1.
        -24    2    1    2    0    0 -0.99116018622E+01 -0.99846325134E+02 -0.18539322323E+04  0.18583626781E+04  0.79872353526E+02 0.  0.
         25    2    1    2    0    0 -0.78888066308E+02  0.45414517684E+02 -0.10905314771E+04  0.11014487330E+04  0.12507838939E+03 0.  0.
         24    2    1    2    0    0  0.88799668170E+02  0.54431807451E+02 -0.66459865484E+01  0.13337191639E+03  0.83040328849E+02 0.  0.
        -13    1    5    5    0    0  0.68405325410E+02  0.43205007961E+02  0.33014392117E+02  0.87383701822E+02  0.00000000000E+00 0.  1.
         14    1    5    5    0    0  0.20394342760E+02  0.11226799490E+02 -0.39660378665E+02  0.45988214569E+02  0.00000000000E+00 0. -1.
         11    1    3    3    0    0 -0.29311726553E+02 -0.81881237013E+02 -0.16963228074E+04  0.16985507885E+04  0.00000000000E+00 0. -1.
        -12    1    3    3    0    0  0.19400124691E+02 -0.17965088122E+02 -0.15760942494E+03  0.15981188960E+03  0.00000000000E+00 0.  1.
          5    1    4    4  501    0 -0.28739590059E+02  0.80531544876E+02 -0.79616091375E+03  0.80075025242E+03  0.41800000000E+01 0. -1.
         -5    1    4    4    0  501 -0.50148476248E+02 -0.35117027192E+02 -0.29437056333E+03  0.30069848058E+03  0.41800000000E+01 0. -1.
</event>
<event>
11    1  0.8551154E-009  0.1708214E+03  0.7561462E-02  0.1077319E+00
         22   -1    0    0    0    0  0.00000000000E+00  0.00000000000E+00  0.13604260245E+04  0.13604260245E+04  0.00000000000E+00 0. -1.
         22   -1    0    0    0    0 -0.00000000000E+00 -0.00000000000E+00 -0.22567938491E+03  0.22567938491E+03  0.00000000000E+00 0. -1.
        -24    2    1    2    0    0 -0.10866594104E+03  0.25998315032E+02 -0.16421097843E+03  0.21446610457E+03  0.80908994832E+02 0.  0.
         25    2    1    2    0    0  0.19400240437E+03 -0.10720760890E+02  0.37825740845E+03  0.44325834881E+03  0.12508968433E+03 0.  0.
         24    2    1    2    0    0 -0.85336463322E+02 -0.15277554142E+02  0.92070020952E+03  0.92838095599E+03  0.81771682226E+02 0.  0.
        -13    1    5    5    0    0 -0.64037311960E+02 -0.42878650826E+02  0.46443975110E+03  0.47079044003E+03  0.00000000000E+00 0.  1.
         14    1    5    5    0    0 -0.21299151362E+02  0.27601096684E+02  0.45626045842E+03  0.45759051597E+03  0.00000000000E+00 0. -1.
         11    1    3    3    0    0 -0.92545690157E+02  0.15520484668E+02 -0.17017807335E+03  0.19433519203E+03  0.00000000000E+00 0. -1.
        -12    1    3    3    0    0 -0.16120250887E+02  0.10477830364E+02  0.59670949249E+01  0.20130912539E+02  0.00000000000E+00 0.  1.
          5    1    4    4  501    0  0.15267509425E+03  0.16409129349E+02  0.16977541718E+03  0.22895438107E+03  0.41800000000E+01 0. -1.
         -5    1    4    4    0  501  0.41327310114E+02 -0.27129890239E+02  0.20848199127E+03  0.21430396774E+03  0.41800000000E+01 0. -1.
</event>
<event>
11    1  0.8551154E-009  0.2317509E+03  0.7561462E-02  0.1034096E+00
         22   -1    0    0    0    0  0.00000000000E+00  0.00000000000E+00  0.59550854925E+03  0.59550854925E+03  0.00000000000E+00 0. -1.
         22   -1    0    0    0    0 -0.00000000000E+00 -0.00000000000E+00 -0.33187359761E+03  0.33187359761E+03  0.00000000000E+00 0. -1.
        -24    2    1    2    0    0 -0.15566192959E+02  0.86003012437E+01 -0.10452409200E+03  0.13325182952E+03  0.80712407467E+02 0.  0.
         25    2    1    2    0    0  0.20785841635E+03  0.13966631022E+02 -0.11396837277E+03  0.26839420391E+03  0.12508585321E+03 0.  0.
         24    2    1    2    0    0 -0.19229222339E+03 -0.22566932266E+02  0.48212741641E+03  0.52573611342E+03  0.80411750956E+02 0.  0.
        -11    1    5    5    0    0 -0.16940295077E+02 -0.21177612919E+02  0.28244628040E+02  0.39156403044E+02  0.00000000000E+00 0.  1.
         12    1    5    5    0    0 -0.17535192831E+03 -0.13893193471E+01  0.45388278837E+03  0.48657971038E+03  0.00000000000E+00 0. -1.
         13    1    3    3    0    0 -0.22567297619E+02  0.40216929203E+02 -0.81067285945E+02  0.93266227365E+02  0.00000000000E+00 0. -1.
        -14    1    3    3    0    0  0.70011046595E+01 -0.31616627959E+02 -0.23456806052E+02  0.39985602160E+02  0.00000000000E+00 0.  1.
          5    1    4    4  501    0  0.12176600782E+02 -0.28353216659E+02  0.10206336105E+02  0.32769134841E+02  0.41800000000E+01 0.  1.
         -5    1    4    4    0  501  0.19568181556E+03  0.42319847681E+02 -0.12417470888E+03  0.23562506907E+03  0.41800000000E+01 0.  1.
</event>
<event>
11    1  0.8551154E-009  0.6873190E+03  0.7561462E-02  0.9051203E-01
         22   -1    0    0    0    0  0.00000000000E+00  0.00000000000E+00  0.10680007462E+04  0.10680007462E+04  0.00000000000E+00 0.  1.
         22   -1    0    0    0    0 -0.00000000000E+00 -0.00000000000E+00 -0.19341345889E+04  0.19341345889E+04  0.00000000000E+00 0. -1.
         24    2    1    2    0    0  0.29897355119E+03  0.54494689311E+03 -0.10271449487E+04  0.12031710695E+04  0.79003647029E+02 0.  0.
         25    2    1    2    0    0 -0.47091664126E+03 -0.65642277341E+03 -0.59530723569E+03  0.10112814228E+04  0.12508425480E+03 0.  0.
        -24    2    1    2    0    0  0.17194309007E+03  0.11147588030E+03  0.75631834163E+03  0.78768284288E+03  0.80221748737E+02 0.  0.
        -13    1    3    3    0    0  0.23804301818E+02  0.91249391311E+02 -0.12558880021E+03  0.15705299404E+03  0.00000000000E+00 0.  1.
         14    1    3    3    0    0  0.27516924937E+03  0.45369750180E+03 -0.90155614845E+03  0.10461180754E+04  0.00000000000E+00 0. -1.
         11    1    5    5    0    0  0.14569786041E+03  0.62353250636E+02  0.63007461665E+03  0.64969978985E+03  0.00000000000E+00 0. -1.
        -12    1    5    5    0    0  0.26245229665E+02  0.49122629664E+02  0.12624372498E+03  0.13798305303E+03  0.00000000000E+00 0.  1.
          5    1    4    4  501    0 -0.40421752832E+03 -0.52564094323E+03 -0.43081864892E+03  0.79076696445E+03  0.41800000000E+01 0. -1.
         -5    1    4    4    0  501 -0.66699112937E+02 -0.13078183018E+03 -0.16448858677E+03  0.22051445837E+03  0.41800000000E+01 0. -1.
</event>
<event>
11    1  0.1173136E-008  0.1867491E+03  0.7561462E-02  0.1064311E+00
         22   -1    0    0    0    0  0.00000000000E+00  0.00000000000E+00  0.14313948529E+04  0.14313948529E+04  0.00000000000E+00 0.  1.
         22   -1    0    0    0    0 -0.00000000000E+00 -0.00000000000E+00 -0.13416672224E+04  0.13416672224E+04  0.00000000000E+00 0. -1.
         24    2    1    2    0    0 -0.79780196183E+02 -0.36600188753E+02 -0.53874396539E+03  0.55142325799E+03  0.78218256794E+02 0.  0.
         25    2    1    2    0    0  0.20544744015E+02  0.16198078559E+03 -0.77872781395E+03  0.80543421832E+03  0.12508960957E+03 0.  0.
        -24    2    1    2    0    0  0.59235452168E+02 -0.12538059684E+03  0.14071994099E+04  0.14162045991E+04  0.78715655328E+02 0.  0.
        -11    1    3    3    0    0 -0.40046179577E+00  0.80362001884E+01 -0.21400983060E+03  0.21416103398E+03  0.00000000000E+00 0.  1.
         12    1    3    3    0    0 -0.79379734387E+02 -0.44636388942E+02 -0.32473413479E+03  0.33726222401E+03  0.00000000000E+00 0. -1.
         11    1    5    5    0    0 -0.85008791325E+01 -0.25330693678E+02  0.53616133770E+03  0.53682668435E+03  0.00000000000E+00 0. -1.
        -12    1    5    5    0    0  0.67736331301E+02 -0.10004990316E+03  0.87103807217E+03  0.87937791470E+03  0.00000000000E+00 0.  1.
          5    1    4    4  501    0 -0.46229957359E+02  0.59216714252E+02 -0.41011685652E+03  0.41696179275E+03  0.41800000000E+01 0. -1.
         -5    1    4    4    0  501  0.66774701374E+02  0.10276407134E+03 -0.36861095742E+03  0.38847242558E+03  0.41800000000E+01 0. -1.
</event>
<event>
11    1  0.8551154E-009  0.1777722E+03  0.7561462E-02  0.1071459E+00
         22   -1    0    0    0    0  0.00000000000E+00  0.00000000000E+00  0.30576735136E+03  0.30576735136E+03  0.00000000000E+00 0.  1.
         22   -1    0    0    0    0 -0.00000000000E+00 -0.00000000000E+00 -0.11723007114E+04  0.11723007114E+04  0.00000000000E+00 0. -1.
        -24    2    1    2    0    0 -0.12387238777E+02  0.10354922057E+02 -0.98137707115E+03  0.98452343493E+03  0.76972527893E+02 0.  0.
         25    2    1    2    0    0  0.13337994191E+03 -0.40271921899E+02 -0.11515137527E+03  0.21981672438E+03  0.12509003355E+03 0.  0.
         24    2    1    2    0    0 -0.12099270313E+03  0.29916999842E+02  0.22999508638E+03  0.27372790345E+03  0.80591341227E+02 0.  0.
        -11    1    5    5    0    0 -0.96556688739E+02 -0.80016554961E+01  0.19070679936E+03  0.21390723212E+03  0.00000000000E+00 0.  1.
         12    1    5    5    0    0 -0.24436014392E+02  0.37918655338E+02  0.39288287016E+02  0.59820671332E+02  0.00000000000E+00 0. -1.
         11    1    3    3    0    0  0.13255521682E+02 -0.25712997150E+02 -0.57854660199E+03  0.57926939998E+03  0.00000000000E+00 0. -1.
        -12    1    3    3    0    0 -0.25642760459E+02  0.36067919207E+02 -0.40283046916E+03  0.40525403495E+03  0.00000000000E+00 0.  1.
          5    1    4    4  501    0  0.33446515719E+02  0.25870064117E+02 -0.86735157193E+02  0.96583588277E+02  0.41800000000E+01 0. -1.
         -5    1    4    4    0  501  0.99933426189E+02 -0.66141986016E+02 -0.28416218077E+02  0.12323313610E+03  0.41800000000E+01 0. -1.
</event>
<event>
11    1  0.8551154E-009  0.1325385E+03  0.7561462E-02  0.1116189E+00
         22   -1    0    0    0    0  0.00000000000E+00  0.00000000000E+00  0.17539910305E+04  0.17539910305E+04  0.00000000000E+00 0. -1.
         22   -1    0    0    0    0 -0.00000000000E+00 -0.00000000000E+00 -0.27854948293E+03  0.27854948293E+03  0.00000000000E+00 0. -1.
        -24    2    1    2    0    0 -0.27532779297E+02  0.40052161968E+02 -0.18858633017E+03  0.21177238218E+03  0.83189592588E+02 0.  0.
         25    2    1    2    0    0  0.90421867422E+01 -0.20677143168E+02 -0.25094749093E+02  0.12956251589E+03  0.12508954273E+03 0.  0.
         24    2    1    2    0    0  0.18490592555E+02 -0.19375018800E+02  0.16891226268E+04  0.16912056154E+04  0.79522899806E+02 0.  0.
        -11    1    5    5    0    0  0.30916959776E+02  0.86724966253E+01  0.29445364591E+03  0.29619929134E+03  0.00000000000E+00 0.  1.
         12    1    5    5    0    0 -0.12426367221E+02 -0.28047515426E+02  0.13946689809E+04  0.13950063240E+04  0.00000000000E+00 0. -1.
         13    1    3    3    0    0 -0.43645567870E+02 -0.57799813667E+01 -0.11918464569E+03  0.12705637940E+03  0.00000000000E+00 0. -1.
        -14    1    3    3    0    0  0.16112788573E+02  0.45832143335E+02 -0.69401684484E+02  0.84716002783E+02  0.00000000000E+00 0.  1.
          5    1    4    4  501    0  0.34636079654E+02 -0.66259041929E+01 -0.68457244459E+02  0.77119565215E+02  0.41800000000E+01 0.  1.
         -5    1    4    4    0  501 -0.25593892912E+02 -0.14051238975E+02  0.43362495366E+02  0.52442950674E+02  0.41800000000E+01 0.  1.
</event>
<event>
11    1  0.8551154E-009  0.1351100E+03  0.7561462E-02  0.1113145E+00
         22   -1    0    0    0    0  0.00000000000E+00  0.00000000000E+00  0.89095834003E+03  0.89095834003E+03  0.00000000000E+00 0.  1.
         22   -1    0    0    0    0 -0.00000000000E+00 -0.00000000000E+00 -0.99331118920E+02  0.99331118920E+02  0.00000000000E+00 0.  1.
         24    2    1    2    0    0 -0.35020039130E+01 -0.16804996683E+02 -0.61201000969E+02  0.10252974722E+03  0.80449453700E+02 0.  0.
         25    2    1    2    0    0  0.25784099081E+02 -0.33169754173E+02  0.32771191315E+03  0.35328182454E+03  0.12509155515E+03 0.  0.
        -24    2    1    2    0    0 -0.22282095168E+02  0.49974750856E+02  0.52511630892E+03  0.53447788719E+03  0.83219628135E+02 0.  0.
        -11    1    3    3    0    0 -0.16522989990E+02  0.18674502883E+02 -0.59709640613E+02  0.64706935009E+02  0.00000000000E+00 0.  1.
         12    1    3    3    0    0  0.13020986077E+02 -0.35479499566E+02 -0.14913603565E+01  0.37822812212E+02  0.00000000000E+00 0. -1.
         11    1    5    5    0    0 -0.13799275869E+02 -0.14565147052E+02  0.37448480633E+02  0.42484729314E+02  0.00000000000E+00 0. -1.
        -12    1    5    5    0    0 -0.84828192993E+01  0.64539897908E+02  0.48766782829E+03  0.49199315787E+03  0.00000000000E+00 0.  1.
          5    1    4    4  501    0 -0.44163947309E+02 -0.40073766601E+02  0.17952838640E+03  0.18922017581E+03  0.41800000000E+01 0. -1.
         -5    1    4    4    0  501  0.69948046390E+02  0.69040124274E+01  0.14818352675E+03  0.16406164872E+03  0.41800000000E+01 0. -1.
</event>
<event>
11    1  0.8551154E-009  0.1375624E+03  0.7561462E-02  0.1110311E+00
         22   -1    0    0    0    0  0.00000000000E+00  0.00000000000E+00  0.15392906350E+04  0.15392906350E+04  0.00000000000E+00 0. -1.
         22   -1    0    0    0    0 -0.00000000000E+00 -0.00000000000E+00 -0.19631119233E+03  0.19631119233E+03  0.00000000000E+00 0. -1.
         24    2    1    2    0    0  0.10617690418E+02  0.32647298372E+02 -0.16764163956E+03  0.18836000814E+03  0.78722245330E+02 0.  0.
         25    2    1    2    0    0 -0.20792479743E+02  0.27005448014E+02  0.24100749838E+03  0.27366418671E+03  0.12508337770E+03 0.  0.
        -24    2    1    2    0    0  0.10174789325E+02 -0.59652746386E+02  0.12696135838E+04  0.12735776324E+04  0.80120890932E+02 0.  0.
        -11    1    3    3    0    0 -0.90014829308E+01 -0.19193155422E+02 -0.15009084163E+02  0.25974535942E+02  0.00000000000E+00 0.  1.
         12    1    3    3    0    0  0.19619173348E+02  0.51840453794E+02 -0.15263255540E+03  0.16238547220E+03  0.00000000000E+00 0. -1.
         11    1    5    5    0    0 -0.22267028580E+02 -0.38231730267E+01  0.69153444174E+03  0.69190340463E+03  0.00000000000E+00 0. -1.
        -12    1    5    5    0    0  0.32441817906E+02 -0.55829573359E+02  0.57807914208E+03  0.58167422782E+03  0.00000000000E+00 0.  1.
          5    1    4    4  501    0  0.22960461284E+02  0.62276730802E+01 -0.34675949666E+01  0.24402116900E+02  0.41800000000E+01 0. -1.
         -5    1    4    4    0  501 -0.43752941027E+02  0.20777774934E+02  0.24447509334E+03  0.24926206981E+03  0.41800000000E+01 0. -1.
</event>
<event>
11    1  0.8551154E-009  0.1497321E+03  0.7561462E-02  0.1097153E+00
         22   -1    0    0    0    0  0.00000000000E+00  0.00000000000E+00  0.55751628237E+03  0.55751628237E+03  0.00000000000E+00 0. -1.
         22   -1    0    0    0    0 -0.00000000000E+00 -0.00000000000E+00 -0.75170185119E+03  0.75170185119E+03  0.00000000000E+00 0. -1.
         24    2    1    2    0    0  0.48718687575E+02 -0.32568298960E+02 -0.51549842360E+03  0.52521075005E+03  0.81691508864E+02 0.  0.
         25    2    1    2    0    0  0.27105181234E+02  0.66640997441E+02 -0.20193558189E+03  0.24819550594E+03  0.12508923432E+03 0.  0.
        -24    2    1    2    0    0 -0.75823868809E+02 -0.34072698481E+02  0.52324843667E+03  0.53581187758E+03  0.79970205780E+02 0.  0.
        -11    1    3    3    0    0  0.22511302541E+02  0.18584205970E+02 -0.67515876974E+02  0.73556271637E+02  0.00000000000E+00 0.  1.
         12    1    3    3    0    0  0.26207385034E+02 -0.51152504929E+02 -0.44798254663E+03  0.45165447842E+03  0.00000000000E+00 0. -1.
         13    1    5    5    0    0 -0.38762191039E+02  0.13598660489E+02  0.34875812447E+03  0.35116899124E+03  0.00000000000E+00 0. -1.
        -14    1    5    5    0    0 -0.37061677770E+02 -0.47671358970E+02  0.17449031220E+03  0.18464288634E+03  0.00000000000E+00 0.  1.
          5    1    4    4  501    0 -0.33548512924E+02  0.49814334794E+02 -0.16372373496E+03  0.17444169358E+03  0.41800000000E+01 0.  1.
         -5    1    4    4    0  501  0.60653694158E+02  0.16826662647E+02 -0.38211846937E+02  0.73753812357E+02  0.41800000000E+01 0.  1.
</event>
<event>
11    1  0.8551154E-009  0.1332359E+03  0.7561462E-02  0.1115356E+00
         22   -1    0    0    0    0  0.00000000000E+00  0.00000000000E+00  0.26776994953E+03  0.26776994953E+03  0.00000000000E+00 0. -1.
         22   -1    0    0    0    0 -0.00000000000E+00 -0.00000000000E+00 -0.24702614131E+03  0.24702614131E+03  0.00000000000E+00 0. -1.
        -24    2    1    2    0    0  0.42879321166E+02  0.95895123547E+01 -0.16646081154E+03  0.19019701589E+03  0.80840015737E+02 0.  0.
         25    2    1    2    0    0 -0.53103286278E+02 -0.32566709392E+02  0.25232453235E+02  0.14200320567E+03  0.12509070369E+03 0.  0.
         24    2    1    2    0    0  0.10223965112E+02  0.22977197038E+02  0.16197216653E+03  0.18259586927E+03  0.80459851484E+02 0.  0.
        -13    1    5    5    0    0  0.13555685411E+02 -0.68057482669E+01 -0.25373071576E+01  0.15378970838E+02  0.00000000000E+00 0.  1.
         14    1    5    5    0    0 -0.33317202988E+01  0.29782945305E+02  0.16450947368E+03  0.16721689844E+03  0.00000000000E+00 0. -1.
         13    1    3    3    0    0 -0.65299358541E+01  0.24620984501E+02 -0.11311464851E+03  0.11594721492E+03  0.00000000000E+00 0. -1.
        -14    1    3    3    0    0  0.49409257020E+02 -0.15031472146E+02 -0.53346163027E+02  0.74249800969E+02  0.00000000000E+00 0.  1.
          5    1    4    4  501    0  0.22743386842E+02 -0.29834950439E+02  0.49465487661E+02  0.62222928107E+02  0.41800000000E+01 0. -1.
         -5    1    4    4    0  501 -0.75846673120E+02 -0.27317589530E+01 -0.24233034426E+02  0.79780277562E+02  0.41800000000E+01 0. -1.
</event>
<event>
11    1  0.8551154E-009  0.1499753E+03  0.7561462E-02  0.1096904E+00
         22   -1    0    0    0    0  0.00000000000E+00  0.00000000000E+00  0.65963645374E+03  0.65963645374E+03  0.00000000000E+00 0. -1.
         22   -1    0    0    0    0 -0.00000000000E+00 -0.00000000000E+00 -0.41861494470E+03  0.41861494470E+03  0.00000000000E+00 0.  1.
         24    2    1    2    0    0  0.11129776675E+02 -0.50033582804E+02 -0.25522377246E+03  0.27317402171E+03  0.82810873523E+02 0.  0.
         25    2    1    2    0    0 -0.62388084838E+02 -0.16394223652E+02 -0.11555925774E+03  0.18210754105E+03  0.12509264871E+03 0.  0.
        -24    2    1    2    0    0  0.51258308164E+02  0.66427806456E+02  0.61180453924E+03  0.62296983568E+03  0.82137411144E+02 0.  0.
        -11    1    3    3    0    0 -0.13163468699E+00 -0.77246798744E+01 -0.21030888381E+03  0.21045074154E+03  0.00000000000E+00 0.  1.
         12    1    3    3    0    0  0.11261411362E+02 -0.42308902930E+02 -0.44914888652E+02  0.62723280173E+02  0.00000000000E+00 0. -1.
         13    1    5    5    0    0  0.65908653850E+02  0.23047313734E+02  0.31427508255E+03  0.32193781517E+03  0.00000000000E+00 0. -1.
        -14    1    5    5    0    0 -0.14650345686E+02  0.43380492722E+02  0.29752945669E+03  0.30103202051E+03  0.00000000000E+00 0.  1.
          5    1    4    4  501    0 -0.63343648865E+01  0.17715593383E+02  0.22238380206E+02  0.29427612571E+02  0.41800000000E+01 0.  1.
         -5    1    4    4    0  501 -0.56053719952E+02 -0.34109817035E+02 -0.13779763794E+03  0.15267992848E+03  0.41800000000E+01 0.  1.
</event>
<event>
11    1  0.9200319E-009  0.1981016E+03  0.7561462E-02  0.1055874E+00
         22   -1    0    0    0    0  0.00000000000E+00  0.00000000000E+00  0.23069270342E+04  0.23069270342E+04  0.00000000000E+00 0. -1.
         22   -1    0    0    0    0 -0.00000000000E+00 -0.00000000000E+00 -0.19491797058E+03  0.19491797058E+03  0.00000000000E+00 0.  1.
        -24    2    1    2    0    0  0.46110496639E+01 -0.71182841330E+02 -0.81233764907E+02  0.13374390546E+03  0.78741659922E+02 0.  0.
         25    2    1    2    0    0 -0.10120586615E+03  0.18759466928E+03  0.98124341764E+02  0.26591443769E+03  0.12509082476E+03 0.  0.
         24    2    1    2    0    0  0.96594816481E+02 -0.11641182795E+03  0.20951184867E+04  0.21021866616E+04  0.82371199683E+02 0.  0.
        -11    1    5    5    0    0  0.95698608464E+00 -0.34850949036E+02  0.20929028711E+03  0.21217428861E+03  0.00000000000E+00 0.  1.
         12    1    5    5    0    0  0.95637830397E+02 -0.81560878911E+02  0.18858281996E+04  0.18900123730E+04  0.00000000000E+00 0. -1.
         13    1    3    3    0    0  0.46900036607E+00  0.16986161999E+02 -0.68742308807E+01  0.18330431283E+02  0.00000000000E+00 0. -1.
        -14    1    3    3    0    0  0.41420492979E+01 -0.88169003330E+02 -0.74359534026E+02  0.11541347417E+03  0.00000000000E+00 0.  1.
          5    1    4    4  501    0 -0.10283203973E+03  0.18712098952E+03  0.52297650874E+02  0.21986634532E+03  0.41800000000E+01 0.  1.
         -5    1    4    4    0  501  0.16261735828E+01  0.47367975141E+00  0.45826690890E+02  0.46048092371E+02  0.41800000000E+01 0.  1.
</event>
<event>
11    1  0.9153951E-009  0.1794443E+03  0.7561462E-02  0.1070093E+00
         22   -1    0    0    0    0  0.00000000000E+00  0.00000000000E+00  0.12708489895E+04  0.12708489895E+04  0.00000000000E+00 0.  1.
         22   -1    0    0    0    0 -0.00000000000E+00 -0.00000000000E+00 -0.35211028890E+03  0.35211028890E+03  0.00000000000E+00 0. -1.
        -24    2    1    2    0    0  0.55182718120E+02  0.53491761061E+01 -0.21724928693E+03  0.23799550134E+03  0.79817666723E+02 0.  0.
         25    2    1    2    0    0  0.17632907819E+02  0.10235644443E+03 -0.64424867721E+02  0.17489358501E+03  0.12509772717E+03 0.  0.
         24    2    1    2    0    0 -0.72815625940E+02 -0.10770562053E+03  0.12004128553E+04  0.12100701921E+04  0.79851302761E+02 0.  0.
        -11    1    5    5    0    0 -0.43747242624E+02 -0.11037399540E+03  0.10617845701E+04  0.10684019437E+04  0.00000000000E+00 0.  1.
         12    1    5    5    0    0 -0.29068383316E+02  0.26683748647E+01  0.13862828522E+03  0.14166824837E+03  0.00000000000E+00 0. -1.
         11    1    3    3    0    0  0.68232106963E+02 -0.10707787132E+01 -0.21170481248E+03  0.22243132562E+03  0.00000000000E+00 0. -1.
        -12    1    3    3    0    0 -0.13049388842E+02  0.64199548193E+01 -0.55444744527E+01  0.15564175725E+02  0.00000000000E+00 0.  1.
          5    1    4    4  501    0  0.52609117341E+02  0.10976134284E+03 -0.30771660009E+02  0.12561703336E+03  0.41800000000E+01 0. -1.
         -5    1    4    4    0  501 -0.34976209522E+02 -0.74048984191E+01 -0.33653207712E+02  0.49276551649E+02  0.41800000000E+01 0. -1.
</event>
<event>
11    1  0.8551154E-009  0.2023196E+03  0.7561462E-02  0.1052895E+00
         22   -1    0    0    0    0  0.00000000000E+00  0.00000000000E+00  0.10270978736E+04  0.10270978736E+04  0.00000000000E+00 0. -1.
         22   -1    0    0    0    0 -0.00000000000E+00 -0.00000000000E+00 -0.48919209782E+03  0.48919209782E+03  0.00000000000E+00 0.  1.
         24    2    1    2    0    0  0.11844963027E+02  0.56695481299E+02 -0.40988663809E+03  0.42170523124E+03  0.80458468950E+02 0.  0.
         25    2    1    2    0    0  0.11059324728E+03 -0.15266126857E+03  0.13617266337E+03  0.26406175296E+03  0.12509710573E+03 0.  0.
        -24    2    1    2    0    0 -0.12243821030E+03  0.95965787272E+02  0.81161975051E+03  0.83052298723E+03  0.82711941288E+02 0.  0.
        -11    1    3    3    0    0  0.41997690930E+01  0.37098172960E+02 -0.39289296339E+03  0.39466288548E+03  0.00000000000E+00 0.  1.
         12    1    3    3    0    0  0.76451939344E+01  0.19597308339E+02 -0.16993674699E+02  0.27042345760E+02  0.00000000000E+00 0. -1.
         13    1    5    5    0    0 -0.97955730940E+02  0.33399741465E+02  0.58763235662E+03  0.59667633982E+03  0.00000000000E+00 0. -1.
        -14    1    5    5    0    0 -0.24482479362E+02  0.62566045807E+02  0.22398739389E+03  0.23384664741E+03  0.00000000000E+00 0.  1.
          5    1    4    4  501    0  0.23139557769E+02 -0.13867634972E+01  0.75431475989E+02  0.79023681366E+02  0.41800000000E+01 0. -1.
         -5    1    4    4    0  501  0.87453689506E+02 -0.15127450507E+03  0.60741187380E+02  0.18503807159E+03  0.41800000000E+01 0. -1.
</event>
<event>
11    1  0.8551154E-009  0.1426524E+03  0.7561462E-02  0.1104632E+00
         22   -1    0    0    0    0  0.00000000000E+00  0.00000000000E+00  0.85907892153E+03  0.85907892153E+03  0.00000000000E+00 0. -1.
         22   -1    0    0    0    0 -0.00000000000E+00 -0.00000000000E+00 -0.11315864967E+04  0.11315864967E+04  0.00000000000E+00 0. -1.
        -24    2    1    2    0    0  0.24836761421E+02 -0.64099302043E+02 -0.96343264420E+03  0.96965492429E+03  0.85455409633E+02 0.  0.
         25    2    1    2    0    0 -0.38592952579E+01  0.69843164556E+02 -0.13153563157E+03  0.19453115400E+03  0.12509110963E+03 0.  0.
         24    2    1    2    0    0 -0.20977466164E+02 -0.57438625129E+01  0.82246070064E+03  0.82647933991E+03  0.78443923666E+02 0.  0.
        -11    1    5    5    0    0  0.25242977084E+02  0.30364135477E+01  0.13255263951E+03  0.13496899622E+03  0.00000000000E+00 0.  1.
         12    1    5    5    0    0 -0.46220443247E+02 -0.87802760607E+01  0.68990806112E+03  0.69151034369E+03  0.00000000000E+00 0. -1.
         13    1    3    3    0    0 -0.72209359982E+01 -0.71796776673E+02 -0.77572672233E+03  0.77907564896E+03  0.00000000000E+00 0. -1.
        -14    1    3    3    0    0  0.32057697420E+02  0.76974746303E+01 -0.18770592187E+03  0.19057927533E+03  0.00000000000E+00 0.  1.
          5    1    4    4  501    0  0.55650733969E+02  0.55992477462E+02 -0.54053036108E+02  0.95767243023E+02  0.41800000000E+01 0.  1.
         -5    1    4    4    0  501 -0.59510029227E+02  0.13850687094E+02 -0.77482595463E+02  0.98763910976E+02  0.41800000000E+01 0.  1.
</event>
<event>
11    1  0.8551154E-009  0.1394626E+03  0.7561462E-02  0.1108160E+00
         22   -1    0    0    0    0  0.00000000000E+00  0.00000000000E+00  0.42858617129E+03  0.42858617129E+03  0.00000000000E+00 0. -1.
         22   -1    0    0    0    0 -0.00000000000E+00 -0.00000000000E+00 -0.18509626223E+03  0.18509626223E+03  0.00000000000E+00 0. -1.
        -24    2    1    2    0    0 -0.23050968481E+02 -0.10430939171E+02 -0.12480250309E+03  0.15033472875E+03  0.79904406965E+02 0.  0.
         25    2    1    2    0    0  0.14884848124E+02  0.70012625103E+02  0.96062198312E+02  0.17320029753E+03  0.12508825181E+03 0.  0.
         24    2    1    2    0    0  0.81661203570E+01 -0.59581685932E+02  0.27223021384E+03  0.29014740725E+03  0.80371423939E+02 0.  0.
        -13    1    5    5    0    0  0.10125679262E+02  0.17616684083E+02  0.32918936852E+02  0.38685053213E+02  0.00000000000E+00 0.  1.
         14    1    5    5    0    0 -0.19595589045E+01 -0.77198370015E+02  0.23931127698E+03  0.25146235403E+03  0.00000000000E+00 0. -1.
         13    1    3    3    0    0  0.98282826904E+01 -0.37358586928E+02 -0.78469654289E+02  0.87462825258E+02  0.00000000000E+00 0. -1.
        -14    1    3    3    0    0 -0.32879251172E+02  0.26927647756E+02 -0.46332848799E+02  0.62871903495E+02  0.00000000000E+00 0.  1.
          5    1    4    4  501    0 -0.53543897880E+02  0.22338630367E+02  0.24081668147E+02  0.62955242416E+02  0.41800000000E+01 0.  1.
         -5    1    4    4    0  501  0.68428746005E+02  0.47673994736E+02  0.71980530166E+02  0.11024505511E+03  0.41800000000E+01 0.  1.
</event>
<event>
11    1  0.8551154E-009  0.1435905E+03  0.7561462E-02  0.1103614E+00
         22   -1    0    0    0    0  0.00000000000E+00  0.00000000000E+00  0.24617944726E+04  0.24617944726E+04  0.00000000000E+00 0. -1.
         22   -1    0    0    0    0 -0.00000000000E+00 -0.00000000000E+00 -0.52958294412E+02  0.52958294412E+02  0.00000000000E+00 0. -1.
        -24    2    1    2    0    0  0.60150788011E+02 -0.33212136753E+02  0.22080803443E+02  0.10838266872E+03  0.80858380349E+02 0.  0.
         25    2    1    2    0    0 -0.68203544691E+02  0.61222699081E+02  0.68227732698E+03  0.69967777605E+03  0.12508675785E+03 0.  0.
         24    2    1    2    0    0  0.80527566804E+01 -0.28010562328E+02  0.17044780477E+04  0.17066923222E+04  0.81876913744E+02 0.  0.
        -13    1    5    5    0    0  0.21331561118E+02 -0.50725746470E+02  0.83211034698E+03  0.83392791439E+03  0.00000000000E+00 0.  1.
         14    1    5    5    0    0 -0.13278804437E+02  0.22715184142E+02  0.87236770074E+03  0.87276440781E+03  0.00000000000E+00 0. -1.
         13    1    3    3    0    0  0.63232183024E+02 -0.23840693078E+02 -0.15664887496E+02  0.69369130863E+02  0.00000000000E+00 0. -1.
        -14    1    3    3    0    0 -0.30813950132E+01 -0.93714436751E+01  0.37745690940E+02  0.39013537859E+02  0.00000000000E+00 0.  1.
          5    1    4    4  501    0 -0.41460126887E+02  0.38295685279E+01  0.54551623195E+02  0.68752888738E+02  0.41800000000E+01 0. -1.
         -5    1    4    4    0  501 -0.26743417804E+02  0.57393130553E+02  0.62772570379E+03  0.63092488731E+03  0.41800000000E+01 0. -1.
</event>
<event>
11    1  0.8551154E-009  0.2389826E+03  0.7561462E-02  0.1029938E+00
         22   -1    0    0    0    0  0.00000000000E+00  0.00000000000E+00  0.43337692600E+03  0.43337692600E+03  0.00000000000E+00 0. -1.
         22   -1    0    0    0    0 -0.00000000000E+00 -0.00000000000E+00 -0.54841835924E+03  0.54841835924E+03  0.00000000000E+00 0. -1.
         24    2    1    2    0    0  0.20914622759E+03  0.19245918239E+01 -0.32751667076E+03  0.39679867298E+03  0.80225735781E+02 0.  0.
         25    2    1    2    0    0 -0.19196754481E+03  0.13454803813E+02 -0.10810480249E+03  0.25370589808E+03  0.12508982530E+03 0.  0.
        -24    2    1    2    0    0 -0.17178682780E+02 -0.15379395636E+02  0.32058004000E+03  0.33129071417E+03  0.80314023024E+02 0.  0.
        -11    1    3    3    0    0 -0.27589803308E+01  0.99105516646E+01 -0.68551729453E+01  0.12362216746E+02  0.00000000000E+00 0.  1.
         12    1    3    3    0    0  0.21190520793E+03 -0.79859598406E+01 -0.32066149782E+03  0.38443645624E+03  0.00000000000E+00 0. -1.
         11    1    5    5    0    0  0.25231862877E+02 -0.16081874305E+00  0.21530233296E+03  0.21677584585E+03  0.00000000000E+00 0. -1.
        -12    1    5    5    0    0 -0.42410545657E+02 -0.15218576893E+02  0.10527770705E+03  0.11451486832E+03  0.00000000000E+00 0.  1.
          5    1    4    4  501    0 -0.10480636720E+03  0.78257570624E+01 -0.12632927195E+03  0.16438422805E+03  0.41800000000E+01 0.  1.
         -5    1    4    4    0  501 -0.87161177611E+02  0.56290467502E+01  0.18224469468E+02  0.89321670032E+02  0.41800000000E+01 0.  1.
</event>
<event>
11    1  0.8551154E-009  0.1718380E+03  0.7561462E-02  0.1076443E+00
         22   -1    0    0    0    0  0.00000000000E+00  0.00000000000E+00  0.30578967076E+04  0.30578967076E+04  0.00000000000E+00 0. -1.
         22   -1    0    0    0    0 -0.00000000000E+00 -0.00000000000E+00 -0.57560873547E+02  0.57560873547E+02  0.00000000000E+00 0. -1.
         24    2    1    2    0    0 -0.69686291973E+02  0.25222471356E+02  0.84473772594E+02  0.13828368039E+03  0.80586634477E+02 0.  0.
         25    2    1    2    0    0  0.16634116216E+03  0.36961045238E+02  0.36010361633E+03  0.41756235536E+03  0.12509278567E+03 0.  0.
        -24    2    1    2    0    0 -0.96654870189E+02 -0.62183516594E+02  0.25557584451E+04  0.25596115453E+04  0.80629273826E+02 0.  0.
        -13    1    3    3    0    0 -0.10898390145E+02  0.40417509762E+02  0.11619990520E+02  0.43443919975E+02  0.00000000000E+00 0.  1.
         14    1    3    3    0    0 -0.58787901827E+02 -0.15195038406E+02  0.72853782074E+02  0.94839760417E+02  0.00000000000E+00 0. -1.
         11    1    5    5    0    0 -0.47027453670E+02 -0.43151757286E+02  0.20644524979E+04  0.20654388812E+04  0.00000000000E+00 0. -1.
        -12    1    5    5    0    0 -0.49627416519E+02 -0.19031759308E+02  0.49130594714E+03  0.49417266419E+03  0.00000000000E+00 0.  1.
          5    1    4    4  501    0  0.14707634699E+03 -0.17825530100E+02  0.21426758668E+03  0.26053267063E+03  0.41800000000E+01 0. -1.
         -5    1    4    4    0  501  0.19264815172E+02  0.54786575338E+02  0.14583602966E+03  0.15702968473E+03  0.41800000000E+01 0. -1.
</event>
<event>
11    1  0.8551154E-009  0.2145947E+03  0.7561462E-02  0.1044657E+00
         22   -1    0    0    0    0  0.00000000000E+00  0.00000000000E+00  0.24251362229E+03  0.24251362229E+03  0.00000000000E+00 0. -1.
         22   -1    0    0    0    0 -0.00000000000E+00 -0.00000000000E+00 -0.12386644450E+04  0.12386644450E+04  0.00000000000E+00 0. -1.
        -24    2    1    2    0    0  0.24894234796E+02 -0.10519977827E+02 -0.10648703183E+04  0.10682327375E+04  0.80262031375E+02 0.  0.
         25    2    1    2    0    0 -0.25753102313E+02  0.17954450079E+03  0.39776652192E+02  0.22389843531E+03  0.12509547247E+03 0.  0.
         24    2    1    2    0    0  0.85886751671E+00 -0.16902452297E+03  0.28942843430E+02  0.18904689450E+03  0.79567663774E+02 0.  0.
        -11    1    5    5    0    0  0.25157014054E+02 -0.12485693722E+03 -0.63273942650E+01  0.12752319807E+03  0.00000000000E+00 0.  1.
         12    1    5    5    0    0 -0.24298146537E+02 -0.44167585747E+02  0.35270237695E+02  0.61523696434E+02  0.00000000000E+00 0. -1.
         11    1    3    3    0    0  0.17396414116E+02 -0.20565031094E+02 -0.10403099940E+04  0.10406586565E+04  0.00000000000E+00 0. -1.
        -12    1    3    3    0    0  0.74978206802E+01  0.10045053268E+02 -0.24560324315E+02  0.27574080956E+02  0.00000000000E+00 0.  1.
          5    1    4    4  501    0 -0.21186495691E+02  0.11151800492E+03 -0.38566425748E+02  0.11995822029E+03  0.41800000000E+01 0.  1.
         -5    1    4    4    0  501 -0.45666066213E+01  0.68026495872E+02  0.78343077940E+02  0.10394021502E+03  0.41800000000E+01 0.  1.
</event>
<event>
11    1  0.8551154E-009  0.1323836E+03  0.7561462E-02  0.1116374E+00
         22   -1    0    0    0    0  0.00000000000E+00  0.00000000000E+00  0.14551184153E+04  0.14551184153E+04  0.00000000000E+00 0. -1.
         22   -1    0    0    0    0 -0.00000000000E+00 -0.00000000000E+00 -0.17884824375E+03  0.17884824375E+03  0.00000000000E+00 0. -1.
         24    2    1    2    0    0  0.13837651133E+02 -0.16291619748E+02 -0.14820611448E+03  0.17023989176E+03  0.80991795354E+02 0.  0.
         25    2    1    2    0    0 -0.86484301431E+01 -0.28112117156E+02  0.21029453597E+03  0.24645121140E+03  0.12509724723E+03 0.  0.
        -24    2    1    2    0    0 -0.51892209901E+01  0.44403736904E+02  0.12141817501E+04  0.12172755559E+04  0.74322519476E+02 0.  0.
        -11    1    3    3    0    0  0.23131600880E+02  0.23322211110E+02 -0.27433464558E+02  0.42797096491E+02  0.00000000000E+00 0.  1.
         12    1    3    3    0    0 -0.92939497472E+01 -0.39613830858E+02 -0.12077264992E+03  0.12744279527E+03  0.00000000000E+00 0. -1.
         11    1    5    5    0    0 -0.34852037564E+02  0.26324412165E+02  0.92235059588E+03  0.92338413508E+03  0.00000000000E+00 0. -1.
        -12    1    5    5    0    0  0.29662816574E+02  0.18079324739E+02  0.29183115417E+03  0.29389142079E+03  0.00000000000E+00 0.  1.
          5    1    4    4  501    0  0.21810746379E+01  0.19953538734E+02  0.19297062946E+03  0.19405678816E+03  0.41800000000E+01 0. -1.
         -5    1    4    4    0  501 -0.10829504781E+02 -0.48065655889E+02  0.17323906505E+02  0.52394423238E+02  0.41800000000E+01 0. -1.
</event>
<event>
11    1  0.8551154E-009  0.2802647E+03  0.7561462E-02  0.1008908E+00
         22   -1    0    0    0    0  0.00000000000E+00  0.00000000000E+00  0.65717668649E+03  0.65717668649E+03  0.00000000000E+00 0. -1.
         22   -1    0    0    0    0 -0.00000000000E+00 -0.00000000000E+00 -0.67692557567E+03  0.67692557567E+03  0.00000000000E+00 0.  1.
        -24    2    1    2    0    0 -0.14997615104E+03 -0.19603146430E+03 -0.54764862020E+03  0.60608712063E+03  0.80631294891E+02 0.  0.
         25    2    1    2    0    0  0.27253830746E+03  0.18627224320E+03  0.40371641623E+03  0.53629189759E+03  0.12509027565E+03 0.  0.
         24    2    1    2    0    0 -0.12256215642E+03  0.97592211036E+01  0.12418331479E+03  0.19172324394E+03  0.78864326608E+02 0.  0.
        -11    1    5    5    0    0 -0.80007735548E+02 -0.28443119933E+02  0.51764006492E+02  0.99447278430E+02  0.00000000000E+00 0.  1.
         12    1    5    5    0    0 -0.42554420872E+02  0.38202341036E+02  0.72419308293E+02  0.92275965506E+02  0.00000000000E+00 0. -1.
         11    1    3    3    0    0 -0.10398599778E+03 -0.15112290118E+03 -0.31301610191E+03  0.36280890156E+03  0.00000000000E+00 0. -1.
        -12    1    3    3    0    0 -0.45990153265E+02 -0.44908563124E+02 -0.23463251829E+03  0.24327821908E+03  0.00000000000E+00 0.  1.
          5    1    4    4  501    0  0.21882561584E+03  0.12436149114E+03  0.37011868639E+03  0.44761115384E+03  0.41800000000E+01 0.  1.
         -5    1    4    4    0  501  0.53712691624E+02  0.61910752051E+02  0.33597729842E+02  0.88680743747E+02  0.41800000000E+01 0.  1.
</event>
<event>
11    1  0.8551154E-009  0.1428400E+03  0.7561462E-02  0.1104428E+00
         22   -1    0    0    0    0  0.00000000000E+00  0.00000000000E+00  0.60624532278E+03  0.60624532278E+03  0.00000000000E+00 0. -1.
         22   -1    0    0    0    0 -0.00000000000E+00 -0.00000000000E+00 -0.14941566216E+03  0.14941566216E+03  0.00000000000E+00 0. -1.
         24    2    1    2    0    0 -0.46904290649E+02  0.66040447533E+02 -0.70035747405E+02  0.13432626856E+03  0.81099860164E+02 0.  0.
         25    2    1    2    0    0  0.43991199002E+02 -0.22735091677E+01  0.64195463837E+02  0.14733914675E+03  0.12508945661E+03 0.  0.
        -24    2    1    2    0    0  0.29130916467E+01 -0.63766938366E+02  0.46266994419E+03  0.47399556964E+03  0.80830775372E+02 0.  0.
        -13    1    3    3    0    0  0.23146889575E+02  0.12265985370E+02 -0.18602497089E+02  0.32129204659E+02  0.00000000000E+00 0.  1.
         14    1    3    3    0    0 -0.70051180224E+02  0.53774462163E+02 -0.51433250315E+02  0.10219706390E+03  0.00000000000E+00 0. -1.
         11    1    5    5    0    0  0.40195358184E+01 -0.82058627222E+02  0.41205206756E+03  0.42016268438E+03  0.00000000000E+00 0. -1.
        -12    1    5    5    0    0 -0.11064441717E+01  0.18291688857E+02  0.50617876632E+02  0.53832885253E+02  0.00000000000E+00 0.  1.
          5    1    4    4  501    0  0.26934275617E+02 -0.50459534993E+02  0.75509311820E+02  0.94819557298E+02  0.41800000000E+01 0.  1.
         -5    1    4    4    0  501  0.17056923385E+02  0.48186025825E+02 -0.11313847983E+02  0.52519589453E+02  0.41800000000E+01 0.  1.
</event>
<event>
11    1  0.1621416E-008  0.1611262E+03  0.7561462E-02  0.1086023E+00
         22   -1    0    0    0    0  0.00000000000E+00  0.00000000000E+00  0.29606920772E+03  0.29606920772E+03  0.00000000000E+00 0.  1.
         22   -1    0    0    0    0 -0.00000000000E+00 -0.00000000000E+00 -0.47414998176E+03  0.47414998176E+03  0.00000000000E+00 0. -1.
         24    2    1    2    0    0  0.58874839892E+02 -0.34038515594E+02 -0.28297494674E+03  0.30247606900E+03  0.82414103885E+02 0.  0.
         25    2    1    2    0    0 -0.54979825487E+02  0.13225828675E+03 -0.10887343377E+03  0.21915177772E+03  0.12513609179E+03 0.  0.
        -24    2    1    2    0    0 -0.38950144050E+01 -0.98219771156E+02  0.21376760647E+03  0.24859134276E+03  0.80241956213E+02 0.  0.
        -11    1    3    3    0    0  0.22843141280E+02  0.98085124829E+01 -0.16064431592E+02  0.29598682116E+02  0.00000000000E+00 0.  1.
         12    1    3    3    0    0  0.36031698612E+02 -0.43847028077E+02 -0.26691051515E+03  0.27287738689E+03  0.00000000000E+00 0. -1.
         13    1    5    5    0    0 -0.35472588218E+02 -0.70429489027E+02  0.10036935450E+03  0.12764256642E+03  0.00000000000E+00 0. -1.
        -14    1    5    5    0    0  0.31577573813E+02 -0.27790282129E+02  0.11339825197E+03  0.12094877634E+03  0.00000000000E+00 0.  1.
          5    1    4    4  501    0 -0.63286363795E+02  0.65371513752E+01 -0.43093697240E+02  0.76957373476E+02  0.41800000000E+01 0. -1.
         -5    1    4    4    0  501  0.83065383081E+01  0.12572113538E+03 -0.65779736534E+02  0.14219440424E+03  0.41800000000E+01 0. -1.
</event>
<event>
11    1  0.8551154E-009  0.1346214E+03  0.7561462E-02  0.1113718E+00
         22   -1    0    0    0    0  0.00000000000E+00  0.00000000000E+00  0.79983405508E+03  0.79983405508E+03  0.00000000000E+00 0.  1.
         22   -1    0    0    0    0 -0.00000000000E+00 -0.00000000000E+00 -0.65214912897E+03  0.65214912897E+03  0.00000000000E+00 0. -1.
         24    2    1    2    0    0  0.29455099790E+02 -0.34042878209E+02 -0.52353152933E+03  0.53125866330E+03  0.78255892232E+02 0.  0.
         25    2    1    2    0    0  0.30126126116E+01 -0.50492229261E+01 -0.89628473406E+02  0.15399712746E+03  0.12508909438E+03 0.  0.
        -24    2    1    2    0    0 -0.32467712401E+02  0.39092101135E+02  0.76084492884E+03  0.76672739329E+03  0.80022154184E+02 0.  0.
        -11    1    3    3    0    0  0.35403498179E+02 -0.36428918623E+02 -0.16438470486E+03  0.17205465697E+03  0.00000000000E+00 0.  1.
         12    1    3    3    0    0 -0.59483983898E+01  0.23860404142E+01 -0.35914682448E+03  0.35920400633E+03  0.00000000000E+00 0. -1.
         13    1    5    5    0    0 -0.59207806607E+02  0.25467215127E+02  0.54794187827E+03  0.55171953506E+03  0.00000000000E+00 0. -1.
        -14    1    5    5    0    0  0.26740094206E+02  0.13624886008E+02  0.21290305058E+03  0.21500785824E+03  0.00000000000E+00 0.  1.
          5    1    4    4  501    0 -0.45397461258E+02  0.30151034820E+02 -0.12132073350E+02  0.55988159402E+02  0.41800000000E+01 0. -1.
         -5    1    4    4    0  501  0.48410073870E+02 -0.35200257746E+02 -0.77496400056E+02  0.98008968054E+02  0.41800000000E+01 0. -1.
</event>
<event>
11    1  0.8551154E-009  0.1555823E+03  0.7561462E-02  0.1091307E+00
         22   -1    0    0    0    0  0.00000000000E+00  0.00000000000E+00  0.32652405971E+03  0.32652405971E+03  0.00000000000E+00 0.  1.
         22   -1    0    0    0    0 -0.00000000000E+00 -0.00000000000E+00 -0.25207848593E+03  0.25207848593E+03  0.00000000000E+00 0. -1.
         24    2    1    2    0    0 -0.39632650597E+01  0.89966797211E+02 -0.15512797569E+03  0.19690703597E+03  0.81227827146E+02 0.  0.
         25    2    1    2    0    0 -0.30222249561E+01 -0.10403805398E+03  0.29168603601E+02  0.16533105055E+03  0.12510195171E+03 0.  0.
        -24    2    1    2    0    0  0.69854900158E+01  0.14071256772E+02  0.20040494586E+03  0.21636445912E+03  0.80028991662E+02 0.  0.
        -13    1    3    3    0    0 -0.68255854285E+01  0.40658383520E+02 -0.83803966852E+01  0.42070462507E+02  0.00000000000E+00 0.  1.
         14    1    3    3    0    0  0.28623203688E+01  0.49308413691E+02 -0.14674757900E+03  0.15483657346E+03  0.00000000000E+00 0. -1.
         11    1    5    5    0    0  0.19408383364E+02  0.63514281216E+01  0.58252195321E+01  0.21235799175E+02  0.00000000000E+00 0. -1.
        -12    1    5    5    0    0 -0.12422893348E+02  0.77198286507E+01  0.19457972633E+03  0.19512865994E+03  0.00000000000E+00 0.  1.
          5    1    4    4  501    0 -0.49739529692E+02 -0.10069799917E+03  0.50986631280E+01  0.11250589592E+03  0.41800000000E+01 0. -1.
         -5    1    4    4    0  501  0.46717304736E+02 -0.33400548159E+01  0.24069940474E+02  0.52825154637E+02  0.41800000000E+01 0. -1.
</event>
<event>
11    1  0.8551154E-009  0.1456916E+03  0.7561462E-02  0.1101364E+00
         22   -1    0    0    0    0  0.00000000000E+00  0.00000000000E+00  0.15080816801E+03  0.15080816801E+03  0.00000000000E+00 0. -1.
         22   -1    0    0    0    0 -0.00000000000E+00 -0.00000000000E+00 -0.65658474224E+03  0.65658474224E+03  0.00000000000E+00 0.  1.
         24    2    1    2    0    0  0.19954369595E+01 -0.32466461800E+02 -0.49077207801E+03  0.49833763172E+03  0.80156782173E+02 0.  0.
         25    2    1    2    0    0 -0.58703952092E+02 -0.21105778253E+02 -0.99232509374E+02  0.17142382392E+03  0.12508968233E+03 0.  0.
        -24    2    1    2    0    0  0.56708515132E+02  0.53572240053E+02  0.84228013150E+02  0.13763145460E+03  0.75909278113E+02 0.  0.
        -11    1    3    3    0    0 -0.85072755627E+01 -0.68871310318E+01 -0.44303559673E+03  0.44317078681E+03  0.00000000000E+00 0.  1.
         12    1    3    3    0    0  0.10502712522E+02 -0.25579330768E+02 -0.47736481277E+02  0.55166844912E+02  0.00000000000E+00 0. -1.
         11    1    5    5    0    0 -0.21700605100E+01  0.49689602148E+02  0.35514835585E+02  0.61115213088E+02  0.00000000000E+00 0. -1.
        -12    1    5    5    0    0  0.58878575642E+02  0.38826379051E+01  0.48713177565E+02  0.76516241513E+02  0.00000000000E+00 0.  1.
          5    1    4    4  501    0 -0.55161045517E+02 -0.56288646599E+02 -0.15492384923E+02  0.80427850083E+02  0.41800000000E+01 0.  1.
         -5    1    4    4    0  501 -0.35429065750E+01  0.35182868346E+02 -0.83740124451E+02  0.90995973840E+02  0.41800000000E+01 0.  1.
</event>
<event>
11    1  0.8551154E-009  0.1316474E+03  0.7561462E-02  0.1117261E+00
         22   -1    0    0    0    0  0.00000000000E+00  0.00000000000E+00  0.16973828340E+03  0.16973828340E+03  0.00000000000E+00 0. -1.
         22   -1    0    0    0    0 -0.00000000000E+00 -0.00000000000E+00 -0.12024868401E+04  0.12024868401E+04  0.00000000000E+00 0. -1.
         24    2    1    2    0    0 -0.25254976445E+02 -0.78428950169E+01 -0.10438220879E+04  0.10473793538E+04  0.82095278724E+02 0.  0.
         25    2    1    2    0    0  0.56842698654E+02 -0.15125112098E+02 -0.10328129384E+03  0.17254863465E+03  0.12508454843E+03 0.  0.
        -24    2    1    2    0    0 -0.31587722209E+02  0.22968007115E+02  0.11435482503E+03  0.15229713503E+03  0.92693461385E+02 0.  0.
        -11    1    3    3    0    0 -0.19296397113E+02 -0.10650231057E+02 -0.66941116983E+02  0.70476176869E+02  0.00000000000E+00 0.  1.
         12    1    3    3    0    0 -0.59585793324E+01  0.28073360402E+01 -0.97688097091E+03  0.97690317694E+03  0.00000000000E+00 0. -1.
         13    1    5    5    0    0 -0.15071732218E+02  0.53090401285E+02  0.10165870846E+03  0.11567299091E+03  0.00000000000E+00 0. -1.
        -14    1    5    5    0    0 -0.16515989991E+02 -0.30122394171E+02  0.12696116571E+02  0.36624144112E+02  0.00000000000E+00 0.  1.
          5    1    4    4  501    0  0.66275092327E+02 -0.19469255766E+02 -0.54485223849E+00  0.69204111489E+02  0.41800000000E+01 0. -1.
         -5    1    4    4    0  501 -0.94323936738E+01  0.43441436678E+01 -0.10273644160E+03  0.10334452317E+03  0.41800000000E+01 0. -1.
</event>
<event>
11    1  0.8551154E-009  0.3726085E+03  0.7561462E-02  0.9734225E-01
         22   -1    0    0    0    0  0.00000000000E+00  0.00000000000E+00  0.35597901388E+03  0.35597901388E+03  0.00000000000E+00 0. -1.
         22   -1    0    0    0    0 -0.00000000000E+00 -0.00000000000E+00 -0.75972974264E+03  0.75972974264E+03  0.00000000000E+00 0. -1.
         24    2    1    2    0    0  0.33755337902E+03  0.14127323340E+03 -0.35392039724E+03  0.51580012094E+03  0.83004259006E+02 0.  0.
         25    2    1    2    0    0 -0.22464391077E+03 -0.27811906786E+03  0.46886096609E+02  0.38165529028E+03  0.12508937601E+03 0.  0.
        -24    2    1    2    0    0 -0.11290946825E+03  0.13684583445E+03 -0.96716428128E+02  0.21825334531E+03  0.82493180573E+02 0.  0.
        -11    1    3    3    0    0  0.27331422526E+03  0.10835420321E+03 -0.32441486633E+03  0.43781994539E+03  0.00000000000E+00 0.  1.
         12    1    3    3    0    0  0.64239153756E+02  0.32919030196E+02 -0.29505530909E+02  0.77980175548E+02  0.00000000000E+00 0. -1.
         11    1    5    5    0    0 -0.10028246838E+03  0.67243432479E+02 -0.82131758460E+02  0.14602697841E+03  0.00000000000E+00 0. -1.
        -12    1    5    5    0    0 -0.12626999873E+02  0.69602401975E+02 -0.14584669668E+02  0.72226366902E+02  0.00000000000E+00 0.  1.
          5    1    4    4  501    0 -0.49313916612E+02 -0.22087131734E+02  0.46354511763E+02  0.71315614845E+02  0.41800000000E+01 0.  1.
         -5    1    4    4    0  501 -0.17532999416E+03 -0.25603193612E+03  0.53158484617E+00  0.31033967543E+03  0.41800000000E+01 0.  1.
</event>
<event>
11    1  0.8551154E-009  0.1310130E+03  0.7561462E-02  0.1118031E+00
         22   -1    0    0    0    0  0.00000000000E+00  0.00000000000E+00  0.85279105849E+03  0.85279105849E+03  0.00000000000E+00 0.  1.
         22   -1    0    0    0    0 -0.00000000000E+00 -0.00000000000E+00 -0.83062598452E+03  0.83062598452E+03  0.00000000000E+00 0. -1.
         24    2    1    2    0    0 -0.35157365672E+02 -0.11954653433E+02 -0.58231188372E+03  0.58896985705E+03  0.80121211286E+02 0.  0.
         25    2    1    2    0    0  0.73685168262E+02  0.12507000404E+02 -0.22030184560E+03  0.26413561366E+03  0.12509512441E+03 0.  0.
        -24    2    1    2    0    0 -0.38527802589E+02 -0.55234697038E+00  0.82477880329E+03  0.83031157229E+03  0.87593013729E+02 0.  0.
        -11    1    3    3    0    0  0.15719395339E+02  0.22074586397E+02 -0.17973932259E+03  0.18177076454E+03  0.00000000000E+00 0.  1.
         12    1    3    3    0    0 -0.50876761011E+02 -0.34029239831E+02 -0.40257256113E+03  0.40719909252E+03  0.00000000000E+00 0. -1.
         13    1    5    5    0    0 -0.15892654296E+02  0.42574687592E+02  0.32434961447E+03  0.32751771386E+03  0.00000000000E+00 0. -1.
        -14    1    5    5    0    0 -0.22635148293E+02 -0.43127034563E+02  0.50042918882E+03  0.50279385843E+03  0.00000000000E+00 0.  1.
          5    1    4    4  501    0 -0.20509421023E+02  0.16591335918E+02 -0.13272556196E+03  0.13538632123E+03  0.41800000000E+01 0. -1.
         -5    1    4    4    0  501  0.94194589284E+02 -0.40843355144E+01 -0.87576283638E+02  0.12874929244E+03  0.41800000000E+01 0. -1.
</event>
<event>
11    1  0.8551154E-009  0.2318655E+03  0.7561462E-02  0.1034029E+00
         22   -1    0    0    0    0  0.00000000000E+00  0.00000000000E+00  0.16700580913E+04  0.16700580913E+04  0.00000000000E+00 0. -1.
         22   -1    0    0    0    0 -0.00000000000E+00 -0.00000000000E+00 -0.17705480305E+03  0.17705480305E+03  0.00000000000E+00 0.  1.
        -24    2    1    2    0    0 -0.10482306610E+03 -0.37059253780E+02  0.74201936768E+02  0.15637486221E+03  0.81153599022E+02 0.  0.
         25    2    1    2    0    0  0.25599499887E+03  0.15076142622E+03  0.74435013280E+02  0.33083329469E+03  0.12509056954E+03 0.  0.
         24    2    1    2    0    0 -0.15117193278E+03 -0.11370217244E+03  0.13443663382E+04  0.13599047374E+04  0.78986748103E+02 0.  0.
        -13    1    5    5    0    0 -0.52282378344E+02  0.24047308444E+01  0.32214624377E+03  0.32637008470E+03  0.00000000000E+00 0.  1.
         14    1    5    5    0    0 -0.98889554434E+02 -0.11610690328E+03  0.10222200944E+04  0.10335346527E+04  0.00000000000E+00 0. -1.
         11    1    3    3    0    0 -0.52015308766E+02 -0.40132776012E+02  0.79591512636E+02  0.10320388045E+03  0.00000000000E+00 0. -1.
        -12    1    3    3    0    0 -0.52807757329E+02  0.30735222317E+01 -0.53895758677E+01  0.53170981758E+02  0.00000000000E+00 0.  1.
          5    1    4    4  501    0  0.12675553441E+03  0.11169449349E+02  0.22896812695E+01  0.12733592244E+03  0.41800000000E+01 0.  1.
         -5    1    4    4    0  501  0.12923946446E+03  0.13959197687E+03  0.72145332010E+02  0.20349737225E+03  0.41800000000E+01 0.  1.
</event>
<event>
11    1  0.8551154E-009  0.1332625E+03  0.7561462E-02  0.1115324E+00
         22   -1    0    0    0    0  0.00000000000E+00  0.00000000000E+00  0.20996653281E+03  0.20996653281E+03  0.00000000000E+00 0. -1.
         22   -1    0    0    0    0 -0.00000000000E+00 -0.00000000000E+00 -0.32764608276E+04  0.32764608276E+04  0.00000000000E+00 0.  1.
        -24    2    1    2    0    0  0.66494263223E+01 -0.41394427818E+02 -0.31585658314E+04  0.31598422739E+04  0.79418956559E+02 0.  0.
         25    2    1    2    0    0  0.31774357837E+02  0.63008227864E+02 -0.54319138681E+02  0.15355006789E+03  0.12508959959E+03 0.  0.
         24    2    1    2    0    0 -0.38423784160E+02 -0.21613800046E+02  0.14639067536E+03  0.17303501863E+03  0.81039152869E+02 0.  0.
        -11    1    5    5    0    0 -0.44145419264E+01  0.23479059131E+02  0.10931429993E+02  0.26272619964E+02  0.00000000000E+00 0.  1.
         12    1    5    5    0    0 -0.34009242233E+02 -0.45092859177E+02  0.13545924537E+03  0.14676239867E+03  0.00000000000E+00 0. -1.
         11    1    3    3    0    0 -0.56325167109E+01  0.98078796410E+01 -0.76961422900E+02  0.77788047683E+02  0.00000000000E+00 0. -1.
        -12    1    3    3    0    0  0.12281943033E+02 -0.51202307459E+02 -0.30816044085E+04  0.30820542262E+04  0.00000000000E+00 0.  1.
          5    1    4    4  501    0  0.67766080402E+02  0.60083509344E+01 -0.21282050922E+01  0.68193427769E+02  0.41800000000E+01 0. -1.
         -5    1    4    4    0  501 -0.35991722565E+02  0.56999876930E+02 -0.52190933589E+02  0.85356640117E+02  0.41800000000E+01 0. -1.
</event>
<event>
11    1  0.8551154E-009  0.1322706E+03  0.7561462E-02  0.1116510E+00
         22   -1    0    0    0    0  0.00000000000E+00  0.00000000000E+00  0.22288131380E+04  0.22288131380E+04  0.00000000000E+00 0. -1.
         22   -1    0    0    0    0 -0.00000000000E+00 -0.00000000000E+00 -0.25846818256E+03  0.25846818256E+03  0.00000000000E+00 0. -1.
         24    2    1    2    0    0  0.30810753046E+02  0.28433810729E+02 -0.23303623338E+03  0.25045911079E+03  0.81646163511E+02 0.  0.
         25    2    1    2    0    0 -0.71587996012E+02 -0.55243699599E+02  0.36647028153E+03  0.39764772000E+03  0.12508610818E+03 0.  0.
        -24    2    1    2    0    0  0.40777242967E+02  0.26809888869E+02  0.18369109073E+04  0.18391744898E+04  0.77068598175E+02 0.  0.
        -11    1    3    3    0    0  0.39868124850E+02  0.21483736048E+02 -0.51565364932E+02  0.68629477298E+02  0.00000000000E+00 0.  1.
         12    1    3    3    0    0 -0.90573718050E+01  0.69500746809E+01 -0.18147086844E+03  0.18182963349E+03  0.00000000000E+00 0. -1.
         13    1    5    5    0    0  0.48793674488E+02  0.31286145165E+01  0.16336849037E+04  0.16344164021E+04  0.00000000000E+00 0. -1.
        -14    1    5    5    0    0 -0.80164315215E+01  0.23681274353E+02  0.20322600356E+03  0.20475808764E+03  0.00000000000E+00 0.  1.
          5    1    4    4  501    0  0.13034983327E+02 -0.87984673980E+01  0.22922969432E+03  0.22980654685E+03  0.41800000000E+01 0. -1.
         -5    1    4    4    0  501 -0.84622979340E+02 -0.46445232201E+02  0.13724058721E+03  0.16784117315E+03  0.41800000000E+01 0. -1.
</event>
<event>
11    1  0.8551154E-009  0.4219723E+03  0.7561462E-02  0.9587063E-01
         22   -1    0    0    0    0  0.00000000000E+00  0.00000000000E+00  0.13391877569E+04  0.13391877569E+04  0.00000000000E+00 0. -1.
         22   -1    0    0    0    0 -0.00000000000E+00 -0.00000000000E+00 -0.86296529858E+03  0.86296529858E+03  0.00000000000E+00 0. -1.
        -24    2    1    2    0    0 -0.21755705108E+03 -0.11071182707E+03 -0.64032564869E+03  0.69015805519E+03  0.81933055877E+02 0.  0.
         25    2    1    2    0    0  0.55388905750E+03  0.20395240215E+03  0.44073660011E+03  0.74718525971E+03  0.12508953309E+03 0.  0.
         24    2    1    2    0    0 -0.33633200641E+03 -0.93240575084E+02  0.67581150686E+03  0.76480974054E+03  0.79998268927E+02 0.  0.
        -13    1    5    5    0    0 -0.21672967338E+02  0.79331167187E+01  0.20532043397E+02  0.30890397540E+02  0.00000000000E+00 0.  1.
         14    1    5    5    0    0 -0.31465903907E+03 -0.10117369180E+03  0.65527946347E+03  0.73391934300E+03  0.00000000000E+00 0. -1.
         11    1    3    3    0    0 -0.20534774476E+03 -0.10627284241E+03 -0.51944506444E+03  0.56858138229E+03  0.00000000000E+00 0. -1.
        -12    1    3    3    0    0 -0.12209306324E+02 -0.44389846557E+01 -0.12088058425E+03  0.12157667291E+03  0.00000000000E+00 0.  1.
          5    1    4    4  501    0  0.19716559021E+03  0.13761123590E+02  0.12130864267E+03  0.23194158246E+03  0.41800000000E+01 0. -1.
         -5    1    4    4    0  501  0.35672346729E+03  0.19019127856E+03  0.31942795744E+03  0.51524367725E+03  0.41800000000E+01 0. -1.
</event>
<event>
11    1  0.8551154E-009  0.2043006E+03  0.7561462E-02  0.1051523E+00
         22   -1    0    0    0    0  0.00000000000E+00  0.00000000000E+00  0.12527230645E+04  0.12527230645E+04  0.00000000000E+00 0.  1.
         22   -1    0    0    0    0 -0.00000000000E+00 -0.00000000000E+00 -0.77753528846E+03  0.77753528846E+03  0.00000000000E+00 0. -1.
        -24    2    1    2    0    0 -0.11068019974E+03 -0.11215004614E+03 -0.63373288061E+03  0.65782615679E+03  0.79310460434E+02 0.  0.
         25    2    1    2    0    0  0.72165153502E+02  0.21169707509E+03  0.77290390799E+00  0.25625854446E+03  0.12507750896E+03 0.  0.
         24    2    1    2    0    0  0.38515046242E+02 -0.99547028956E+02  0.11081477528E+04  0.11161736517E+04  0.80368893851E+02 0.  0.
        -11    1    5    5    0    0  0.38237024589E+02 -0.49946248590E+01  0.36643200178E+03  0.36845546305E+03  0.00000000000E+00 0.  1.
         12    1    5    5    0    0  0.27802165298E+00 -0.94552404097E+02  0.74171575100E+03  0.74771818869E+03  0.00000000000E+00 0. -1.
         13    1    3    3    0    0 -0.40940797051E+02 -0.92468183982E+02 -0.42525748725E+03  0.43711605367E+03  0.00000000000E+00 0. -1.
        -14    1    3    3    0    0 -0.69739402693E+02 -0.19681862153E+02 -0.20847539336E+03  0.22071010312E+03  0.00000000000E+00 0.  1.
          5    1    4    4  501    0  0.41861027069E+02  0.23182479288E+02 -0.38163896972E+02  0.61349232801E+02  0.41800000000E+01 0.  1.
         -5    1    4    4    0  501  0.30304126433E+02  0.18851459580E+03  0.38936800879E+02  0.19490931166E+03  0.41800000000E+01 0.  1.
</event>
<event>
11    1  0.8551154E-009  0.2843289E+03  0.7561462E-02  0.1007051E+00
         22   -1    0    0    0    0  0.00000000000E+00  0.00000000000E+00  0.26534662983E+03  0.26534662983E+03  0.00000000000E+00 0. -1.
         22   -1    0    0    0    0 -0.00000000000E+00 -0.00000000000E+00 -0.14930604228E+04  0.14930604228E+04  0.00000000000E+00 0. -1.
         24    2    1    2    0    0 -0.22031371640E+02 -0.23057561940E+03 -0.44573297826E+03  0.50834421704E+03  0.78009342287E+02 0.  0.
         25    2    1    2    0    0  0.91459304963E+02  0.26012729271E+03 -0.97940168325E+03  0.10251374342E+04  0.12509232178E+03 0.  0.
        -24    2    1    2    0    0 -0.69427933323E+02 -0.29551673302E+02  0.19742086856E+03  0.22492540137E+03  0.76960363277E+02 0.  0.
        -11    1    3    3    0    0  0.72932181741E+00 -0.35369497440E+02 -0.14377640438E+03  0.14806480917E+03  0.00000000000E+00 0.  1.
         12    1    3    3    0    0 -0.22760693457E+02 -0.19520612196E+03 -0.30195657389E+03  0.36027940787E+03  0.00000000000E+00 0. -1.
         11    1    5    5    0    0 -0.80267386107E+02 -0.90092496488E+01  0.17453115673E+03  0.19231522176E+03  0.00000000000E+00 0. -1.
        -12    1    5    5    0    0  0.10839452783E+02 -0.20542423653E+02  0.22889711835E+02  0.32610179608E+02  0.00000000000E+00 0.  1.
          5    1    4    4  501    0  0.86871117002E+01 -0.13659702782E+02 -0.52156483491E+02  0.54770654186E+02  0.41800000000E+01 0.  1.
         -5    1    4    4    0  501  0.82772193263E+02  0.27378699549E+03 -0.92724519976E+03  0.97036678001E+03  0.41800000000E+01 0.  1.
</event>
<event>
11    1  0.8551154E-009  0.1615587E+03  0.7561462E-02  0.1085620E+00
         22   -1    0    0    0    0  0.00000000000E+00  0.00000000000E+00  0.16101925235E+04  0.16101925235E+04  0.00000000000E+00 0. -1.
         22   -1    0    0    0    0 -0.00000000000E+00 -0.00000000000E+00 -0.12506878787E+03  0.12506878787E+03  0.00000000000E+00 0.  1.
         24    2    1    2    0    0  0.13308484678E+02  0.33224360152E+02 -0.77330710234E+02  0.11779092271E+03  0.81324589495E+02 0.  0.
         25    2    1    2    0    0  0.73766162073E+02  0.26722961214E+02  0.20014180726E+03  0.24871341761E+03  0.12508420270E+03 0.  0.
        -24    2    1    2    0    0 -0.87074646751E+02 -0.59947321366E+02  0.13623126386E+04  0.13687569710E+04  0.80151388166E+02 0.  0.
        -13    1    3    3    0    0 -0.27472098596E+02 -0.16310520729E+00 -0.53094090998E+02  0.59780643217E+02  0.00000000000E+00 0.  1.
         14    1    3    3    0    0  0.40780583274E+02  0.33387465359E+02 -0.24236619236E+02  0.58010279497E+02  0.00000000000E+00 0. -1.
         11    1    5    5    0    0 -0.67071711158E+02 -0.68518503935E+02  0.12809751692E+04  0.12845585949E+04  0.00000000000E+00 0. -1.
        -12    1    5    5    0    0 -0.20002935593E+02  0.85711825697E+01  0.81337469434E+02  0.84198376094E+02  0.00000000000E+00 0.  1.
          5    1    4    4  501    0 -0.12902095279E+02 -0.24476170788E+02  0.11007330089E+03  0.11357442920E+03  0.41800000000E+01 0. -1.
         -5    1    4    4    0  501  0.86668257352E+02  0.51199132002E+02  0.90068506371E+02  0.13513898842E+03  0.41800000000E+01 0. -1.
</event>
<event>
11    1  0.8551154E-009  0.1463052E+03  0.7561462E-02  0.1100715E+00
         22   -1    0    0    0    0  0.00000000000E+00  0.00000000000E+00  0.23270470319E+03  0.23270470319E+03  0.00000000000E+00 0.  1.
         22   -1    0    0    0    0 -0.00000000000E+00 -0.00000000000E+00 -0.30524725524E+04  0.30524725524E+04  0.00000000000E+00 0. -1.
         24    2    1    2    0    0 -0.65434498579E+02  0.36136477760E+02 -0.28580860930E+04  0.28600828577E+04  0.76356526620E+02 0.  0.
         25    2    1    2    0    0  0.97978481640E+02 -0.85836016378E+02 -0.13482613815E+03  0.22537154132E+03  0.12508652820E+03 0.  0.
        -24    2    1    2    0    0 -0.32543983061E+02  0.49699538618E+02  0.17314438194E+03  0.19972285659E+03  0.79881709275E+02 0.  0.
        -13    1    3    3    0    0 -0.59558966549E+02  0.41001800811E+01 -0.10447802167E+04  0.10464844878E+04  0.00000000000E+00 0.  1.
         14    1    3    3    0    0 -0.58755320301E+01  0.32036297679E+02 -0.18133058763E+04  0.18135983699E+04  0.00000000000E+00 0. -1.
         11    1    5    5    0    0  0.17151523168E+02  0.40720994880E+02  0.11212173348E+03  0.12051413730E+03  0.00000000000E+00 0. -1.
        -12    1    5    5    0    0 -0.49695506229E+02  0.89785437385E+01  0.61022648461E+02  0.79208719294E+02  0.00000000000E+00 0.  1.
          5    1    4    4  501    0 -0.18452006501E+01  0.15142033010E+02  0.12913365353E+02  0.20418455717E+02  0.41800000000E+01 0.  1.
         -5    1    4    4    0  501  0.99823682290E+02 -0.10097804939E+03 -0.14773950350E+03  0.20495308561E+03  0.41800000000E+01 0.  1.
</event>
<event>
11    1  0.8551154E-009  0.1708613E+03  0.7561462E-02  0.1077285E+00
         22   -1    0    0    0    0  0.00000000000E+00  0.00000000000E+00  0.57845041766E+03  0.57845041766E+03  0.00000000000E+00 0. -1.
         22   -1    0    0    0    0 -0.00000000000E+00 -0.00000000000E+00 -0.20388232334E+04  0.20388232334E+04  0.00000000000E+00 0.  1.
         24    2    1    2    0    0  0.31934531032E+02  0.37820070263E+01 -0.19301736113E+04  0.19322657886E+04  0.83945161129E+02 0.  0.
         25    2    1    2    0    0 -0.11445978159E+03  0.75547752211E+02 -0.93976110499E+01  0.18586280166E+03  0.12509261162E+03 0.  0.
        -24    2    1    2    0    0  0.82525250553E+02 -0.79329759238E+02  0.47919840661E+03  0.49914506084E+03  0.80069040086E+02 0.  0.
        -11    1    3    3    0    0  0.72251101070E+01  0.42965082872E+02 -0.92906286705E+03  0.93008387336E+03  0.00000000000E+00 0.  1.
         12    1    3    3    0    0  0.24709420925E+02 -0.39183075846E+02 -0.10011107443E+04  0.10021819152E+04  0.00000000000E+00 0. -1.
         11    1    5    5    0    0  0.41360444364E+02 -0.52024855038E+02  0.40226356384E+03  0.40771711602E+03  0.00000000000E+00 0. -1.
        -12    1    5    5    0    0  0.41164806189E+02 -0.27304904199E+02  0.76934842770E+02  0.91427944819E+02  0.00000000000E+00 0.  1.
          5    1    4    4  501    0 -0.77016274697E+02  0.11012941860E+03 -0.52700928585E+01  0.13455571964E+03  0.41800000000E+01 0. -1.
         -5    1    4    4    0  501 -0.37443506888E+02 -0.34581666391E+02 -0.41275181914E+01  0.51307082015E+02  0.41800000000E+01 0. -1.
</event>
<event>
11    1  0.8551154E-009  0.1346460E+03  0.7561462E-02  0.1113689E+00
         22   -1    0    0    0    0  0.00000000000E+00  0.00000000000E+00  0.21721536655E+04  0.21721536655E+04  0.00000000000E+00 0.  1.
         22   -1    0    0    0    0 -0.00000000000E+00 -0.00000000000E+00 -0.15062550825E+03  0.15062550825E+03  0.00000000000E+00 0. -1.
         24    2    1    2    0    0  0.14548801509E+02 -0.30353838242E+02 -0.10257351332E+03  0.13493106216E+03  0.80944689641E+02 0.  0.
         25    2    1    2    0    0 -0.63583203642E+02  0.23696323435E+02  0.13337477326E+03  0.19503685688E+03  0.12508479472E+03 0.  0.
        -24    2    1    2    0    0  0.49034402133E+02  0.66575148067E+01  0.19907268973E+04  0.19928112547E+04  0.76514195644E+02 0.  0.
        -11    1    3    3    0    0 -0.20433306194E+02 -0.15018149162E+02  0.12555333107E+00  0.25359033300E+02  0.00000000000E+00 0.  1.
         12    1    3    3    0    0  0.34982107703E+02 -0.15335689080E+02 -0.10269906665E+03  0.10957202886E+03  0.00000000000E+00 0. -1.
         13    1    5    5    0    0  0.19443107506E+02 -0.17447706495E+02  0.20262851304E+03  0.20430558286E+03  0.00000000000E+00 0. -1.
        -14    1    5    5    0    0  0.29591294627E+02  0.24105221302E+02  0.17880983843E+04  0.17885056718E+04  0.00000000000E+00 0.  1.
          5    1    4    4  501    0 -0.32002652682E+02  0.74436711414E+02  0.89349970402E+02  0.12068920165E+03  0.41800000000E+01 0. -1.
         -5    1    4    4    0  501 -0.31580550960E+02 -0.50740387978E+02  0.44024802856E+02  0.74347655226E+02  0.41800000000E+01 0. -1.
</event>
<event>
11    1  0.8551154E-009  0.1738342E+03  0.7561462E-02  0.1074742E+00
         22   -1    0    0    0    0  0.00000000000E+00  0.00000000000E+00  0.12291921152E+04  0.12291921152E+04  0.00000000000E+00 0. -1.
         22   -1    0    0    0    0 -0.00000000000E+00 -0.00000000000E+00 -0.25883543856E+03  0.25883543856E+03  0.00000000000E+00 0. -1.
         24    2    1    2    0    0  0.20753889616E+02  0.81069973432E+02 -0.13556321737E+03  0.17798663975E+03  0.79364938731E+02 0.  0.
         25    2    1    2    0    0 -0.13671317581E+03 -0.10733892411E+03  0.20448168801E+02  0.21512096127E+03  0.12508702292E+03 0.  0.
        -24    2    1    2    0    0  0.11595928620E+03  0.26268950677E+02  0.10854717252E+04  0.10949199528E+04  0.80400390825E+02 0.  0.
        -13    1    3    3    0    0  0.13105896829E+02 -0.13811523647E+02 -0.14229751330E+02  0.23769908289E+02  0.00000000000E+00 0.  1.
         14    1    3    3    0    0  0.76479927869E+01  0.94881497079E+02 -0.12133346604E+03  0.15421673147E+03  0.00000000000E+00 0. -1.
         13    1    5    5    0    0  0.89719204938E+02  0.51546102860E+02  0.68175353497E+03  0.68956103349E+03  0.00000000000E+00 0. -1.
        -14    1    5    5    0    0  0.26240081258E+02 -0.25277152184E+02  0.40371819028E+03  0.40535891929E+03  0.00000000000E+00 0.  1.
          5    1    4    4  501    0 -0.13588040169E+03 -0.11440465541E+03 -0.15391948766E+02  0.17834318947E+03  0.41800000000E+01 0.  1.
         -5    1    4    4    0  501 -0.83277411753E+00  0.70657312986E+01  0.35840117568E+02  0.36777771803E+02  0.41800000000E+01 0.  1.
</event>
<event>
11    1  0.8551154E-009  0.6226095E+03  0.7561462E-02  0.9154830E-01
         22   -1    0    0    0    0  0.00000000000E+00  0.00000000000E+00  0.27495691882E+04  0.27495691882E+04  0.00000000000E+00 0.  1.
         22   -1    0    0    0    0 -0.00000000000E+00 -0.00000000000E+00 -0.33714969801E+03  0.33714969801E+03  0.00000000000E+00 0.  1.
         24    2    1    2    0    0 -0.46973587560E+01  0.23099186007E+02 -0.27759311146E+02  0.88507569677E+02  0.80668289689E+02 0.  0.
         25    2    1    2    0    0 -0.60535392995E+03  0.62327541028E+01  0.16318235309E+03  0.63934965029E+03  0.12508903724E+03 0.  0.
        -24    2    1    2    0    0  0.61005128871E+03 -0.29331940110E+02  0.22769964483E+04  0.23588616663E+04  0.80576656717E+02 0.  0.
        -13    1    3    3    0    0  0.21510071198E+02 -0.16650406014E+02  0.86790235714E+01  0.28552489095E+02  0.00000000000E+00 0.  1.
         14    1    3    3    0    0 -0.26207429954E+02  0.39749592022E+02 -0.36438334717E+02  0.59955080582E+02  0.00000000000E+00 0. -1.
         13    1    5    5    0    0  0.26448224285E+03 -0.25485899758E+02  0.84705325781E+03  0.88774974483E+03  0.00000000000E+00 0. -1.
        -14    1    5    5    0    0  0.34556904586E+03 -0.38460403523E+01  0.14299431905E+04  0.14711119215E+04  0.00000000000E+00 0.  1.
          5    1    4    4  501    0 -0.26116892856E+03 -0.58835880748E+02  0.64430113759E+02  0.27538987285E+03  0.41800000000E+01 0.  1.
         -5    1    4    4    0  501 -0.34418500139E+03  0.65068634851E+02  0.98752239336E+02  0.36395977744E+03  0.41800000000E+01 0.  1.
</event>
<event>
11    1  0.8551154E-009  0.2204969E+03  0.7561462E-02  0.1040907E+00
         22   -1    0    0    0    0  0.00000000000E+00  0.00000000000E+00  0.63114570781E+03  0.63114570781E+03  0.00000000000E+00 0. -1.
         22   -1    0    0    0    0 -0.00000000000E+00 -0.00000000000E+00 -0.18447929557E+03  0.18447929557E+03  0.00000000000E+00 0. -1.
         24    2    1    2    0    0  0.17734368884E+02  0.28151005471E+02 -0.77511208916E+02  0.11662037488E+03  0.80531592434E+02 0.  0.
         25    2    1    2    0    0 -0.16581423016E+03 -0.11853315235E+03  0.16033481334E+03  0.28792186314E+03  0.12508908736E+03 0.  0.
        -24    2    1    2    0    0  0.14807986128E+03  0.90382146875E+02  0.36384280781E+03  0.41108276536E+03  0.80689983218E+02 0.  0.
        -13    1    3    3    0    0 -0.18834984285E+02 -0.13021839867E+02 -0.17568280676E+01  0.22965439064E+02  0.00000000000E+00 0.  1.
         14    1    3    3    0    0  0.36569353169E+02  0.41172845338E+02 -0.75754380849E+02  0.93654935813E+02  0.00000000000E+00 0. -1.
         13    1    5    5    0    0  0.99315777837E+02  0.10051127485E+03  0.26008062667E+03  0.29598660860E+03  0.00000000000E+00 0. -1.
        -14    1    5    5    0    0  0.48764083445E+02 -0.10129127971E+02  0.10376218113E+03  0.11509615676E+03  0.00000000000E+00 0.  1.
          5    1    4    4  501    0  0.79795353483E+00 -0.61282859284E+02  0.56021992715E+02  0.83139410868E+02  0.41800000000E+01 0.  1.
         -5    1    4    4    0  501 -0.16661218370E+03 -0.57250293063E+02  0.10431282063E+03  0.20478245228E+03  0.41800000000E+01 0.  1.
</event>
<event>
11    1  0.8551154E-009  0.1832221E+03  0.7561462E-02  0.1067066E+00
         22   -1    0    0    0    0  0.00000000000E+00  0.00000000000E+00  0.40713568951E+03  0.40713568951E+03  0.00000000000E+00 0.  1.
         22   -1    0    0    0    0 -0.00000000000E+00 -0.00000000000E+00 -0.95688566586E+03  0.95688566586E+03  0.00000000000E+00 0.  1.
        -24    2    1    2    0    0 -0.69976158670E+02 -0.11490319384E+03 -0.83275693380E+03  0.84699171649E+03  0.76232868814E+02 0.  0.
         25    2    1    2    0    0  0.97883595046E+02  0.88571458759E+02 -0.37129193920E+02  0.18561262308E+03  0.12508943728E+03 0.  0.
         24    2    1    2    0    0 -0.27907436377E+02  0.26331735081E+02  0.32013615136E+03  0.33141701580E+03  0.76667448611E+02 0.  0.
        -11    1    5    5    0    0 -0.52560890707E+02  0.74727133191E+01  0.23129366516E+03  0.23730833997E+03  0.00000000000E+00 0.  1.
         12    1    5    5    0    0  0.24653454330E+02  0.18859021762E+02  0.88842486199E+02  0.94108675829E+02  0.00000000000E+00 0. -1.
         13    1    3    3    0    0  0.11020780940E+02 -0.39531802457E+02 -0.30607310240E+03  0.30881218407E+03  0.00000000000E+00 0. -1.
        -14    1    3    3    0    0 -0.80996939610E+02 -0.75371391382E+02 -0.52668383140E+03  0.53817953243E+03  0.00000000000E+00 0.  1.
          5    1    4    4  501    0  0.80307501993E+02  0.92449197711E+02  0.21267691257E+02  0.12436211692E+03  0.41800000000E+01 0. -1.
         -5    1    4    4    0  501  0.17576093053E+02 -0.38777389521E+01 -0.58396885177E+02  0.61250506159E+02  0.41800000000E+01 0. -1.
</event>
<event>
11    1  0.8551154E-009  0.1538024E+03  0.7561462E-02  0.1093056E+00
         22   -1    0    0    0    0  0.00000000000E+00  0.00000000000E+00  0.11062832134E+04  0.11062832134E+04  0.00000000000E+00 0.  1.
         22   -1    0    0    0    0 -0.00000000000E+00 -0.00000000000E+00 -0.97436881701E+03  0.97436881701E+03  0.00000000000E+00 0. -1.
        -24    2    1    2    0    0 -0.80147548255E+00  0.46470773280E+02 -0.93326226355E+03  0.93776912875E+03  0.79197923770E+02 0.  0.
         25    2    1    2    0    0  0.90201814088E+02 -0.40154129804E+02  0.14593429517E+03  0.21608130041E+03  0.12508232679E+03 0.  0.
         24    2    1    2    0    0 -0.89400338606E+02 -0.63166434762E+01  0.91924236481E+03  0.92680160129E+03  0.76956886377E+02 0.  0.
        -13    1    5    5    0    0 -0.84487856031E+02  0.59372778747E+01  0.48370026739E+03  0.49105946458E+03  0.00000000000E+00 0.  1.
         14    1    5    5    0    0 -0.49124825749E+01 -0.12253921351E+02  0.43554209742E+03  0.43574213670E+03  0.00000000000E+00 0. -1.
         11    1    3    3    0    0  0.23365470078E+02  0.59219892452E+02 -0.70778279838E+03  0.71064015545E+03  0.00000000000E+00 0. -1.
        -12    1    3    3    0    0 -0.24166945561E+02 -0.12749119172E+02 -0.22547946518E+03  0.22712897330E+03  0.00000000000E+00 0.  1.
          5    1    4    4  501    0  0.16822552907E+02 -0.41346691151E+02  0.13439170460E+03  0.14167268551E+03  0.41800000000E+01 0.  1.
         -5    1    4    4    0  501  0.73379261182E+02  0.11925613467E+01  0.11542590573E+02  0.74408614900E+02  0.41800000000E+01 0.  1.
</event>
<event>
11    1  0.8551154E-009  0.1753820E+03  0.7561462E-02  0.1073441E+00
         22   -1    0    0    0    0  0.00000000000E+00  0.00000000000E+00  0.39215915766E+03  0.39215915766E+03  0.00000000000E+00 0.  1.
         22   -1    0    0    0    0 -0.00000000000E+00 -0.00000000000E+00 -0.19347012294E+04  0.19347012294E+04  0.00000000000E+00 0.  1.
         24    2    1    2    0    0 -0.30270684779E+02 -0.49105002147E+02 -0.14898963091E+04  0.14931839901E+04  0.80497210003E+02 0.  0.
         25    2    1    2    0    0  0.12186091405E+03  0.12810450280E+03 -0.39981718140E+03  0.45471121431E+03  0.12509062263E+03 0.  0.
        -24    2    1    2    0    0 -0.91590229272E+02 -0.78999500651E+02  0.34717141869E+03  0.37896518273E+03  0.91961538516E+02 0.  0.
        -13    1    3    3    0    0  0.36824422209E+01 -0.33110026732E+02 -0.12434443467E+04  0.12438905408E+04  0.00000000000E+00 0.  1.
         14    1    3    3    0    0 -0.33953127000E+02 -0.15994975415E+02 -0.24645196241E+03  0.24929344927E+03  0.00000000000E+00 0. -1.
         13    1    5    5    0    0 -0.32183055315E+02 -0.32430530291E+02  0.34338964664E+02  0.57154639694E+02  0.00000000000E+00 0. -1.
        -14    1    5    5    0    0 -0.59407173957E+02 -0.46568970360E+02  0.31283245402E+03  0.32181054303E+03  0.00000000000E+00 0.  1.
          5    1    4    4  501    0  0.31084041825E+02  0.11504318040E+03 -0.27524340160E+03  0.29996258690E+03  0.41800000000E+01 0.  1.
         -5    1    4    4    0  501  0.90776872227E+02  0.13061322394E+02 -0.12457377979E+03  0.15474862741E+03  0.41800000000E+01 0.  1.
</event>
<event>
11    1  0.8551154E-009  0.1600161E+03  0.7561462E-02  0.1087062E+00
         22   -1    0    0    0    0  0.00000000000E+00  0.00000000000E+00  0.49789714287E+03  0.49789714287E+03  0.00000000000E+00 0. -1.
         22   -1    0    0    0    0 -0.00000000000E+00 -0.00000000000E+00 -0.42651698755E+03  0.42651698755E+03  0.00000000000E+00 0.  1.
         24    2    1    2    0    0  0.54315831655E+02  0.67001269338E+02 -0.23001249833E+03  0.25852985070E+03  0.80576390172E+02 0.  0.
         25    2    1    2    0    0 -0.13167806538E+03 -0.91618186919E+02 -0.11530161980E+03  0.23382844823E+03  0.12509306375E+03 0.  0.
        -24    2    1    2    0    0  0.77362233725E+02  0.24616917581E+02  0.41669427344E+03  0.43205583149E+03  0.80294558782E+02 0.  0.
        -11    1    3    3    0    0  0.21150243329E+02  0.75149584800E+02 -0.19287818319E+03  0.20807879863E+03  0.00000000000E+00 0.  1.
         12    1    3    3    0    0  0.33165588326E+02 -0.81483154627E+01 -0.37134315134E+02  0.50451052063E+02  0.00000000000E+00 0. -1.
         11    1    5    5    0    0  0.50545605566E+02  0.49178732519E+02  0.33919825178E+03  0.34645181481E+03  0.00000000000E+00 0. -1.
        -12    1    5    5    0    0  0.26816628159E+02 -0.24561814938E+02  0.77496021655E+02  0.85604016677E+02  0.00000000000E+00 0.  1.
          5    1    4    4  501    0 -0.51376580102E+02 -0.79952115921E+02 -0.29485989045E+01  0.95173843354E+02  0.41800000000E+01 0. -1.
         -5    1    4    4    0  501 -0.80301485278E+02 -0.11666070998E+02 -0.11235302089E+03  0.13865460488E+03  0.41800000000E+01 0. -1.
</event>
<event>
11    1  0.8551154E-009  0.1461325E+03  0.7561462E-02  0.1100897E+00
         22   -1    0    0    0    0  0.00000000000E+00  0.00000000000E+00  0.26283213515E+03  0.26283213515E+03  0.00000000000E+00 0.  1.
         22   -1    0    0    0    0 -0.00000000000E+00 -0.00000000000E+00 -0.13704143548E+04  0.13704143548E+04  0.00000000000E+00 0. -1.
        -24    2    1    2    0    0 -0.55194714822E+02  0.47628482917E+02 -0.10897857521E+04  0.10952313157E+04  0.81140128594E+02 0.  0.
         25    2    1    2    0    0  0.93700728138E+02 -0.42206415408E+02 -0.24507823036E+03  0.29372273556E+03  0.12509395843E+03 0.  0.
         24    2    1    2    0    0 -0.38506013315E+02 -0.54220675089E+01  0.22728176280E+03  0.24429243870E+03  0.80682612918E+02 0.  0.
        -11    1    5    5    0    0 -0.18613888702E+01  0.43108260471E+01  0.19336195135E+03  0.19341895517E+03  0.00000000000E+00 0.  1.
         12    1    5    5    0    0 -0.36644624445E+02 -0.97328935560E+01  0.33919811453E+02  0.50873483533E+02  0.00000000000E+00 0. -1.
         11    1    3    3    0    0 -0.27646747513E+01  0.39930806457E+02 -0.77366691384E+03  0.77470162405E+03  0.00000000000E+00 0. -1.
        -12    1    3    3    0    0 -0.52430040071E+02  0.76976764591E+01 -0.31611883829E+03  0.32052969167E+03  0.00000000000E+00 0.  1.
          5    1    4    4  501    0  0.69964555663E+02 -0.68155198839E+02 -0.23842269006E+03  0.25768783773E+03  0.41800000000E+01 0.  1.
         -5    1    4    4    0  501  0.23736172475E+02  0.25948783431E+02 -0.66555403001E+01  0.36034897835E+02  0.41800000000E+01 0.  1.
</event>
<event>
11    1  0.8551154E-009  0.1579500E+03  0.7561462E-02  0.1089021E+00
         22   -1    0    0    0    0  0.00000000000E+00  0.00000000000E+00  0.95140720186E+03  0.95140720186E+03  0.00000000000E+00 0.  1.
         22   -1    0    0    0    0 -0.00000000000E+00 -0.00000000000E+00 -0.11973227177E+03  0.11973227177E+03  0.00000000000E+00 0.  1.
        -24    2    1    2    0    0 -0.17330744989E+01 -0.90981638622E+02 -0.39617025153E+02  0.12733757338E+03  0.79778987205E+02 0.  0.
         25    2    1    2    0    0 -0.94034957795E+01  0.12593354787E+03  0.20379402291E+03  0.27042121419E+03  0.12509174673E+03 0.  0.
         24    2    1    2    0    0  0.11136570278E+02 -0.34951909244E+02  0.66749793234E+03  0.67338068605E+03  0.80885100691E+02 0.  0.
        -11    1    5    5    0    0  0.41238433052E+02  0.54833654626E+00  0.36504601096E+03  0.36736834261E+03  0.00000000000E+00 0.  1.
         12    1    5    5    0    0 -0.30101862774E+02 -0.35500245790E+02  0.30245192138E+03  0.30601234345E+03  0.00000000000E+00 0. -1.
         11    1    3    3    0    0 -0.23653049797E+02 -0.28906729758E+02  0.16500985022E+02  0.40833176422E+02  0.00000000000E+00 0. -1.
        -12    1    3    3    0    0  0.21919975298E+02 -0.62074908864E+02 -0.56118010175E+02  0.86504396961E+02  0.00000000000E+00 0.  1.
          5    1    4    4  501    0  0.24271354694E+02  0.12142185055E+03  0.20094711159E+03  0.23607113018E+03  0.41800000000E+01 0. -1.
         -5    1    4    4    0  501 -0.33674850474E+02  0.45116973189E+01  0.28469113149E+01  0.34350084005E+02  0.41800000000E+01 0. -1.
</event>
<event>
11    1  0.8551154E-009  0.1483609E+03  0.7561462E-02  0.1098565E+00
         22   -1    0    0    0    0  0.00000000000E+00  0.00000000000E+00  0.75354963511E+03  0.75354963511E+03  0.00000000000E+00 0.  1.
         22   -1    0    0    0    0 -0.00000000000E+00 -0.00000000000E+00 -0.25526459271E+03  0.25526459271E+03  0.00000000000E+00 0. -1.
         24    2    1    2    0    0  0.62917217486E+02 -0.20761514792E+02 -0.21677489629E+03  0.24017997250E+03  0.79406843396E+02 0.  0.
         25    2    1    2    0    0  0.28907165883E+02 -0.15499653007E+02  0.19968429570E+03  0.23790149177E+03  0.12508972121E+03 0.  0.
        -24    2    1    2    0    0 -0.91824383370E+02  0.36261167800E+02  0.51537564299E+03  0.53073276354E+03  0.79489768118E+02 0.  0.
        -13    1    3    3    0    0  0.36969189742E+02  0.28290510745E+02 -0.79712818571E+02  0.92310386376E+02  0.00000000000E+00 0.  1.
         14    1    3    3    0    0  0.25948027744E+02 -0.49052025537E+02 -0.13706207772E+03  0.14786958613E+03  0.00000000000E+00 0. -1.
         11    1    5    5    0    0  0.70735818904E+01 -0.77671814172E+01  0.13049805275E+03  0.13092022930E+03  0.00000000000E+00 0. -1.
        -12    1    5    5    0    0 -0.98897965260E+02  0.44028349217E+02  0.38487759023E+03  0.39981253423E+03  0.00000000000E+00 0.  1.
          5    1    4    4  501    0  0.23533855361E+02 -0.45849414290E+02  0.19830703461E+02  0.55378157595E+02  0.41800000000E+01 0.  1.
         -5    1    4    4    0  501  0.53733105225E+01  0.30349761282E+02  0.17985359224E+03  0.18252333418E+03  0.41800000000E+01 0.  1.
</event>
<event>
11    1  0.8551154E-009  0.1298491E+03  0.7561462E-02  0.1119455E+00
         22   -1    0    0    0    0  0.00000000000E+00  0.00000000000E+00  0.34633055173E+03  0.34633055173E+03  0.00000000000E+00 0.  1.
         22   -1    0    0    0    0 -0.00000000000E+00 -0.00000000000E+00 -0.26146693098E+03  0.26146693098E+03  0.00000000000E+00 0. -1.
        -24    2    1    2    0    0  0.24235907883E+01 -0.33343999218E+02 -0.19274661960E+03  0.21164985990E+03  0.80788042153E+02 0.  0.
         25    2    1    2    0    0  0.59444150879E+01  0.47967552012E+02  0.33691188195E+02  0.13827168186E+03  0.12509092583E+03 0.  0.
         24    2    1    2    0    0 -0.83680058762E+01 -0.14623552793E+02  0.24391905216E+03  0.25787594095E+03  0.81973319428E+02 0.  0.
        -11    1    5    5    0    0 -0.22271508604E+02 -0.22725660237E+02  0.23891397263E+03  0.24102357156E+03  0.00000000000E+00 0.  1.
         12    1    5    5    0    0  0.13903502728E+02  0.81021074434E+01  0.50050795270E+01  0.16852369394E+02  0.00000000000E+00 0. -1.
         13    1    3    3    0    0 -0.22210549008E+02 -0.51784510866E+02 -0.11589355988E+03  0.12886528343E+03  0.00000000000E+00 0. -1.
        -14    1    3    3    0    0  0.24634139796E+02  0.18440511648E+02 -0.76853059717E+02  0.82784576469E+02  0.00000000000E+00 0.  1.
          5    1    4    4  501    0  0.67873390760E+01  0.57273379869E+02  0.75572446989E+02  0.95157633205E+02  0.41800000000E+01 0. -1.
         -5    1    4    4    0  501 -0.84292398802E+00 -0.93058278566E+01 -0.41881258794E+02  0.43114048652E+02  0.41800000000E+01 0. -1.
</event>
<event>
11    1  0.8551154E-009  0.1908257E+03  0.7561462E-02  0.1061208E+00
         22   -1    0    0    0    0  0.00000000000E+00  0.00000000000E+00  0.45357217936E+03  0.45357217936E+03  0.00000000000E+00 0. -1.
         22   -1    0    0    0    0 -0.00000000000E+00 -0.00000000000E+00 -0.23652724055E+04  0.23652724055E+04  0.00000000000E+00 0.  1.
         24    2    1    2    0    0  0.11966500026E+03  0.78104933702E+02 -0.22560049230E+04  0.22619389543E+04  0.79934518995E+02 0.  0.
         25    2    1    2    0    0 -0.16925691747E+03 -0.11358405752E+03  0.48239714530E+02  0.24397269607E+03  0.12508542734E+03 0.  0.
        -24    2    1    2    0    0  0.49591917212E+02  0.35479123814E+02  0.29606498236E+03  0.31293293449E+03  0.80959380110E+02 0.  0.
        -11    1    3    3    0    0  0.78599494467E+02  0.87460974716E+02 -0.18564237650E+04  0.18601442142E+04  0.00000000000E+00 0.  1.
         12    1    3    3    0    0  0.41065505791E+02 -0.93560410132E+01 -0.39958115804E+03  0.40179474005E+03  0.00000000000E+00 0. -1.
         11    1    5    5    0    0  0.71241364913E+02  0.29513304772E+02  0.20183842418E+03  0.21606738927E+03  0.00000000000E+00 0. -1.
        -12    1    5    5    0    0 -0.21649447701E+02  0.59658190426E+01  0.94226558181E+02  0.96865545212E+02  0.00000000000E+00 0.  1.
          5    1    4    4  501    0 -0.27617342640E+02  0.75388285256E+01 -0.30115728100E+02  0.41760998899E+02  0.41800000000E+01 0.  1.
         -5    1    4    4    0  501 -0.14163957483E+03 -0.12112288604E+03  0.78355442630E+02  0.20221169717E+03  0.41800000000E+01 0.  1.
</event>
<event>
11    1  0.8551154E-009  0.3851236E+03  0.7561462E-02  0.9694701E-01
         22   -1    0    0    0    0  0.00000000000E+00  0.00000000000E+00  0.20031263044E+03  0.20031263044E+03  0.00000000000E+00 0. -1.
         22   -1    0    0    0    0 -0.00000000000E+00 -0.00000000000E+00 -0.16915501079E+04  0.16915501079E+04  0.00000000000E+00 0.  1.
        -24    2    1    2    0    0  0.29698098230E+02  0.36367278668E+03 -0.12671684331E+04  0.13211172755E+04  0.80592462026E+02 0.  0.
         25    2    1    2    0    0 -0.97676469356E+02 -0.35362870977E+03 -0.24535477640E+03  0.45873782989E+03  0.12508986063E+03 0.  0.
         24    2    1    2    0    0  0.67978371126E+02 -0.10044076910E+02  0.21285732011E+02  0.11200763298E+03  0.85852693823E+02 0.  0.
        -11    1    5    5    0    0  0.77437499726E+02  0.10180865378E+02 -0.40857286648E+01  0.78210674223E+02  0.00000000000E+00 0.  1.
         12    1    5    5    0    0 -0.94591286002E+01 -0.20224942288E+02  0.25371460676E+02  0.33796958757E+02  0.00000000000E+00 0. -1.
         13    1    3    3    0    0 -0.20781985922E+02  0.44061693169E+02 -0.20782090075E+03  0.21345456316E+03  0.00000000000E+00 0. -1.
        -14    1    3    3    0    0  0.50480084152E+02  0.31961109351E+03 -0.10593475323E+04  0.11076627123E+04  0.00000000000E+00 0.  1.
          5    1    4    4  501    0 -0.95567935229E+02 -0.36290320391E+03 -0.22990606316E+03  0.44012070609E+03  0.41800000000E+01 0.  1.
         -5    1    4    4    0  501 -0.21085341273E+01  0.92744941428E+01 -0.15448713238E+02  0.18617123797E+02  0.41800000000E+01 0.  1.
</event>
<event>
11    1  0.8551154E-009  0.1789564E+03  0.7561462E-02  0.1070490E+00
         22   -1    0    0    0    0  0.00000000000E+00  0.00000000000E+00  0.51890976024E+03  0.51890976024E+03  0.00000000000E+00 0.  1.
         22   -1    0    0    0    0 -0.00000000000E+00 -0.00000000000E+00 -0.12447485817E+04  0.12447485817E+04  0.00000000000E+00 0.  1.
         24    2    1    2    0    0  0.12893263909E+03  0.39863265813E+02 -0.10017258259E+04  0.10134500802E+04  0.73578050241E+02 0.  0.
         25    2    1    2    0    0 -0.86740897529E+02 -0.43597271489E+02 -0.20604773641E+03  0.25986279335E+03  0.12509315049E+03 0.  0.
        -24    2    1    2    0    0 -0.42191741564E+02  0.37340056756E+01  0.48193474083E+03  0.49034546838E+03  0.79896796523E+02 0.  0.
        -13    1    3    3    0    0  0.12069202180E+03  0.99802461827E+01 -0.85060368566E+03  0.85918147065E+03  0.00000000000E+00 0.  1.
         14    1    3    3    0    0  0.82406172902E+01  0.29883019630E+02 -0.15112214023E+03  0.15426860959E+03  0.00000000000E+00 0. -1.
         11    1    5    5    0    0  0.14582034353E+02 -0.87059230710E+01  0.28316534681E+02  0.33019009051E+02  0.00000000000E+00 0. -1.
        -12    1    5    5    0    0 -0.56773775917E+02  0.12439928747E+02  0.45361820614E+03  0.45732645933E+03  0.00000000000E+00 0.  1.
          5    1    4    4  501    0 -0.36114521086E+02 -0.61975142905E+02 -0.33917392153E+02  0.79454633986E+02  0.41800000000E+01 0.  1.
         -5    1    4    4    0  501 -0.50626376443E+02  0.18377871416E+02 -0.17213034426E+03  0.18040815936E+03  0.41800000000E+01 0.  1.
</event>
<event>
11    1  0.8551154E-009  0.1255436E+04  0.7561462E-02  0.8467997E-01
         22   -1    0    0    0    0  0.00000000000E+00  0.00000000000E+00  0.29280791268E+04  0.29280791268E+04  0.00000000000E+00 0. -1.
         22   -1    0    0    0    0 -0.00000000000E+00 -0.00000000000E+00 -0.80431007043E+03  0.80431007043E+03  0.00000000000E+00 0. -1.
         24    2    1    2    0    0 -0.64988001182E+02  0.23036225600E+02 -0.91376026049E+01  0.11830726784E+03  0.95702695125E+02 0.  0.
         25    2    1    2    0    0  0.12451941299E+04  0.34301420022E+03  0.19190789664E+03  0.13117330236E+04  0.12509085391E+03 0.  0.
        -24    2    1    2    0    0 -0.11802061287E+04 -0.36605042582E+03  0.19409987623E+04  0.23023489058E+04  0.80342194805E+02 0.  0.
        -11    1    3    3    0    0 -0.41194282584E+02  0.45080809370E+00  0.41173926892E+02  0.58244865879E+02  0.00000000000E+00 0.  1.
         12    1    3    3    0    0 -0.23793718598E+02  0.22585417507E+02 -0.50311529497E+02  0.60062401958E+02  0.00000000000E+00 0. -1.
         11    1    5    5    0    0 -0.41172854660E+03 -0.16743821958E+03  0.68440777323E+03  0.81606982147E+03  0.00000000000E+00 0. -1.
        -12    1    5    5    0    0 -0.76847758208E+03 -0.19861220624E+03  0.12565909891E+04  0.14862790843E+04  0.00000000000E+00 0.  1.
          5    1    4    4  501    0  0.63617476259E+03  0.13348081658E+03  0.14458849614E+03  0.66592699492E+03  0.41800000000E+01 0. -1.
         -5    1    4    4    0  501  0.60901936728E+03  0.20953338364E+03  0.47319400504E+02  0.64580602866E+03  0.41800000000E+01 0. -1.
</event>
<event>
11    1  0.1093535E-008  0.1526859E+03  0.7561462E-02  0.1094166E+00
         22   -1    0    0    0    0  0.00000000000E+00  0.00000000000E+00  0.52748206297E+03  0.52748206297E+03  0.00000000000E+00 0. -1.
         22   -1    0    0    0    0 -0.00000000000E+00 -0.00000000000E+00 -0.12836354601E+04  0.12836354601E+04  0.00000000000E+00 0.  1.
        -24    2    1    2    0    0  0.29279999293E+02 -0.76916785141E+02 -0.10127587191E+04  0.10194594321E+04  0.82727264786E+02 0.  0.
         25    2    1    2    0    0 -0.95347016330E+02  0.11855383942E+03 -0.22392596805E+03  0.29822255851E+03  0.12509112228E+03 0.  0.
         24    2    1    2    0    0  0.66067017037E+02 -0.41637054283E+02  0.48053129008E+03  0.49343553243E+03  0.80435122239E+02 0.  0.
        -11    1    5    5    0    0  0.50132838415E+02  0.89177378448E+01  0.14361126136E+03  0.15237132908E+03  0.00000000000E+00 0.  1.
         12    1    5    5    0    0  0.15934178622E+02 -0.50554792128E+02  0.33692002871E+03  0.34106420334E+03  0.00000000000E+00 0. -1.
         13    1    3    3    0    0  0.70542813727E+01 -0.29727006178E+02 -0.86572599289E+02  0.91805624717E+02  0.00000000000E+00 0. -1.
        -14    1    3    3    0    0  0.22225717920E+02 -0.47189778964E+02 -0.92618611986E+03  0.92765380740E+03  0.00000000000E+00 0.  1.
          5    1    4    4  501    0 -0.15935877864E+02  0.11041668077E+03 -0.95310344200E+02  0.14679008722E+03  0.41800000000E+01 0.  1.
         -5    1    4    4    0  501 -0.79411138466E+02  0.81371586580E+01 -0.12861562385E+03  0.15143247129E+03  0.41800000000E+01 0.  1.
</event>
<event>
11    1  0.8551154E-009  0.1355474E+03  0.7561462E-02  0.1112635E+00
         22   -1    0    0    0    0  0.00000000000E+00  0.00000000000E+00  0.65876096591E+03  0.65876096591E+03  0.00000000000E+00 0. -1.
         22   -1    0    0    0    0 -0.00000000000E+00 -0.00000000000E+00 -0.17390203676E+03  0.17390203676E+03  0.00000000000E+00 0. -1.
         24    2    1    2    0    0 -0.11849915414E+02  0.51263636985E+02 -0.13819214807E+03  0.16785250156E+03  0.79429286280E+02 0.  0.
         25    2    1    2    0    0  0.19544922043E+02 -0.41020456653E+02  0.26080726822E+03  0.29280288800E+03  0.12509363782E+03 0.  0.
        -24    2    1    2    0    0 -0.76950066282E+01 -0.10243180333E+02  0.36224380900E+03  0.37200761311E+03  0.83695586423E+02 0.  0.
        -13    1    3    3    0    0  0.18327859369E+02  0.27188974910E+02 -0.10465059247E+02  0.34419010020E+02  0.00000000000E+00 0.  1.
         14    1    3    3    0    0 -0.30177774784E+02  0.24074662075E+02 -0.12772708882E+03  0.13343349154E+03  0.00000000000E+00 0. -1.
         13    1    5    5    0    0  0.82140529902E+01  0.18873774901E+02  0.30610814014E+03  0.30679941901E+03  0.00000000000E+00 0. -1.
        -14    1    5    5    0    0 -0.15909059618E+02 -0.29116955233E+02  0.56135668860E+02  0.65208194104E+02  0.00000000000E+00 0.  1.
          5    1    4    4  501    0  0.71923492293E+02 -0.33781177288E+02  0.14416191041E+03  0.16466415972E+03  0.41800000000E+01 0. -1.
         -5    1    4    4    0  501 -0.52378570250E+02 -0.72392793645E+01  0.11664535780E+03  0.12813872828E+03  0.41800000000E+01 0. -1.
</event>
<event>
11    1  0.8551154E-009  0.2071501E+03  0.7561462E-02  0.1049580E+00
         22   -1    0    0    0    0  0.00000000000E+00  0.00000000000E+00  0.11014078676E+04  0.11014078676E+04  0.00000000000E+00 0.  1.
         22   -1    0    0    0    0 -0.00000000000E+00 -0.00000000000E+00 -0.90925391117E+03  0.90925391117E+03  0.00000000000E+00 0. -1.
        -24    2    1    2    0    0 -0.32275435367E+02 -0.49221266227E+02 -0.40549300498E+03  0.41755741690E+03  0.80406358832E+02 0.  0.
         25    2    1    2    0    0 -0.13043243735E+03  0.79402285937E+02 -0.46988612920E+03  0.50966282937E+03  0.12508349812E+03 0.  0.
         24    2    1    2    0    0  0.16270787271E+03 -0.30181019710E+02  0.10675330906E+04  0.10834415325E+04  0.82667460419E+02 0.  0.
        -11    1    5    5    0    0  0.98523708905E+02 -0.58420072126E+02  0.63083211604E+03  0.64114661715E+03  0.00000000000E+00 0.  1.
         12    1    5    5    0    0  0.64184163807E+02  0.28239052416E+02  0.43670097456E+03  0.44229491535E+03  0.00000000000E+00 0. -1.
         11    1    3    3    0    0  0.22812349054E+02  0.75834446045E+00 -0.61114962982E+02  0.65238156442E+02  0.00000000000E+00 0. -1.
        -12    1    3    3    0    0 -0.55087784421E+02 -0.49979610687E+02 -0.34437804200E+03  0.35231926045E+03  0.00000000000E+00 0.  1.
          5    1    4    4  501    0 -0.14560600390E+03  0.49841103346E+02 -0.43437051501E+03  0.46084754601E+03  0.41800000000E+01 0.  1.
         -5    1    4    4    0  501  0.15173566550E+02  0.29561182591E+02 -0.35515614191E+02  0.48815283359E+02  0.41800000000E+01 0.  1.
</event>
<event>
11    1  0.8551154E-009  0.1405004E+03  0.7561462E-02  0.1107001E+00
         22   -1    0    0    0    0  0.00000000000E+00  0.00000000000E+00  0.33629959902E+03  0.33629959902E+03  0.00000000000E+00 0. -1.
         22   -1    0    0    0    0 -0.00000000000E+00 -0.00000000000E+00 -0.15694797648E+03  0.15694797648E+03  0.00000000000E+00 0. -1.
         24    2    1    2    0    0 -0.29882763587E+02  0.30497517598E+02 -0.73650242815E+02  0.11447164367E+03  0.76526601897E+02 0.  0.
         25    2    1    2    0    0 -0.24808117270E+02  0.16842263316E+02  0.31330489579E+02  0.13239352791E+03  0.12508933664E+03 0.  0.
        -24    2    1    2    0    0  0.54690880858E+02 -0.47339780914E+02  0.22167137578E+03  0.24638240391E+03  0.79586071720E+02 0.  0.
        -11    1    3    3    0    0 -0.50603420109E+02  0.64896190395E+01 -0.26074299675E+02  0.57294767523E+02  0.00000000000E+00 0.  1.
         12    1    3    3    0    0  0.20720656522E+02  0.24007898559E+02 -0.47575943140E+02  0.57176876144E+02  0.00000000000E+00 0. -1.
         11    1    5    5    0    0  0.28042488774E+02  0.17034506930E+02  0.10972566150E+03  0.11452631311E+03  0.00000000000E+00 0. -1.
        -12    1    5    5    0    0  0.26648392083E+02 -0.64374287844E+02  0.11194571428E+03  0.13185609080E+03  0.00000000000E+00 0.  1.
          5    1    4    4  501    0 -0.58424584575E+02 -0.17501667104E+02 -0.17667147515E+02  0.63634431996E+02  0.41800000000E+01 0.  1.
         -5    1    4    4    0  501  0.33616467304E+02  0.34343930420E+02  0.48997637095E+02  0.68759095919E+02  0.41800000000E+01 0.  1.
</event>
<event>
11    1  0.8551154E-009  0.2011324E+03  0.7561462E-02  0.1053726E+00
         22   -1    0    0    0    0  0.00000000000E+00  0.00000000000E+00  0.14821349596E+03  0.14821349596E+03  0.00000000000E+00 0. -1.
         22   -1    0    0    0    0 -0.00000000000E+00 -0.00000000000E+00 -0.47750212663E+03  0.47750212663E+03  0.00000000000E+00 0. -1.
         24    2    1    2    0    0 -0.61419102155E+02  0.35661561570E+02 -0.15479911626E+03  0.18579785289E+03  0.74256465450E+02 0.  0.
         25    2    1    2    0    0  0.10685794529E+03 -0.16779168683E+03 -0.14357362004E+03  0.27537828453E+03  0.12508854696E+03 0.  0.
        -24    2    1    2    0    0 -0.45438843134E+02  0.13213012526E+03 -0.30915894372E+02  0.16453948517E+03  0.81205856851E+02 0.  0.
        -13    1    3    3    0    0  0.97723805133E+01  0.11465168493E+02 -0.16104573353E+01  0.15150679269E+02  0.00000000000E+00 0.  1.
         14    1    3    3    0    0 -0.71191482668E+02  0.24196393077E+02 -0.15318865892E+03  0.17064717362E+03  0.00000000000E+00 0. -1.
         13    1    5    5    0    0 -0.36342607199E+02  0.96545961924E+02  0.16596530498E+02  0.10448613634E+03  0.00000000000E+00 0. -1.
        -14    1    5    5    0    0 -0.90962359351E+01  0.35584163337E+02 -0.47512424871E+02  0.60053348830E+02  0.00000000000E+00 0.  1.
          5    1    4    4  501    0  0.86997301698E+02 -0.67007508613E+02 -0.13225188459E+03  0.17194932420E+03  0.41800000000E+01 0. -1.
         -5    1    4    4    0  501  0.19860643591E+02 -0.10078417822E+03 -0.11321735444E+02  0.10342896034E+03  0.41800000000E+01 0. -1.
</event>
<event>
11    1  0.8551154E-009  0.1529734E+03  0.7561462E-02  0.1093879E+00
         22   -1    0    0    0    0  0.00000000000E+00  0.00000000000E+00  0.41637195450E+03  0.41637195450E+03  0.00000000000E+00 0. -1.
         22   -1    0    0    0    0 -0.00000000000E+00 -0.00000000000E+00 -0.31498850343E+03  0.31498850343E+03  0.00000000000E+00 0. -1.
         24    2    1    2    0    0 -0.42102487686E+02 -0.68696157027E+02 -0.20281054494E+03  0.23334626721E+03  0.82623131287E+02 0.  0.
         25    2    1    2    0    0  0.68826222361E+02  0.11539094319E+03  0.52964134761E+01  0.18365069857E+03  0.12508960163E+03 0.  0.
        -24    2    1    2    0    0 -0.26723734675E+02 -0.46694786160E+02  0.29889758253E+03  0.31436349215E+03  0.81179303429E+02 0.  0.
        -13    1    3    3    0    0 -0.40611884309E+02  0.51340561139E+01 -0.84265245307E+02  0.93681989976E+02  0.00000000000E+00 0.  1.
         14    1    3    3    0    0 -0.14906033772E+01 -0.73830213141E+02 -0.11854529963E+03  0.13966427724E+03  0.00000000000E+00 0. -1.
         13    1    5    5    0    0  0.28516463193E+02 -0.25225903337E+02  0.12190490440E+03  0.12771194380E+03  0.00000000000E+00 0. -1.
        -14    1    5    5    0    0 -0.55240197868E+02 -0.21468882822E+02  0.17699267813E+03  0.18665154835E+03  0.00000000000E+00 0.  1.
          5    1    4    4  501    0  0.89248893463E+02  0.10554372724E+03 -0.29992080184E+02  0.14149855341E+03  0.41800000000E+01 0.  1.
         -5    1    4    4    0  501 -0.20422671102E+02  0.98472159500E+01  0.35288493660E+02  0.42152145161E+02  0.41800000000E+01 0.  1.
</event>
<event>
11    1  0.8551154E-009  0.1369368E+03  0.7561462E-02  0.1111028E+00
         22   -1    0    0    0    0  0.00000000000E+00  0.00000000000E+00  0.36158835109E+03  0.36158835109E+03  0.00000000000E+00 0.  1.
         22   -1    0    0    0    0 -0.00000000000E+00 -0.00000000000E+00 -0.22935234389E+03  0.22935234389E+03  0.00000000000E+00 0. -1.
        -24    2    1    2    0    0  0.22935391769E+02 -0.40386569987E+02 -0.11875214399E+03  0.15127077642E+03  0.81385925477E+02 0.  0.
         25    2    1    2    0    0 -0.12653118234E+02  0.91350958929E+02 -0.13378650985E+02  0.15600417140E+03  0.12511280548E+03 0.  0.
         24    2    1    2    0    0 -0.10282273535E+02 -0.50964388942E+02  0.26436680218E+03  0.28366574716E+03  0.88731932948E+02 0.  0.
        -11    1    5    5    0    0 -0.29699271078E+02  0.10086844453E+02  0.14330921637E+03  0.14670147454E+03  0.00000000000E+00 0.  1.
         12    1    5    5    0    0  0.19416997543E+02 -0.61051233395E+02  0.12105758581E+03  0.13696427262E+03  0.00000000000E+00 0. -1.
         13    1    3    3    0    0 -0.11513727409E+02  0.11281896458E+02 -0.71346359351E+02  0.73144720242E+02  0.00000000000E+00 0. -1.
        -14    1    3    3    0    0  0.34449119178E+02 -0.51668466445E+02 -0.47405784642E+02  0.78126056181E+02  0.00000000000E+00 0.  1.
          5    1    4    4  501    0  0.38352711296E+01  0.12008669984E+03 -0.52176891198E+00  0.12022175105E+03  0.41800000000E+01 0. -1.
         -5    1    4    4    0  501 -0.16488389364E+02 -0.28735740911E+02 -0.12856882073E+02  0.35782420351E+02  0.41800000000E+01 0. -1.
</event>
<event>
11    1  0.8551154E-009  0.1476852E+03  0.7561462E-02  0.1099268E+00
         22   -1    0    0    0    0  0.00000000000E+00  0.00000000000E+00  0.78279196001E+03  0.78279196001E+03  0.00000000000E+00 0. -1.
         22   -1    0    0    0    0 -0.00000000000E+00 -0.00000000000E+00 -0.15106727878E+04  0.15106727878E+04  0.00000000000E+00 0.  1.
        -24    2    1    2    0    0 -0.41021376915E+02  0.66829590630E+02 -0.14681167125E+04  0.14724048662E+04  0.80376992323E+02 0.  0.
         25    2    1    2    0    0  0.39403791549E+02 -0.75309703117E+02  0.11372879335E+03  0.18922585279E+03  0.12509186527E+03 0.  0.
         24    2    1    2    0    0  0.16175853659E+01  0.84801124872E+01  0.62650709129E+03  0.63183402891E+03  0.81416065708E+02 0.  0.
        -11    1    5    5    0    0  0.51718116452E+00  0.13755148881E+02  0.15212340610E+02  0.20515528361E+02  0.00000000000E+00 0.  1.
         12    1    5    5    0    0  0.11004042013E+01 -0.52750363938E+01  0.61129475068E+03  0.61131850055E+03  0.00000000000E+00 0. -1.
         11    1    3    3    0    0 -0.28155792332E+02  0.23590251009E+02 -0.19148334287E+03  0.19497466292E+03  0.00000000000E+00 0. -1.
        -12    1    3    3    0    0 -0.12865584584E+02  0.43239339621E+02 -0.12766333696E+04  0.12774302032E+04  0.00000000000E+00 0.  1.
          5    1    4    4  501    0 -0.24159630292E+02 -0.81734907421E+02  0.79494320109E+02  0.11662376326E+03  0.41800000000E+01 0. -1.
         -5    1    4    4    0  501  0.63563421841E+02  0.64252043043E+01  0.34234473241E+02  0.72602089534E+02  0.41800000000E+01 0. -1.
</event>
<event>
11    1  0.8551154E-009  0.1513637E+03  0.7561462E-02  0.1095493E+00
         22   -1    0    0    0    0  0.00000000000E+00  0.00000000000E+00  0.28257508937E+04  0.28257508937E+04  0.00000000000E+00 0. -1.
         22   -1    0    0    0    0 -0.00000000000E+00 -0.00000000000E+00 -0.66318883811E+03  0.66318883811E+03  0.00000000000E+00 0.  1.
        -24    2    1    2    0    0 -0.64522134549E+02  0.57394918899E+02 -0.65055546943E+03  0.66121075336E+03  0.80746263030E+02 0.  0.
         25    2    1    2    0    0  0.10863037793E+03  0.10460962915E+02  0.18112165163E+04  0.18188080071E+04  0.12508919579E+03 0.  0.
         24    2    1    2    0    0 -0.44108243381E+02 -0.67855881814E+02  0.10019010087E+04  0.10089209714E+04  0.86982396893E+02 0.  0.
        -13    1    5    5    0    0 -0.30665495376E+01  0.16404726111E+02  0.57279039481E+02  0.59660767081E+02  0.00000000000E+00 0.  1.
         14    1    5    5    0    0 -0.41041693843E+02 -0.84260607925E+02  0.94462196926E+03  0.94926020431E+03  0.00000000000E+00 0. -1.
         11    1    3    3    0    0  0.73001590948E+01 -0.99694244105E+01 -0.24301991773E+02  0.27262951968E+02  0.00000000000E+00 0. -1.
        -12    1    3    3    0    0 -0.71822293644E+02  0.67364343310E+02 -0.62625347766E+03  0.63394780140E+03  0.00000000000E+00 0.  1.
          5    1    4    4  501    0  0.12047255183E+03  0.14878734505E+02  0.17874104177E+04  0.17915324407E+04  0.41800000000E+01 0.  1.
         -5    1    4    4    0  501 -0.11842173904E+02 -0.44177715901E+01  0.23806098609E+02  0.27275566348E+02  0.41800000000E+01 0.  1.
</event>
<event>
11    1  0.8551154E-009  0.1484212E+03  0.7561462E-02  0.1098503E+00
         22   -1    0    0    0    0  0.00000000000E+00  0.00000000000E+00  0.77428210555E+02  0.77428210555E+02  0.00000000000E+00 0. -1.
         22   -1    0    0    0    0 -0.00000000000E+00 -0.00000000000E+00 -0.17748384061E+04  0.17748384061E+04  0.00000000000E+00 0. -1.
        -24    2    1    2    0    0 -0.71941432833E+02 -0.34843249501E+02 -0.13077150003E+04  0.13127541830E+04  0.82555443284E+02 0.  0.
         25    2    1    2    0    0  0.81318859338E+02  0.13481934292E+02 -0.42432403261E+03  0.44999203979E+03  0.12508969496E+03 0.  0.
         24    2    1    2    0    0 -0.93774265051E+01  0.21361315209E+02  0.34628837348E+02  0.89520393870E+02  0.79186505336E+02 0.  0.
        -13    1    5    5    0    0  0.18496707034E+02 -0.93991515468E+01 -0.14417484473E+02  0.25265313761E+02  0.00000000000E+00 0.  1.
         14    1    5    5    0    0 -0.27874133539E+02  0.30760466756E+02  0.49046321822E+02  0.64255080109E+02  0.00000000000E+00 0. -1.
         13    1    3    3    0    0 -0.50923294861E+02  0.44804576288E+01 -0.10475032265E+04  0.10487498586E+04  0.00000000000E+00 0. -1.
        -14    1    3    3    0    0 -0.21018137972E+02 -0.39323707129E+02 -0.26021177380E+03  0.26400432438E+03  0.00000000000E+00 0.  1.
          5    1    4    4  501    0  0.92810183469E+02  0.53956918082E+02 -0.31133932711E+03  0.32935501844E+03  0.41800000000E+01 0.  1.
         -5    1    4    4    0  501 -0.11491324131E+02 -0.40474983791E+02 -0.11298470550E+03  0.12063702135E+03  0.41800000000E+01 0.  1.
</event>
<event>
11    1  0.8551154E-009  0.1567042E+03  0.7561462E-02  0.1090219E+00
         22   -1    0    0    0    0  0.00000000000E+00  0.00000000000E+00  0.62315770890E+03  0.62315770890E+03  0.00000000000E+00 0.  1.
         22   -1    0    0    0    0 -0.00000000000E+00 -0.00000000000E+00 -0.99685208308E+03  0.99685208308E+03  0.00000000000E+00 0.  1.
        -24    2    1    2    0    0 -0.65111121966E+02 -0.66745095360E+02 -0.92200276903E+03  0.93027538976E+03  0.81417619299E+02 0.  0.
         25    2    1    2    0    0  0.14468338521E+03  0.48777693891E+02  0.89032201337E+02  0.21653312178E+03  0.12508922646E+03 0.  0.
         24    2    1    2    0    0 -0.79572263241E+02  0.17967401469E+02  0.45927619352E+03  0.47320128044E+03  0.79562914005E+02 0.  0.
        -11    1    5    5    0    0 -0.82077513699E+02  0.29757373487E+02  0.44885720708E+03  0.45726908039E+03  0.00000000000E+00 0.  1.
         12    1    5    5    0    0  0.25052504580E+01 -0.11789972018E+02  0.10418986433E+02  0.15932200047E+02  0.00000000000E+00 0. -1.
         11    1    3    3    0    0 -0.53478663338E+02 -0.83549530757E+02 -0.65235309974E+03  0.65985230034E+03  0.00000000000E+00 0. -1.
        -12    1    3    3    0    0 -0.11632458628E+02  0.16804435398E+02 -0.26964966929E+03  0.27042308942E+03  0.00000000000E+00 0.  1.
          5    1    4    4  501    0  0.67993385199E+02  0.87337360112E+02  0.41188529273E+02  0.11817310289E+03  0.41800000000E+01 0. -1.
         -5    1    4    4    0  501  0.76690000009E+02 -0.38559666221E+02  0.47843672064E+02  0.98360018895E+02  0.41800000000E+01 0. -1.
</event>
<event>
11    1  0.8551154E-009  0.1440720E+03  0.7561462E-02  0.1103095E+00
         22   -1    0    0    0    0  0.00000000000E+00  0.00000000000E+00  0.23101926599E+03  0.23101926599E+03  0.00000000000E+00 0.  1.
         22   -1    0    0    0    0 -0.00000000000E+00 -0.00000000000E+00 -0.48832461041E+03  0.48832461041E+03  0.00000000000E+00 0.  1.
         24    2    1    2    0    0 -0.31317836895E+02  0.34970090392E+02 -0.36671741078E+03  0.37914800812E+03  0.84070438072E+02 0.  0.
         25    2    1    2    0    0 -0.44773149207E+02 -0.26376992926E+02 -0.51251551873E+02  0.14483521249E+03  0.12510050584E+03 0.  0.
        -24    2    1    2    0    0  0.76090986101E+02 -0.85930974662E+01  0.16066361824E+03  0.19536065579E+03  0.80556241937E+02 0.  0.
        -13    1    3    3    0    0 -0.52611636780E+02  0.33377320385E+01 -0.27165578957E+03  0.27672367587E+03  0.00000000000E+00 0.  1.
         14    1    3    3    0    0  0.21293799885E+02  0.31632358354E+02 -0.95061621208E+02  0.10242433224E+03  0.00000000000E+00 0. -1.
         11    1    5    5    0    0  0.16222238448E+02 -0.73995756868E+01 -0.55626283272E+01  0.18677729373E+02  0.00000000000E+00 0. -1.
        -12    1    5    5    0    0  0.59868747653E+02 -0.11935217794E+01  0.16622624656E+03  0.17668292642E+03  0.00000000000E+00 0.  1.
          5    1    4    4  501    0 -0.72261074506E+01 -0.46949432284E+02  0.27538869419E+02  0.55066573795E+02  0.41800000000E+01 0.  1.
         -5    1    4    4    0  501 -0.37547041756E+02  0.20572439358E+02 -0.78790421292E+02  0.89768638695E+02  0.41800000000E+01 0.  1.
</event>
<event>
11    1  0.8551154E-009  0.1286825E+03  0.7561462E-02  0.1120898E+00
         22   -1    0    0    0    0  0.00000000000E+00  0.00000000000E+00  0.37652766221E+03  0.37652766221E+03  0.00000000000E+00 0.  1.
         22   -1    0    0    0    0 -0.00000000000E+00 -0.00000000000E+00 -0.13061243554E+03  0.13061243554E+03  0.00000000000E+00 0.  1.
         24    2    1    2    0    0 -0.28324948048E+02  0.24993052145E+01 -0.68056668954E+02  0.10847023078E+03  0.79533210478E+02 0.  0.
         25    2    1    2    0    0  0.41682521204E+02  0.99624528632E+01  0.91259264885E+02  0.16066489068E+03  0.12509304789E+03 0.  0.
        -24    2    1    2    0    0 -0.13357573157E+02 -0.12461758078E+02  0.22271263074E+03  0.23800497628E+03  0.81925165052E+02 0.  0.
        -11    1    3    3    0    0 -0.43368141051E+02 -0.27067692235E+02 -0.44582386607E+02  0.67831001885E+02  0.00000000000E+00 0.  1.
         12    1    3    3    0    0  0.15043193003E+02  0.29566997449E+02 -0.23474282347E+02  0.40639228900E+02  0.00000000000E+00 0. -1.
         13    1    5    5    0    0 -0.29407392751E+02 -0.79777793849E+01  0.24514604701E+02  0.39107615063E+02  0.00000000000E+00 0. -1.
        -14    1    5    5    0    0  0.16049819594E+02 -0.44839786928E+01  0.19819802604E+03  0.19889736122E+03  0.00000000000E+00 0.  1.
          5    1    4    4  501    0  0.54603521490E+02  0.12546384423E+02 -0.11191287281E+02  0.57285893832E+02  0.41800000000E+01 0.  1.
         -5    1    4    4    0  501 -0.12921000285E+02 -0.25839315593E+01  0.10245055217E+03  0.10337899685E+03  0.41800000000E+01 0.  1.
</event>
<event>
11    1  0.8551154E-009  0.1449384E+03  0.7561462E-02  0.1102166E+00
         22   -1    0    0    0    0  0.00000000000E+00  0.00000000000E+00  0.14597335610E+03  0.14597335610E+03  0.00000000000E+00 0.  1.
         22   -1    0    0    0    0 -0.00000000000E+00 -0.00000000000E+00 -0.19088821757E+04  0.19088821757E+04  0.00000000000E+00 0.  1.
         24    2    1    2    0    0 -0.36489782682E+02  0.62593113610E+02 -0.17199513316E+04  0.17232900475E+04  0.79035451835E+02 0.  0.
         25    2    1    2    0    0  0.11730464287E+02 -0.97517195822E+02 -0.12988915874E+03  0.20533908073E+03  0.12508292147E+03 0.  0.
        -24    2    1    2    0    0  0.24759318395E+02  0.34924082213E+02  0.86931670763E+02  0.12622640353E+03  0.80890507490E+02 0.  0.
        -13    1    3    3    0    0 -0.42332625336E+02  0.22444152333E+02 -0.13940245359E+04  0.13948477328E+04  0.00000000000E+00 0.  1.
         14    1    3    3    0    0  0.58428426539E+01  0.40148961277E+02 -0.32592679573E+03  0.32844231468E+03  0.00000000000E+00 0. -1.
         11    1    5    5    0    0  0.13908214335E+02  0.44558003971E+02  0.97410991958E+01  0.47683782961E+02  0.00000000000E+00 0. -1.
        -12    1    5    5    0    0  0.10851104060E+02 -0.96339217588E+01  0.77190571567E+02  0.78542620574E+02  0.00000000000E+00 0.  1.
          5    1    4    4  501    0  0.18229766437E+02 -0.37544401989E+01 -0.10676830891E+03  0.10845904477E+03  0.41800000000E+01 0. -1.
         -5    1    4    4    0  501 -0.64993021501E+01 -0.93762755623E+02 -0.23120849829E+02  0.96880035959E+02  0.41800000000E+01 0. -1.
</event>
<event>
11    1  0.8551154E-009  0.1918650E+03  0.7561462E-02  0.1060430E+00
         22   -1    0    0    0    0  0.00000000000E+00  0.00000000000E+00  0.12685645867E+04  0.12685645867E+04  0.00000000000E+00 0. -1.
         22   -1    0    0    0    0 -0.00000000000E+00 -0.00000000000E+00 -0.11446644539E+04  0.11446644539E+04  0.00000000000E+00 0. -1.
        -24    2    1    2    0    0  0.35656834113E+02  0.14037260348E+03 -0.10985091489E+04  0.11109470766E+04  0.80654691472E+02 0.  0.
         25    2    1    2    0    0 -0.14135096516E+02 -0.18168273502E+03  0.28689665270E+03  0.36216629168E+03  0.12508523631E+03 0.  0.
         24    2    1    2    0    0 -0.21521737598E+02  0.41310131533E+02  0.93551262896E+03  0.94011567223E+03  0.80398296483E+02 0.  0.
        -11    1    5    5    0    0 -0.20715170705E+02 -0.16861148781E+02  0.50290176762E+03  0.50361056831E+03  0.00000000000E+00 0.  1.
         12    1    5    5    0    0 -0.80656689269E+00  0.58171280314E+02  0.43261086134E+03  0.43650510392E+03  0.00000000000E+00 0. -1.
         11    1    3    3    0    0  0.11443021223E+02  0.13682934997E+03 -0.82529319040E+03  0.83663735505E+03  0.00000000000E+00 0. -1.
        -12    1    3    3    0    0  0.24213812890E+02  0.35432535137E+01 -0.27321595849E+03  0.27430972158E+03  0.00000000000E+00 0.  1.
          5    1    4    4  501    0  0.54448989645E+02 -0.81493086668E+02  0.14892578951E+03  0.17833165403E+03  0.41800000000E+01 0.  1.
         -5    1    4    4    0  501 -0.68584086161E+02 -0.10018964835E+03  0.13797086319E+03  0.18383463765E+03  0.41800000000E+01 0.  1.
</event>
<event>
11    1  0.8551154E-009  0.1334291E+03  0.7561462E-02  0.1115126E+00
         22   -1    0    0    0    0  0.00000000000E+00  0.00000000000E+00  0.54307426230E+03  0.54307426230E+03  0.00000000000E+00 0. -1.
         22   -1    0    0    0    0 -0.00000000000E+00 -0.00000000000E+00 -0.26161718624E+03  0.26161718624E+03  0.00000000000E+00 0.  1.
         24    2    1    2    0    0 -0.32885419702E+02  0.24568023221E+02 -0.18344162999E+03  0.20610853510E+03  0.84527262085E+02 0.  0.
         25    2    1    2    0    0 -0.15449874287E+02 -0.29748909841E+02  0.58544107887E+01  0.12963618329E+03  0.12509024598E+03 0.  0.
        -24    2    1    2    0    0  0.48335293989E+02  0.51808866198E+01  0.45904429526E+03  0.46894673015E+03  0.82620992967E+02 0.  0.
        -11    1    3    3    0    0 -0.45696299385E+02  0.15297363705E+02 -0.18407928909E+03  0.19028227922E+03  0.00000000000E+00 0.  1.
         12    1    3    3    0    0  0.12810879683E+02  0.92706595157E+01  0.63765910187E+00  0.15826255882E+02  0.00000000000E+00 0. -1.
         11    1    5    5    0    0  0.59248930598E+02  0.27750199013E+02  0.39089875015E+03  0.39633614797E+03  0.00000000000E+00 0. -1.
        -12    1    5    5    0    0 -0.10913636609E+02 -0.22569312393E+02  0.68145545111E+02  0.72610582179E+02  0.00000000000E+00 0.  1.
          5    1    4    4  501    0 -0.48866647827E+02 -0.11659226751E+01  0.47963070184E+02  0.68609308020E+02  0.41800000000E+01 0. -1.
         -5    1    4    4    0  501  0.33416773540E+02 -0.28582987166E+02 -0.42108659395E+02  0.61026875270E+02  0.41800000000E+01 0. -1.
</event>
<event>
11    1  0.8551154E-009  0.1384786E+03  0.7561462E-02  0.1109269E+00
         22   -1    0    0    0    0  0.00000000000E+00  0.00000000000E+00  0.36322917435E+03  0.36322917435E+03  0.00000000000E+00 0.  1.
         22   -1    0    0    0    0 -0.00000000000E+00 -0.00000000000E+00 -0.57864860911E+03  0.57864860911E+03  0.00000000000E+00 0. -1.
         24    2    1    2    0    0  0.15230588918E+02  0.17660625684E+02 -0.51041027200E+03  0.51727639307E+03  0.80699148243E+02 0.  0.
         25    2    1    2    0    0 -0.52572720783E+02 -0.57290833979E+02  0.55217702734E+02  0.15729908246E+03  0.12509147060E+03 0.  0.
        -24    2    1    2    0    0  0.37342131864E+02  0.39630208295E+02  0.23977313451E+03  0.26730230792E+03  0.10485408704E+03 0.  0.
        -13    1    3    3    0    0  0.11535904371E+02 -0.72424566945E+01 -0.11772237276E+02  0.18003217465E+02  0.00000000000E+00 0.  1.
         14    1    3    3    0    0  0.36946845475E+01  0.24903082378E+02 -0.49863803473E+03  0.49927317561E+03  0.00000000000E+00 0. -1.
         11    1    5    5    0    0  0.57685724756E+02  0.58427730331E+02  0.12739996462E+03  0.15156580584E+03  0.00000000000E+00 0. -1.
        -12    1    5    5    0    0 -0.20343592891E+02 -0.18797522036E+02  0.11237316988E+03  0.11573650209E+03  0.00000000000E+00 0.  1.
          5    1    4    4  501    0 -0.37814105661E+02  0.31957085195E+02 -0.27782909855E+01  0.49762969987E+02  0.41800000000E+01 0.  1.
         -5    1    4    4    0  501 -0.14758615121E+02 -0.89247919174E+02  0.57995993720E+02  0.10753611247E+03  0.41800000000E+01 0.  1.
</event>
<event>
11    1  0.8551154E-009  0.1519202E+03  0.7561462E-02  0.1094933E+00
         22   -1    0    0    0    0  0.00000000000E+00  0.00000000000E+00  0.26614200590E+03  0.26614200590E+03  0.00000000000E+00 0.  1.
         22   -1    0    0    0    0 -0.00000000000E+00 -0.00000000000E+00 -0.61021826512E+03  0.61021826512E+03  0.00000000000E+00 0.  1.
         24    2    1    2    0    0 -0.40375908492E+02  0.70409914208E-01 -0.51133900095E+03  0.51913795659E+03  0.80040147079E+02 0.  0.
         25    2    1    2    0    0  0.74514259224E+02 -0.75230221416E+02  0.12371378699E+02  0.16435300015E+03  0.12508755576E+03 0.  0.
        -24    2    1    2    0    0 -0.34138350731E+02  0.75159811501E+02  0.15489136302E+03  0.19286931427E+03  0.79955073585E+02 0.  0.
        -13    1    3    3    0    0  0.14231825941E+02  0.24881610178E+02 -0.20363979769E+03  0.20564728688E+03  0.00000000000E+00 0.  1.
         14    1    3    3    0    0 -0.54607734434E+02 -0.24811200264E+02 -0.30769920325E+03  0.31349066972E+03  0.00000000000E+00 0. -1.
         11    1    5    5    0    0 -0.19286067339E+02 -0.11324950123E+02  0.12530017113E+02  0.25636072584E+02  0.00000000000E+00 0. -1.
        -12    1    5    5    0    0 -0.14852283392E+02  0.86484761624E+02  0.14236134591E+03  0.16723324169E+03  0.00000000000E+00 0.  1.
          5    1    4    4  501    0  0.42037975309E+02 -0.88738940289E+02  0.52009205880E+02  0.11119451780E+03  0.41800000000E+01 0.  1.
         -5    1    4    4    0  501  0.32476283915E+02  0.13508718874E+02 -0.39637827181E+02  0.53158482354E+02  0.41800000000E+01 0.  1.
</event>
<event>
11    1  0.8551154E-009  0.1412227E+03  0.7561462E-02  0.1106201E+00
         22   -1    0    0    0    0  0.00000000000E+00  0.00000000000E+00  0.21255339814E+03  0.21255339814E+03  0.00000000000E+00 0.  1.
         22   -1    0    0    0    0 -0.00000000000E+00 -0.00000000000E+00 -0.63946007037E+03  0.63946007037E+03  0.00000000000E+00 0. -1.
         24    2    1    2    0    0 -0.37763465444E+02  0.56816313128E+02 -0.55348099998E+03  0.56327813668E+03  0.79289779730E+02 0.  0.
         25    2    1    2    0    0 -0.40164077873E+02 -0.50099100259E+02  0.20821522751E+02  0.14213962435E+03  0.12508822488E+03 0.  0.
        -24    2    1    2    0    0  0.77927543317E+02 -0.67172128694E+01  0.10575280499E+03  0.14659570748E+03  0.64721115026E+02 0.  0.
        -11    1    3    3    0    0 -0.31340256320E+01 -0.19159495161E+02 -0.70089333549E+02  0.72728419815E+02  0.00000000000E+00 0.  1.
         12    1    3    3    0    0 -0.34629439812E+02  0.75975808289E+02 -0.48339166643E+03  0.49054971687E+03  0.00000000000E+00 0. -1.
         11    1    5    5    0    0  0.37222584344E+02  0.34661495217E+01  0.53328631585E+01  0.37762076310E+02  0.00000000000E+00 0. -1.
        -12    1    5    5    0    0  0.40704958973E+02 -0.10183362391E+02  0.10041994183E+03  0.10883363117E+03  0.00000000000E+00 0.  1.
          5    1    4    4  501    0 -0.81434325883E+02 -0.88707452153E+01  0.95262122652E+01  0.82573970916E+02  0.41800000000E+01 0.  1.
         -5    1    4    4    0  501  0.41270248010E+02 -0.41228355043E+02  0.11295310486E+02  0.59565653437E+02  0.41800000000E+01 0.  1.
</event>
<event>
11    1  0.8551154E-009  0.1477417E+03  0.7561462E-02  0.1099209E+00
         22   -1    0    0    0    0  0.00000000000E+00  0.00000000000E+00  0.21369777393E+04  0.21369777393E+04  0.00000000000E+00 0. -1.
         22   -1    0    0    0    0 -0.00000000000E+00 -0.00000000000E+00 -0.45691708851E+02  0.45691708851E+02  0.00000000000E+00 0.  1.
         24    2    1    2    0    0  0.20763400979E+02 -0.76153933147E+02  0.41695337341E+02  0.11970773623E+03  0.79755254390E+02 0.  0.
         25    2    1    2    0    0 -0.49409346519E+01  0.75510412748E+02  0.10928263166E+04  0.11025621105E+04  0.12509042329E+03 0.  0.
        -24    2    1    2    0    0 -0.15822466327E+02  0.64352039879E+00  0.95676437658E+03  0.96039960149E+03  0.81966808474E+02 0.  0.
        -11    1    3    3    0    0  0.43846698928E+02 -0.56675030087E+02  0.45050118369E+01  0.71797542952E+02  0.00000000000E+00 0.  1.
         12    1    3    3    0    0 -0.23083297949E+02 -0.19478903060E+02  0.37190325504E+02  0.47910193276E+02  0.00000000000E+00 0. -1.
         11    1    5    5    0    0 -0.28397127700E+02  0.47994184869E+01  0.93086653739E+03  0.93131194651E+03  0.00000000000E+00 0. -1.
        -12    1    5    5    0    0  0.12574661373E+02 -0.41558980881E+01  0.25897839188E+02  0.29087654978E+02  0.00000000000E+00 0.  1.
          5    1    4    4  501    0  0.43560695850E+02 -0.11479285712E+02  0.27736577003E+03  0.28103122782E+03  0.41800000000E+01 0. -1.
         -5    1    4    4    0  501 -0.48501630501E+02  0.86989698460E+02  0.81546054652E+03  0.82153088264E+03  0.41800000000E+01 0. -1.
</event>
<event>
11    1  0.1006329E-008  0.1948098E+03  0.7561462E-02  0.1058256E+00
         22   -1    0    0    0    0  0.00000000000E+00  0.00000000000E+00  0.67680515963E+03  0.67680515963E+03  0.00000000000E+00 0.  1.
         22   -1    0    0    0    0 -0.00000000000E+00 -0.00000000000E+00 -0.11562642693E+04  0.11562642693E+04  0.00000000000E+00 0.  1.
         24    2    1    2    0    0 -0.55468000116E+02  0.34329419465E+02 -0.85537891102E+03  0.86191573187E+03  0.83489157063E+02 0.  0.
         25    2    1    2    0    0  0.20007917448E+03 -0.60653468490E+02 -0.23421283453E+03  0.33795498793E+03  0.12508957875E+03 0.  0.
        -24    2    1    2    0    0 -0.14461117437E+03  0.26324049025E+02  0.61013263586E+03  0.63319870914E+03  0.84103653978E+02 0.  0.
        -13    1    3    3    0    0 -0.15351990669E+02 -0.26412684953E+02 -0.34850479578E+03  0.34984125861E+03  0.00000000000E+00 0.  1.
         14    1    3    3    0    0 -0.40116009447E+02  0.60742104418E+02 -0.50687411524E+03  0.51207447326E+03  0.00000000000E+00 0. -1.
         13    1    5    5    0    0 -0.48003526479E+02  0.46815719137E+02  0.18590341886E+03  0.19762624131E+03  0.00000000000E+00 0. -1.
        -14    1    5    5    0    0 -0.96607647888E+02 -0.20491670112E+02  0.42422921700E+03  0.43557246783E+03  0.00000000000E+00 0.  1.
          5    1    4    4  501    0  0.12327441533E+02  0.28096998559E+02 -0.57216213427E+02  0.65058240229E+02  0.41800000000E+01 0.  1.
         -5    1    4    4    0  501  0.18775173295E+03 -0.88750467049E+02 -0.17699662110E+03  0.27289674770E+03  0.41800000000E+01 0.  1.
</event>
<event>
11    1  0.8551154E-009  0.1283195E+03  0.7561462E-02  0.1121351E+00
         22   -1    0    0    0    0  0.00000000000E+00  0.00000000000E+00  0.32109812896E+03  0.32109812896E+03  0.00000000000E+00 0.  1.
         22   -1    0    0    0    0 -0.00000000000E+00 -0.00000000000E+00 -0.76861579304E+03  0.76861579304E+03  0.00000000000E+00 0. -1.
        -24    2    1    2    0    0  0.23184762781E+00 -0.99018834565E+01 -0.58810853064E+03  0.59384069878E+03  0.81713099704E+02 0.  0.
         25    2    1    2    0    0  0.10246626706E+02  0.36127356557E+02 -0.14557058709E+03  0.19557263873E+03  0.12509069487E+03 0.  0.
         24    2    1    2    0    0 -0.10478474333E+02 -0.26225473101E+02  0.28616145366E+03  0.30030058449E+03  0.86570720365E+02 0.  0.
        -11    1    5    5    0    0  0.13302022047E+02 -0.39678685710E+02  0.25682230995E+03  0.26020960931E+03  0.00000000000E+00 0.  1.
         12    1    5    5    0    0 -0.23780496380E+02  0.13453212609E+02  0.29339143708E+02  0.40090975183E+02  0.00000000000E+00 0. -1.
         11    1    3    3    0    0 -0.34570072798E+02  0.40391808152E+00 -0.43974617311E+03  0.44110310569E+03  0.00000000000E+00 0. -1.
        -12    1    3    3    0    0  0.34801920426E+02 -0.10305801538E+02 -0.14836235753E+03  0.15273759309E+03  0.00000000000E+00 0.  1.
          5    1    4    4  501    0  0.49707440475E+02 -0.25793651109E+02 -0.51779973433E+02  0.76385732469E+02  0.41800000000E+01 0. -1.
         -5    1    4    4    0  501 -0.39460813770E+02  0.61921007667E+02 -0.93790613660E+02  0.11918690626E+03  0.41800000000E+01 0. -1.
</event>
<event>
11    1  0.8551154E-009  0.1536269E+03  0.7561462E-02  0.1093229E+00
         22   -1    0    0    0    0  0.00000000000E+00  0.00000000000E+00  0.20067907457E+03  0.20067907457E+03  0.00000000000E+00 0.  1.
         22   -1    0    0    0    0 -0.00000000000E+00 -0.00000000000E+00 -0.89075094181E+03  0.89075094181E+03  0.00000000000E+00 0.  1.
         24    2    1    2    0    0  0.77829089119E+01  0.25577495109E+01 -0.78580664554E+03  0.78999882330E+03  0.80863717966E+02 0.  0.
         25    2    1    2    0    0 -0.58977589288E+02  0.69561483373E+02  0.96500670344E+01  0.15510751600E+03  0.12509221286E+03 0.  0.
        -24    2    1    2    0    0  0.51194680376E+02 -0.72119232884E+02  0.86084711268E+02  0.14632367709E+03  0.78600012170E+02 0.  0.
        -13    1    3    3    0    0  0.70645820936E+01 -0.10307701697E+02 -0.76755638514E+03  0.76765810189E+03  0.00000000000E+00 0.  1.
         14    1    3    3    0    0  0.71832681826E+00  0.12865451208E+02 -0.18250260404E+02  0.22340721408E+02  0.00000000000E+00 0. -1.
         11    1    5    5    0    0  0.11224962504E+02  0.16905322461E+02  0.10238577464E+02  0.22729236221E+02  0.00000000000E+00 0. -1.
        -12    1    5    5    0    0  0.39969717872E+02 -0.89024555345E+02  0.75846133804E+02  0.12359444087E+03  0.00000000000E+00 0.  1.
          5    1    4    4  501    0  0.27352926925E+02  0.61037736640E+02  0.12670308799E+02  0.68204083680E+02  0.41800000000E+01 0. -1.
         -5    1    4    4    0  501 -0.86330516213E+02  0.85237467332E+01 -0.30202417649E+01  0.86903432316E+02  0.41800000000E+01 0. -1.
</event>
<event>
11    1  0.8551154E-009  0.1437295E+03  0.7561462E-02  0.1103464E+00
         22   -1    0    0    0    0  0.00000000000E+00  0.00000000000E+00  0.79290768722E+03  0.79290768722E+03  0.00000000000E+00 0.  1.
         22   -1    0    0    0    0 -0.00000000000E+00 -0.00000000000E+00 -0.87781790325E+03  0.87781790325E+03  0.00000000000E+00 0.  1.
        -24    2    1    2    0    0 -0.65608616285E+02 -0.25074061350E+02 -0.83731534250E+03  0.84403482514E+03  0.79778469331E+02 0.  0.
         25    2    1    2    0    0  0.84452792863E+02  0.64536379676E+02  0.16267292380E+03  0.23110484523E+03  0.12509896413E+03 0.  0.
         24    2    1    2    0    0 -0.18844176578E+02 -0.39462318326E+02  0.58973220267E+03  0.59558592011E+03  0.70895273537E+02 0.  0.
        -13    1    5    5    0    0  0.20622172458E+01 -0.31609739990E+02  0.54159504802E+03  0.54252062122E+03  0.00000000000E+00 0.  1.
         14    1    5    5    0    0 -0.20906393824E+02 -0.78525783358E+01  0.48137154647E+02  0.53065298894E+02  0.00000000000E+00 0. -1.
         11    1    3    3    0    0 -0.17453224273E+02  0.28865992578E+02 -0.24007724187E+03  0.24243544013E+03  0.00000000000E+00 0. -1.
        -12    1    3    3    0    0 -0.48155392012E+02 -0.53940053928E+02 -0.59723810063E+03  0.60159938501E+03  0.00000000000E+00 0.  1.
          5    1    4    4  501    0  0.99215059772E+02  0.16041242483E+01  0.95295177238E+02  0.13764027210E+03  0.41800000000E+01 0.  1.
         -5    1    4    4    0  501 -0.14762266909E+02  0.62932255428E+02  0.67377746566E+02  0.93464573127E+02  0.41800000000E+01 0.  1.
</event>
<event>
11    1  0.8551154E-009  0.1449065E+03  0.7561462E-02  0.1102200E+00
         22   -1    0    0    0    0  0.00000000000E+00  0.00000000000E+00  0.69908006233E+03  0.69908006233E+03  0.00000000000E+00 0. -1.
         22   -1    0    0    0    0 -0.00000000000E+00 -0.00000000000E+00 -0.14671868673E+04  0.14671868673E+04  0.00000000000E+00 0. -1.
         24    2    1    2    0    0 -0.65355385510E+02  0.33136071022E+02 -0.13439230550E+04  0.13483415790E+04  0.80786820402E+02 0.  0.
         25    2    1    2    0    0  0.49806410952E+02 -0.57312820365E+02 -0.72879238070E+02  0.16347356100E+03  0.12508710507E+03 0.  0.
        -24    2    1    2    0    0  0.15548974559E+02  0.24176749343E+02  0.64869548812E+03  0.65445178958E+03  0.81700812509E+02 0.  0.
        -13    1    3    3    0    0 -0.48665009833E+02  0.54568547676E+02 -0.69182641084E+03  0.69567937465E+03  0.00000000000E+00 0.  1.
         14    1    3    3    0    0 -0.16690375677E+02 -0.21432476654E+02 -0.65209664416E+03  0.65266220438E+03  0.00000000000E+00 0. -1.
         11    1    5    5    0    0 -0.65531688576E+01  0.12779090764E+02  0.59610699554E+03  0.59627996723E+03  0.00000000000E+00 0. -1.
        -12    1    5    5    0    0  0.22102143416E+02  0.11397658578E+02  0.52588492573E+02  0.58171822352E+02  0.00000000000E+00 0.  1.
          5    1    4    4  501    0  0.63458398861E+02 -0.58400093065E+02  0.28628629445E+01  0.86389858434E+02  0.41800000000E+01 0. -1.
         -5    1    4    4    0  501 -0.13651987909E+02  0.10872727002E+01 -0.75742101014E+02  0.77083702570E+02  0.41800000000E+01 0. -1.
</event>
<event>
11    1  0.8551154E-009  0.2194201E+03  0.7561462E-02  0.1041581E+00
         22   -1    0    0    0    0  0.00000000000E+00  0.00000000000E+00  0.57329138622E+03  0.57329138622E+03  0.00000000000E+00 0. -1.
         22   -1    0    0    0    0 -0.00000000000E+00 -0.00000000000E+00 -0.59497984679E+03  0.59497984679E+03  0.00000000000E+00 0. -1.
        -24    2    1    2    0    0 -0.83993911180E+02 -0.15143940836E+03 -0.40299416757E+03  0.44583217477E+03  0.79832057761E+02 0.  0.
         25    2    1    2    0    0  0.92654301860E+02  0.18883879698E+03 -0.76106198269E+02  0.25628838474E+03  0.12508665732E+03 0.  0.
         24    2    1    2    0    0 -0.86603906799E+01 -0.37399388624E+02  0.45741190526E+03  0.46615067349E+03  0.81222427230E+02 0.  0.
        -11    1    5    5    0    0 -0.22842413053E+02 -0.10941738405E+02  0.38008427085E+02  0.45674259740E+02  0.00000000000E+00 0.  1.
         12    1    5    5    0    0  0.14182022373E+02 -0.26457650219E+02  0.41940347818E+03  0.42047641375E+03  0.00000000000E+00 0. -1.
         11    1    3    3    0    0 -0.68967031661E+02 -0.15898536186E+03 -0.37622629359E+03  0.41422098056E+03  0.00000000000E+00 0. -1.
        -12    1    3    3    0    0 -0.15026879518E+02  0.75459535053E+01 -0.26767873977E+02  0.31611194214E+02  0.00000000000E+00 0.  1.
          5    1    4    4  501    0  0.79694986865E+02  0.53265578882E+02 -0.72022686489E+02  0.11997188251E+03  0.41800000000E+01 0.  1.
         -5    1    4    4    0  501  0.12959314995E+02  0.13557321810E+03 -0.40835117805E+01  0.13631650223E+03  0.41800000000E+01 0.  1.
</event>
<event>
11    1  0.8551154E-009  0.2936074E+03  0.7561462E-02  0.1002934E+00
         22   -1    0    0    0    0  0.00000000000E+00  0.00000000000E+00  0.62637478038E+03  0.62637478038E+03  0.00000000000E+00 0.  1.
         22   -1    0    0    0    0 -0.00000000000E+00 -0.00000000000E+00 -0.27423298689E+04  0.27423298689E+04  0.00000000000E+00 0. -1.
        -24    2    1    2    0    0 -0.18670761820E+02 -0.43603131251E+02 -0.25988355703E+04  0.26004260069E+04  0.77583924535E+02 0.  0.
         25    2    1    2    0    0  0.38532615472E+02 -0.23581372646E+03  0.10163285303E+03  0.28821736786E+03  0.12508852178E+03 0.  0.
         24    2    1    2    0    0 -0.19861853652E+02  0.27941685771E+03  0.38124762873E+03  0.48006127457E+03  0.81491099686E+02 0.  0.
        -13    1    5    5    0    0 -0.23123238715E+02  0.88199797244E+02  0.18382973637E+03  0.20520053698E+03  0.00000000000E+00 0.  1.
         14    1    5    5    0    0  0.32613850634E+01  0.19121706047E+03  0.19741789236E+03  0.27486073759E+03  0.00000000000E+00 0. -1.
         13    1    3    3    0    0 -0.27651820589E+02 -0.38773474610E+02 -0.25540589280E+04  0.25545028896E+04  0.00000000000E+00 0. -1.
        -14    1    3    3    0    0  0.89810587682E+01 -0.48296566406E+01 -0.44776642307E+02  0.45923117230E+02  0.00000000000E+00 0.  1.
          5    1    4    4  501    0  0.27009460208E+02  0.49579977671E+01  0.37847416894E+01  0.28033718131E+02  0.41800000000E+01 0. -1.
         -5    1    4    4    0  501  0.11523155264E+02 -0.24077172423E+03  0.97848111342E+02  0.26018364973E+03  0.41800000000E+01 0. -1.
</event>
<event>
11    1  0.8551154E-009  0.1304082E+03  0.7561462E-02  0.1118768E+00
         22   -1    0    0    0    0  0.00000000000E+00  0.00000000000E+00  0.97827417641E+03  0.97827417641E+03  0.00000000000E+00 0. -1.
         22   -1    0    0    0    0 -0.00000000000E+00 -0.00000000000E+00 -0.16881320603E+04  0.16881320603E+04  0.00000000000E+00 0. -1.
         24    2    1    2    0    0  0.98993112166E+01 -0.55536042879E+01 -0.14179376716E+04  0.14202709114E+04  0.80581526780E+02 0.  0.
         25    2    1    2    0    0 -0.36522273718E+02 -0.19763446238E+02 -0.25069624200E+03  0.28324503153E+03  0.12511863111E+03 0.  0.
        -24    2    1    2    0    0  0.26622962501E+02  0.25317050526E+02  0.95877602974E+03  0.96289029371E+03  0.80972262821E+02 0.  0.
        -11    1    3    3    0    0 -0.30840485766E+00  0.30528207638E+00  0.11009996910E+01  0.11834318831E+01  0.00000000000E+00 0.  1.
         12    1    3    3    0    0  0.10207716074E+02 -0.58588863643E+01 -0.14190386713E+04  0.14190874796E+04  0.00000000000E+00 0. -1.
         11    1    5    5    0    0 -0.13314368407E+02  0.13043389759E+02  0.73565710499E+03  0.73589318419E+03  0.00000000000E+00 0. -1.
        -12    1    5    5    0    0  0.39937330908E+02  0.12273660767E+02  0.22311892475E+03  0.22699710952E+03  0.00000000000E+00 0.  1.
          5    1    4    4  501    0  0.29144610329E+02 -0.40147332122E+02 -0.47974053672E+02  0.69138981866E+02  0.41800000000E+01 0. -1.
         -5    1    4    4    0  501 -0.65666884047E+02  0.20383885884E+02 -0.20272218833E+03  0.21410604967E+03  0.41800000000E+01 0. -1.
</event>
<event>
11    1  0.8551154E-009  0.1352181E+03  0.7561462E-02  0.1113019E+00
         22   -1    0    0    0    0  0.00000000000E+00  0.00000000000E+00  0.14414357415E+04  0.14414357415E+04  0.00000000000E+00 0.  1.
         22   -1    0    0    0    0 -0.00000000000E+00 -0.00000000000E+00 -0.47026720993E+03  0.47026720993E+03  0.00000000000E+00 0.  1.
        -24    2    1    2    0    0 -0.38057997968E+02  0.18217368008E+02 -0.44688504260E+03  0.45576421590E+03  0.78958821490E+02 0.  0.
         25    2    1    2    0    0  0.32379956187E+01 -0.57399743218E+02  0.26350851945E+03  0.29730365559E+03  0.12509000225E+03 0.  0.
         24    2    1    2    0    0  0.34820002349E+02  0.39182375211E+02  0.11545450547E+04  0.11586350800E+04  0.81934571470E+02 0.  0.
        -13    1    5    5    0    0 -0.22737296820E+02  0.21609626319E+02  0.60326840913E+03  0.60408338337E+03  0.00000000000E+00 0.  1.
         14    1    5    5    0    0  0.57557299169E+02  0.17572748892E+02  0.55127664561E+03  0.55455169659E+03  0.00000000000E+00 0. -1.
         11    1    3    3    0    0 -0.45762500787E+02  0.31413627713E+02 -0.17819427332E+03  0.18663928185E+03  0.00000000000E+00 0. -1.
        -12    1    3    3    0    0  0.77045028194E+01 -0.13196259705E+02 -0.26869076928E+03  0.26912493406E+03  0.00000000000E+00 0.  1.
          5    1    4    4  501    0 -0.81066892516E+01 -0.40910176739E+02  0.27196572424E+03  0.27517664968E+03  0.41800000000E+01 0.  1.
         -5    1    4    4    0  501  0.11344684870E+02 -0.16489566480E+02 -0.84572047828E+01  0.22127005903E+02  0.41800000000E+01 0.  1.
</event>
<event>
11    1  0.8551154E-009  0.1820065E+03  0.7561462E-02  0.1068031E+00
         22   -1    0    0    0    0  0.00000000000E+00  0.00000000000E+00  0.19946382708E+03  0.19946382708E+03  0.00000000000E+00 0. -1.
         22   -1    0    0    0    0 -0.00000000000E+00 -0.00000000000E+00 -0.58219465683E+03  0.58219465683E+03  0.00000000000E+00 0.  1.
        -24    2    1    2    0    0 -0.65675483813E+02 -0.11193878707E+03 -0.44613739408E+03  0.47203744370E+03  0.83289931127E+02 0.  0.
         25    2    1    2    0    0  0.10279222506E+03  0.11378705435E+03 -0.21172031111E+01  0.19789953923E+03  0.12508401100E+03 0.  0.
         24    2    1    2    0    0 -0.37116741250E+02 -0.18482672757E+01  0.65523767447E+02  0.11172150099E+03  0.82506127707E+02 0.  0.
        -11    1    5    5    0    0 -0.16962816986E+01  0.37358267715E+02  0.23054079248E+02  0.43931857555E+02  0.00000000000E+00 0.  1.
         12    1    5    5    0    0 -0.35420459551E+02 -0.39206534991E+02  0.42469688200E+02  0.67789643431E+02  0.00000000000E+00 0. -1.
         13    1    3    3    0    0  0.19418692387E+02 -0.29438454841E+02 -0.11766420832E+03  0.12283555738E+03  0.00000000000E+00 0. -1.
        -14    1    3    3    0    0 -0.85094176199E+02 -0.82500332230E+02 -0.32847318577E+03  0.34920188632E+03  0.00000000000E+00 0.  1.
          5    1    4    4  501    0  0.71704921262E+02  0.13477678371E+03  0.20202214315E+02  0.15405187121E+03  0.41800000000E+01 0. -1.
         -5    1    4    4    0  501  0.31087303800E+02 -0.20989729365E+02 -0.22319417426E+02  0.43847668018E+02  0.41800000000E+01 0. -1.
</event>
<event>
11    1  0.8551154E-009  0.1451709E+03  0.7561462E-02  0.1101918E+00
         22   -1    0    0    0    0  0.00000000000E+00  0.00000000000E+00  0.38674927773E+03  0.38674927773E+03  0.00000000000E+00 0.  1.
         22   -1    0    0    0    0 -0.00000000000E+00 -0.00000000000E+00 -0.27949711805E+03  0.27949711805E+03  0.00000000000E+00 0.  1.
        -24    2    1    2    0    0  0.35596693443E+02 -0.10343415905E+02 -0.20870617911E+03  0.22726120986E+03  0.81946796597E+02 0.  0.
         25    2    1    2    0    0  0.43634602453E+02  0.19607911788E+02  0.38450000138E+02  0.13933491737E+03  0.12508943981E+03 0.  0.
         24    2    1    2    0    0 -0.79231295896E+02 -0.92644958827E+01  0.27750833865E+03  0.29965026854E+03  0.80099789552E+02 0.  0.
        -13    1    5    5    0    0 -0.89907088841E+02 -0.24549112441E+02  0.24568106218E+03  0.26276439611E+03  0.00000000000E+00 0.  1.
         14    1    5    5    0    0  0.10675792946E+02  0.15284616558E+02  0.31827276463E+02  0.36885872437E+02  0.00000000000E+00 0. -1.
         13    1    3    3    0    0  0.11926939539E+02 -0.65504974856E+01  0.32203245405E+01  0.13983254064E+02  0.00000000000E+00 0. -1.
        -14    1    3    3    0    0  0.23669753904E+02 -0.37929184199E+01 -0.21192650365E+03  0.21327795579E+03  0.00000000000E+00 0.  1.
          5    1    4    4  501    0  0.68437122293E+02  0.93495859070E+01 -0.22369516787E+02  0.72724976079E+02  0.41800000000E+01 0.  1.
         -5    1    4    4    0  501 -0.24802519840E+02  0.10258325881E+02  0.60819516925E+02  0.66609941295E+02  0.41800000000E+01 0.  1.
</event>
<event>
11    1  0.8551154E-009  0.2370311E+03  0.7561462E-02  0.1031044E+00
         22   -1    0    0    0    0  0.00000000000E+00  0.00000000000E+00  0.82318814271E+03  0.82318814271E+03  0.00000000000E+00 0. -1.
         22   -1    0    0    0    0 -0.00000000000E+00 -0.00000000000E+00 -0.48359839256E+03  0.48359839256E+03  0.00000000000E+00 0.  1.
        -24    2    1    2    0    0  0.28606795364E+02  0.41904706214E+02 -0.39156269458E+03  0.40320162659E+03  0.81705904028E+02 0.  0.
         25    2    1    2    0    0  0.15237808163E+03  0.68287893518E+02  0.97426166232E+02  0.23026589425E+03  0.12509279766E+03 0.  0.
         24    2    1    2    0    0 -0.18098487699E+03 -0.11019259973E+03  0.63372627850E+03  0.67331901443E+03  0.82774177077E+02 0.  0.
        -11    1    5    5    0    0 -0.29610595621E+02 -0.12168781756E+02  0.21553692486E+03  0.21790142863E+03  0.00000000000E+00 0.  1.
         12    1    5    5    0    0 -0.15137428137E+03 -0.98023817976E+02  0.41818935364E+03  0.45541758580E+03  0.00000000000E+00 0. -1.
         11    1    3    3    0    0  0.74435737126E+01  0.30133258402E+02 -0.39166577511E+02  0.49974401902E+02  0.00000000000E+00 0. -1.
        -12    1    3    3    0    0  0.21163221651E+02  0.11771447811E+02 -0.35239611707E+03  0.35322722469E+03  0.00000000000E+00 0.  1.
          5    1    4    4  501    0 -0.16197015965E+02  0.18387060009E+02  0.36489725002E+02  0.44152007119E+02  0.41800000000E+01 0.  1.
         -5    1    4    4    0  501  0.16857509759E+03  0.49900833509E+02  0.60936441230E+02  0.18611388713E+03  0.41800000000E+01 0.  1.
</event>
<event>
11    1  0.8551154E-009  0.1452742E+03  0.7561462E-02  0.1101808E+00
         22   -1    0    0    0    0  0.00000000000E+00  0.00000000000E+00  0.85527114466E+03  0.85527114466E+03  0.00000000000E+00 0.  1.
         22   -1    0    0    0    0 -0.00000000000E+00 -0.00000000000E+00 -0.13203564481E+03  0.13203564481E+03  0.00000000000E+00 0. -1.
        -24    2    1    2    0    0  0.11301161768E+01 -0.24193926597E+01 -0.87048613486E+02  0.11881374135E+03  0.80821490960E+02 0.  0.
         25    2    1    2    0    0 -0.60483362285E+02  0.45894794229E+02  0.19447048076E+03  0.24335079464E+03  0.12504508032E+03 0.  0.
         24    2    1    2    0    0  0.59353246108E+02 -0.43475401569E+02  0.61581363257E+03  0.62514225347E+03  0.78507889163E+02 0.  0.
        -13    1    5    5    0    0  0.53779078698E+02 -0.31784437482E+02  0.60514883105E+03  0.60836465010E+03  0.00000000000E+00 0.  1.
         14    1    5    5    0    0  0.55741674101E+01 -0.11690964087E+02  0.10664801517E+02  0.16777603375E+02  0.00000000000E+00 0. -1.
         13    1    3    3    0    0 -0.48473261433E+01 -0.29799665399E+02 -0.85580829191E+02  0.90750178808E+02  0.00000000000E+00 0. -1.
        -14    1    3    3    0    0  0.59774423201E+01  0.27380272739E+02 -0.14677842946E+01  0.28063562545E+02  0.00000000000E+00 0.  1.
          5    1    4    4  501    0 -0.82274446863E+02  0.96216963662E+00  0.16696774786E+03  0.18618730247E+03  0.41800000000E+01 0. -1.
         -5    1    4    4    0  501  0.21791084578E+02  0.44932624592E+02  0.27502732909E+02  0.57163492172E+02  0.41800000000E+01 0. -1.
</event>
<event>
11    1  0.8551154E-009  0.1665312E+03  0.7561462E-02  0.1081090E+00
         22   -1    0    0    0    0  0.00000000000E+00  0.00000000000E+00  0.12946037141E+04  0.12946037141E+04  0.00000000000E+00 0.  1.
         22   -1    0    0    0    0 -0.00000000000E+00 -0.00000000000E+00 -0.32437338965E+03  0.32437338965E+03  0.00000000000E+00 0. -1.
         24    2    1    2    0    0  0.10267288856E+03  0.20737423410E+02 -0.23760324362E+03  0.27474012930E+03  0.89750066829E+02 0.  0.
         25    2    1    2    0    0 -0.14833697237E+03 -0.23867437422E+02  0.77666284694E+02  0.21036482732E+03  0.12509115418E+03 0.  0.
        -24    2    1    2    0    0  0.45664083819E+02  0.31300140123E+01  0.11301672834E+04  0.11338721472E+04  0.79328129198E+02 0.  0.
        -11    1    3    3    0    0  0.52856817491E+02 -0.97165290564E+01 -0.35590489385E+02  0.64458801003E+02  0.00000000000E+00 0.  1.
         12    1    3    3    0    0  0.49816071065E+02  0.30453952466E+02 -0.20201275424E+03  0.21028132830E+03  0.00000000000E+00 0. -1.
         11    1    5    5    0    0  0.38933660605E+02 -0.31202413250E+02  0.44023027083E+03  0.44304865633E+03  0.00000000000E+00 0. -1.
        -12    1    5    5    0    0  0.67304232136E+01  0.34332427262E+02  0.68993701258E+03  0.69082349083E+03  0.00000000000E+00 0.  1.
          5    1    4    4  501    0 -0.28118009078E+02 -0.41621472146E+02  0.72962674931E+02  0.88679161651E+02  0.41800000000E+01 0. -1.
         -5    1    4    4    0  501 -0.12021896330E+03  0.17754034723E+02  0.47036097630E+01  0.12168566567E+03  0.41800000000E+01 0. -1.
</event>
<event>
11    1  0.8551154E-009  0.1702143E+03  0.7561462E-02  0.1077845E+00
         22   -1    0    0    0    0  0.00000000000E+00  0.00000000000E+00  0.42195365150E+03  0.42195365150E+03  0.00000000000E+00 0.  1.
         22   -1    0    0    0    0 -0.00000000000E+00 -0.00000000000E+00 -0.17567588899E+04  0.17567588899E+04  0.00000000000E+00 0. -1.
        -24    2    1    2    0    0  0.11426604305E+03 -0.16047721796E+02 -0.17041020896E+04  0.17098492201E+04  0.79411369671E+02 0.  0.
         25    2    1    2    0    0 -0.11384746147E+03  0.39967593698E+02  0.13616240312E+03  0.22078654868E+03  0.12509135472E+03 0.  0.
         24    2    1    2    0    0 -0.41858158043E+00 -0.23919871901E+02  0.23313444808E+03  0.24807677265E+03  0.81351575041E+02 0.  0.
        -11    1    5    5    0    0 -0.30289307445E+01  0.38293206668E+01  0.21448647217E+03  0.21454203518E+03  0.00000000000E+00 0.  1.
         12    1    5    5    0    0  0.26103491641E+01 -0.27749192568E+02  0.18647975916E+02  0.33534737463E+02  0.00000000000E+00 0. -1.
         13    1    3    3    0    0  0.12041622766E+03 -0.30081681407E+02 -0.15620083848E+04  0.15669317693E+04  0.00000000000E+00 0. -1.
        -14    1    3    3    0    0 -0.61501846049E+01  0.14033959611E+02 -0.14209370485E+03  0.14291745083E+03  0.00000000000E+00 0.  1.
          5    1    4    4  501    0 -0.26271644135E+02 -0.44568367312E+02  0.44219873609E+02  0.68186569589E+02  0.41800000000E+01 0.  1.
         -5    1    4    4    0  501 -0.87575817335E+02  0.84535961010E+02  0.91942529511E+02  0.15259997909E+03  0.41800000000E+01 0.  1.
</event>
<event>
11    1  0.8551154E-009  0.1526517E+03  0.7561462E-02  0.1094200E+00
         22   -1    0    0    0    0  0.00000000000E+00  0.00000000000E+00  0.25044296005E+03  0.25044296005E+03  0.00000000000E+00 0.  1.
         22   -1    0    0    0    0 -0.00000000000E+00 -0.00000000000E+00 -0.84143024216E+03  0.84143024216E+03  0.00000000000E+00 0. -1.
         24    2    1    2    0    0 -0.71292930770E+02  0.54522280553E+02 -0.69444678891E+03  0.70416574162E+03  0.74415643472E+02 0.  0.
         25    2    1    2    0    0  0.95133413399E+02  0.23558079647E+02 -0.75994355301E+02  0.17614761486E+03  0.12508993053E+03 0.  0.
        -24    2    1    2    0    0 -0.23840482630E+02 -0.78080360200E+02  0.17945386210E+03  0.21155984574E+03  0.76739614580E+02 0.  0.
        -13    1    3    3    0    0 -0.29464719123E+02  0.73905236563E+01 -0.67028348112E+02  0.73590685305E+02  0.00000000000E+00 0.  1.
         14    1    3    3    0    0 -0.41828211646E+02  0.47131756897E+02 -0.62741844080E+03  0.63057505632E+03  0.00000000000E+00 0. -1.
         11    1    5    5    0    0 -0.47841833080E+02 -0.31627769994E+02  0.71913579364E+02  0.91982170687E+02  0.00000000000E+00 0. -1.
        -12    1    5    5    0    0  0.24001350450E+02 -0.46452590206E+02  0.10754028273E+03  0.11957767505E+03  0.00000000000E+00 0.  1.
          5    1    4    4  501    0  0.48399356294E+02  0.44661899194E+02  0.18518602396E+02  0.68538995937E+02  0.41800000000E+01 0.  1.
         -5    1    4    4    0  501  0.46734057106E+02 -0.21103819547E+02 -0.94512957697E+02  0.10760861892E+03  0.41800000000E+01 0.  1.
</event>
<event>
11    1  0.8551154E-009  0.1554948E+03  0.7561462E-02  0.1091393E+00
         22   -1    0    0    0    0  0.00000000000E+00  0.00000000000E+00  0.36972963778E+03  0.36972963778E+03  0.00000000000E+00 0. -1.
         22   -1    0    0    0    0 -0.00000000000E+00 -0.00000000000E+00 -0.30722448626E+03  0.30722448626E+03  0.00000000000E+00 0.  1.
         24    2    1    2    0    0  0.30942259486E+02 -0.81476348934E+02 -0.20070733912E+03  0.23386921322E+03  0.82556368984E+02 0.  0.
         25    2    1    2    0    0  0.33818968887E+01  0.13399945914E+03  0.27297658621E+02  0.18535248725E+03  0.12507233942E+03 0.  0.
        -24    2    1    2    0    0 -0.34324156375E+02 -0.52523110210E+02  0.23591483202E+03  0.25773242357E+03  0.82664196454E+02 0.  0.
        -13    1    3    3    0    0  0.19581018179E+02 -0.59576995301E+02 -0.19954866632E+03  0.20917099433E+03  0.00000000000E+00 0.  1.
         14    1    3    3    0    0  0.11361241307E+02 -0.21899353632E+02 -0.11586728008E+01  0.24698218888E+02  0.00000000000E+00 0. -1.
         13    1    5    5    0    0 -0.42029552865E+01 -0.57337422657E+02  0.20993505466E+03  0.21766481581E+03  0.00000000000E+00 0. -1.
        -14    1    5    5    0    0 -0.30121201089E+02  0.48143124473E+01  0.25979777362E+02  0.40067607754E+02  0.00000000000E+00 0.  1.
          5    1    4    4  501    0 -0.28329727048E+02  0.14627901800E+03  0.23075465582E+02  0.15083127678E+03  0.41800000000E+01 0.  1.
         -5    1    4    4    0  501  0.31711623937E+02 -0.12279558862E+02  0.42221930393E+01  0.34521210474E+02  0.41800000000E+01 0.  1.
</event>
<event>
11    1  0.8551154E-009  0.1259859E+03  0.7561462E-02  0.1124302E+00
         22   -1    0    0    0    0  0.00000000000E+00  0.00000000000E+00  0.48642752538E+03  0.48642752538E+03  0.00000000000E+00 0.  1.
         22   -1    0    0    0    0 -0.00000000000E+00 -0.00000000000E+00 -0.29494851473E+03  0.29494851473E+03  0.00000000000E+00 0. -1.
        -24    2    1    2    0    0  0.25804123920E+02 -0.89402010293E+01 -0.23584308018E+03  0.24905330798E+03  0.75231720325E+02 0.  0.
         25    2    1    2    0    0 -0.89864441812E+01  0.60546547508E+01  0.33329884141E+02  0.12991715281E+03  0.12510064106E+03 0.  0.
         24    2    1    2    0    0 -0.16817679739E+02  0.28855462785E+01  0.39399220668E+03  0.40240557931E+03  0.80057670513E+02 0.  0.
        -11    1    5    5    0    0 -0.12645795852E+02  0.24419203930E+02  0.36508303974E+03  0.36611724840E+03  0.00000000000E+00 0.  1.
         12    1    5    5    0    0 -0.41718838867E+01 -0.21533657652E+02  0.28909166947E+02  0.36288330915E+02  0.00000000000E+00 0. -1.
         13    1    3    3    0    0  0.26931229702E+02  0.13457706580E+02 -0.21886291792E+03  0.22092391867E+03  0.00000000000E+00 0. -1.
        -14    1    3    3    0    0 -0.11271057815E+01 -0.22397907610E+02 -0.16980162255E+02  0.28129389310E+02  0.00000000000E+00 0.  1.
          5    1    4    4  501    0 -0.26878863168E+02  0.13552437898E+01  0.77339447131E+02  0.81994953829E+02  0.41800000000E+01 0. -1.
         -5    1    4    4    0  501  0.17892418987E+02  0.46994109609E+01 -0.44009562990E+02  0.47922198980E+02  0.41800000000E+01 0. -1.
</event>
<event>
11    1  0.8551154E-009  0.2125274E+03  0.7561462E-02  0.1046002E+00
         22   -1    0    0    0    0  0.00000000000E+00  0.00000000000E+00  0.48975480284E+03  0.48975480284E+03  0.00000000000E+00 0. -1.
         22   -1    0    0    0    0 -0.00000000000E+00 -0.00000000000E+00 -0.60311882923E+03  0.60311882923E+03  0.00000000000E+00 0. -1.
        -24    2    1    2    0    0  0.11129932304E+03 -0.12750792941E+03 -0.23129919179E+03  0.29748404947E+03  0.79697127901E+02 0.  0.
         25    2    1    2    0    0 -0.13302752223E+03  0.11429979991E+03 -0.29985964821E+03  0.36922563076E+03  0.12510392425E+03 0.  0.
         24    2    1    2    0    0  0.21728199184E+02  0.13208129496E+02  0.41779481362E+03  0.42616395183E+03  0.80103921450E+02 0.  0.
        -11    1    5    5    0    0  0.18708199427E+02 -0.31961014687E+02  0.14593323920E+03  0.15055900335E+03  0.00000000000E+00 0.  1.
         12    1    5    5    0    0  0.30199997572E+01  0.45169144184E+02  0.27186157442E+03  0.27560494849E+03  0.00000000000E+00 0. -1.
         13    1    3    3    0    0  0.91150934926E+02 -0.11969942227E+03 -0.23123751121E+03  0.27587539075E+03  0.00000000000E+00 0. -1.
        -14    1    3    3    0    0  0.20148388115E+02 -0.78085071391E+01 -0.61680581105E-01  0.21608658724E+02  0.00000000000E+00 0.  1.
          5    1    4    4  501    0 -0.22737015868E+02  0.73419979879E+02 -0.46670285718E+02  0.90016961208E+02  0.41800000000E+01 0. -1.
         -5    1    4    4    0  501 -0.11029050636E+03  0.40879820030E+02 -0.25318936249E+03  0.27920866956E+03  0.41800000000E+01 0. -1.
</event>
<event>
11    1  0.8551154E-009  0.1291717E+03  0.7561462E-02  0.1120291E+00
         22   -1    0    0    0    0  0.00000000000E+00  0.00000000000E+00  0.35782551803E+03  0.35782551803E+03  0.00000000000E+00 0. -1.
         22   -1    0    0    0    0 -0.00000000000E+00 -0.00000000000E+00 -0.15315335049E+04  0.15315335049E+04  0.00000000000E+00 0.  1.
         24    2    1    2    0    0  0.29185589894E+02  0.13065646851E+02 -0.13464995781E+04  0.13492105590E+04  0.79281200307E+02 0.  0.
         25    2    1    2    0    0 -0.44534156532E+02  0.11448529237E+02 -0.15355790431E+03  0.20332677601E+03  0.12508951974E+03 0.  0.
        -24    2    1    2    0    0  0.15348566638E+02 -0.24514176088E+02  0.32634949557E+03  0.33682168797E+03  0.78155824490E+02 0.  0.
        -11    1    3    3    0    0  0.35610032823E+02  0.41619391015E+02 -0.98861380949E+03  0.99013004825E+03  0.00000000000E+00 0.  1.
         12    1    3    3    0    0 -0.64244429283E+01 -0.28553744163E+02 -0.35788576864E+03  0.35908051071E+03  0.00000000000E+00 0. -1.
         11    1    5    5    0    0  0.42972989179E+02 -0.29766447505E+02  0.25124648362E+03  0.25662719016E+03  0.00000000000E+00 0. -1.
        -12    1    5    5    0    0 -0.27624422541E+02  0.52522714168E+01  0.75103011941E+02  0.80194497806E+02  0.00000000000E+00 0.  1.
          5    1    4    4  501    0  0.19280911197E+02  0.23153835472E+02  0.60236585381E+01  0.31009845144E+02  0.41800000000E+01 0.  1.
         -5    1    4    4    0  501 -0.63815067730E+02 -0.11705306235E+02 -0.15958156285E+03  0.17231693087E+03  0.41800000000E+01 0.  1.
</event>
<event>
11    1  0.8551154E-009  0.4362591E+03  0.7561462E-02  0.9548444E-01
         22   -1    0    0    0    0  0.00000000000E+00  0.00000000000E+00  0.72799636352E+03  0.72799636352E+03  0.00000000000E+00 0. -1.
         22   -1    0    0    0    0 -0.00000000000E+00 -0.00000000000E+00 -0.55074389491E+03  0.55074389491E+03  0.00000000000E+00 0. -1.
         24    2    1    2    0    0  0.21705845134E+03  0.28778023350E+03 -0.87904762410E+02  0.37970406009E+03  0.80722313536E+02 0.  0.
         25    2    1    2    0    0 -0.23105111266E+03 -0.46716949405E+03 -0.38311193041E+02  0.53734933363E+03  0.12507839945E+03 0.  0.
        -24    2    1    2    0    0  0.13992661319E+02  0.17938926055E+03  0.30346842406E+03  0.36168686471E+03  0.79674351795E+02 0.  0.
        -11    1    3    3    0    0  0.74900392564E+02  0.16521046436E+03 -0.35684344562E+02  0.18487276378E+03  0.00000000000E+00 0.  1.
         12    1    3    3    0    0  0.14215805877E+03  0.12256976914E+03 -0.52220417849E+02  0.19483129631E+03  0.00000000000E+00 0. -1.
         11    1    5    5    0    0 -0.81244347220E+01  0.95703242883E+02  0.91200812043E+02  0.13244887789E+03  0.00000000000E+00 0. -1.
        -12    1    5    5    0    0  0.22117096041E+02  0.83686017665E+02  0.21226761202E+03  0.22923798682E+03  0.00000000000E+00 0.  1.
          5    1    4    4  501    0 -0.11779108561E+03 -0.14251695812E+03  0.28288014190E+02  0.18709224289E+03  0.41800000000E+01 0.  1.
         -5    1    4    4    0  501 -0.11326002704E+03 -0.32465253593E+03 -0.66599207231E+02  0.35025709074E+03  0.41800000000E+01 0.  1.
</event>
<event>
11    1  0.8551154E-009  0.1428234E+03  0.7561462E-02  0.1104446E+00
         22   -1    0    0    0    0  0.00000000000E+00  0.00000000000E+00  0.10150749658E+04  0.10150749658E+04  0.00000000000E+00 0. -1.
         22   -1    0    0    0    0 -0.00000000000E+00 -0.00000000000E+00 -0.11032204620E+04  0.11032204620E+04  0.00000000000E+00 0. -1.
        -24    2    1    2    0    0 -0.45781449759E+02 -0.50900954523E+02 -0.10174426014E+04  0.10229210142E+04  0.80567398824E+02 0.  0.
         25    2    1    2    0    0  0.61732193454E+02  0.52800917904E+02 -0.12794174775E+02  0.14970022215E+03  0.12509062701E+03 0.  0.
         24    2    1    2    0    0 -0.15950743696E+02 -0.18999633810E+01  0.94209128003E+03  0.94567419142E+03  0.80657673766E+02 0.  0.
        -13    1    5    5    0    0  0.58175200141E+01  0.15822364529E+02  0.43615817079E+02  0.46760349206E+02  0.00000000000E+00 0.  1.
         14    1    5    5    0    0 -0.21768263710E+02 -0.17722327910E+02  0.89847546295E+03  0.89891384222E+03  0.00000000000E+00 0. -1.
         11    1    3    3    0    0  0.90147214266E+01 -0.43935373925E+02 -0.29741630739E+03  0.30077905875E+03  0.00000000000E+00 0. -1.
        -12    1    3    3    0    0 -0.54796171185E+02 -0.69655805973E+01 -0.72002629404E+03  0.72214195543E+03  0.00000000000E+00 0.  1.
          5    1    4    4  501    0  0.33566891524E+02 -0.34271152156E+02 -0.29654878710E+02  0.56552031864E+02  0.41800000000E+01 0.  1.
         -5    1    4    4    0  501  0.28165301931E+02  0.87072070059E+02  0.16860703935E+02  0.93148190291E+02  0.41800000000E+01 0.  1.
</event>
<event>
11    1  0.8551154E-009  0.1366770E+03  0.7561462E-02  0.1111327E+00
         22   -1    0    0    0    0  0.00000000000E+00  0.00000000000E+00  0.94026053459E+03  0.94026053459E+03  0.00000000000E+00 0. -1.
         22   -1    0    0    0    0 -0.00000000000E+00 -0.00000000000E+00 -0.35699530905E+03  0.35699530905E+03  0.00000000000E+00 0.  1.
        -24    2    1    2    0    0  0.20437964547E+02  0.46748752537E+02 -0.30638045523E+03  0.32037267012E+03  0.78527117338E+02 0.  0.
         25    2    1    2    0    0 -0.62148179353E+02 -0.77880519385E+02  0.11654041771E+03  0.19788200149E+03  0.12509135086E+03 0.  0.
         24    2    1    2    0    0  0.41710214806E+02  0.31131766848E+02  0.77310526305E+03  0.77900117202E+03  0.80263000962E+02 0.  0.
        -13    1    5    5    0    0  0.33292350901E+02  0.14314003842E+02  0.11386533390E+03  0.11949303578E+03  0.00000000000E+00 0.  1.
         14    1    5    5    0    0  0.84178639047E+01  0.16817763007E+02  0.65923992915E+03  0.65950813624E+03  0.00000000000E+00 0. -1.
         11    1    3    3    0    0 -0.38667203839E+01 -0.66593961623E+01  0.70360984894E+00  0.77326677540E+01  0.00000000000E+00 0. -1.
        -12    1    3    3    0    0  0.24304684931E+02  0.53408148699E+02 -0.30708406508E+03  0.31264000237E+03  0.00000000000E+00 0.  1.
          5    1    4    4  501    0 -0.83723780682E+02 -0.25947394303E+02  0.26546153576E+02  0.91679383683E+02  0.41800000000E+01 0.  1.
         -5    1    4    4    0  501  0.21575601328E+02 -0.51933125083E+02  0.89994264132E+02  0.10620261781E+03  0.41800000000E+01 0.  1.
</event>
<event>
11    1  0.8551154E-009  0.1316017E+03  0.7561462E-02  0.1117316E+00
         22   -1    0    0    0    0  0.00000000000E+00  0.00000000000E+00  0.16998332869E+04  0.16998332869E+04  0.00000000000E+00 0. -1.
         22   -1    0    0    0    0 -0.00000000000E+00 -0.00000000000E+00 -0.29957358516E+03  0.29957358516E+03  0.00000000000E+00 0. -1.
        -24    2    1    2    0    0  0.38108732727E+02  0.19967053610E+01 -0.17691920473E+03  0.19698073246E+03  0.77747936405E+02 0.  0.
         25    2    1    2    0    0 -0.36548842146E+02  0.38893285902E+02 -0.69894668331E+02  0.15290930452E+03  0.12508990846E+03 0.  0.
         24    2    1    2    0    0 -0.15598905811E+01 -0.40889991263E+02  0.16470735748E+04  0.16495168350E+04  0.79874925810E+02 0.  0.
        -11    1    5    5    0    0 -0.31549463362E+02  0.49273871026E+01  0.41485323168E+03  0.41608034274E+03  0.00000000000E+00 0.  1.
         12    1    5    5    0    0  0.29989572781E+02 -0.45817378366E+02  0.12322203431E+04  0.12334364923E+04  0.00000000000E+00 0. -1.
         11    1    3    3    0    0  0.27051432079E+02 -0.35725472211E+02 -0.70531386389E+02  0.83562945186E+02  0.00000000000E+00 0. -1.
        -12    1    3    3    0    0  0.11057300648E+02  0.37722177572E+02 -0.10638781834E+03  0.11341778727E+03  0.00000000000E+00 0.  1.
          5    1    4    4  501    0 -0.35746076197E+02  0.16493585137E+02  0.30489067411E+02  0.49968749692E+02  0.41800000000E+01 0.  1.
         -5    1    4    4    0  501 -0.80276594877E+00  0.22399700765E+02 -0.10038373574E+03  0.10294055483E+03  0.41800000000E+01 0.  1.
</event>
<event>
11    1  0.8551154E-009  0.1442801E+03  0.7561462E-02  0.1102871E+00
         22   -1    0    0    0    0  0.00000000000E+00  0.00000000000E+00  0.39384145961E+03  0.39384145961E+03  0.00000000000E+00 0. -1.
         22   -1    0    0    0    0 -0.00000000000E+00 -0.00000000000E+00 -0.84688942095E+03  0.84688942095E+03  0.00000000000E+00 0.  1.
         24    2    1    2    0    0 -0.57699691911E+02  0.42827616024E+02 -0.79631232385E+03  0.80342470907E+03  0.78832016924E+02 0.  0.
         25    2    1    2    0    0  0.60031485142E+02 -0.41522218917E+02  0.86480033657E+02  0.16868813518E+03  0.12509603054E+03 0.  0.
        -24    2    1    2    0    0 -0.23317932314E+01 -0.13053971072E+01  0.25678432886E+03  0.26861803631E+03  0.78805561739E+02 0.  0.
        -13    1    3    3    0    0 -0.46092431999E+02  0.59561872180E+02 -0.42992493681E+03  0.43647174043E+03  0.00000000000E+00 0.  1.
         14    1    3    3    0    0 -0.11607259911E+02 -0.16734256156E+02 -0.36638738704E+03  0.36695296864E+03  0.00000000000E+00 0. -1.
         11    1    5    5    0    0 -0.99867999246E+01 -0.36686245718E+02  0.17651845862E+03  0.18056683812E+03  0.00000000000E+00 0. -1.
        -12    1    5    5    0    0  0.76550066932E+01  0.35380848611E+02  0.80265870240E+02  0.88051198182E+02  0.00000000000E+00 0.  1.
          5    1    4    4  501    0 -0.15704463438E+02  0.33874692365E+02  0.17701735702E+02  0.41532502953E+02  0.41800000000E+01 0.  1.
         -5    1    4    4    0  501  0.75735948580E+02 -0.75396911282E+02  0.68778297955E+02  0.12715563223E+03  0.41800000000E+01 0.  1.
</event>
<event>
11    1  0.8551154E-009  0.1269110E+03  0.7561462E-02  0.1123124E+00
         22   -1    0    0    0    0  0.00000000000E+00  0.00000000000E+00  0.21672005109E+03  0.21672005109E+03  0.00000000000E+00 0.  1.
         22   -1    0    0    0    0 -0.00000000000E+00 -0.00000000000E+00 -0.55857645463E+03  0.55857645463E+03  0.00000000000E+00 0.  1.
         24    2    1    2    0    0  0.18450142582E+02 -0.47110247758E+00 -0.48374906277E+03  0.49108389106E+03  0.82520316455E+02 0.  0.
         25    2    1    2    0    0 -0.23231736568E+02  0.20206268116E+02  0.13431162744E+02  0.12951808950E+03  0.12508610042E+03 0.  0.
        -24    2    1    2    0    0  0.47815939864E+01 -0.19735165638E+02  0.12846149649E+03  0.15469452516E+03  0.83759773345E+02 0.  0.
        -13    1    3    3    0    0 -0.29076348982E+02  0.15744468075E+02 -0.23518337464E+03  0.23749640429E+03  0.00000000000E+00 0.  1.
         14    1    3    3    0    0  0.47526491563E+02 -0.16215570553E+02 -0.24856568813E+03  0.25358748677E+03  0.00000000000E+00 0. -1.
         11    1    5    5    0    0  0.98132322307E+01 -0.23092704179E+02 -0.98130216847E+00  0.25110465289E+02  0.00000000000E+00 0. -1.
        -12    1    5    5    0    0 -0.50316382442E+01  0.33575385406E+01  0.12944279866E+03  0.12958405987E+03  0.00000000000E+00 0.  1.
          5    1    4    4  501    0  0.48625293969E+02 -0.83174938742E+01  0.16063605197E+02  0.52049128041E+02  0.41800000000E+01 0.  1.
         -5    1    4    4    0  501 -0.71857030537E+02  0.28523761990E+02 -0.26324424527E+01  0.77468961455E+02  0.41800000000E+01 0.  1.
</event>
<event>
11    1  0.8551154E-009  0.1506208E+03  0.7561462E-02  0.1096246E+00
         22   -1    0    0    0    0  0.00000000000E+00  0.00000000000E+00  0.23039914008E+04  0.23039914008E+04  0.00000000000E+00 0. -1.
         22   -1    0    0    0    0 -0.00000000000E+00 -0.00000000000E+00 -0.86987957404E+02  0.86987957404E+02  0.00000000000E+00 0. -1.
         24    2    1    2    0    0 -0.33953046512E+02  0.94096047133E+02  0.11405878822E+02  0.13174932339E+03  0.84975965359E+02 0.  0.
         25    2    1    2    0    0  0.17570859513E+02 -0.41251918327E+02  0.14807915478E+03  0.19896162895E+03  0.12509131802E+03 0.  0.
        -24    2    1    2    0    0  0.16382186999E+02 -0.52844128807E+02  0.20575184098E+04  0.20602684058E+04  0.90901152737E+02 0.  0.
        -13    1    3    3    0    0 -0.16047107844E+02  0.25146661153E+02  0.44201816074E+02  0.53326023493E+02  0.00000000000E+00 0.  1.
         14    1    3    3    0    0 -0.17905938668E+02  0.68949385981E+02 -0.32795937252E+02  0.78423299898E+02  0.00000000000E+00 0. -1.
         13    1    5    5    0    0  0.13167499555E+02  0.97965713253E+01  0.13158837022E+04  0.13159860461E+04  0.00000000000E+00 0. -1.
        -14    1    5    5    0    0  0.32146874436E+01 -0.62640700132E+02  0.74163470757E+03  0.74428235972E+03  0.00000000000E+00 0.  1.
          5    1    4    4  501    0  0.29346803347E+02  0.28360583437E+02  0.76554178431E+01  0.41732905266E+02  0.41800000000E+01 0. -1.
         -5    1    4    4    0  501 -0.11775943834E+02 -0.69612501764E+02  0.14042373694E+03  0.15722872368E+03  0.41800000000E+01 0. -1.
</event>
<event>
11    1  0.8551154E-009  0.1657589E+03  0.7561462E-02  0.1081782E+00
         22   -1    0    0    0    0  0.00000000000E+00  0.00000000000E+00  0.49313645177E+03  0.49313645177E+03  0.00000000000E+00 0. -1.
         22   -1    0    0    0    0 -0.00000000000E+00 -0.00000000000E+00 -0.12880462395E+04  0.12880462395E+04  0.00000000000E+00 0. -1.
         24    2    1    2    0    0  0.11182480148E+03  0.53354137467E+02 -0.12157010195E+04  0.12244652067E+04  0.77682838993E+02 0.  0.
         25    2    1    2    0    0 -0.79602876583E+02  0.66966994172E+02  0.72166030383E+02  0.17798051735E+03  0.12509169576E+03 0.  0.
        -24    2    1    2    0    0 -0.32221924894E+02 -0.12032113164E+03  0.34862520133E+03  0.37873696724E+03  0.79917033178E+02 0.  0.
        -13    1    3    3    0    0  0.97896320749E+01  0.41038829658E+02 -0.43160409144E+03  0.43366128970E+03  0.00000000000E+00 0.  1.
         14    1    3    3    0    0  0.10203516940E+03  0.12315307808E+02 -0.78409692803E+03  0.79080391700E+03  0.00000000000E+00 0. -1.
         13    1    5    5    0    0 -0.26459868310E+01 -0.11786086166E+03  0.28943097572E+03  0.31251955725E+03  0.00000000000E+00 0. -1.
        -14    1    5    5    0    0 -0.29575938063E+02 -0.24602699773E+01  0.59194225610E+02  0.66217409993E+02  0.00000000000E+00 0.  1.
          5    1    4    4  501    0 -0.50221036212E+02 -0.19383055585E+02 -0.10273827579E+02  0.54962525917E+02  0.41800000000E+01 0.  1.
         -5    1    4    4    0  501 -0.29381840371E+02  0.86350049757E+02  0.82439857963E+02  0.12301799144E+03  0.41800000000E+01 0.  1.
</event>
<event>
11    1  0.8551154E-009  0.1326905E+03  0.7561462E-02  0.1116007E+00
         22   -1    0    0    0    0  0.00000000000E+00  0.00000000000E+00  0.83707186012E+03  0.83707186012E+03  0.00000000000E+00 0. -1.
         22   -1    0    0    0    0 -0.00000000000E+00 -0.00000000000E+00 -0.18304077979E+04  0.18304077979E+04  0.00000000000E+00 0. -1.
         24    2    1    2    0    0  0.46981082274E+02 -0.18089184966E+02 -0.15613511523E+04  0.15640762232E+04  0.77347078477E+02 0.  0.
         25    2    1    2    0    0 -0.90191962807E+02  0.25078350777E+02 -0.24201899348E+03  0.28807033082E+03  0.12509120057E+03 0.  0.
        -24    2    1    2    0    0  0.43210880533E+02 -0.69891658107E+01  0.81003420801E+03  0.81533310398E+03  0.81832900885E+02 0.  0.
        -11    1    3    3    0    0 -0.41620703970E+01 -0.16150255337E+02 -0.10576750336E+04  0.10578065184E+04  0.00000000000E+00 0.  1.
         12    1    3    3    0    0  0.51143152671E+02 -0.19389296283E+01 -0.50367611863E+03  0.50626970480E+03  0.00000000000E+00 0. -1.
         11    1    5    5    0    0 -0.17660922351E+02 -0.22739000571E+02  0.19893524420E+03  0.20100796430E+03  0.00000000000E+00 0. -1.
        -12    1    5    5    0    0  0.60871802884E+02  0.15749834760E+02  0.61109896380E+03  0.61432513968E+03  0.00000000000E+00 0.  1.
          5    1    4    4  501    0 -0.12076042572E+03  0.21952626843E+02 -0.21144036772E+03  0.24451891490E+03  0.41800000000E+01 0.  1.
         -5    1    4    4    0  501  0.30568462911E+02  0.31257239335E+01 -0.30578625769E+02  0.43551415922E+02  0.41800000000E+01 0.  1.
</event>
<event>
11    1  0.8551154E-009  0.4671126E+03  0.7561462E-02  0.9470169E-01
         22   -1    0    0    0    0  0.00000000000E+00  0.00000000000E+00  0.98553801327E+03  0.98553801327E+03  0.00000000000E+00 0. -1.
         22   -1    0    0    0    0 -0.00000000000E+00 -0.00000000000E+00 -0.71465801129E+03  0.71465801129E+03  0.00000000000E+00 0.  1.
         24    2    1    2    0    0 -0.18650998505E+03  0.16117651075E+02 -0.35396790295E+03  0.40817012273E+03  0.79144295874E+02 0.  0.
         25    2    1    2    0    0  0.56938948548E+03  0.14053780893E+03  0.82287854102E+02  0.60528825768E+03  0.12508925628E+03 0.  0.
        -24    2    1    2    0    0 -0.38287950043E+03 -0.15665546001E+03  0.54256005083E+03  0.68673764415E+03  0.78099539942E+02 0.  0.
        -11    1    3    3    0    0 -0.16233692596E+03 -0.15782060971E+02 -0.27848621861E+03  0.32273352000E+03  0.00000000000E+00 0.  1.
         12    1    3    3    0    0 -0.24173059097E+02  0.31899712046E+02 -0.75481684341E+02  0.85436602728E+02  0.00000000000E+00 0. -1.
         13    1    5    5    0    0 -0.12406232404E+03 -0.75985400177E+02  0.23852341741E+03  0.27938980286E+03  0.00000000000E+00 0. -1.
        -14    1    5    5    0    0 -0.25881717639E+03 -0.80670059829E+02  0.30403663342E+03  0.40734784130E+03  0.00000000000E+00 0.  1.
          5    1    4    4  501    0  0.38572504994E+03  0.10518644495E+03  0.11347892226E+03  0.41562355629E+03  0.41800000000E+01 0.  1.
         -5    1    4    4    0  501  0.18366443555E+03  0.35351363980E+02 -0.31191068153E+02  0.18966470139E+03  0.41800000000E+01 0.  1.
</event>
<event>
11    1  0.8551154E-009  0.2403346E+03  0.7561462E-02  0.1029178E+00
         22   -1    0    0    0    0  0.00000000000E+00  0.00000000000E+00  0.27513438130E+03  0.27513438130E+03  0.00000000000E+00 0.  1.
         22   -1    0    0    0    0 -0.00000000000E+00 -0.00000000000E+00 -0.14348893550E+04  0.14348893550E+04  0.00000000000E+00 0.  1.
        -24    2    1    2    0    0  0.15800118131E+03  0.12117968094E+03 -0.11261483842E+04  0.11465482294E+04  0.81937602159E+02 0.  0.
         25    2    1    2    0    0 -0.33299473519E+03 -0.64662939072E+02 -0.22418349536E+02  0.36223859993E+03  0.12508969395E+03 0.  0.
         24    2    1    2    0    0  0.17499355388E+03 -0.56516741867E+02 -0.11188239885E+02  0.20123690693E+03  0.80958199018E+02 0.  0.
        -13    1    5    5    0    0  0.11198646826E+03 -0.74815813269E+02 -0.15024614695E+02  0.13551425768E+03  0.00000000000E+00 0.  1.
         14    1    5    5    0    0  0.63007085615E+02  0.18299071402E+02  0.38363748097E+01  0.65722649244E+02  0.00000000000E+00 0. -1.
         13    1    3    3    0    0  0.19452256629E+02  0.58366167078E+02 -0.26325451758E+03  0.27034781444E+03  0.00000000000E+00 0. -1.
        -14    1    3    3    0    0  0.13854892468E+03  0.62813513860E+02 -0.86289386667E+03  0.87620041497E+03  0.00000000000E+00 0.  1.
          5    1    4    4  501    0 -0.27769822700E+03 -0.14864084605E+02  0.15610402521E+02  0.27856489972E+03  0.41800000000E+01 0.  1.
         -5    1    4    4    0  501 -0.55296508191E+02 -0.49798854467E+02 -0.38028752057E+02  0.83673700213E+02  0.41800000000E+01 0.  1.
</event>
<event>
11    1  0.8551154E-009  0.1844110E+03  0.7561462E-02  0.1066130E+00
         22   -1    0    0    0    0  0.00000000000E+00  0.00000000000E+00  0.13259547657E+04  0.13259547657E+04  0.00000000000E+00 0.  1.
         22   -1    0    0    0    0 -0.00000000000E+00 -0.00000000000E+00 -0.16643353042E+03  0.16643353042E+03  0.00000000000E+00 0. -1.
        -24    2    1    2    0    0  0.12489574048E+03  0.30760190878E+02 -0.78446523617E+02  0.17040975304E+03  0.79627203449E+02 0.  0.
         25    2    1    2    0    0 -0.18067679397E+03 -0.31996321989E+02  0.28038460787E+03  0.35767505942E+03  0.12509217122E+03 0.  0.
         24    2    1    2    0    0  0.55781053485E+02  0.12361311108E+01  0.95758315100E+03  0.96430348364E+03  0.99008401326E+02 0.  0.
        -13    1    5    5    0    0  0.12471883706E+02  0.47920874835E+02  0.46189211459E+03  0.46453878595E+03  0.00000000000E+00 0.  1.
         14    1    5    5    0    0  0.43309169780E+02 -0.46684743724E+02  0.49569103641E+03  0.49976469769E+03  0.00000000000E+00 0. -1.
         13    1    3    3    0    0  0.16631608740E+02  0.29982517941E+02 -0.46025768269E+02  0.57392796901E+02  0.00000000000E+00 0. -1.
        -14    1    3    3    0    0  0.10826413174E+03  0.77767293774E+00 -0.32420755348E+02  0.11301695614E+03  0.00000000000E+00 0.  1.
          5    1    4    4  501    0 -0.60329330821E+02 -0.43147286125E+02  0.19764317499E+03  0.21114358497E+03  0.41800000000E+01 0.  1.
         -5    1    4    4    0  501 -0.12034746315E+03  0.11150964136E+02  0.82741432883E+02  0.14653147444E+03  0.41800000000E+01 0.  1.
</event>
<event>
11    1  0.8551154E-009  0.2196626E+03  0.7561462E-02  0.1041429E+00
         22   -1    0    0    0    0  0.00000000000E+00  0.00000000000E+00  0.26543313626E+03  0.26543313626E+03  0.00000000000E+00 0. -1.
         22   -1    0    0    0    0 -0.00000000000E+00 -0.00000000000E+00 -0.16308571588E+04  0.16308571588E+04  0.00000000000E+00 0.  1.
         24    2    1    2    0    0 -0.46069078330E+01 -0.17093528077E+03 -0.11022493512E+04  0.11192838645E+04  0.92750434813E+02 0.  0.
         25    2    1    2    0    0 -0.83509296031E+02  0.21821329929E+03 -0.46256229112E+03  0.53310606637E+03  0.12508940135E+03 0.  0.
        -24    2    1    2    0    0  0.88116203864E+02 -0.47278018518E+02  0.19938761980E+03  0.24390036423E+03  0.98652360958E+02 0.  0.
        -13    1    3    3    0    0  0.19039972006E+01 -0.14731582813E+03 -0.10619523524E+04  0.10721233032E+04  0.00000000000E+00 0.  1.
         14    1    3    3    0    0 -0.65109050336E+01 -0.23619452637E+02 -0.40296998804E+02  0.47160561276E+02  0.00000000000E+00 0. -1.
         11    1    5    5    0    0  0.43474676269E+02  0.25799698018E+02  0.46619533016E+02  0.68768108547E+02  0.00000000000E+00 0. -1.
        -12    1    5    5    0    0  0.44641527594E+02 -0.73077716536E+02  0.15276808679E+03  0.17513225568E+03  0.00000000000E+00 0.  1.
          5    1    4    4  501    0 -0.11633195112E+03  0.18088876651E+03 -0.37898628608E+03  0.43577740434E+03  0.41800000000E+01 0. -1.
         -5    1    4    4    0  501  0.32822655087E+02  0.37324532780E+02 -0.83576005040E+02  0.97328662031E+02  0.41800000000E+01 0. -1.
</event>
<event>
11    1  0.8551154E-009  0.1469281E+03  0.7561462E-02  0.1100060E+00
         22   -1    0    0    0    0  0.00000000000E+00  0.00000000000E+00  0.13484428568E+03  0.13484428568E+03  0.00000000000E+00 0. -1.
         22   -1    0    0    0    0 -0.00000000000E+00 -0.00000000000E+00 -0.17283939670E+04  0.17283939670E+04  0.00000000000E+00 0.  1.
        -24    2    1    2    0    0 -0.38851073914E+02 -0.58218740552E+02 -0.12227594814E+04  0.12273641883E+04  0.79895392745E+02 0.  0.
         25    2    1    2    0    0  0.10035921854E+03  0.90125809903E+02 -0.46132898926E+03  0.49665344186E+03  0.12508225545E+03 0.  0.
         24    2    1    2    0    0 -0.61508144622E+02 -0.31907069351E+02  0.90538789305E+02  0.13922062250E+03  0.79898663513E+02 0.  0.
        -11    1    5    5    0    0  0.17125937745E+02 -0.19742089940E+02  0.24346198240E+02  0.35718135836E+02  0.00000000000E+00 0.  1.
         12    1    5    5    0    0 -0.78634082367E+02 -0.12164979411E+02  0.66192591065E+02  0.10350248666E+03  0.00000000000E+00 0. -1.
         11    1    3    3    0    0  0.17533131725E+02  0.55295800856E+01 -0.12969325491E+03  0.13098979858E+03  0.00000000000E+00 0. -1.
        -12    1    3    3    0    0 -0.56384205638E+02 -0.63748320637E+02 -0.10930662265E+04  0.10963743897E+04  0.00000000000E+00 0.  1.
          5    1    4    4  501    0 -0.21110595212E+02  0.50436716695E+02 -0.16639619465E+03  0.17519898862E+03  0.41800000000E+01 0.  1.
         -5    1    4    4    0  501  0.12146981375E+03  0.39689093208E+02 -0.29493279461E+03  0.32145445324E+03  0.41800000000E+01 0.  1.
</event>
<event>
11    1  0.8551154E-009  0.1844711E+03  0.7561462E-02  0.1066083E+00
         22   -1    0    0    0    0  0.00000000000E+00  0.00000000000E+00  0.41011286906E+03  0.41011286906E+03  0.00000000000E+00 0.  1.
         22   -1    0    0    0    0 -0.00000000000E+00 -0.00000000000E+00 -0.71327951000E+03  0.71327951000E+03  0.00000000000E+00 0.  1.
        -24    2    1    2    0    0 -0.11584940266E+03  0.10830497881E+03 -0.53371647883E+03  0.56262836387E+03  0.80909477319E+02 0.  0.
         25    2    1    2    0    0  0.62655628914E+02 -0.49351348975E+02 -0.12101608627E+03  0.19145173220E+03  0.12509032395E+03 0.  0.
         24    2    1    2    0    0  0.53193773741E+02 -0.58953629833E+02  0.35156592416E+03  0.36931228299E+03  0.80547224021E+02 0.  0.
        -11    1    5    5    0    0  0.55460033680E+01 -0.42072883855E+02  0.27027427073E+03  0.27358557551E+03  0.00000000000E+00 0.  1.
         12    1    5    5    0    0  0.47647770373E+02 -0.16880745978E+02  0.81291653432E+02  0.95726707475E+02  0.00000000000E+00 0. -1.
         13    1    3    3    0    0 -0.19339321539E+02 -0.98133794936E+01 -0.35643158508E+02  0.41722254530E+02  0.00000000000E+00 0. -1.
        -14    1    3    3    0    0 -0.96510081116E+02  0.11811835830E+03 -0.49807332032E+03  0.52090610934E+03  0.00000000000E+00 0.  1.
          5    1    4    4  501    0  0.35437293788E+02  0.63692456996E+01  0.17037897119E+02  0.40051609456E+02  0.41800000000E+01 0. -1.
         -5    1    4    4    0  501  0.27218335127E+02 -0.55720594675E+02 -0.13805398339E+03  0.15140012274E+03  0.41800000000E+01 0. -1.
</event>
<event>
11    1  0.8551154E-009  0.6660742E+03  0.7561462E-02  0.9083849E-01
         22   -1    0    0    0    0  0.00000000000E+00  0.00000000000E+00  0.10968236074E+04  0.10968236074E+04  0.00000000000E+00 0. -1.
         22   -1    0    0    0    0 -0.00000000000E+00 -0.00000000000E+00 -0.49299338646E+03  0.49299338646E+03  0.00000000000E+00 0. -1.
        -24    2    1    2    0    0  0.60987230777E+03  0.23560358019E+03  0.74441246239E+02  0.66233122365E+03  0.75417981269E+02 0.  0.
         25    2    1    2    0    0 -0.61686298785E+03 -0.22036310020E+03  0.41148639555E+03  0.78361240372E+03  0.12508998295E+03 0.  0.
         24    2    1    2    0    0  0.69906800814E+01 -0.15240479981E+02  0.11790257912E+03  0.14387336647E+03  0.80730326257E+02 0.  0.
        -11    1    5    5    0    0  0.39205183683E+02 -0.31371250621E+01  0.94217667231E+02  0.10209729085E+03  0.00000000000E+00 0.  1.
         12    1    5    5    0    0 -0.32214503601E+02 -0.12103354919E+02  0.23684911892E+02  0.41776075616E+02  0.00000000000E+00 0. -1.
         13    1    3    3    0    0  0.17206195747E+03  0.31642837473E+02  0.26995841330E+02  0.17701797033E+03  0.00000000000E+00 0. -1.
        -14    1    3    3    0    0  0.43781035030E+03  0.20396074271E+03  0.47445404909E+02  0.48531325331E+03  0.00000000000E+00 0.  1.
          5    1    4    4  501    0 -0.83213406103E+02  0.64263709191E+01  0.80037133819E+02  0.11571164327E+03  0.41800000000E+01 0. -1.
         -5    1    4    4    0  501 -0.53364958174E+03 -0.22678947112E+03  0.33144926173E+03  0.66790076045E+03  0.41800000000E+01 0. -1.
</event>
<event>
11    1  0.8551154E-009  0.1346650E+03  0.7561462E-02  0.1113666E+00
         22   -1    0    0    0    0  0.00000000000E+00  0.00000000000E+00  0.16363061664E+03  0.16363061664E+03  0.00000000000E+00 0.  1.
         22   -1    0    0    0    0 -0.00000000000E+00 -0.00000000000E+00 -0.18681814386E+04  0.18681814386E+04  0.00000000000E+00 0. -1.
         24    2    1    2    0    0 -0.37132961840E+01 -0.22541587529E+02 -0.16261043248E+04  0.16284805862E+04  0.84922510051E+02 0.  0.
         25    2    1    2    0    0 -0.44245475874E+02  0.35553975639E+02 -0.20443922154E+03  0.24630350762E+03  0.12509306632E+03 0.  0.
        -24    2    1    2    0    0  0.47958772058E+02 -0.13012388110E+02  0.12599272438E+03  0.15702796143E+03  0.79462242699E+02 0.  0.
        -11    1    3    3    0    0 -0.38295956890E+01  0.14863915863E+01 -0.27387571437E+01  0.49372010068E+01  0.00000000000E+00 0.  1.
         12    1    3    3    0    0  0.11629950504E+00 -0.24027979115E+02 -0.16233655676E+04  0.16235433852E+04  0.00000000000E+00 0. -1.
         11    1    5    5    0    0  0.17029592453E+02 -0.12795482207E+02 -0.54565939248E+01  0.21988765342E+02  0.00000000000E+00 0. -1.
        -12    1    5    5    0    0  0.30929179605E+02 -0.21690590258E+00  0.13144931830E+03  0.13503919609E+03  0.00000000000E+00 0.  1.
          5    1    4    4  501    0  0.78173128533E+01  0.68654583213E+02 -0.70628388577E+02  0.98895924332E+02  0.41800000000E+01 0. -1.
         -5    1    4    4    0  501 -0.52062788727E+02 -0.33100607574E+02 -0.13381083296E+03  0.14740758328E+03  0.41800000000E+01 0. -1.
</event>
<event>
11    1  0.8551154E-009  0.1366031E+03  0.7561462E-02  0.1111412E+00
         22   -1    0    0    0    0  0.00000000000E+00  0.00000000000E+00  0.38382985950E+03  0.38382985950E+03  0.00000000000E+00 0.  1.
         22   -1    0    0    0    0 -0.00000000000E+00 -0.00000000000E+00 -0.75104907372E+03  0.75104907372E+03  0.00000000000E+00 0.  1.
        -24    2    1    2    0    0 -0.88158190324E+01 -0.43056942948E+02 -0.58006760798E+03  0.58739398435E+03  0.81373484730E+02 0.  0.
         25    2    1    2    0    0  0.54989353670E+02  0.70243942238E+02 -0.12310761193E+03  0.19687803194E+03  0.12508970744E+03 0.  0.
         24    2    1    2    0    0 -0.46173534638E+02 -0.27186999290E+02  0.33595600569E+03  0.35060691693E+03  0.84779975301E+02 0.  0.
        -13    1    5    5    0    0 -0.73703603062E+00  0.26169957467E+01  0.24239855616E+03  0.24241380307E+03  0.00000000000E+00 0.  1.
         14    1    5    5    0    0 -0.45436498607E+02 -0.29803995037E+02  0.93557449527E+02  0.10819311387E+03  0.00000000000E+00 0. -1.
         11    1    3    3    0    0  0.11187387395E+02 -0.51260895353E+02 -0.20180515648E+03  0.20851416789E+03  0.00000000000E+00 0. -1.
        -12    1    3    3    0    0 -0.20003206428E+02  0.82039524056E+01 -0.37826245151E+03  0.37887981646E+03  0.00000000000E+00 0.  1.
          5    1    4    4  501    0  0.60383501749E+02  0.99680904784E+02 -0.70680180897E+02  0.13636572309E+03  0.41800000000E+01 0. -1.
         -5    1    4    4    0  501 -0.53941480793E+01 -0.29436962546E+02 -0.52427431037E+02  0.60512308851E+02  0.41800000000E+01 0. -1.
</event>
<event>
11    1  0.8551154E-009  0.1122672E+04  0.7561462E-02  0.8570359E-01
         22   -1    0    0    0    0  0.00000000000E+00  0.00000000000E+00  0.15805942861E+04  0.15805942861E+04  0.00000000000E+00 0.  1.
         22   -1    0    0    0    0 -0.00000000000E+00 -0.00000000000E+00 -0.13022530985E+04  0.13022530985E+04  0.00000000000E+00 0.  1.
         24    2    1    2    0    0  0.22435951854E+03  0.56067137234E+03 -0.58347975949E+03  0.84364578442E+03  0.81240374901E+02 0.  0.
         25    2    1    2    0    0 -0.18448220867E+03  0.44007219175E+03 -0.23952718588E+03  0.54837854389E+03  0.12509410602E+03 0.  0.
        -24    2    1    2    0    0 -0.39877309870E+02 -0.10007435641E+04  0.11013481330E+04  0.14908230563E+04  0.80670899664E+02 0.  0.
        -11    1    3    3    0    0  0.12835441182E+02  0.68842571069E+02 -0.10120908376E+03  0.12307447654E+03  0.00000000000E+00 0.  1.
         12    1    3    3    0    0  0.21152407736E+03  0.49182880127E+03 -0.48227067573E+03  0.72057130788E+03  0.00000000000E+00 0. -1.
         13    1    5    5    0    0 -0.69092205543E+01 -0.56208463940E+03  0.56269509728E+03  0.79536950638E+03  0.00000000000E+00 0. -1.
        -14    1    5    5    0    0 -0.32968089316E+02 -0.43865892468E+03  0.53865303574E+03  0.69545354987E+03  0.00000000000E+00 0.  1.
          5    1    4    4  501    0 -0.93325623432E+02  0.14128140809E+03 -0.29487125977E+02  0.17192170095E+03  0.41800000000E+01 0. -1.
         -5    1    4    4    0  501 -0.91156585240E+02  0.29879078366E+03 -0.21004005990E+03  0.37645684294E+03  0.41800000000E+01 0. -1.
</event>
<event>
11    1  0.8551154E-009  0.1416447E+03  0.7561462E-02  0.1105736E+00
         22   -1    0    0    0    0  0.00000000000E+00  0.00000000000E+00  0.10882401299E+03  0.10882401299E+03  0.00000000000E+00 0. -1.
         22   -1    0    0    0    0 -0.00000000000E+00 -0.00000000000E+00 -0.79916080559E+03  0.79916080559E+03  0.00000000000E+00 0. -1.
        -24    2    1    2    0    0  0.14860637047E+02  0.19818729206E+02 -0.60403966157E+03  0.60997542749E+03  0.81194142809E+02 0.  0.
         25    2    1    2    0    0  0.54138051086E+02 -0.88620304952E+01 -0.12424668605E+03  0.18464312057E+03  0.12508548606E+03 0.  0.
         24    2    1    2    0    0 -0.68998688132E+02 -0.10956698710E+02  0.37949555018E+02  0.11336627052E+03  0.80813825277E+02 0.  0.
        -13    1    5    5    0    0 -0.18233279234E+02  0.16481388462E+02 -0.19923773381E+02  0.31639301241E+02  0.00000000000E+00 0.  1.
         14    1    5    5    0    0 -0.50765408898E+02 -0.27438087172E+02  0.57873328399E+02  0.81726969283E+02  0.00000000000E+00 0. -1.
         13    1    3    3    0    0 -0.64820844999E+01  0.34328524484E+02 -0.53707097323E+03  0.53820599709E+03  0.00000000000E+00 0. -1.
        -14    1    3    3    0    0  0.21342721547E+02 -0.14509795278E+02 -0.66968688341E+02  0.71769430401E+02  0.00000000000E+00 0.  1.
          5    1    4    4  501    0  0.90029346486E+01  0.25573216053E+02  0.17058071288E+02  0.32303133093E+02  0.41800000000E+01 0. -1.
         -5    1    4    4    0  501  0.45135116437E+02 -0.34435246548E+02 -0.14130475733E+03  0.15233998748E+03  0.41800000000E+01 0. -1.
</event>
<event>
11    1  0.8551154E-009  0.1375559E+03  0.7561462E-02  0.1110319E+00
         22   -1    0    0    0    0  0.00000000000E+00  0.00000000000E+00  0.52498298840E+02  0.52498298840E+02  0.00000000000E+00 0.  1.
         22   -1    0    0    0    0 -0.00000000000E+00 -0.00000000000E+00 -0.34849426660E+04  0.34849426660E+04  0.00000000000E+00 0. -1.
        -24    2    1    2    0    0 -0.16191912576E+02  0.56538094876E+02 -0.30062712994E+04  0.30078784515E+04  0.78784005773E+02 0.  0.
         25    2    1    2    0    0  0.10177876051E+02 -0.36567647095E+02 -0.43010833018E+03  0.44953500804E+03  0.12509103004E+03 0.  0.
         24    2    1    2    0    0  0.60140365251E+01 -0.19970447780E+02  0.39352623808E+01  0.80027505270E+02  0.77161699631E+02 0.  0.
        -13    1    5    5    0    0  0.38363165803E+02  0.33217428461E+01  0.98051614476E+01  0.39735471017E+02  0.00000000000E+00 0.  1.
         14    1    5    5    0    0 -0.32349129278E+02 -0.23292190626E+02 -0.58698990667E+01  0.40292034253E+02  0.00000000000E+00 0. -1.
         11    1    3    3    0    0 -0.32049182389E+02  0.68541729655E+02 -0.26234197624E+04  0.26245106913E+04  0.00000000000E+00 0. -1.
        -12    1    3    3    0    0  0.15857269813E+02 -0.12003634780E+02 -0.38285153694E+03  0.38336776024E+03  0.00000000000E+00 0.  1.
          5    1    4    4  501    0 -0.32078233761E+02  0.12062272576E+02 -0.34912183509E+02  0.49100350898E+02  0.41800000000E+01 0.  1.
         -5    1    4    4    0  501  0.42256109812E+02 -0.48629919671E+02 -0.39519614667E+03  0.40043465715E+03  0.41800000000E+01 0.  1.
</event>
<event>
11    1  0.8551154E-009  0.1418897E+03  0.7561462E-02  0.1105466E+00
         22   -1    0    0    0    0  0.00000000000E+00  0.00000000000E+00  0.10611376524E+04  0.10611376524E+04  0.00000000000E+00 0.  1.
         22   -1    0    0    0    0 -0.00000000000E+00 -0.00000000000E+00 -0.10224437514E+03  0.10224437514E+03  0.00000000000E+00 0.  1.
        -24    2    1    2    0    0  0.18073392120E+02 -0.30524749318E+02 -0.62824572924E+02  0.10684801434E+03  0.78810934407E+02 0.  0.
         25    2    1    2    0    0 -0.22793075850E+02  0.89061506341E+02  0.45157513663E+03  0.47751318456E+03  0.12508901307E+03 0.  0.
         24    2    1    2    0    0  0.47196837297E+01 -0.58536757024E+02  0.57014271360E+03  0.57902082867E+03  0.82180160813E+02 0.  0.
        -11    1    5    5    0    0 -0.19791912635E+01 -0.78492248549E+02  0.48500683411E+03  0.49132125886E+03  0.00000000000E+00 0.  1.
         12    1    5    5    0    0  0.66988749931E+01  0.19955491525E+02  0.85135879491E+02  0.87699569810E+02  0.00000000000E+00 0. -1.
         11    1    3    3    0    0  0.11387437187E+02  0.13897953379E+02  0.10533744501E+02  0.20827544431E+02  0.00000000000E+00 0. -1.
        -12    1    3    3    0    0  0.66859549339E+01 -0.44422702696E+02 -0.73358317425E+02  0.86020469911E+02  0.00000000000E+00 0.  1.
          5    1    4    4  501    0  0.19023186712E+02  0.94197953511E+02  0.19461880002E+03  0.21709234395E+03  0.41800000000E+01 0. -1.
         -5    1    4    4    0  501 -0.41816262563E+02 -0.51364471702E+01  0.25695633661E+03  0.26042084062E+03  0.41800000000E+01 0. -1.
</event>
<event>
11    1  0.8551154E-009  0.1384533E+03  0.7561462E-02  0.1109298E+00
         22   -1    0    0    0    0  0.00000000000E+00  0.00000000000E+00  0.25606353699E+04  0.25606353699E+04  0.00000000000E+00 0.  1.
         22   -1    0    0    0    0 -0.00000000000E+00 -0.00000000000E+00 -0.19308256162E+03  0.19308256162E+03  0.00000000000E+00 0.  1.
         24    2    1    2    0    0  0.44511685753E+02 -0.15078231712E+02 -0.16415057807E+03  0.18843633814E+03  0.79713223557E+02 0.  0.
         25    2    1    2    0    0 -0.45271444824E+02 -0.45159963341E+02  0.29916423822E+03  0.33050705901E+03  0.12508696424E+03 0.  0.
        -24    2    1    2    0    0  0.75975907048E+00  0.60238195053E+02  0.22325391481E+04  0.22347745343E+04  0.79730509463E+02 0.  0.
        -13    1    3    3    0    0  0.19562882454E+02 -0.12697658084E+02 -0.16156673430E+03  0.16324137504E+03  0.00000000000E+00 0.  1.
         14    1    3    3    0    0  0.24948803300E+02 -0.23805736276E+01 -0.25838437637E+01  0.25194963098E+02  0.00000000000E+00 0. -1.
         11    1    5    5    0    0 -0.25082949460E+02 -0.67426523376E+01  0.82106487457E+03  0.82147559061E+03  0.00000000000E+00 0. -1.
        -12    1    5    5    0    0  0.25842708530E+02  0.66980847390E+02  0.14114742735E+04  0.14132989437E+04  0.00000000000E+00 0.  1.
          5    1    4    4  501    0 -0.11569278844E+02  0.30910185497E+02  0.19154185819E+03  0.19440947410E+03  0.41800000000E+01 0.  1.
         -5    1    4    4    0  501 -0.33702165980E+02 -0.76070148838E+02  0.10762238003E+03  0.13609758491E+03  0.41800000000E+01 0.  1.
</event>
<event>
11    1  0.8551154E-009  0.1470085E+03  0.7561462E-02  0.1099975E+00
         22   -1    0    0    0    0  0.00000000000E+00  0.00000000000E+00  0.99922183050E+03  0.99922183050E+03  0.00000000000E+00 0. -1.
         22   -1    0    0    0    0 -0.00000000000E+00 -0.00000000000E+00 -0.87563374083E+03  0.87563374083E+03  0.00000000000E+00 0.  1.
        -24    2    1    2    0    0  0.84322246943E+01  0.12550510305E+02 -0.83429978463E+03  0.83828526831E+03  0.80233675654E+02 0.  0.
         25    2    1    2    0    0  0.26424793343E+02 -0.80694859288E+02  0.12426168039E+03  0.19569981086E+03  0.12509005052E+03 0.  0.
         24    2    1    2    0    0 -0.34857018038E+02  0.68144348983E+02  0.83362619390E+03  0.84087049217E+03  0.79195261428E+02 0.  0.
        -13    1    5    5    0    0  0.42935210072E+01  0.22297400627E+02  0.49838646446E+02  0.54767682779E+02  0.00000000000E+00 0.  1.
         14    1    5    5    0    0 -0.39150539045E+02  0.45846948355E+02  0.78378754746E+03  0.78610280939E+03  0.00000000000E+00 0. -1.
         13    1    3    3    0    0  0.21726220558E+01  0.22801585104E+02 -0.65458751919E+02  0.69350420133E+02  0.00000000000E+00 0. -1.
        -14    1    3    3    0    0  0.62596026385E+01 -0.10251074799E+02 -0.76884103271E+03  0.76893484817E+03  0.00000000000E+00 0.  1.
          5    1    4    4  501    0  0.58092624807E+02 -0.83061329263E+02  0.46492352232E+02  0.11159278064E+03  0.41800000000E+01 0. -1.
         -5    1    4    4    0  501 -0.31667831464E+02  0.23664699749E+01  0.77769328159E+02  0.84107030218E+02  0.41800000000E+01 0. -1.
</event>
<event>
11    1  0.8551154E-009  0.1313954E+03  0.7561462E-02  0.1117566E+00
         22   -1    0    0    0    0  0.00000000000E+00  0.00000000000E+00  0.13087722171E+04  0.13087722171E+04  0.00000000000E+00 0.  1.
         22   -1    0    0    0    0 -0.00000000000E+00 -0.00000000000E+00 -0.29698703108E+03  0.29698703108E+03  0.00000000000E+00 0. -1.
         24    2    1    2    0    0  0.89962481853E+00  0.19823643918E+02 -0.24529509056E+03  0.25885326876E+03  0.80259249367E+02 0.  0.
         25    2    1    2    0    0  0.17619757461E+02 -0.54743334636E+02  0.66787090075E+02  0.15302140502E+03  0.12509095272E+03 0.  0.
        -24    2    1    2    0    0 -0.18519382279E+02  0.34919690718E+02  0.11902931865E+04  0.11938845744E+04  0.83666928008E+02 0.  0.
        -13    1    3    3    0    0  0.10240918358E+02 -0.71026814524E+01 -0.57187360714E+00  0.12476038315E+02  0.00000000000E+00 0.  1.
         14    1    3    3    0    0 -0.93412935392E+01  0.26926325370E+02 -0.24472321696E+03  0.24637723044E+03  0.00000000000E+00 0. -1.
         13    1    5    5    0    0  0.15458939863E+02 -0.50841998244E+01  0.54461928571E+02  0.56841266464E+02  0.00000000000E+00 0. -1.
        -14    1    5    5    0    0 -0.33978322142E+02  0.40003890542E+02  0.11358312579E+04  0.11370433079E+04  0.00000000000E+00 0.  1.
          5    1    4    4  501    0  0.48814878033E+02  0.22234831932E+02  0.18724885748E+02  0.56968182477E+02  0.41800000000E+01 0.  1.
         -5    1    4    4    0  501 -0.31195120573E+02 -0.76978166568E+02  0.48062204328E+02  0.96053222541E+02  0.41800000000E+01 0.  1.
</event>
<event>
11    1  0.8551154E-009  0.1392151E+03  0.7561462E-02  0.1108438E+00
         22   -1    0    0    0    0  0.00000000000E+00  0.00000000000E+00  0.27866651801E+03  0.27866651801E+03  0.00000000000E+00 0.  1.
         22   -1    0    0    0    0 -0.00000000000E+00 -0.00000000000E+00 -0.20451893140E+04  0.20451893140E+04  0.00000000000E+00 0. -1.
         24    2    1    2    0    0 -0.94847542454E+01  0.46412249368E+02 -0.18456869325E+04  0.18478046752E+04  0.74684719607E+02 0.  0.
         25    2    1    2    0    0 -0.20905862327E+02 -0.97287997907E+02 -0.15413625375E+03  0.22205081526E+03  0.12508625113E+03 0.  0.
        -24    2    1    2    0    0  0.30390616572E+02  0.50875748538E+02  0.23330039021E+03  0.25400034163E+03  0.81087422631E+02 0.  0.
        -11    1    3    3    0    0  0.14799757449E+02  0.68944024777E+00 -0.80089358642E+02  0.81448225984E+02  0.00000000000E+00 0.  1.
         12    1    3    3    0    0 -0.24284511694E+02  0.45722809121E+02 -0.17655975738E+04  0.17663564492E+04  0.00000000000E+00 0. -1.
         11    1    5    5    0    0  0.40193883409E+02  0.37935972616E+02  0.66754653955E+02  0.86665276244E+02  0.00000000000E+00 0. -1.
        -12    1    5    5    0    0 -0.98032668367E+01  0.12939775922E+02  0.16654573626E+03  0.16733506538E+03  0.00000000000E+00 0.  1.
          5    1    4    4  501    0 -0.96007527382E+01 -0.20139152594E+01 -0.11948071197E+03  0.11995558862E+03  0.41800000000E+01 0.  1.
         -5    1    4    4    0  501 -0.11305109588E+02 -0.95274082647E+02 -0.34655541777E+02  0.10209522664E+03  0.41800000000E+01 0.  1.
</event>
<event>
11    1  0.8551154E-009  0.1827752E+03  0.7561462E-02  0.1067420E+00
         22   -1    0    0    0    0  0.00000000000E+00  0.00000000000E+00  0.17885839490E+04  0.17885839490E+04  0.00000000000E+00 0.  1.
         22   -1    0    0    0    0 -0.00000000000E+00 -0.00000000000E+00 -0.21377515260E+03  0.21377515260E+03  0.00000000000E+00 0. -1.
         24    2    1    2    0    0  0.31728305187E+02  0.29040109859E+02 -0.18450857298E+03  0.21009553089E+03  0.90811371900E+02 0.  0.
         25    2    1    2    0    0  0.56870807385E+00  0.11492893447E+03  0.74029773817E+03  0.75953761904E+03  0.12509064790E+03 0.  0.
        -24    2    1    2    0    0 -0.32297013260E+02 -0.14396904433E+03  0.10190196313E+04  0.10327259517E+04  0.79697551107E+02 0.  0.
        -11    1    3    3    0    0  0.10066496768E+02  0.34253628759E+02 -0.14339776163E+02  0.38474337171E+02  0.00000000000E+00 0.  1.
         12    1    3    3    0    0  0.21661808419E+02 -0.52135189008E+01 -0.17016879682E+03  0.17162119372E+03  0.00000000000E+00 0. -1.
         11    1    5    5    0    0  0.93388244600E+01 -0.11005608816E+03  0.57891899835E+03  0.58936131772E+03  0.00000000000E+00 0. -1.
        -12    1    5    5    0    0 -0.41635837720E+02 -0.33912956170E+02  0.44010063291E+03  0.44336463398E+03  0.00000000000E+00 0.  1.
          5    1    4    4  501    0  0.21620085441E+02  0.57733631791E+02  0.10903938251E+03  0.12533020256E+03  0.41800000000E+01 0.  1.
         -5    1    4    4    0  501 -0.21051377367E+02  0.57195302680E+02  0.63125835565E+03  0.63420741648E+03  0.41800000000E+01 0.  1.
</event>
<event>
11    1  0.8551154E-009  0.5176312E+03  0.7561462E-02  0.9354964E-01
         22   -1    0    0    0    0  0.00000000000E+00  0.00000000000E+00  0.17468740399E+04  0.17468740399E+04  0.00000000000E+00 0.  1.
         22   -1    0    0    0    0 -0.00000000000E+00 -0.00000000000E+00 -0.72384022160E+03  0.72384022160E+03  0.00000000000E+00 0.  1.
        -24    2    1    2    0    0  0.53276619398E+03  0.35500027468E+03 -0.25891916069E+03  0.69485489671E+03  0.76936228352E+02 0.  0.
         25    2    1    2    0    0 -0.41165014599E+03  0.22073124908E+01 -0.73036708099E+01  0.43030442459E+03  0.12509132382E+03 0.  0.
         24    2    1    2    0    0 -0.12111604799E+03 -0.35720758717E+03  0.12892566498E+04  0.13455549402E+04  0.77903983420E+02 0.  0.
        -11    1    5    5    0    0 -0.11843566131E+02 -0.94782893145E+02  0.23563681452E+03  0.25426123427E+03  0.00000000000E+00 0.  1.
         12    1    5    5    0    0 -0.10927248186E+03 -0.26242469403E+03  0.10536198353E+04  0.10912937059E+04  0.00000000000E+00 0. -1.
         13    1    3    3    0    0  0.29789353940E+03  0.15258285104E+03 -0.12986897736E+03  0.35900980284E+03  0.00000000000E+00 0. -1.
        -14    1    3    3    0    0  0.23487265457E+03  0.20241742364E+03 -0.12905018333E+03  0.33584509387E+03  0.00000000000E+00 0.  1.
          5    1    4    4  501    0 -0.41617841488E+03 -0.50056069926E+01  0.30780089817E+01  0.41624088657E+03  0.41800000000E+01 0. -1.
         -5    1    4    4    0  501  0.45282688859E+01  0.72129194834E+01 -0.10381679792E+02  0.14063538028E+02  0.41800000000E+01 0. -1.
</event>
<event>
11    1  0.8551154E-009  0.1796024E+03  0.7561462E-02  0.1069965E+00
         22   -1    0    0    0    0  0.00000000000E+00  0.00000000000E+00  0.57108143154E+03  0.57108143154E+03  0.00000000000E+00 0.  1.
         22   -1    0    0    0    0 -0.00000000000E+00 -0.00000000000E+00 -0.45279431402E+03  0.45279431402E+03  0.00000000000E+00 0. -1.
         24    2    1    2    0    0  0.55138446217E+02 -0.12047376741E+03 -0.37206254659E+03  0.40316133713E+03  0.80958929697E+02 0.  0.
         25    2    1    2    0    0 -0.97645177222E+02  0.63479703225E+02  0.65910162199E+02  0.18317457506E+03  0.12507806406E+03 0.  0.
        -24    2    1    2    0    0  0.42506731005E+02  0.56994064180E+02  0.42443950191E+03  0.43753983337E+03  0.78975119344E+02 0.  0.
        -13    1    3    3    0    0  0.44874597491E+02 -0.13224327345E+03 -0.33384136256E+03  0.36187300014E+03  0.00000000000E+00 0.  1.
         14    1    3    3    0    0  0.10263848726E+02  0.11769506040E+02 -0.38221184029E+02  0.41288336993E+02  0.00000000000E+00 0. -1.
         11    1    5    5    0    0  0.43544519064E+02  0.12082817890E+02  0.96725911969E+02  0.10676151776E+03  0.00000000000E+00 0. -1.
        -12    1    5    5    0    0 -0.10377880588E+01  0.44911246290E+02  0.32771358994E+03  0.33077831561E+03  0.00000000000E+00 0.  1.
          5    1    4    4  501    0 -0.79202921931E+02  0.10789899494E+02  0.91545075169E+02  0.12160385669E+03  0.41800000000E+01 0.  1.
         -5    1    4    4    0  501 -0.18442255291E+02  0.52689803731E+02 -0.25634912970E+02  0.61570718369E+02  0.41800000000E+01 0.  1.
</event>
<event>
11    1  0.8551154E-009  0.1379915E+03  0.7561462E-02  0.1109822E+00
         22   -1    0    0    0    0  0.00000000000E+00  0.00000000000E+00  0.10976216279E+04  0.10976216279E+04  0.00000000000E+00 0. -1.
         22   -1    0    0    0    0 -0.00000000000E+00 -0.00000000000E+00 -0.90967718785E+02  0.90967718785E+02  0.00000000000E+00 0. -1.
        -24    2    1    2    0    0 -0.79575733224E+01  0.73825306579E+02 -0.37098812513E+02  0.11523596526E+03  0.79934391445E+02 0.  0.
         25    2    1    2    0    0  0.31358130322E+02  0.43155503213E+01  0.42560313349E+03  0.44473320132E+03  0.12509051444E+03 0.  0.
         24    2    1    2    0    0 -0.23400557000E+02 -0.78140856900E+02  0.61814958817E+03  0.62862018014E+03  0.80005236943E+02 0.  0.
        -11    1    5    5    0    0  0.45125954320E+01 -0.45517146710E+02  0.11682194446E+03  0.12545732689E+03  0.00000000000E+00 0.  1.
         12    1    5    5    0    0 -0.27913152432E+02 -0.32623710191E+02  0.50132764371E+03  0.50316285326E+03  0.00000000000E+00 0. -1.
         11    1    3    3    0    0 -0.28285277171E+02  0.46632118859E+02 -0.54484692664E+02  0.77092108212E+02  0.00000000000E+00 0. -1.
        -12    1    3    3    0    0  0.20327703849E+02  0.27193187720E+02  0.17385880151E+02  0.38143857051E+02  0.00000000000E+00 0.  1.
          5    1    4    4  501    0  0.16399597766E+01  0.40365690660E+02  0.36896297998E+03  0.37119163709E+03  0.41800000000E+01 0.  1.
         -5    1    4    4    0  501  0.29718170545E+02 -0.36050140339E+02  0.56640153515E+02  0.73541564229E+02  0.41800000000E+01 0.  1.
</event>
<event>
11    1  0.8551154E-009  0.4052304E+03  0.7561462E-02  0.9634450E-01
         22   -1    0    0    0    0  0.00000000000E+00  0.00000000000E+00  0.31480633509E+04  0.31480633509E+04  0.00000000000E+00 0.  1.
         22   -1    0    0    0    0 -0.00000000000E+00 -0.00000000000E+00 -0.18544089466E+03  0.18544089466E+03  0.00000000000E+00 0.  1.
        -24    2    1    2    0    0  0.28801468489E+03  0.25904648759E+03  0.70997517830E+02  0.40217163986E+03  0.81509747401E+02 0.  0.
         25    2    1    2    0    0 -0.24639198657E+03 -0.27299102494E+03  0.23696628664E+04  0.24012882181E+04  0.12509954164E+03 0.  0.
         24    2    1    2    0    0 -0.41622698315E+02  0.13944537344E+02  0.52196207197E+03  0.53004438754E+03  0.81090992443E+02 0.  0.
        -11    1    5    5    0    0  0.22302371476E+02 -0.71767042419E+01  0.17997793477E+03  0.18149644036E+03  0.00000000000E+00 0.  1.
         12    1    5    5    0    0 -0.63925069791E+02  0.21121241586E+02  0.34198413720E+03  0.34854794719E+03  0.00000000000E+00 0. -1.
         11    1    3    3    0    0  0.29950136890E+02  0.95062036284E+01  0.25202821664E+02  0.40281023162E+02  0.00000000000E+00 0. -1.
        -12    1    3    3    0    0  0.25806454800E+03  0.24954028396E+03  0.45794696166E+02  0.36189061669E+03  0.00000000000E+00 0.  1.
          5    1    4    4  501    0 -0.18856096399E+03 -0.26859094400E+03  0.19147088514E+04  0.19426332105E+04  0.41800000000E+01 0. -1.
         -5    1    4    4    0  501 -0.57831022582E+02 -0.44000809351E+01  0.45495401500E+03  0.45865500765E+03  0.41800000000E+01 0. -1.
</event>
<event>
11    1  0.8551154E-009  0.1507098E+03  0.7561462E-02  0.1096156E+00
         22   -1    0    0    0    0  0.00000000000E+00  0.00000000000E+00  0.99550678553E+03  0.99550678553E+03  0.00000000000E+00 0.  1.
         22   -1    0    0    0    0 -0.00000000000E+00 -0.00000000000E+00 -0.10179675293E+04  0.10179675293E+04  0.00000000000E+00 0.  1.
         24    2    1    2    0    0  0.19492886711E+02  0.52772822651E+02 -0.74918631080E+03  0.75498788690E+03  0.74576387961E+02 0.  0.
         25    2    1    2    0    0  0.12225016911E+02 -0.13002614066E+03 -0.23121628598E+03  0.29353854439E+03  0.12509059855E+03 0.  0.
        -24    2    1    2    0    0 -0.31717903622E+02  0.77253318012E+02  0.95794185304E+03  0.96494788352E+03  0.80608458266E+02 0.  0.
        -13    1    3    3    0    0  0.32862101280E+02  0.22261592411E+02 -0.62956181842E+03  0.63081184153E+03  0.00000000000E+00 0.  1.
         14    1    3    3    0    0 -0.13369214569E+02  0.30511230240E+02 -0.11962449238E+03  0.12417604538E+03  0.00000000000E+00 0. -1.
         13    1    5    5    0    0 -0.25183926124E+02  0.17291569044E+02  0.92651298158E+02  0.97557631918E+02  0.00000000000E+00 0. -1.
        -14    1    5    5    0    0 -0.65339774975E+01  0.59961748968E+02  0.86529055488E+03  0.86739025160E+03  0.00000000000E+00 0.  1.
          5    1    4    4  501    0  0.31440077566E+02 -0.78485016085E+02 -0.38341190040E+02  0.92929518889E+02  0.41800000000E+01 0.  1.
         -5    1    4    4    0  501 -0.19215060655E+02 -0.51541124578E+02 -0.19287509594E+03  0.20060902550E+03  0.41800000000E+01 0.  1.
</event>
<event>
11    1  0.8551154E-009  0.1472383E+03  0.7561462E-02  0.1099735E+00
         22   -1    0    0    0    0  0.00000000000E+00  0.00000000000E+00  0.45853802525E+03  0.45853802525E+03  0.00000000000E+00 0. -1.
         22   -1    0    0    0    0 -0.00000000000E+00 -0.00000000000E+00 -0.25492216347E+03  0.25492216347E+03  0.00000000000E+00 0.  1.
         24    2    1    2    0    0  0.58173725914E+02  0.71934017021E+01 -0.20184560110E+03  0.22515490584E+03  0.80728913819E+02 0.  0.
         25    2    1    2    0    0 -0.42332611986E+02  0.72784980847E+02  0.17803293742E+03  0.23330839256E+03  0.12508947102E+03 0.  0.
        -24    2    1    2    0    0 -0.15841113928E+02 -0.79978382549E+02  0.22742852545E+03  0.25499689032E+03  0.81561003657E+02 0.  0.
        -13    1    3    3    0    0 -0.14343733929E+02  0.20242917401E+02 -0.67744118815E+02  0.72144189246E+02  0.00000000000E+00 0.  1.
         14    1    3    3    0    0  0.72517459843E+02 -0.13049515699E+02 -0.13410148228E+03  0.15301071659E+03  0.00000000000E+00 0. -1.
         13    1    5    5    0    0 -0.37762383470E+01 -0.95532497273E+02  0.19082785458E+03  0.21343848785E+03  0.00000000000E+00 0. -1.
        -14    1    5    5    0    0 -0.12064875581E+02  0.15554114725E+02  0.36600670877E+02  0.41558402475E+02  0.00000000000E+00 0.  1.
          5    1    4    4  501    0  0.22878097575E+02  0.70059591995E+02  0.13834375026E+03  0.15680631179E+03  0.41800000000E+01 0. -1.
         -5    1    4    4    0  501 -0.65210709561E+02  0.27253888516E+01  0.39689187154E+02  0.76502080775E+02  0.41800000000E+01 0. -1.
</event>
<event>
11    1  0.8551154E-009  0.1340130E+03  0.7561462E-02  0.1114434E+00
         22   -1    0    0    0    0  0.00000000000E+00  0.00000000000E+00  0.72526186238E+02  0.72526186238E+02  0.00000000000E+00 0.  1.
         22   -1    0    0    0    0 -0.00000000000E+00 -0.00000000000E+00 -0.19594926060E+04  0.19594926060E+04  0.00000000000E+00 0. -1.
         24    2    1    2    0    0 -0.57957769711E+01 -0.30333276472E+01 -0.17542313456E+04  0.17558369089E+04  0.74785322058E+02 0.  0.
         25    2    1    2    0    0  0.37613312131E+02  0.36930629951E+02 -0.12073045167E+03  0.18165909802E+03  0.12508218599E+03 0.  0.
        -24    2    1    2    0    0 -0.31817535160E+02 -0.33897302304E+02 -0.12004622448E+02  0.94522785358E+02  0.81419060082E+02 0.  0.
        -11    1    3    3    0    0 -0.26978987778E+02 -0.13174437812E+02 -0.31815022039E+03  0.31956375628E+03  0.00000000000E+00 0.  1.
         12    1    3    3    0    0  0.21183210807E+02  0.10141110165E+02 -0.14360811253E+04  0.14362731526E+04  0.00000000000E+00 0. -1.
         11    1    5    5    0    0 -0.53773094748E+02 -0.57199370779E+01 -0.20454557769E+02  0.57815675491E+02  0.00000000000E+00 0. -1.
        -12    1    5    5    0    0  0.21955559588E+02 -0.28177365226E+02  0.84499353212E+01  0.36707109868E+02  0.00000000000E+00 0.  1.
          5    1    4    4  501    0  0.49185267140E+02  0.16622968984E+02 -0.14107993389E+03  0.15038794416E+03  0.41800000000E+01 0. -1.
         -5    1    4    4    0  501 -0.11571955010E+02  0.20307660967E+02  0.20349482221E+02  0.31271153854E+02  0.41800000000E+01 0. -1.
</event>
<event>
11    1  0.8551154E-009  0.1390609E+03  0.7561462E-02  0.1108612E+00
         22   -1    0    0    0    0  0.00000000000E+00  0.00000000000E+00  0.36948970019E+02  0.36948970019E+02  0.00000000000E+00 0.  1.
         22   -1    0    0    0    0 -0.00000000000E+00 -0.00000000000E+00 -0.10099301516E+04  0.10099301516E+04  0.00000000000E+00 0.  1.
         24    2    1    2    0    0  0.13289441046E+02 -0.43441078548E+02 -0.35856321510E+03  0.37643107867E+03  0.10520951106E+03 0.  0.
         25    2    1    2    0    0 -0.83625547274E+02  0.56248490719E+02 -0.36056257544E+03  0.39472763928E+03  0.12508962200E+03 0.  0.
        -24    2    1    2    0    0  0.70336106228E+02 -0.12807412171E+02 -0.25385539106E+03  0.27572040369E+03  0.80423776316E+02 0.  0.
        -11    1    3    3    0    0 -0.36119438016E+02  0.56249359754E+01 -0.63568412353E+02  0.73329371716E+02  0.00000000000E+00 0.  1.
         12    1    3    3    0    0  0.49408879062E+02 -0.49066014524E+02 -0.29499480274E+03  0.30310170695E+03  0.00000000000E+00 0. -1.
         13    1    5    5    0    0 -0.81164570964E+01 -0.18348683841E+02 -0.10957291848E+03  0.11139468362E+03  0.00000000000E+00 0. -1.
        -14    1    5    5    0    0  0.78452563324E+02  0.55412716702E+01 -0.14428247257E+03  0.16432572007E+03  0.00000000000E+00 0.  1.
          5    1    4    4  501    0  0.25905967927E+02  0.87750004492E+01 -0.20906537367E+02  0.34679612337E+02  0.41800000000E+01 0.  1.
         -5    1    4    4    0  501 -0.10953151520E+03  0.47473490270E+02 -0.33965603808E+03  0.36004802694E+03  0.41800000000E+01 0.  1.
</event>
<event>
11    1  0.8551154E-009  0.1913332E+03  0.7561462E-02  0.1060827E+00
         22   -1    0    0    0    0  0.00000000000E+00  0.00000000000E+00  0.25773687335E+04  0.25773687335E+04  0.00000000000E+00 0. -1.
         22   -1    0    0    0    0 -0.00000000000E+00 -0.00000000000E+00 -0.83278028866E+02  0.83278028866E+02  0.00000000000E+00 0.  1.
        -24    2    1    2    0    0 -0.17624312026E+02  0.21433305147E+01 -0.19162202722E+02  0.84193245098E+02  0.80038130081E+02 0.  0.
         25    2    1    2    0    0 -0.95639362025E+02 -0.94247924185E+02  0.26681125190E+03  0.32382611658E+03  0.12508217642E+03 0.  0.
         24    2    1    2    0    0  0.11326367405E+03  0.92104593670E+02  0.22464416554E+04  0.22526274007E+04  0.80735239647E+02 0.  0.
        -11    1    5    5    0    0  0.14055806413E+01  0.44471511741E+02  0.70129656378E+03  0.70270659694E+03  0.00000000000E+00 0.  1.
         12    1    5    5    0    0  0.11185809341E+03  0.47633081929E+02  0.15451450916E+04  0.15499208037E+04  0.00000000000E+00 0. -1.
         13    1    3    3    0    0 -0.13536815252E+02  0.12157569187E+02  0.29326799283E+02  0.34512505152E+02  0.00000000000E+00 0. -1.
        -14    1    3    3    0    0 -0.40874967742E+01 -0.10014238673E+02 -0.48489002005E+02  0.49680739945E+02  0.00000000000E+00 0.  1.
          5    1    4    4  501    0 -0.54889003585E+02 -0.91744294632E+02  0.26137687452E+03  0.28242726718E+03  0.41800000000E+01 0. -1.
         -5    1    4    4    0  501 -0.40750358440E+02 -0.25036295527E+01  0.54343773745E+01  0.41398849397E+02  0.41800000000E+01 0. -1.
</event>
<event>
11    1  0.8551154E-009  0.1286000E+03  0.7561462E-02  0.1121001E+00
         22   -1    0    0    0    0  0.00000000000E+00  0.00000000000E+00  0.17611322179E+04  0.17611322179E+04  0.00000000000E+00 0.  1.
         22   -1    0    0    0    0 -0.00000000000E+00 -0.00000000000E+00 -0.29015488834E+03  0.29015488834E+03  0.00000000000E+00 0. -1.
        -24    2    1    2    0    0  0.12667250307E+02  0.56499961944E+01 -0.21737196010E+03  0.23282368210E+03  0.82243031458E+02 0.  0.
         25    2    1    2    0    0 -0.12174502611E+02  0.24302686908E+02  0.79548638851E-01  0.12800485571E+03  0.12508556132E+03 0.  0.
         24    2    1    2    0    0 -0.49274769597E+00 -0.29952683102E+02  0.16882697410E+04  0.16904585684E+04  0.80610465436E+02 0.  0.
        -13    1    5    5    0    0  0.12055825046E+02 -0.55831706257E+02  0.10804273906E+04  0.10819361667E+04  0.00000000000E+00 0.  1.
         14    1    5    5    0    0 -0.12548572742E+02  0.25879023155E+02  0.60784235041E+03  0.60852240178E+03  0.00000000000E+00 0. -1.
         13    1    3    3    0    0 -0.72662477772E+01  0.33709999624E+02 -0.17434935087E+03  0.17772692137E+03  0.00000000000E+00 0. -1.
        -14    1    3    3    0    0  0.19933498085E+02 -0.28060003429E+02 -0.43022609233E+02  0.55096760736E+02  0.00000000000E+00 0.  1.
          5    1    4    4  501    0  0.11758580470E+02  0.69005692423E+02 -0.20594106475E+02  0.73086520118E+02  0.41800000000E+01 0.  1.
         -5    1    4    4    0  501 -0.23933083082E+02 -0.44703005515E+02  0.20673655114E+02  0.54918335587E+02  0.41800000000E+01 0.  1.
</event>
<event>
11    1  0.8551154E-009  0.1870245E+03  0.7561462E-02  0.1064098E+00
         22   -1    0    0    0    0  0.00000000000E+00  0.00000000000E+00  0.15481934001E+04  0.15481934001E+04  0.00000000000E+00 0. -1.
         22   -1    0    0    0    0 -0.00000000000E+00 -0.00000000000E+00 -0.14169091923E+03  0.14169091923E+03  0.00000000000E+00 0.  1.
        -24    2    1    2    0    0  0.34952641320E+02 -0.12844249661E+03 -0.58294305671E+02  0.16409257416E+03  0.76216695998E+02 0.  0.
         25    2    1    2    0    0 -0.10247954160E+03  0.17957514338E+03  0.52731287201E+03  0.58004775856E+03  0.12508896295E+03 0.  0.
         24    2    1    2    0    0  0.67526900282E+02 -0.51132646775E+02  0.93748391453E+03  0.94574398663E+03  0.91548721459E+02 0.  0.
        -11    1    5    5    0    0  0.31043397996E+02  0.42834812728E+01  0.83503440619E+02  0.89190051946E+02  0.00000000000E+00 0.  1.
         12    1    5    5    0    0  0.36483502286E+02 -0.55416128048E+02  0.85398047392E+03  0.85655393468E+03  0.00000000000E+00 0. -1.
         13    1    3    3    0    0 -0.22651459438E+02 -0.28788168376E+02 -0.40763592837E+01  0.36857346054E+02  0.00000000000E+00 0. -1.
        -14    1    3    3    0    0  0.57604100757E+02 -0.99654328234E+02 -0.54217946387E+02  0.12723522810E+03  0.00000000000E+00 0.  1.
          5    1    4    4  501    0 -0.97278310599E+02  0.19683169375E+03  0.45235453683E+03  0.50283982019E+03  0.41800000000E+01 0.  1.
         -5    1    4    4    0  501 -0.52012310029E+01 -0.17256550362E+02  0.74958335183E+02  0.77207938373E+02  0.41800000000E+01 0.  1.
</event>
<event>
11    1  0.8551154E-009  0.1367313E+03  0.7561462E-02  0.1111264E+00
         22   -1    0    0    0    0  0.00000000000E+00  0.00000000000E+00  0.14049285793E+03  0.14049285793E+03  0.00000000000E+00 0. -1.
         22   -1    0    0    0    0 -0.00000000000E+00 -0.00000000000E+00 -0.23472368511E+04  0.23472368511E+04  0.00000000000E+00 0. -1.
         24    2    1    2    0    0 -0.42089375359E+02  0.38013440029E+02 -0.20751992097E+04  0.20775438363E+04  0.80747102492E+02 0.  0.
         25    2    1    2    0    0  0.34886600372E+02 -0.11835632040E+02 -0.24026128391E+03  0.27336797084E+03  0.12508959135E+03 0.  0.
        -24    2    1    2    0    0  0.72027749869E+01 -0.26177807988E+02  0.10871650043E+03  0.13681790192E+03  0.78502886707E+02 0.  0.
        -11    1    3    3    0    0  0.12164139566E+01 -0.60037514912E-01  0.29148092357E+00  0.12522893220E+01  0.00000000000E+00 0.  1.
         12    1    3    3    0    0 -0.43305789316E+02  0.38073477543E+02 -0.20754906906E+04  0.20762915470E+04  0.00000000000E+00 0. -1.
         11    1    5    5    0    0  0.12949144733E+02 -0.29635090994E+02  0.11967632442E+03  0.12396911549E+03  0.00000000000E+00 0. -1.
        -12    1    5    5    0    0 -0.57463697459E+01  0.34572830058E+01 -0.10959823988E+02  0.12848786436E+02  0.00000000000E+00 0.  1.
          5    1    4    4  501    0 -0.75832791387E+01  0.46074367208E+02 -0.43828078672E+02  0.64177303746E+02  0.41800000000E+01 0.  1.
         -5    1    4    4    0  501  0.42469879511E+02 -0.57909999248E+02 -0.19643320524E+03  0.20919066709E+03  0.41800000000E+01 0.  1.
</event>
<event>
11    1  0.8551154E-009  0.1850648E+03  0.7561462E-02  0.1065618E+00
         22   -1    0    0    0    0  0.00000000000E+00  0.00000000000E+00  0.46510617353E+04  0.46510617353E+04  0.00000000000E+00 0. -1.
         22   -1    0    0    0    0 -0.00000000000E+00 -0.00000000000E+00 -0.51209711424E+03  0.51209711424E+03  0.00000000000E+00 0.  1.
         24    2    1    2    0    0 -0.46911522669E+02  0.50562920998E+02 -0.38704103555E+03  0.40124646219E+03  0.80253724401E+02 0.  0.
         25    2    1    2    0    0  0.84632117346E+02 -0.18088464789E+03  0.25121349946E+01  0.23565689639E+03  0.12508401523E+03 0.  0.
        -24    2    1    2    0    0 -0.37720594677E+02  0.13032172689E+03  0.45234935217E+04  0.45262554910E+04  0.81169782614E+02 0.  0.
        -11    1    3    3    0    0 -0.42002463177E+02  0.71996371785E+02 -0.28969600737E+03  0.30144893623E+03  0.00000000000E+00 0.  1.
         12    1    3    3    0    0 -0.49090594919E+01 -0.21433450787E+02 -0.97345028180E+02  0.99797525967E+02  0.00000000000E+00 0. -1.
         13    1    5    5    0    0 -0.32690154162E+02  0.13206098646E+03  0.45038303990E+04  0.45058847093E+04  0.00000000000E+00 0. -1.
        -14    1    5    5    0    0 -0.50304405150E+01 -0.17392595691E+01  0.19663122658E+02  0.20370781730E+02  0.00000000000E+00 0.  1.
          5    1    4    4  501    0 -0.29399759183E+02 -0.53074929882E+02 -0.17168070497E+02  0.63194217035E+02  0.41800000000E+01 0. -1.
         -5    1    4    4    0  501  0.11403187653E+03 -0.12780971800E+03  0.19680205492E+02  0.17246267935E+03  0.41800000000E+01 0. -1.
</event>
<event>
11    1  0.8551154E-009  0.1496501E+03  0.7561462E-02  0.1097237E+00
         22   -1    0    0    0    0  0.00000000000E+00  0.00000000000E+00  0.13519901236E+04  0.13519901236E+04  0.00000000000E+00 0. -1.
         22   -1    0    0    0    0 -0.00000000000E+00 -0.00000000000E+00 -0.15579858263E+03  0.15579858263E+03  0.00000000000E+00 0. -1.
         24    2    1    2    0    0  0.30378085626E+02 -0.23797815966E+02 -0.12349749030E+03  0.15149276008E+03  0.78798871287E+02 0.  0.
         25    2    1    2    0    0 -0.85160584487E+02  0.74958644603E+02  0.46415970577E+03  0.49392607428E+03  0.12509041069E+03 0.  0.
        -24    2    1    2    0    0  0.54782498861E+02 -0.51160828637E+02  0.85552932554E+03  0.86236987190E+03  0.78312301315E+02 0.  0.
        -11    1    3    3    0    0  0.32501162622E+02  0.23646642230E+02 -0.53928809417E+02  0.67259242827E+02  0.00000000000E+00 0.  1.
         12    1    3    3    0    0 -0.21230769962E+01 -0.47444458196E+02 -0.69568680885E+02  0.84233517257E+02  0.00000000000E+00 0. -1.
         13    1    5    5    0    0  0.96549121335E+01 -0.45970994684E+02  0.65844209166E+03  0.66011554879E+03  0.00000000000E+00 0. -1.
        -14    1    5    5    0    0  0.45127586728E+02 -0.51898339528E+01  0.19708723388E+03  0.20225432311E+03  0.00000000000E+00 0.  1.
          5    1    4    4  501    0 -0.10525791778E+03  0.86116102968E+02  0.31762713844E+03  0.34554259349E+03  0.41800000000E+01 0. -1.
         -5    1    4    4    0  501  0.20097333294E+02 -0.11157458365E+02  0.14653256733E+03  0.14838348079E+03  0.41800000000E+01 0. -1.
</event>
<event>
11    1  0.8551154E-009  0.1436874E+03  0.7561462E-02  0.1103509E+00
         22   -1    0    0    0    0  0.00000000000E+00  0.00000000000E+00  0.77497439930E+03  0.77497439930E+03  0.00000000000E+00 0. -1.
         22   -1    0    0    0    0 -0.00000000000E+00 -0.00000000000E+00 -0.59794503008E+03  0.59794503008E+03  0.00000000000E+00 0. -1.
         24    2    1    2    0    0  0.61521589186E+02 -0.37424236751E+02 -0.50714167422E+03  0.51942813251E+03  0.86182525383E+02 0.  0.
         25    2    1    2    0    0 -0.35389056073E+02  0.52429301691E+02 -0.22154566796E+02  0.14191354888E+03  0.12508962211E+03 0.  0.
        -24    2    1    2    0    0 -0.26132533112E+02 -0.15005064940E+02  0.70632561023E+03  0.71157774799E+03  0.80863851673E+02 0.  0.
        -13    1    3    3    0    0 -0.13760737484E+02 -0.33750699878E+02 -0.18873486749E+03  0.19222205348E+03  0.00000000000E+00 0.  1.
         14    1    3    3    0    0  0.75282326669E+02 -0.36735368728E+01 -0.31840680673E+03  0.32720607903E+03  0.00000000000E+00 0. -1.
         11    1    5    5    0    0  0.18493538156E+01 -0.44240994478E+02  0.30146344958E+03  0.30469804255E+03  0.00000000000E+00 0. -1.
        -12    1    5    5    0    0 -0.27981886928E+02  0.29235929537E+02  0.40486216065E+03  0.40687970544E+03  0.00000000000E+00 0.  1.
          5    1    4    4  501    0  0.41722545834E+02  0.19138127384E+02 -0.33605550412E+02  0.57042476885E+02  0.41800000000E+01 0. -1.
         -5    1    4    4    0  501 -0.77111601907E+02  0.33291174307E+02  0.11450983617E+02  0.84871071993E+02  0.41800000000E+01 0. -1.
</event>
<event>
11    1  0.8551154E-009  0.1400013E+03  0.7561462E-02  0.1107557E+00
         22   -1    0    0    0    0  0.00000000000E+00  0.00000000000E+00  0.10599466182E+04  0.10599466182E+04  0.00000000000E+00 0. -1.
         22   -1    0    0    0    0 -0.00000000000E+00 -0.00000000000E+00 -0.29810254705E+03  0.29810254705E+03  0.00000000000E+00 0.  1.
         24    2    1    2    0    0 -0.62066790087E+02 -0.97564090216E+01 -0.26173516120E+03  0.28105959027E+03  0.80880929285E+02 0.  0.
         25    2    1    2    0    0  0.65593632219E+02 -0.69259185229E+01  0.17687207289E+03  0.22645391055E+03  0.12508857062E+03 0.  0.
        -24    2    1    2    0    0 -0.35268421324E+01  0.16682327545E+02  0.84670715948E+03  0.85053566444E+03  0.78785556438E+02 0.  0.
        -13    1    3    3    0    0 -0.73932073326E+02 -0.66799810231E+00 -0.25335897763E+03  0.26392644664E+03  0.00000000000E+00 0.  1.
         14    1    3    3    0    0  0.11865283239E+02 -0.90884109193E+01 -0.83761835694E+01  0.17133143628E+02  0.00000000000E+00 0. -1.
         11    1    5    5    0    0 -0.28385544290E+02 -0.21036147265E+02  0.35014669818E+03  0.35192466362E+03  0.00000000000E+00 0. -1.
        -12    1    5    5    0    0  0.24858702158E+02  0.37718474809E+02  0.49656046130E+03  0.49861100082E+03  0.00000000000E+00 0.  1.
          5    1    4    4  501    0  0.39558465075E+02 -0.13837258686E+02  0.19111309208E+03  0.19569882026E+03  0.41800000000E+01 0. -1.
         -5    1    4    4    0  501  0.26035167144E+02  0.69113401631E+01 -0.14241019193E+02  0.30755090290E+02  0.41800000000E+01 0. -1.
</event>
<event>
11    1  0.8551154E-009  0.1410747E+03  0.7561462E-02  0.1106364E+00
         22   -1    0    0    0    0  0.00000000000E+00  0.00000000000E+00  0.37197032221E+03  0.37197032221E+03  0.00000000000E+00 0. -1.
         22   -1    0    0    0    0 -0.00000000000E+00 -0.00000000000E+00 -0.52716823647E+03  0.52716823647E+03  0.00000000000E+00 0. -1.
        -24    2    1    2    0    0 -0.58658958703E+02  0.21798412928E+02 -0.43573372581E+03  0.44758215069E+03  0.80931190322E+02 0.  0.
         25    2    1    2    0    0  0.95873907399E+02 -0.35932566842E+02  0.44387419773E+01  0.16170964351E+03  0.12508937162E+03 0.  0.
         24    2    1    2    0    0 -0.37214948696E+02  0.14134153915E+02  0.27609706958E+03  0.28984676449E+03  0.78719936103E+02 0.  0.
        -13    1    5    5    0    0 -0.97183953750E+01  0.19626284082E+01 -0.20120865344E+01  0.10116699618E+02  0.00000000000E+00 0.  1.
         14    1    5    5    0    0 -0.27496553321E+02  0.12171525506E+02  0.27810915611E+03  0.27973006487E+03  0.00000000000E+00 0. -1.
         11    1    3    3    0    0 -0.24644883042E+02 -0.16316354553E+02 -0.31635006972E+03  0.31772780850E+03  0.00000000000E+00 0. -1.
        -12    1    3    3    0    0 -0.34014075660E+02  0.38114767481E+02 -0.11938365610E+03  0.12985434219E+03  0.00000000000E+00 0.  1.
          5    1    4    4  501    0  0.17554948361E+02  0.44748425269E+02  0.90664281008E+01  0.49094503709E+02  0.41800000000E+01 0.  1.
         -5    1    4    4    0  501  0.78318959038E+02 -0.80680992111E+02 -0.46276861235E+01  0.11261513980E+03  0.41800000000E+01 0.  1.
</event>
<event>
11    1  0.8551154E-009  0.1365049E+03  0.7561462E-02  0.1111525E+00
         22   -1    0    0    0    0  0.00000000000E+00  0.00000000000E+00  0.35960162187E+03  0.35960162187E+03  0.00000000000E+00 0.  1.
         22   -1    0    0    0    0 -0.00000000000E+00 -0.00000000000E+00 -0.27353337489E+04  0.27353337489E+04  0.00000000000E+00 0. -1.
        -24    2    1    2    0    0  0.22013918670E+02 -0.34003341447E+02 -0.24486099716E+04  0.24501962396E+04  0.78294185595E+02 0.  0.
         25    2    1    2    0    0  0.30156996445E+02  0.50743382742E+02 -0.26186203009E+03  0.29616661501E+03  0.12513435068E+03 0.  0.
         24    2    1    2    0    0 -0.52170915115E+02 -0.16740041295E+02  0.33473987470E+03  0.34857251616E+03  0.80311779557E+02 0.  0.
        -13    1    5    5    0    0 -0.32927910351E+02 -0.41807730262E+02  0.28288141899E+03  0.28784376109E+03  0.00000000000E+00 0.  1.
         14    1    5    5    0    0 -0.19243004765E+02  0.25067688967E+02  0.51858455712E+02  0.60728755062E+02  0.00000000000E+00 0. -1.
         13    1    3    3    0    0  0.35597558436E+02 -0.49335362704E+02 -0.21617344924E+04  0.21625903865E+04  0.00000000000E+00 0. -1.
        -14    1    3    3    0    0 -0.13583639766E+02  0.15332021258E+02 -0.28687547920E+03  0.28760585305E+03  0.00000000000E+00 0.  1.
          5    1    4    4  501    0 -0.15780728217E+02  0.78606982938E+02 -0.19063017193E+03  0.20684637778E+03  0.41800000000E+01 0. -1.
         -5    1    4    4    0  501  0.45937724662E+02 -0.27863600197E+02 -0.71231858158E+02  0.89320237235E+02  0.41800000000E+01 0. -1.
</event>
<event>
11    1  0.8551154E-009  0.1322004E+03  0.7561462E-02  0.1116595E+00
         22   -1    0    0    0    0  0.00000000000E+00  0.00000000000E+00  0.47421380457E+03  0.47421380457E+03  0.00000000000E+00 0.  1.
         22   -1    0    0    0    0 -0.00000000000E+00 -0.00000000000E+00 -0.52631089265E+03  0.52631089265E+03  0.00000000000E+00 0. -1.
        -24    2    1    2    0    0  0.77193903962E+01 -0.44304385447E+02 -0.45310894891E+03  0.46257577785E+03  0.81524003327E+02 0.  0.
         25    2    1    2    0    0 -0.33283820029E+02  0.59598372288E+01  0.22365589033E+01  0.12959352334E+03  0.12508455845E+03 0.  0.
         24    2    1    2    0    0  0.25564429633E+02  0.38344548219E+02  0.39877530193E+03  0.40835539603E+03  0.74890210272E+02 0.  0.
        -11    1    5    5    0    0  0.21325113324E+02  0.35504558296E+02  0.40074961219E+03  0.40288408480E+03  0.00000000000E+00 0.  1.
         12    1    5    5    0    0  0.42393163087E+01  0.28399899222E+01 -0.19743102581E+01  0.54713112248E+01  0.00000000000E+00 0. -1.
         13    1    3    3    0    0 -0.13749685758E+02 -0.52448837759E+02 -0.16776593576E+03  0.17631036170E+03  0.00000000000E+00 0. -1.
        -14    1    3    3    0    0  0.21469076155E+02  0.81444523115E+01 -0.28534301314E+03  0.28626541615E+03  0.00000000000E+00 0.  1.
          5    1    4    4  501    0 -0.37418480685E+02 -0.42295542175E+02 -0.36555459275E+02  0.67400516226E+02  0.41800000000E+01 0. -1.
         -5    1    4    4    0  501  0.41346606559E+01  0.48255379404E+02  0.38792018178E+02  0.62193007119E+02  0.41800000000E+01 0. -1.
</event>
<event>
11    1  0.8551154E-009  0.1338906E+03  0.7561462E-02  0.1114579E+00
         22   -1    0    0    0    0  0.00000000000E+00  0.00000000000E+00  0.16431773531E+04  0.16431773531E+04  0.00000000000E+00 0.  1.
         22   -1    0    0    0    0 -0.00000000000E+00 -0.00000000000E+00 -0.20126133513E+03  0.20126133513E+03  0.00000000000E+00 0.  1.
        -24    2    1    2    0    0 -0.46468532515E+02 -0.16773850749E+02 -0.15665703414E+03  0.18252504387E+03  0.79581899407E+02 0.  0.
         25    2    1    2    0    0  0.27294504056E+02  0.13216127944E+02  0.10505222261E+03  0.16614541843E+03  0.12509466256E+03 0.  0.
         24    2    1    2    0    0  0.19174028459E+02  0.35577228052E+01  0.14935208295E+04  0.14957682259E+04  0.79610406151E+02 0.  0.
        -11    1    5    5    0    0 -0.24731284158E+02 -0.86070222401E+01  0.94363595642E+03  0.94399922431E+03  0.00000000000E+00 0.  1.
         12    1    5    5    0    0  0.43905312617E+02  0.12164745045E+02  0.54988487307E+03  0.55176900160E+03  0.00000000000E+00 0. -1.
         11    1    3    3    0    0  0.10269497124E+02  0.18539534158E+02 -0.15215751118E+02  0.26090151016E+02  0.00000000000E+00 0. -1.
        -12    1    3    3    0    0 -0.56738029639E+02 -0.35313384907E+02 -0.14144128302E+03  0.15643489286E+03  0.00000000000E+00 0.  1.
          5    1    4    4  501    0  0.27235860365E+01  0.67623330536E+02  0.66400104120E+02  0.94904051446E+02  0.41800000000E+01 0. -1.
         -5    1    4    4    0  501  0.24570918020E+02 -0.54407202592E+02  0.38652118491E+02  0.71241366986E+02  0.41800000000E+01 0. -1.
</event>
<event>
11    1  0.8551154E-009  0.1291075E+03  0.7561462E-02  0.1120370E+00
         22   -1    0    0    0    0  0.00000000000E+00  0.00000000000E+00  0.60062380781E+03  0.60062380781E+03  0.00000000000E+00 0. -1.
         22   -1    0    0    0    0 -0.00000000000E+00 -0.00000000000E+00 -0.60992124442E+03  0.60992124442E+03  0.00000000000E+00 0. -1.
         24    2    1    2    0    0 -0.31974478099E+02 -0.50871668164E+01 -0.54206782225E+03  0.54900126825E+03  0.80725597589E+02 0.  0.
         25    2    1    2    0    0  0.22832375919E+02  0.96157702838E+01  0.50259435498E+01  0.12761675138E+03  0.12508794784E+03 0.  0.
        -24    2    1    2    0    0  0.91421021802E+01 -0.45286034674E+01  0.52774444209E+03  0.53392703261E+03  0.80372841877E+02 0.  0.
        -11    1    3    3    0    0 -0.23249042217E+01  0.29684921558E+02 -0.93855564435E+02  0.98465561101E+02  0.00000000000E+00 0.  1.
         12    1    3    3    0    0 -0.29649573877E+02 -0.34772088375E+02 -0.44821225781E+03  0.45053570715E+03  0.00000000000E+00 0. -1.
         13    1    5    5    0    0  0.23078624908E+02 -0.26845771458E+02  0.45829874393E+03  0.45966406980E+03  0.00000000000E+00 0. -1.
        -14    1    5    5    0    0 -0.13936522728E+02  0.22317167990E+02  0.69445698157E+02  0.74262962810E+02  0.00000000000E+00 0.  1.
          5    1    4    4  501    0  0.28041171337E+02 -0.47663725062E+02  0.31917874432E+02  0.63987194695E+02  0.41800000000E+01 0.  1.
         -5    1    4    4    0  501 -0.52087954188E+01  0.57279495346E+02 -0.26891930882E+02  0.63629556680E+02  0.41800000000E+01 0.  1.
</event>
<event>
11    1  0.8551154E-009  0.1346841E+03  0.7561462E-02  0.1113644E+00
         22   -1    0    0    0    0  0.00000000000E+00  0.00000000000E+00  0.19248764203E+03  0.19248764203E+03  0.00000000000E+00 0.  1.
         22   -1    0    0    0    0 -0.00000000000E+00 -0.00000000000E+00 -0.52959324157E+03  0.52959324157E+03  0.00000000000E+00 0.  1.
        -24    2    1    2    0    0  0.38179068202E+02 -0.26394811292E+02 -0.24930070108E+03  0.26738736188E+03  0.84798787878E+02 0.  0.
         25    2    1    2    0    0 -0.59666944803E+02  0.10392572845E+02 -0.24183782838E+03  0.27892848426E+03  0.12508962477E+03 0.  0.
         24    2    1    2    0    0  0.21487876602E+02  0.16002238448E+02  0.15403292991E+03  0.17576503746E+03  0.80308184022E+02 0.  0.
        -13    1    5    5    0    0  0.12927326316E+02 -0.13961782052E+02  0.14051346334E+03  0.14179591145E+03  0.00000000000E+00 0.  1.
         14    1    5    5    0    0  0.85605502861E+01  0.29964020500E+02  0.13519466569E+02  0.33969126012E+02  0.00000000000E+00 0. -1.
         11    1    3    3    0    0 -0.17373193025E+02  0.16471800838E+02 -0.93472132796E+02  0.96489313751E+02  0.00000000000E+00 0. -1.
        -12    1    3    3    0    0  0.55552261226E+02 -0.42866612131E+02 -0.15582856828E+03  0.17089804813E+03  0.00000000000E+00 0.  1.
          5    1    4    4  501    0 -0.12512997609E+02 -0.36647593391E+02 -0.19127560681E+03  0.19520105372E+03  0.41800000000E+01 0.  1.
         -5    1    4    4    0  501 -0.47153947195E+02  0.47040166236E+02 -0.50562221564E+02  0.83727430541E+02  0.41800000000E+01 0.  1.
</event>
<event>
11    1  0.8551154E-009  0.1300545E+03  0.7561462E-02  0.1119202E+00
         22   -1    0    0    0    0  0.00000000000E+00  0.00000000000E+00  0.49234662790E+03  0.49234662790E+03  0.00000000000E+00 0. -1.
         22   -1    0    0    0    0 -0.00000000000E+00 -0.00000000000E+00 -0.16571696300E+03  0.16571696300E+03  0.00000000000E+00 0.  1.
        -24    2    1    2    0    0  0.27143464073E+02 -0.18195464695E+02 -0.11502537107E+03  0.14390352738E+03  0.80059644170E+02 0.  0.
         25    2    1    2    0    0 -0.60802856051E+02  0.33666347740E+02  0.13538604628E+03  0.19699306662E+03  0.12508587647E+03 0.  0.
         24    2    1    2    0    0  0.33659391978E+02 -0.15470883045E+02  0.30626898968E+03  0.31716699691E+03  0.73633599663E+02 0.  0.
        -13    1    5    5    0    0 -0.21386628574E+01 -0.37122747120E+02  0.99804325666E+02  0.10650622355E+03  0.00000000000E+00 0.  1.
         14    1    5    5    0    0  0.35798054836E+02  0.21651864075E+02  0.20646466402E+03  0.21066077337E+03  0.00000000000E+00 0. -1.
         11    1    3    3    0    0 -0.28459759824E+02 -0.77965076861E+01 -0.46133011306E+02  0.54763109787E+02  0.00000000000E+00 0. -1.
        -12    1    3    3    0    0  0.55603223896E+02 -0.10398957009E+02 -0.68892359763E+02  0.89140417591E+02  0.00000000000E+00 0.  1.
          5    1    4    4  501    0 -0.23044292770E+02  0.49982659729E+02 -0.24723114050E+00  0.55198181366E+02  0.41800000000E+01 0.  1.
         -5    1    4    4    0  501 -0.37758563282E+02 -0.16316311989E+02  0.13563327742E+03  0.14179488525E+03  0.41800000000E+01 0.  1.
</event>
<event>
11    1  0.8551154E-009  0.1375190E+03  0.7561462E-02  0.1110361E+00
         22   -1    0    0    0    0  0.00000000000E+00  0.00000000000E+00  0.30405142450E+03  0.30405142450E+03  0.00000000000E+00 0.  1.
         22   -1    0    0    0    0 -0.00000000000E+00 -0.00000000000E+00 -0.19344931139E+03  0.19344931139E+03  0.00000000000E+00 0.  1.
         24    2    1    2    0    0 -0.38344402746E+02  0.80618037891E+02 -0.10986075125E+03  0.16228434541E+03  0.79355295009E+02 0.  0.
         25    2    1    2    0    0 -0.32904310405E+02 -0.25885235149E+02  0.10591108597E+03  0.16916502336E+03  0.12508760113E+03 0.  0.
        -24    2    1    2    0    0  0.71248713151E+02 -0.54732802742E+02  0.11455177839E+03  0.16605136712E+03  0.79867939556E+02 0.  0.
        -11    1    3    3    0    0 -0.48674339002E+02  0.52862672169E+02 -0.11147110434E+03  0.13262526339E+03  0.00000000000E+00 0.  1.
         12    1    3    3    0    0  0.10329936256E+02  0.27755365722E+02  0.16103530927E+01  0.29659082024E+02  0.00000000000E+00 0. -1.
         13    1    5    5    0    0  0.15798862086E+02 -0.48108989254E+02  0.16580859254E+02  0.53282302726E+02  0.00000000000E+00 0. -1.
        -14    1    5    5    0    0  0.55449851065E+02 -0.66238134879E+01  0.97970919133E+02  0.11276906439E+03  0.00000000000E+00 0.  1.
          5    1    4    4  501    0  0.35405871006E+02  0.18497070684E+02  0.66880661529E+01  0.40717563218E+02  0.41800000000E+01 0.  1.
         -5    1    4    4    0  501 -0.68310181411E+02 -0.44382305833E+02  0.99223019822E+02  0.12844746015E+03  0.41800000000E+01 0.  1.
</event>
<event>
11    1  0.8551154E-009  0.1500367E+03  0.7561462E-02  0.1096841E+00
         22   -1    0    0    0    0  0.00000000000E+00  0.00000000000E+00  0.64913966515E+03  0.64913966515E+03  0.00000000000E+00 0.  1.
         22   -1    0    0    0    0 -0.00000000000E+00 -0.00000000000E+00 -0.58648922059E+03  0.58648922059E+03  0.00000000000E+00 0.  1.
         24    2    1    2    0    0 -0.84486079475E+02  0.12674746688E+02 -0.50439552286E+03  0.51802850568E+03  0.81487068826E+02 0.  0.
         25    2    1    2    0    0  0.53085687285E+02 -0.30512314505E+02 -0.45039977493E+01  0.13934316746E+03  0.12508853181E+03 0.  0.
        -24    2    1    2    0    0  0.31400392189E+02  0.17837567817E+02  0.57154996517E+03  0.57825721261E+03  0.80049221116E+02 0.  0.
        -11    1    3    3    0    0 -0.87472450539E+02  0.30803722063E+02 -0.46970829054E+03  0.47877570647E+03  0.00000000000E+00 0.  1.
         12    1    3    3    0    0  0.29863710643E+01 -0.18128975375E+02 -0.34687232314E+02  0.39252799211E+02  0.00000000000E+00 0. -1.
         11    1    5    5    0    0  0.20095104549E+02  0.43329394423E+02  0.19845798615E+03  0.20412452551E+03  0.00000000000E+00 0. -1.
        -12    1    5    5    0    0  0.11305287640E+02 -0.25491826606E+02  0.37309197901E+03  0.37413268710E+03  0.00000000000E+00 0.  1.
          5    1    4    4  501    0  0.11948820443E+02 -0.70625963645E+02 -0.28142010012E+02  0.77072992535E+02  0.41800000000E+01 0. -1.
         -5    1    4    4    0  501  0.41136866842E+02  0.40113649140E+02  0.23638012262E+02  0.62270174921E+02  0.41800000000E+01 0. -1.
</event>
<event>
11    1  0.8551154E-009  0.1452358E+03  0.7561462E-02  0.1101849E+00
         22   -1    0    0    0    0  0.00000000000E+00  0.00000000000E+00  0.34654495110E+03  0.34654495110E+03  0.00000000000E+00 0. -1.
         22   -1    0    0    0    0 -0.00000000000E+00 -0.00000000000E+00 -0.74782133804E+03  0.74782133804E+03  0.00000000000E+00 0.  1.
        -24    2    1    2    0    0  0.56298183534E+02  0.10427886490E+02 -0.68969340689E+03  0.69707969516E+03  0.83455854300E+02 0.  0.
         25    2    1    2    0    0  0.13628274788E+02 -0.58095365085E+02  0.85652889795E+02  0.16293758884E+03  0.12510571133E+03 0.  0.
         24    2    1    2    0    0 -0.69926458322E+02  0.47667478595E+02  0.20276413016E+03  0.23434900514E+03  0.81512364950E+02 0.  0.
        -11    1    5    5    0    0 -0.34841377457E+02  0.47964717070E+02  0.49836748279E+02  0.77448286912E+02  0.00000000000E+00 0.  1.
         12    1    5    5    0    0 -0.35085080864E+02 -0.29723847435E+00  0.15292738188E+03  0.15690071823E+03  0.00000000000E+00 0. -1.
         11    1    3    3    0    0  0.28089892843E+02 -0.34268429868E+02 -0.21969600989E+03  0.22411984323E+03  0.00000000000E+00 0. -1.
        -12    1    3    3    0    0  0.28208290690E+02  0.44696316358E+02 -0.46999739700E+03  0.47295985194E+03  0.00000000000E+00 0.  1.
          5    1    4    4  501    0  0.37720428277E+02 -0.16441387722E+02 -0.20611558557E+02  0.46211023423E+02  0.41800000000E+01 0.  1.
         -5    1    4    4    0  501 -0.24092153489E+02 -0.41653977363E+02  0.10626444835E+03  0.11672656541E+03  0.41800000000E+01 0.  1.
</event>
<event>
11    1  0.8551154E-009  0.1571125E+03  0.7561462E-02  0.1089825E+00
         22   -1    0    0    0    0  0.00000000000E+00  0.00000000000E+00  0.92624929856E+03  0.92624929856E+03  0.00000000000E+00 0. -1.
         22   -1    0    0    0    0 -0.00000000000E+00 -0.00000000000E+00 -0.12918936162E+03  0.12918936162E+03  0.00000000000E+00 0.  1.
         24    2    1    2    0    0 -0.10114494899E+02 -0.10788275777E+02 -0.50074881893E+02  0.95832282521E+02  0.80359459152E+02 0.  0.
         25    2    1    2    0    0  0.41534952776E+02 -0.79554565013E+02  0.63988486853E+02  0.16672123065E+03  0.12508941275E+03 0.  0.
        -24    2    1    2    0    0 -0.31420457877E+02  0.90342840791E+02  0.78314633198E+03  0.79288514700E+03  0.78737570351E+02 0.  0.
        -11    1    3    3    0    0 -0.38074455318E+02 -0.29249924037E+02 -0.32694812850E+02  0.58087631999E+02  0.00000000000E+00 0.  1.
         12    1    3    3    0    0  0.27959960419E+02  0.18461648260E+02 -0.17380069043E+02  0.37744650522E+02  0.00000000000E+00 0. -1.
         13    1    5    5    0    0  0.36380725211E+01  0.62018030172E+02  0.63507148011E+03  0.63810285730E+03  0.00000000000E+00 0. -1.
        -14    1    5    5    0    0 -0.35058530398E+02  0.28324810619E+02  0.14807485187E+03  0.15478228970E+03  0.00000000000E+00 0.  1.
          5    1    4    4  501    0 -0.18397722870E+02 -0.32389125306E+02 -0.28269427727E+02  0.46948531276E+02  0.41800000000E+01 0.  1.
         -5    1    4    4    0  501  0.59932675647E+02 -0.47165439707E+02  0.92257914580E+02  0.11977269938E+03  0.41800000000E+01 0.  1.
</event>
<event>
11    1  0.8551154E-009  0.1444962E+03  0.7561462E-02  0.1102639E+00
         22   -1    0    0    0    0  0.00000000000E+00  0.00000000000E+00  0.14643093657E+04  0.14643093657E+04  0.00000000000E+00 0.  1.
         22   -1    0    0    0    0 -0.00000000000E+00 -0.00000000000E+00 -0.23676544541E+04  0.23676544541E+04  0.00000000000E+00 0. -1.
         24    2    1    2    0    0  0.28081318240E+02 -0.11191925770E+02 -0.23367100871E+04  0.23382891281E+04  0.80425092865E+02 0.  0.
         25    2    1    2    0    0 -0.97730942846E+02  0.17152871127E+01  0.19858732878E+03  0.25424085233E+03  0.12508878624E+03 0.  0.
        -24    2    1    2    0    0  0.69649624605E+02  0.94766386568E+01  0.12347776700E+04  0.12394338394E+04  0.81113938687E+02 0.  0.
        -11    1    3    3    0    0 -0.17497786957E+02  0.22736459155E+02 -0.68012045009E+03  0.68072530859E+03  0.00000000000E+00 0.  1.
         12    1    3    3    0    0  0.45579105198E+02 -0.33928384925E+02 -0.16565896370E+04  0.16575638195E+04  0.00000000000E+00 0. -1.
         13    1    5    5    0    0  0.49745126347E+02 -0.82146176484E+01  0.29490079184E+03  0.29917976965E+03  0.00000000000E+00 0. -1.
        -14    1    5    5    0    0  0.19904498258E+02  0.17691256305E+02  0.93987687812E+03  0.94025406972E+03  0.00000000000E+00 0.  1.
          5    1    4    4  501    0 -0.11911879967E+02  0.22779353702E+02  0.15208378581E+03  0.15429757660E+03  0.41800000000E+01 0. -1.
         -5    1    4    4    0  501 -0.85819062878E+02 -0.21064066589E+02  0.46503542973E+02  0.99943275730E+02  0.41800000000E+01 0. -1.
</event>
<event>
11    1  0.8551154E-009  0.1409306E+03  0.7561462E-02  0.1106524E+00
         22   -1    0    0    0    0  0.00000000000E+00  0.00000000000E+00  0.65233788923E+03  0.65233788923E+03  0.00000000000E+00 0.  1.
         22   -1    0    0    0    0 -0.00000000000E+00 -0.00000000000E+00 -0.41517900193E+03  0.41517900193E+03  0.00000000000E+00 0. -1.
         24    2    1    2    0    0 -0.21825848021E+02  0.57848059139E+02 -0.28086200390E+03  0.29724089927E+03  0.75139346367E+02 0.  0.
         25    2    1    2    0    0 -0.11707197072E+02 -0.91663920487E+02 -0.73085864990E+02  0.17182915400E+03  0.12507750286E+03 0.  0.
        -24    2    1    2    0    0  0.33533045093E+02  0.33815861349E+02  0.59110675619E+03  0.59844683789E+03  0.80395540776E+02 0.  0.
        -13    1    3    3    0    0 -0.34462881160E+02 -0.12318785044E+01 -0.72275963886E+02  0.80081350252E+02  0.00000000000E+00 0.  1.
         14    1    3    3    0    0  0.12637033139E+02  0.59079937643E+02 -0.20858604002E+03  0.21715954902E+03  0.00000000000E+00 0. -1.
         13    1    5    5    0    0  0.13933155409E+02 -0.13443958371E+02  0.40421632297E+03  0.40467976054E+03  0.00000000000E+00 0. -1.
        -14    1    5    5    0    0  0.19599889685E+02  0.47259819720E+02  0.18689043322E+03  0.19376707735E+03  0.00000000000E+00 0.  1.
          5    1    4    4  501    0  0.52804070205E+02 -0.49204875023E+02 -0.58773762259E+02  0.93173049142E+02  0.41800000000E+01 0. -1.
         -5    1    4    4    0  501 -0.64511267278E+02 -0.42459045464E+02 -0.14312102730E+02  0.78656104862E+02  0.41800000000E+01 0. -1.
</event>
<event>
11    1  0.8551154E-009  0.1541345E+03  0.7561462E-02  0.1092727E+00
         22   -1    0    0    0    0  0.00000000000E+00  0.00000000000E+00  0.97860391991E+03  0.97860391991E+03  0.00000000000E+00 0. -1.
         22   -1    0    0    0    0 -0.00000000000E+00 -0.00000000000E+00 -0.25866143024E+03  0.25866143024E+03  0.00000000000E+00 0. -1.
        -24    2    1    2    0    0  0.87778519718E+02 -0.40522554098E+02 -0.20249496752E+03  0.23817206843E+03  0.79840944364E+02 0.  0.
         25    2    1    2    0    0 -0.30274437017E+02  0.36590585123E+02  0.91124939432E+02  0.16188181694E+03  0.12508619273E+03 0.  0.
         24    2    1    2    0    0 -0.57504082701E+02  0.39319689746E+01  0.83131251776E+03  0.83721146478E+03  0.80748713145E+02 0.  0.
        -13    1    5    5    0    0 -0.50491916889E+02 -0.14898534796E+02  0.24673209257E+03  0.25228580126E+03  0.00000000000E+00 0.  1.
         14    1    5    5    0    0 -0.70121658118E+01  0.18830503771E+02  0.58458042518E+03  0.58492566353E+03  0.00000000000E+00 0. -1.
         13    1    3    3    0    0  0.98998934244E+02 -0.29632956099E+02 -0.19531173046E+03  0.22096509481E+03  0.00000000000E+00 0. -1.
        -14    1    3    3    0    0 -0.11220414526E+02 -0.10889597999E+02 -0.71832370606E+01  0.17206973626E+02  0.00000000000E+00 0.  1.
          5    1    4    4  501    0 -0.32005182004E+02 -0.62049660364E+01 -0.22865168465E+02  0.40039001081E+02  0.41800000000E+01 0.  1.
         -5    1    4    4    0  501  0.17307449870E+01  0.42795551160E+02  0.11399010790E+03  0.12184281586E+03  0.41800000000E+01 0.  1.
</event>
<event>
11    1  0.8551154E-009  0.2024296E+03  0.7561462E-02  0.1052819E+00
         22   -1    0    0    0    0  0.00000000000E+00  0.00000000000E+00  0.89842953797E+02  0.89842953797E+02  0.00000000000E+00 0. -1.
         22   -1    0    0    0    0 -0.00000000000E+00 -0.00000000000E+00 -0.92757352886E+03  0.92757352886E+03  0.00000000000E+00 0. -1.
        -24    2    1    2    0    0 -0.72812766433E+02  0.11601824630E+02 -0.35526347806E+03  0.37149927537E+03  0.79770116400E+02 0.  0.
         25    2    1    2    0    0 -0.36044162684E+02 -0.13967712847E+03 -0.39913678647E+03  0.44245479134E+03  0.12508871325E+03 0.  0.
         24    2    1    2    0    0  0.10885692912E+03  0.12807530384E+03 -0.83330310536E+02  0.20346241595E+03  0.78739441056E+02 0.  0.
        -13    1    5    5    0    0  0.78477465832E+01  0.63701703995E+02 -0.16369319283E+02  0.66237820255E+02  0.00000000000E+00 0.  1.
         14    1    5    5    0    0  0.10100918253E+03  0.64373599849E+02 -0.66960991252E+02  0.13722459569E+03  0.00000000000E+00 0. -1.
         11    1    3    3    0    0 -0.11305692942E+02  0.26310556750E+02 -0.35840309564E+02  0.45875831099E+02  0.00000000000E+00 0. -1.
        -12    1    3    3    0    0 -0.61507073490E+02 -0.14708732120E+02 -0.31942316849E+03  0.32562344427E+03  0.00000000000E+00 0.  1.
          5    1    4    4  501    0 -0.16526480336E+02 -0.10466671264E+03 -0.38563882503E+03  0.39995377365E+03  0.41800000000E+01 0. -1.
         -5    1    4    4    0  501 -0.19517682348E+02 -0.35010415834E+02 -0.13497961436E+02  0.42501017683E+02  0.41800000000E+01 0. -1.
</event>
<event>
11    1  0.8551154E-009  0.1369062E+03  0.7561462E-02  0.1111063E+00
         22   -1    0    0    0    0  0.00000000000E+00  0.00000000000E+00  0.27414530157E+03  0.27414530157E+03  0.00000000000E+00 0. -1.
         22   -1    0    0    0    0 -0.00000000000E+00 -0.00000000000E+00 -0.81130194808E+03  0.81130194808E+03  0.00000000000E+00 0. -1.
         24    2    1    2    0    0 -0.56831735070E+02  0.34354840633E+01 -0.71937935999E+03  0.72614206096E+03  0.80833040588E+02 0.  0.
         25    2    1    2    0    0  0.34429571284E+02 -0.66140222279E+01 -0.25661893543E+02  0.13243069078E+03  0.12510081699E+03 0.  0.
        -24    2    1    2    0    0  0.22402163786E+02  0.31785381645E+01  0.20788460703E+03  0.22687449792E+03  0.88000385910E+02 0.  0.
        -13    1    3    3    0    0  0.71016856339E+01  0.15720781162E+02 -0.38873328293E+02  0.42528961330E+02  0.00000000000E+00 0.  1.
         14    1    3    3    0    0 -0.63933420703E+02 -0.12285297099E+02 -0.68050603170E+03  0.68361309963E+03  0.00000000000E+00 0. -1.
         13    1    5    5    0    0  0.40938364803E+02 -0.21934363730E+02  0.17689476019E+03  0.18289019166E+03  0.00000000000E+00 0. -1.
        -14    1    5    5    0    0 -0.18536201017E+02  0.25112901894E+02  0.30989846841E+02  0.43984306258E+02  0.00000000000E+00 0.  1.
          5    1    4    4  501    0  0.14118380908E+01  0.47581261500E+02 -0.45324895346E+02  0.65861887847E+02  0.41800000000E+01 0.  1.
         -5    1    4    4    0  501  0.33017733193E+02 -0.54195283728E+02  0.19663001802E+02  0.66568802929E+02  0.41800000000E+01 0.  1.
</event>
<event>
11    1  0.8551154E-009  0.1316507E+03  0.7561462E-02  0.1117257E+00
         22   -1    0    0    0    0  0.00000000000E+00  0.00000000000E+00  0.55908605280E+03  0.55908605280E+03  0.00000000000E+00 0. -1.
         22   -1    0    0    0    0 -0.00000000000E+00 -0.00000000000E+00 -0.17211500974E+04  0.17211500974E+04  0.00000000000E+00 0. -1.
         24    2    1    2    0    0  0.36990999747E+02  0.17969050960E+02 -0.16972325388E+04  0.16996528494E+04  0.80810252528E+02 0.  0.
         25    2    1    2    0    0 -0.36501090281E+02  0.26411822523E+02  0.25777084619E+03  0.29004061661E+03  0.12509131135E+03 0.  0.
        -24    2    1    2    0    0 -0.48990946635E+00 -0.44380873483E+02  0.27739764797E+03  0.29054268421E+03  0.74132950214E+02 0.  0.
        -13    1    3    3    0    0  0.50032102787E+01 -0.25060752051E+02 -0.22540670813E+03  0.22685073832E+03  0.00000000000E+00 0.  1.
         14    1    3    3    0    0  0.31987789468E+02  0.43029803011E+02 -0.14718258307E+04  0.14728021111E+04  0.00000000000E+00 0. -1.
         11    1    5    5    0    0 -0.25408075393E+01 -0.59460783776E+02  0.13760278759E+03  0.14992187187E+03  0.00000000000E+00 0. -1.
        -12    1    5    5    0    0  0.20508980729E+01  0.15079910293E+02  0.13979486037E+03  0.14062081234E+03  0.00000000000E+00 0.  1.
          5    1    4    4  501    0 -0.81158509612E+02  0.24443426381E+02  0.19685527431E+03  0.21436803913E+03  0.41800000000E+01 0.  1.
         -5    1    4    4    0  501  0.44657419331E+02  0.19683961422E+01  0.60915571879E+02  0.75672577477E+02  0.41800000000E+01 0.  1.
</event>
<event>
11    1  0.8551154E-009  0.2923251E+03  0.7561462E-02  0.1003493E+00
         22   -1    0    0    0    0  0.00000000000E+00  0.00000000000E+00  0.14429891660E+04  0.14429891660E+04  0.00000000000E+00 0. -1.
         22   -1    0    0    0    0 -0.00000000000E+00 -0.00000000000E+00 -0.91154588836E+03  0.91154588836E+03  0.00000000000E+00 0. -1.
         24    2    1    2    0    0  0.10105866775E+03  0.12619387709E+03 -0.81971561697E+03  0.83924637712E+03  0.79139369880E+02 0.  0.
         25    2    1    2    0    0 -0.23817865838E+03 -0.30733354522E+03  0.59597725370E+03  0.72250916715E+03  0.12509048071E+03 0.  0.
        -24    2    1    2    0    0  0.13711999063E+03  0.18113966813E+03  0.75518164094E+03  0.79277951011E+03  0.81157683750E+02 0.  0.
        -11    1    3    3    0    0  0.50758493502E+01 -0.13883945094E+01 -0.13230855295E+01  0.54260889468E+01  0.00000000000E+00 0.  1.
         12    1    3    3    0    0  0.95982818400E+02  0.12758227160E+03 -0.81839253144E+03  0.83382028818E+03  0.00000000000E+00 0. -1.
         13    1    5    5    0    0  0.17506219424E+02  0.78281517092E+02  0.19623576468E+03  0.21199749757E+03  0.00000000000E+00 0. -1.
        -14    1    5    5    0    0  0.11961377121E+03  0.10285815104E+03  0.55894587626E+03  0.58078201254E+03  0.00000000000E+00 0.  1.
          5    1    4    4  501    0 -0.22626186527E+03 -0.31624675959E+03  0.54694491153E+03  0.67109809513E+03  0.41800000000E+01 0. -1.
         -5    1    4    4    0  501 -0.11916793109E+02  0.89132143723E+01  0.49032342167E+02  0.51411072026E+02  0.41800000000E+01 0. -1.
</event>
<event>
11    1  0.8551154E-009  0.1486358E+03  0.7561462E-02  0.1098281E+00
         22   -1    0    0    0    0  0.00000000000E+00  0.00000000000E+00  0.81456498160E+03  0.81456498160E+03  0.00000000000E+00 0. -1.
         22   -1    0    0    0    0 -0.00000000000E+00 -0.00000000000E+00 -0.81727397912E+02  0.81727397912E+02  0.00000000000E+00 0.  1.
        -24    2    1    2    0    0  0.19378234786E+02 -0.79288209738E+02 -0.18143714703E+02  0.10516647731E+03  0.63786028086E+02 0.  0.
         25    2    1    2    0    0 -0.35352388402E+00  0.72019262260E+02  0.30853346613E+03  0.34062865706E+03  0.12509229862E+03 0.  0.
         24    2    1    2    0    0 -0.19024710902E+02  0.72689474782E+01  0.44244783226E+03  0.45049724514E+03  0.82297669401E+02 0.  0.
        -11    1    5    5    0    0  0.71871657631E+01  0.26057941621E+02  0.50977809421E+02  0.57701028818E+02  0.00000000000E+00 0.  1.
         12    1    5    5    0    0 -0.26211876665E+02 -0.18788994143E+02  0.39147002283E+03  0.39279621632E+03  0.00000000000E+00 0. -1.
         11    1    3    3    0    0  0.32284191817E+02 -0.23735816437E+02  0.10388850081E+02  0.41395485613E+02  0.00000000000E+00 0. -1.
        -12    1    3    3    0    0 -0.12905957031E+02 -0.55552393301E+02 -0.28532564784E+02  0.63770991693E+02  0.00000000000E+00 0.  1.
          5    1    4    4  501    0  0.60970626338E+02  0.29926692804E+02  0.12068907557E+03  0.13855089166E+03  0.41800000000E+01 0. -1.
         -5    1    4    4    0  501 -0.61324150222E+02  0.42092569456E+02  0.18784439056E+03  0.20207776540E+03  0.41800000000E+01 0. -1.
</event>
<event>
11    1  0.8551154E-009  0.2664923E+03  0.7561462E-02  0.1015463E+00
         22   -1    0    0    0    0  0.00000000000E+00  0.00000000000E+00  0.22774374124E+04  0.22774374124E+04  0.00000000000E+00 0.  1.
         22   -1    0    0    0    0 -0.00000000000E+00 -0.00000000000E+00 -0.33283473426E+03  0.33283473426E+03  0.00000000000E+00 0.  1.
         24    2    1    2    0    0  0.15598543366E+03  0.29323147788E+02 -0.69720182428E+02  0.18718085075E+03  0.70600740347E+02 0.  0.
         25    2    1    2    0    0 -0.56500271039E+02  0.18751131092E+03 -0.12849423107E+03  0.26554014212E+03  0.12509207533E+03 0.  0.
        -24    2    1    2    0    0 -0.99485162622E+02 -0.21683445871E+03  0.21428170916E+04  0.21575511538E+04  0.80295784231E+02 0.  0.
        -11    1    3    3    0    0  0.13246940124E+03 -0.24607921192E+01 -0.64308799896E+02  0.14727463973E+03  0.00000000000E+00 0.  1.
         12    1    3    3    0    0  0.23516032418E+02  0.31783939907E+02 -0.54113825314E+01  0.39906211015E+02  0.00000000000E+00 0. -1.
         13    1    5    5    0    0 -0.27332054906E+02 -0.10457599921E+03  0.12700184972E+04  0.12746098086E+04  0.00000000000E+00 0. -1.
        -14    1    5    5    0    0 -0.72153107717E+02 -0.11225845950E+03  0.87279859443E+03  0.88294134523E+03  0.00000000000E+00 0.  1.
          5    1    4    4  501    0  0.15730767804E+02  0.11197300856E+03 -0.11280003427E+03  0.15977087291E+03  0.41800000000E+01 0. -1.
         -5    1    4    4    0  501 -0.72231038843E+02  0.75538302359E+02 -0.15694196805E+02  0.10576926921E+03  0.41800000000E+01 0. -1.
</event>
<event>
11    1  0.8551154E-009  0.3949860E+03  0.7561462E-02  0.9664669E-01
         22   -1    0    0    0    0  0.00000000000E+00  0.00000000000E+00  0.11449757647E+04  0.11449757647E+04  0.00000000000E+00 0.  1.
         22   -1    0    0    0    0 -0.00000000000E+00 -0.00000000000E+00 -0.21446651268E+03  0.21446651268E+03  0.00000000000E+00 0.  1.
        -24    2    1    2    0    0  0.10104353639E+03 -0.40660226749E+02 -0.19136931891E+01  0.13571332026E+03  0.80940674508E+02 0.  0.
         25    2    1    2    0    0  0.23219321651E+03 -0.21371345721E+03  0.26134522305E+03  0.42841058890E+03  0.12508867046E+03 0.  0.
         24    2    1    2    0    0 -0.33323675290E+03  0.25437368396E+03  0.67107772213E+03  0.79531836820E+03  0.80207811861E+02 0.  0.
        -13    1    5    5    0    0 -0.30500058337E+03  0.20053972222E+03  0.59340227782E+03  0.69668342837E+03  0.00000000000E+00 0.  1.
         14    1    5    5    0    0 -0.28236169529E+02  0.53833961743E+02  0.77675444305E+02  0.98634939827E+02  0.00000000000E+00 0. -1.
         13    1    3    3    0    0  0.32521938662E+02  0.49969781979E+01 -0.34026455705E+02  0.47333349483E+02  0.00000000000E+00 0. -1.
        -14    1    3    3    0    0  0.68521597727E+02 -0.45657204947E+02  0.32112762516E+02  0.88379970779E+02  0.00000000000E+00 0.  1.
          5    1    4    4  501    0  0.76449624872E+01 -0.61792626991E+02  0.83111833851E+02  0.10393182154E+03  0.41800000000E+01 0.  1.
         -5    1    4    4    0  501  0.22454825402E+03 -0.15192083022E+03  0.17823338920E+03  0.32447876736E+03  0.41800000000E+01 0.  1.
</event>
<event>
11    1  0.8551154E-009  0.8934942E+03  0.7561462E-02  0.8787487E-01
         22   -1    0    0    0    0  0.00000000000E+00  0.00000000000E+00  0.93370508433E+03  0.93370508433E+03  0.00000000000E+00 0.  1.
         22   -1    0    0    0    0 -0.00000000000E+00 -0.00000000000E+00 -0.22095651204E+04  0.22095651204E+04  0.00000000000E+00 0.  1.
         24    2    1    2    0    0  0.80326624433E+03  0.25225686106E+03 -0.77091563002E+03  0.11447214421E+04  0.84888680771E+02 0.  0.
         25    2    1    2    0    0 -0.10861300456E+04  0.43959700504E+03 -0.24892666424E+03  0.12043818134E+04  0.12508823022E+03 0.  0.
        -24    2    1    2    0    0  0.28286380130E+03 -0.69185386610E+03 -0.25601774184E+03  0.79416694930E+03  0.80513086570E+02 0.  0.
        -13    1    3    3    0    0  0.26329777457E+03  0.73867262464E+02 -0.19904434669E+03  0.33823178814E+03  0.00000000000E+00 0.  1.
         14    1    3    3    0    0  0.53996846976E+03  0.17838959859E+03 -0.57187128333E+03  0.80648965394E+03  0.00000000000E+00 0. -1.
         13    1    5    5    0    0  0.66413535265E+02 -0.22922800717E+03 -0.52539355945E+02  0.24436984442E+03  0.00000000000E+00 0. -1.
        -14    1    5    5    0    0  0.21645026603E+03 -0.46262585893E+03 -0.20347838589E+03  0.54979710489E+03  0.00000000000E+00 0.  1.
          5    1    4    4  501    0 -0.18907613691E+03  0.11470597943E+03 -0.13060959823E+02  0.22157461122E+03  0.41800000000E+01 0. -1.
         -5    1    4    4    0  501 -0.89705390871E+03  0.32489102561E+03 -0.23586570441E+03  0.98280720214E+03  0.41800000000E+01 0. -1.
</event>
<event>
11    1  0.8551154E-009  0.1699570E+03  0.7561462E-02  0.1078069E+00
         22   -1    0    0    0    0  0.00000000000E+00  0.00000000000E+00  0.12567797636E+04  0.12567797636E+04  0.00000000000E+00 0.  1.
         22   -1    0    0    0    0 -0.00000000000E+00 -0.00000000000E+00 -0.20059130776E+03  0.20059130776E+03  0.00000000000E+00 0. -1.
         24    2    1    2    0    0  0.25010024906E+02 -0.38057783246E+01 -0.16314642719E+03  0.18498874801E+03  0.83451152724E+02 0.  0.
         25    2    1    2    0    0 -0.12370001377E+02 -0.11180234819E+03  0.31643669674E+03  0.35837677391E+03  0.12509575148E+03 0.  0.
        -24    2    1    2    0    0 -0.12640023530E+02  0.11560812652E+03  0.90289818627E+03  0.91400554941E+03  0.81584315102E+02 0.  0.
        -11    1    3    3    0    0 -0.31004597642E+02 -0.56169027841E+00 -0.61985472776E+02  0.69309446731E+02  0.00000000000E+00 0.  1.
         12    1    3    3    0    0  0.56014622548E+02 -0.32440880462E+01 -0.10116095442E+03  0.11567930128E+03  0.00000000000E+00 0. -1.
         11    1    5    5    0    0 -0.30607858913E+02  0.14022562438E+02  0.13157226963E+03  0.13581139651E+03  0.00000000000E+00 0. -1.
        -12    1    5    5    0    0  0.17967835383E+02  0.10158556408E+03  0.77132591664E+03  0.77819415291E+03  0.00000000000E+00 0.  1.
          5    1    4    4  501    0 -0.23351391122E+02 -0.12806216038E+01  0.18379899769E+03  0.18532801033E+03  0.41800000000E+01 0.  1.
         -5    1    4    4    0  501  0.10981389745E+02 -0.11052172659E+03  0.13263769904E+03  0.17304876358E+03  0.41800000000E+01 0.  1.
</event>
<event>
11    1  0.8551154E-009  0.1893005E+03  0.7561462E-02  0.1062359E+00
         22   -1    0    0    0    0  0.00000000000E+00  0.00000000000E+00  0.10780108612E+04  0.10780108612E+04  0.00000000000E+00 0. -1.
         22   -1    0    0    0    0 -0.00000000000E+00 -0.00000000000E+00 -0.73791042441E+02  0.73791042441E+02  0.00000000000E+00 0. -1.
         24    2    1    2    0    0 -0.12512284436E+03 -0.88118303421E+02  0.11036047381E+03  0.20525893792E+03  0.80816061767E+02 0.  0.
         25    2    1    2    0    0  0.88068723018E+02  0.81452797487E+02  0.30692855418E+03  0.35248151163E+03  0.12508964977E+03 0.  0.
        -24    2    1    2    0    0  0.37054121338E+02  0.66655059338E+01  0.58693079074E+03  0.59406145406E+03  0.83688835563E+02 0.  0.
        -13    1    3    3    0    0 -0.17580942367E+02 -0.57904745365E+02  0.29259452789E+02  0.67217294261E+02  0.00000000000E+00 0.  1.
         14    1    3    3    0    0 -0.10754190199E+03 -0.30213558056E+02  0.81101021018E+02  0.13804164366E+03  0.00000000000E+00 0. -1.
         13    1    5    5    0    0  0.10143075127E+02  0.34763888581E+02  0.11588112436E+03  0.12140776295E+03  0.00000000000E+00 0. -1.
        -14    1    5    5    0    0  0.26911046211E+02 -0.28098382647E+02  0.47104966638E+03  0.47265369111E+03  0.00000000000E+00 0.  1.
          5    1    4    4  501    0  0.10761359909E+03  0.21122254994E+02  0.19646781698E+03  0.22504202246E+03  0.41800000000E+01 0.  1.
         -5    1    4    4    0  501 -0.19544876069E+02  0.60330542493E+02  0.11046073720E+03  0.12743948917E+03  0.41800000000E+01 0.  1.
</event>
<event>
11    1  0.8551154E-009  0.1525412E+03  0.7561462E-02  0.1094310E+00
         22   -1    0    0    0    0  0.00000000000E+00  0.00000000000E+00  0.11164388322E+04  0.11164388322E+04  0.00000000000E+00 0. -1.
         22   -1    0    0    0    0 -0.00000000000E+00 -0.00000000000E+00 -0.11668432138E+03  0.11668432138E+03  0.00000000000E+00 0.  1.
        -24    2    1    2    0    0  0.40776286252E+02 -0.29058183131E+02 -0.75191734610E+02  0.12032133348E+03  0.79475422681E+02 0.  0.
         25    2    1    2    0    0 -0.38179241971E+02 -0.64918840288E+02  0.35596349968E+03  0.38474464693E+03  0.12508525052E+03 0.  0.
         24    2    1    2    0    0 -0.25970442811E+01  0.93977023420E+02  0.71898274571E+03  0.72805717312E+03  0.65518189388E+02 0.  0.
        -13    1    5    5    0    0 -0.23638436421E+02  0.90581994091E+01  0.11366240912E+03  0.11644728378E+03  0.00000000000E+00 0.  1.
         14    1    5    5    0    0  0.21041392140E+02  0.84918824011E+02  0.60532033659E+03  0.61160988935E+03  0.00000000000E+00 0. -1.
         11    1    3    3    0    0  0.17635938709E+02 -0.72121037209E+01  0.15274970133E+02  0.24420595546E+02  0.00000000000E+00 0. -1.
        -12    1    3    3    0    0  0.23140347543E+02 -0.21846079411E+02 -0.90466704744E+02  0.95900737939E+02  0.00000000000E+00 0.  1.
          5    1    4    4  501    0 -0.59689313779E+02 -0.72480223906E+01  0.70786161818E+02  0.92970431391E+02  0.41800000000E+01 0.  1.
         -5    1    4    4    0  501  0.21510071808E+02 -0.57670817898E+02  0.28517733786E+03  0.29177421554E+03  0.41800000000E+01 0.  1.
</event>
<event>
11    1  0.8551154E-009  0.1604605E+03  0.7561462E-02  0.1086645E+00
         22   -1    0    0    0    0  0.00000000000E+00  0.00000000000E+00  0.57009717648E+03  0.57009717648E+03  0.00000000000E+00 0.  1.
         22   -1    0    0    0    0 -0.00000000000E+00 -0.00000000000E+00 -0.21930836967E+04  0.21930836967E+04  0.00000000000E+00 0. -1.
         24    2    1    2    0    0 -0.97461440303E+01 -0.23669142653E+02 -0.20104337289E+04  0.20123449854E+04  0.83865046935E+02 0.  0.
         25    2    1    2    0    0  0.10540533041E+03  0.52126920325E+02 -0.13149431470E+03  0.21625413808E+03  0.12509035908E+03 0.  0.
        -24    2    1    2    0    0 -0.95659186383E+02 -0.28457777672E+02  0.51894152344E+03  0.53458174971E+03  0.80726806672E+02 0.  0.
        -11    1    3    3    0    0 -0.14611523621E+02 -0.26193007988E+02 -0.23543002190E+03  0.23733281590E+03  0.00000000000E+00 0.  1.
         12    1    3    3    0    0  0.48653795905E+01  0.25238653346E+01 -0.17750037070E+04  0.17750121695E+04  0.00000000000E+00 0. -1.
         11    1    5    5    0    0  0.24567005834E+01 -0.16885183427E+02  0.19908559786E+03  0.19981546505E+03  0.00000000000E+00 0. -1.
        -12    1    5    5    0    0 -0.98115886966E+02 -0.11572594245E+02  0.31985592558E+03  0.33476628466E+03  0.00000000000E+00 0.  1.
          5    1    4    4  501    0 -0.26903465697E+02  0.14544851731E+00 -0.93549546997E+01  0.28788977044E+02  0.41800000000E+01 0.  1.
         -5    1    4    4    0  501  0.13230879611E+03  0.51981471808E+02 -0.12213936001E+03  0.18746516104E+03  0.41800000000E+01 0.  1.
</event>
<event>
11    1  0.8551154E-009  0.1696010E+03  0.7561462E-02  0.1078379E+00
         22   -1    0    0    0    0  0.00000000000E+00  0.00000000000E+00  0.29522581372E+04  0.29522581372E+04  0.00000000000E+00 0. -1.
         22   -1    0    0    0    0 -0.00000000000E+00 -0.00000000000E+00 -0.78296183127E+02  0.78296183127E+02  0.00000000000E+00 0. -1.
        -24    2    1    2    0    0  0.46734364688E+02  0.10438590907E+03 -0.34919708167E+01  0.13989767053E+03  0.80490033561E+02 0.  0.
         25    2    1    2    0    0 -0.58065511563E+01 -0.12669098259E+03  0.16669384798E+04  0.16764296228E+04  0.12509222110E+03 0.  0.
         24    2    1    2    0    0 -0.40927813532E+02  0.22305073515E+02  0.12105154450E+04  0.12142270269E+04  0.82625831215E+02 0.  0.
        -13    1    5    5    0    0 -0.41539560195E+02  0.22925484272E+02  0.30143372049E+03  0.30514488483E+03  0.00000000000E+00 0.  1.
         14    1    5    5    0    0  0.61174666303E+00 -0.62041075607E+00  0.90908172455E+03  0.90908214209E+03  0.00000000000E+00 0. -1.
         11    1    3    3    0    0  0.65404446699E+02  0.10062785604E+03 -0.81496638309E+01  0.12029182882E+03  0.00000000000E+00 0. -1.
        -12    1    3    3    0    0 -0.18670082011E+02  0.37580530303E+01  0.46576930143E+01  0.19605841708E+02  0.00000000000E+00 0.  1.
          5    1    4    4  501    0  0.45924883105E+02 -0.95224093347E+02  0.74243028905E+03  0.74993128308E+03  0.41800000000E+01 0.  1.
         -5    1    4    4    0  501 -0.51731434261E+02 -0.31466889243E+02  0.92450819075E+03  0.92649833976E+03  0.41800000000E+01 0.  1.
</event>
<event>
11    1  0.8551154E-009  0.1348961E+03  0.7561462E-02  0.1113395E+00
         22   -1    0    0    0    0  0.00000000000E+00  0.00000000000E+00  0.41032265406E+03  0.41032265406E+03  0.00000000000E+00 0.  1.
         22   -1    0    0    0    0 -0.00000000000E+00 -0.00000000000E+00 -0.25519297807E+03  0.25519297807E+03  0.00000000000E+00 0. -1.
         24    2    1    2    0    0 -0.16590888222E+02 -0.32474243433E+02 -0.18806160375E+03  0.20827538924E+03  0.81741280271E+02 0.  0.
         25    2    1    2    0    0  0.63025728470E+02  0.41824018505E+02  0.58383650451E+02  0.15740850729E+03  0.12508915442E+03 0.  0.
        -24    2    1    2    0    0 -0.46434840249E+02 -0.93497750724E+01  0.28480762928E+03  0.29983173560E+03  0.80870707255E+02 0.  0.
        -11    1    3    3    0    0 -0.31153513170E+02  0.17016821054E+02 -0.53925279243E+02  0.64560431559E+02  0.00000000000E+00 0.  1.
         12    1    3    3    0    0  0.14562624949E+02 -0.49491064487E+02 -0.13413632451E+03  0.14371495769E+03  0.00000000000E+00 0. -1.
         13    1    5    5    0    0  0.20645208317E+02  0.93189000284E+01  0.49460559396E+02  0.54400491358E+02  0.00000000000E+00 0. -1.
        -14    1    5    5    0    0 -0.67080048566E+02 -0.18668675101E+02  0.23534706989E+03  0.24543124424E+03  0.00000000000E+00 0.  1.
          5    1    4    4  501    0  0.49956915882E+02  0.22396600295E+02 -0.32269311046E+02  0.63687376964E+02  0.41800000000E+01 0.  1.
         -5    1    4    4    0  501  0.13068812588E+02  0.19427418210E+02  0.90652961498E+02  0.93721130323E+02  0.41800000000E+01 0.  1.
</event>
<event>
11    1  0.1350994E-008  0.2129399E+03  0.7561462E-02  0.1045732E+00
         22   -1    0    0    0    0  0.00000000000E+00  0.00000000000E+00  0.13772822198E+04  0.13772822198E+04  0.00000000000E+00 0. -1.
         22   -1    0    0    0    0 -0.00000000000E+00 -0.00000000000E+00 -0.13066568673E+04  0.13066568673E+04  0.00000000000E+00 0. -1.
        -24    2    1    2    0    0 -0.36978904789E+02  0.16287879419E+03 -0.11206027866E+04  0.11357965353E+04  0.79913849058E+02 0.  0.
         25    2    1    2    0    0 -0.34599148500E+02 -0.28385434687E+03 -0.32501155173E+02  0.31380425062E+03  0.12508553597E+03 0.  0.
         24    2    1    2    0    0  0.71578053289E+02  0.12097555268E+03  0.12237292943E+04  0.12343383011E+04  0.79493105433E+02 0.  0.
        -11    1    5    5    0    0  0.15239810946E+02 -0.10146612655E+02  0.17166607799E+03  0.17263964759E+03  0.00000000000E+00 0.  1.
         12    1    5    5    0    0  0.56338242343E+02  0.13112216533E+03  0.10520632163E+04  0.10616986535E+04  0.00000000000E+00 0. -1.
         11    1    3    3    0    0 -0.31388093757E+02  0.14696264718E+03 -0.10941548413E+04  0.11044265701E+04  0.00000000000E+00 0. -1.
        -12    1    3    3    0    0 -0.55908110324E+01  0.15916147013E+02 -0.26447945324E+02  0.31369965184E+02  0.00000000000E+00 0.  1.
          5    1    4    4  501    0  0.22829342747E+02 -0.32655314211E+02 -0.39134855748E+02  0.56004979876E+02  0.41800000000E+01 0. -1.
         -5    1    4    4    0  501 -0.57428491247E+02 -0.25119903266E+03  0.66337005755E+01  0.25779927075E+03  0.41800000000E+01 0. -1.
</event>
<event>
11    1  0.8551154E-009  0.1868251E+03  0.7561462E-02  0.1064252E+00
         22   -1    0    0    0    0  0.00000000000E+00  0.00000000000E+00  0.10572740095E+03  0.10572740095E+03  0.00000000000E+00 0. -1.
         22   -1    0    0    0    0 -0.00000000000E+00 -0.00000000000E+00 -0.20833456291E+04  0.20833456291E+04  0.00000000000E+00 0. -1.
        -24    2    1    2    0    0 -0.68816590211E+02  0.95134932931E+02 -0.14461236649E+04  0.14530634336E+04  0.79582092921E+02 0.  0.
         25    2    1    2    0    0  0.19854741409E+03 -0.91954059879E+02 -0.52451241486E+03  0.58192669465E+03  0.12509508319E+03 0.  0.
         24    2    1    2    0    0 -0.12973082387E+03 -0.31808730516E+01 -0.69821484129E+01  0.15408290177E+03  0.82780345517E+02 0.  0.
        -13    1    5    5    0    0  0.12389090142E+01 -0.21555406696E+02  0.75720374799E+00  0.21604254463E+02  0.00000000000E+00 0.  1.
         14    1    5    5    0    0 -0.13096973289E+03  0.18374533645E+02 -0.77393521609E+01  0.13247864730E+03  0.00000000000E+00 0. -1.
         11    1    3    3    0    0 -0.41284217100E+02  0.96717663315E+02 -0.13075679222E+04  0.13117898323E+04  0.00000000000E+00 0. -1.
        -12    1    3    3    0    0 -0.27532373111E+02 -0.15827303843E+01 -0.13855574262E+03  0.14127360128E+03  0.00000000000E+00 0.  1.
          5    1    4    4  501    0  0.49648517692E+02 -0.89015500854E+02 -0.23958525890E+03  0.26039835519E+03  0.41800000000E+01 0.  1.
         -5    1    4    4    0  501  0.14889889639E+03 -0.29385590253E+01 -0.28492715596E+03  0.32152833947E+03  0.41800000000E+01 0.  1.
</event>
<event>
11    1  0.8551154E-009  0.1732560E+03  0.7561462E-02  0.1075232E+00
         22   -1    0    0    0    0  0.00000000000E+00  0.00000000000E+00  0.38826206936E+03  0.38826206936E+03  0.00000000000E+00 0. -1.
         22   -1    0    0    0    0 -0.00000000000E+00 -0.00000000000E+00 -0.24457776093E+03  0.24457776093E+03  0.00000000000E+00 0. -1.
        -24    2    1    2    0    0  0.10037198808E+03 -0.85375388014E+02 -0.15679169081E+03  0.21996794495E+03  0.80241944333E+02 0.  0.
         25    2    1    2    0    0 -0.49323970734E+02  0.58677238843E+02  0.71291614179E+02  0.16311433749E+03  0.12509164799E+03 0.  0.
         24    2    1    2    0    0 -0.51048017347E+02  0.26698149171E+02  0.22918438506E+03  0.24975754785E+03  0.80837238373E+02 0.  0.
        -13    1    5    5    0    0 -0.53128205021E+02 -0.25118501406E+01  0.70065492901E+02  0.87966407539E+02  0.00000000000E+00 0.  1.
         14    1    5    5    0    0  0.20801876746E+01  0.29209999312E+02  0.15911889216E+03  0.16179114031E+03  0.00000000000E+00 0. -1.
         13    1    3    3    0    0  0.63286970836E+02 -0.74234974803E+02 -0.15246909838E+03  0.18100524335E+03  0.00000000000E+00 0. -1.
        -14    1    3    3    0    0  0.37085017244E+02 -0.11140413211E+02 -0.43225924305E+01  0.38962701598E+02  0.00000000000E+00 0.  1.
          5    1    4    4  501    0 -0.43397747428E+02  0.76596792197E+02 -0.11443979911E+01  0.88143151200E+02  0.41800000000E+01 0.  1.
         -5    1    4    4    0  501 -0.59262233060E+01 -0.17919553355E+02  0.72436012170E+02  0.74971186293E+02  0.41800000000E+01 0.  1.
</event>
<event>
11    1  0.8551154E-009  0.2125963E+03  0.7561462E-02  0.1045957E+00
         22   -1    0    0    0    0  0.00000000000E+00  0.00000000000E+00  0.27159198154E+03  0.27159198154E+03  0.00000000000E+00 0. -1.
         22   -1    0    0    0    0 -0.00000000000E+00 -0.00000000000E+00 -0.87619542123E+03  0.87619542123E+03  0.00000000000E+00 0.  1.
        -24    2    1    2    0    0 -0.18625344660E+01 -0.12321011123E+03 -0.38127726920E+03  0.40869077098E+03  0.80446191571E+02 0.  0.
         25    2    1    2    0    0  0.15113040863E+03  0.19799737129E+03 -0.39738436772E+03  0.48539235620E+03  0.12509214322E+03 0.  0.
         24    2    1    2    0    0 -0.14926787416E+03 -0.74787260064E+02  0.17405819722E+03  0.25370427558E+03  0.78711948925E+02 0.  0.
        -13    1    5    5    0    0 -0.11924746338E+02  0.33916515397E+01  0.53546168152E+02  0.54962669141E+02  0.00000000000E+00 0.  1.
         14    1    5    5    0    0 -0.13734312782E+03 -0.78178911604E+02  0.12051202907E+03  0.19874160644E+03  0.00000000000E+00 0. -1.
         13    1    3    3    0    0  0.35625049154E+02 -0.30057668382E+02 -0.12915610765E+03  0.13730953244E+03  0.00000000000E+00 0. -1.
        -14    1    3    3    0    0 -0.37487583620E+02 -0.93152442844E+02 -0.25212116155E+03  0.27138123854E+03  0.00000000000E+00 0.  1.
          5    1    4    4  501    0  0.12896195715E+02  0.19645197023E+02  0.46731711137E+01  0.24321935742E+02  0.41800000000E+01 0.  1.
         -5    1    4    4    0  501  0.13823421291E+03  0.17835217427E+03 -0.40205753883E+03  0.46107042045E+03  0.41800000000E+01 0.  1.
</event>
<event>
11    1  0.8551154E-009  0.1354779E+03  0.7561462E-02  0.1112716E+00
         22   -1    0    0    0    0  0.00000000000E+00  0.00000000000E+00  0.11562794901E+04  0.11562794901E+04  0.00000000000E+00 0.  1.
         22   -1    0    0    0    0 -0.00000000000E+00 -0.00000000000E+00 -0.72706366836E+03  0.72706366836E+03  0.00000000000E+00 0. -1.
         24    2    1    2    0    0  0.39384935328E+02 -0.33890079459E+02 -0.67738546638E+03  0.68406333850E+03  0.79949173874E+02 0.  0.
         25    2    1    2    0    0 -0.49326877605E+02  0.25301969748E+02  0.59731890257E+02  0.14929631381E+03  0.12509260600E+03 0.  0.
        -24    2    1    2    0    0  0.99419422768E+01  0.85881097107E+01  0.10468693979E+04  0.10499835062E+04  0.79732234170E+02 0.  0.
        -13    1    3    3    0    0  0.42867874863E+02 -0.21180563769E+02 -0.17245359793E+03  0.17895953290E+03  0.00000000000E+00 0.  1.
         14    1    3    3    0    0 -0.34829395347E+01 -0.12709515690E+02 -0.50493186845E+03  0.50510380561E+03  0.00000000000E+00 0. -1.
         13    1    5    5    0    0  0.16839673892E+02 -0.13246724721E+02  0.79306513331E+02  0.82149701091E+02  0.00000000000E+00 0. -1.
        -14    1    5    5    0    0 -0.68977316148E+01  0.21834834432E+02  0.96756288454E+03  0.96783380507E+03  0.00000000000E+00 0.  1.
          5    1    4    4  501    0 -0.68372339095E+02  0.20372574400E+02 -0.14040511843E+02  0.72831496715E+02  0.41800000000E+01 0. -1.
         -5    1    4    4    0  501  0.19045461490E+02  0.49293953482E+01  0.73772402100E+02  0.76464817095E+02  0.41800000000E+01 0. -1.
</event>
<event>
11    1  0.8551154E-009  0.1415282E+03  0.7561462E-02  0.1105864E+00
         22   -1    0    0    0    0  0.00000000000E+00  0.00000000000E+00  0.72014754818E+03  0.72014754818E+03  0.00000000000E+00 0. -1.
         22   -1    0    0    0    0 -0.00000000000E+00 -0.00000000000E+00 -0.41109096060E+03  0.41109096060E+03  0.00000000000E+00 0.  1.
         24    2    1    2    0    0 -0.55586459308E+02  0.37586015367E+02 -0.37122121453E+03  0.38937591243E+03  0.96466823611E+02 0.  0.
         25    2    1    2    0    0  0.78649301054E+02  0.47326973828E+02  0.23674305139E+03  0.28305578093E+03  0.12509095781E+03 0.  0.
        -24    2    1    2    0    0 -0.23062841746E+02 -0.84912989194E+02  0.44353475071E+03  0.45880681542E+03  0.77707839922E+02 0.  0.
        -11    1    3    3    0    0 -0.19136203595E+02  0.62726899286E+02 -0.14911984656E+03  0.16290361206E+03  0.00000000000E+00 0.  1.
         12    1    3    3    0    0 -0.36450255713E+02 -0.25140883920E+02 -0.22210136796E+03  0.22647230038E+03  0.00000000000E+00 0. -1.
         11    1    5    5    0    0 -0.11528233445E+02 -0.97029789322E+02  0.33391745600E+03  0.34792031789E+03  0.00000000000E+00 0. -1.
        -12    1    5    5    0    0 -0.11534608301E+02  0.12116800128E+02  0.10961729471E+03  0.11088649753E+03  0.00000000000E+00 0.  1.
          5    1    4    4  501    0  0.15719039029E+02 -0.39296132894E+02  0.36929284068E+02  0.56325115803E+02  0.41800000000E+01 0.  1.
         -5    1    4    4    0  501  0.62930262025E+02  0.86623106721E+02  0.19981376732E+03  0.22673066512E+03  0.41800000000E+01 0.  1.
</event>
<event>
11    1  0.8551154E-009  0.1953424E+03  0.7561462E-02  0.1057867E+00
         22   -1    0    0    0    0  0.00000000000E+00  0.00000000000E+00  0.51147424947E+03  0.51147424947E+03  0.00000000000E+00 0. -1.
         22   -1    0    0    0    0 -0.00000000000E+00 -0.00000000000E+00 -0.26691775866E+04  0.26691775866E+04  0.00000000000E+00 0. -1.
         24    2    1    2    0    0  0.64164963587E+02  0.13187350622E+03 -0.19611351574E+04  0.19681900544E+04  0.78823984174E+02 0.  0.
         25    2    1    2    0    0 -0.12785741763E+03 -0.11976582717E+03 -0.68263448301E+03  0.71577117724E+03  0.12508864127E+03 0.  0.
        -24    2    1    2    0    0  0.63692454042E+02 -0.12107679048E+02  0.48606630332E+03  0.49669060439E+03  0.78979621935E+02 0.  0.
        -11    1    3    3    0    0  0.23361946007E+01 -0.10774491934E+02 -0.12894901622E+03  0.12941945860E+03  0.00000000000E+00 0.  1.
         12    1    3    3    0    0  0.61828768986E+02  0.14264799815E+03 -0.18321861412E+04  0.18387705958E+04  0.00000000000E+00 0. -1.
         13    1    5    5    0    0 -0.51427203797E+01 -0.10475733754E+01  0.26146295273E+03  0.26151562216E+03  0.00000000000E+00 0. -1.
        -14    1    5    5    0    0  0.68835174421E+02 -0.11060105673E+02  0.22460335058E+03  0.23517498223E+03  0.00000000000E+00 0.  1.
          5    1    4    4  501    0 -0.59006142220E+02 -0.12491541162E+03 -0.35590693230E+03  0.38180204523E+03  0.41800000000E+01 0.  1.
         -5    1    4    4    0  501 -0.68851275409E+02  0.51495844504E+01 -0.32672755071E+03  0.33396913201E+03  0.41800000000E+01 0.  1.
</event>
<event>
11    1  0.8551154E-009  0.1596317E+03  0.7561462E-02  0.1087424E+00
         22   -1    0    0    0    0  0.00000000000E+00  0.00000000000E+00  0.44641232181E+03  0.44641232181E+03  0.00000000000E+00 0.  1.
         22   -1    0    0    0    0 -0.00000000000E+00 -0.00000000000E+00 -0.20391004979E+03  0.20391004979E+03  0.00000000000E+00 0. -1.
        -24    2    1    2    0    0  0.56107111445E+02 -0.11622038518E+02 -0.48057807191E+00  0.98505556373E+02  0.80125114334E+02 0.  0.
         25    2    1    2    0    0 -0.12954208085E+03  0.72514329911E+02 -0.77047070659E+02  0.20886011487E+03  0.12508724049E+03 0.  0.
         24    2    1    2    0    0  0.73434969402E+02 -0.60892291394E+02  0.32002992075E+03  0.34295670036E+03  0.78099822445E+02 0.  0.
        -11    1    5    5    0    0  0.73063361279E+02 -0.21142758928E+02  0.14808406619E+03  0.16647570897E+03  0.00000000000E+00 0.  1.
         12    1    5    5    0    0  0.37160812368E+00 -0.39749532466E+02  0.17194585456E+03  0.17648099140E+03  0.00000000000E+00 0. -1.
         11    1    3    3    0    0  0.40460172226E+02 -0.38441378348E+02 -0.22777491596E+02  0.60279177410E+02  0.00000000000E+00 0. -1.
        -12    1    3    3    0    0  0.15646939219E+02  0.26819339831E+02  0.22296913525E+02  0.38226378963E+02  0.00000000000E+00 0.  1.
          5    1    4    4  501    0 -0.14549173012E+03  0.85582676760E+02 -0.53138220324E+02  0.17701237514E+03  0.41800000000E+01 0. -1.
         -5    1    4    4    0  501  0.15949649271E+02 -0.13068346849E+02 -0.23908850335E+02  0.31847739725E+02  0.41800000000E+01 0. -1.
</event>
<event>
11    1  0.8551154E-009  0.1397626E+03  0.7561462E-02  0.1107824E+00
         22   -1    0    0    0    0  0.00000000000E+00  0.00000000000E+00  0.23546047549E+03  0.23546047549E+03  0.00000000000E+00 0. -1.
         22   -1    0    0    0    0 -0.00000000000E+00 -0.00000000000E+00 -0.17936911736E+04  0.17936911736E+04  0.00000000000E+00 0. -1.
         24    2    1    2    0    0  0.21074205105E+02 -0.54217041038E+02 -0.14110709884E+04  0.14153903805E+04  0.93941392364E+02 0.  0.
         25    2    1    2    0    0 -0.69799643803E+02  0.75024456701E+02 -0.35219793244E+03  0.38754538335E+03  0.12508949262E+03 0.  0.
        -24    2    1    2    0    0  0.48725438698E+02 -0.20807415662E+02  0.20503822277E+03  0.22621588522E+03  0.79535130629E+02 0.  0.
        -11    1    3    3    0    0 -0.17311214455E+02 -0.16941622765E+02 -0.89002143002E+02  0.92239244287E+02  0.00000000000E+00 0.  1.
         12    1    3    3    0    0  0.38385419559E+02 -0.37275418273E+02 -0.13220688454E+04  0.13231511362E+04  0.00000000000E+00 0. -1.
         11    1    5    5    0    0 -0.20682160593E+02 -0.48319071081E+01  0.75015780839E+02  0.77964520572E+02  0.00000000000E+00 0. -1.
        -12    1    5    5    0    0  0.69407599291E+02 -0.15975508554E+02  0.13002244193E+03  0.14825136464E+03  0.00000000000E+00 0.  1.
          5    1    4    4  501    0  0.24992959098E+01 -0.19476563741E+02 -0.52697774412E+01  0.20756347692E+02  0.41800000000E+01 0.  1.
         -5    1    4    4    0  501 -0.72298939713E+02  0.94501020442E+02 -0.34692815500E+03  0.36678903566E+03  0.41800000000E+01 0.  1.
</event>
<event>
11    1  0.8551154E-009  0.2074791E+03  0.7561462E-02  0.1049357E+00
         22   -1    0    0    0    0  0.00000000000E+00  0.00000000000E+00  0.10707887798E+04  0.10707887798E+04  0.00000000000E+00 0. -1.
         22   -1    0    0    0    0 -0.00000000000E+00 -0.00000000000E+00 -0.89953252372E+03  0.89953252372E+03  0.00000000000E+00 0.  1.
        -24    2    1    2    0    0  0.30137366901E+02 -0.85302395739E+01 -0.82632929462E+03  0.83053533353E+03  0.77380948688E+02 0.  0.
         25    2    1    2    0    0  0.13572200770E+03  0.42056574589E+02  0.83528736117E+02  0.20690777057E+03  0.12507820323E+03 0.  0.
         24    2    1    2    0    0 -0.16585937460E+03 -0.33526335015E+02  0.91405681461E+03  0.93287819946E+03  0.78284911750E+02 0.  0.
        -13    1    5    5    0    0 -0.91237483361E+00  0.12757966385E+02  0.34554199125E+02  0.36845499200E+02  0.00000000000E+00 0.  1.
         14    1    5    5    0    0 -0.16494699977E+03 -0.46284301400E+02  0.87950261549E+03  0.89603270026E+03  0.00000000000E+00 0. -1.
         13    1    3    3    0    0 -0.25044810922E+02  0.64575740379E+01 -0.21975858012E+03  0.22127534059E+03  0.00000000000E+00 0. -1.
        -14    1    3    3    0    0  0.55182177823E+02 -0.14987813612E+02 -0.60657071449E+03  0.60925999293E+03  0.00000000000E+00 0.  1.
          5    1    4    4  501    0  0.73098231270E+02 -0.40090535180E+02  0.20952863842E+02  0.86064495170E+02  0.41800000000E+01 0. -1.
         -5    1    4    4    0  501  0.62623776430E+02  0.82147109769E+02  0.62575872276E+02  0.12084327540E+03  0.41800000000E+01 0. -1.
</event>
<event>
11    1  0.8551154E-009  0.1522293E+03  0.7561462E-02  0.1094622E+00
         22   -1    0    0    0    0  0.00000000000E+00  0.00000000000E+00  0.31494921978E+04  0.31494921978E+04  0.00000000000E+00 0.  1.
         22   -1    0    0    0    0 -0.00000000000E+00 -0.00000000000E+00 -0.35385421985E+02  0.35385421985E+02  0.00000000000E+00 0.  1.
        -24    2    1    2    0    0 -0.16450496724E+02  0.98538391053E+01  0.28728726667E+02  0.86495966746E+02  0.79300034930E+02 0.  0.
         25    2    1    2    0    0  0.33949405266E+02 -0.90702253033E+02  0.13704891927E+04  0.13795894074E+04  0.12508734903E+03 0.  0.
         24    2    1    2    0    0 -0.17498908542E+02  0.80848413928E+02  0.17148888565E+04  0.17187922457E+04  0.80995776772E+02 0.  0.
        -11    1    5    5    0    0 -0.26275260877E+02  0.81987746726E+02  0.16929197434E+04  0.16951075593E+04  0.00000000000E+00 0.  1.
         12    1    5    5    0    0  0.87763523354E+01 -0.11393327977E+01  0.21969113060E+02  0.23684686364E+02  0.00000000000E+00 0. -1.
         11    1    3    3    0    0 -0.13628969016E+02  0.33588074049E+02  0.44849550842E+02  0.57666192223E+02  0.00000000000E+00 0. -1.
        -12    1    3    3    0    0 -0.28215277084E+01 -0.23734234944E+02 -0.16120824175E+02  0.28829774523E+02  0.00000000000E+00 0.  1.
          5    1    4    4  501    0  0.67576460687E+02 -0.10199584844E+03  0.10760975054E+04  0.10830388011E+04  0.41800000000E+01 0. -1.
         -5    1    4    4    0  501 -0.33627055421E+02  0.11293595405E+02  0.29439168730E+03  0.29655060632E+03  0.41800000000E+01 0. -1.
</event>
<event>
11    1  0.8551154E-009  0.1654329E+03  0.7561462E-02  0.1082076E+00
         22   -1    0    0    0    0  0.00000000000E+00  0.00000000000E+00  0.30490505664E+03  0.30490505664E+03  0.00000000000E+00 0.  1.
         22   -1    0    0    0    0 -0.00000000000E+00 -0.00000000000E+00 -0.46332341238E+03  0.46332341238E+03  0.00000000000E+00 0.  1.
         24    2    1    2    0    0  0.67303617734E+02 -0.85334770542E+02 -0.34782668394E+03  0.37537150682E+03  0.90047576591E+02 0.  0.
         25    2    1    2    0    0 -0.90754578178E+02  0.62422111947E+02 -0.18557062396E+02  0.16770486399E+03  0.12509054050E+03 0.  0.
        -24    2    1    2    0    0  0.23450960444E+02  0.22912658595E+02  0.20796539059E+03  0.22515209820E+03  0.79805552257E+02 0.  0.
        -13    1    3    3    0    0  0.53160149277E+02 -0.14922811862E+02 -0.23672026908E+03  0.24307442806E+03  0.00000000000E+00 0.  1.
         14    1    3    3    0    0  0.14143468457E+02 -0.70411958680E+02 -0.11110641486E+03  0.13229707876E+03  0.00000000000E+00 0. -1.
         13    1    5    5    0    0  0.25750357249E+02  0.30803389243E+02  0.38952524264E+02  0.55939510489E+02  0.00000000000E+00 0. -1.
        -14    1    5    5    0    0 -0.22993968049E+01 -0.78907306478E+01  0.16901286633E+03  0.16921258771E+03  0.00000000000E+00 0.  1.
          5    1    4    4  501    0 -0.10735963067E+03  0.61935537843E+02 -0.48538423112E+02  0.13317489277E+03  0.41800000000E+01 0.  1.
         -5    1    4    4    0  501  0.16605052492E+02  0.48657410479E+00  0.29981360716E+02  0.34529971228E+02  0.41800000000E+01 0.  1.
</event>
<event>
11    1  0.8551154E-009  0.2134426E+03  0.7561462E-02  0.1045405E+00
         22   -1    0    0    0    0  0.00000000000E+00  0.00000000000E+00  0.56937912955E+03  0.56937912955E+03  0.00000000000E+00 0. -1.
         22   -1    0    0    0    0 -0.00000000000E+00 -0.00000000000E+00 -0.43923496166E+03  0.43923496166E+03  0.00000000000E+00 0. -1.
        -24    2    1    2    0    0 -0.15987498603E+03 -0.80807597013E+02 -0.32108094569E+03  0.37642785282E+03  0.80716019488E+02 0.  0.
         25    2    1    2    0    0  0.12317097629E+03  0.84457708359E+02  0.24545286649E+02  0.19634947499E+03  0.12508577589E+03 0.  0.
         24    2    1    2    0    0  0.36704009739E+02 -0.36501113458E+01  0.42667982693E+03  0.43583676340E+03  0.80854820357E+02 0.  0.
        -13    1    5    5    0    0  0.57645701975E+02 -0.18890691587E+02  0.24920709123E+03  0.25648403363E+03  0.00000000000E+00 0.  1.
         14    1    5    5    0    0 -0.20941692237E+02  0.15240580241E+02  0.17747273570E+03  0.17935272977E+03  0.00000000000E+00 0. -1.
         11    1    3    3    0    0 -0.11007535616E+03 -0.93204200268E+02 -0.25219569140E+03  0.29052757828E+03  0.00000000000E+00 0. -1.
        -12    1    3    3    0    0 -0.49799629875E+02  0.12396603255E+02 -0.68885254292E+02  0.85900274545E+02  0.00000000000E+00 0.  1.
          5    1    4    4  501    0  0.12474804587E+03  0.10154880330E+03 -0.60475647180E+01  0.16102260661E+03  0.41800000000E+01 0.  1.
         -5    1    4    4    0  501 -0.15770695794E+01 -0.17091094941E+02  0.30592851367E+02  0.35326868380E+02  0.41800000000E+01 0.  1.
</event>
<event>
11    1  0.8551154E-009  0.1417924E+03  0.7561462E-02  0.1105573E+00
         22   -1    0    0    0    0  0.00000000000E+00  0.00000000000E+00  0.14155026865E+03  0.14155026865E+03  0.00000000000E+00 0. -1.
         22   -1    0    0    0    0 -0.00000000000E+00 -0.00000000000E+00 -0.11395506973E+04  0.11395506973E+04  0.00000000000E+00 0.  1.
         24    2    1    2    0    0 -0.26335682836E+02 -0.56216935610E+02 -0.85665317585E+03  0.86267369424E+03  0.80605998552E+02 0.  0.
         25    2    1    2    0    0  0.49925627848E+02  0.94979490622E+02 -0.23523665072E+03  0.28722403144E+03  0.12509072882E+03 0.  0.
        -24    2    1    2    0    0 -0.23589945012E+02 -0.38762555012E+02  0.93889397938E+02  0.13120324026E+03  0.79624431132E+02 0.  0.
        -11    1    3    3    0    0 -0.74581537675E+01 -0.73678849725E+02 -0.70222811610E+03  0.70612217356E+03  0.00000000000E+00 0.  1.
         12    1    3    3    0    0 -0.18877529069E+02  0.17461914115E+02 -0.15442505975E+03  0.15655152068E+03  0.00000000000E+00 0. -1.
         13    1    5    5    0    0  0.92360963201E+01 -0.19165116355E+02  0.90336160862E+02  0.92807484178E+02  0.00000000000E+00 0. -1.
        -14    1    5    5    0    0 -0.32826041332E+02 -0.19597438657E+02  0.35532370752E+01  0.38395756083E+02  0.00000000000E+00 0.  1.
          5    1    4    4  501    0  0.90641764342E+02  0.73433364274E+02 -0.14810630728E+03  0.18857714360E+03  0.41800000000E+01 0.  1.
         -5    1    4    4    0  501 -0.40716136494E+02  0.21546126348E+02 -0.87130343439E+02  0.98646887835E+02  0.41800000000E+01 0.  1.
</event>
<event>
11    1  0.8551154E-009  0.2039974E+03  0.7561462E-02  0.1051732E+00
         22   -1    0    0    0    0  0.00000000000E+00  0.00000000000E+00  0.31308743832E+03  0.31308743832E+03  0.00000000000E+00 0.  1.
         22   -1    0    0    0    0 -0.00000000000E+00 -0.00000000000E+00 -0.85407612448E+03  0.85407612448E+03  0.00000000000E+00 0.  1.
         24    2    1    2    0    0  0.39981195405E+01  0.72913629236E+01 -0.33284835706E+03  0.34220498558E+03  0.79038436378E+02 0.  0.
         25    2    1    2    0    0  0.71186704753E+02  0.13575111684E+03 -0.46822585683E+03  0.50831025709E+03  0.12509177349E+03 0.  0.
        -24    2    1    2    0    0 -0.75184824293E+02 -0.14304247976E+03  0.26008552773E+03  0.31664832013E+03  0.80670738708E+02 0.  0.
        -13    1    3    3    0    0 -0.19456220986E+02  0.22410916792E+02 -0.51215997939E+02  0.59193514606E+02  0.00000000000E+00 0.  1.
         14    1    3    3    0    0  0.23454340527E+02 -0.15119553868E+02 -0.28163235912E+03  0.28301147097E+03  0.00000000000E+00 0. -1.
         11    1    5    5    0    0 -0.74491550851E+02 -0.56729636362E+02  0.12172431497E+03  0.15357099871E+03  0.00000000000E+00 0. -1.
        -12    1    5    5    0    0 -0.69327344230E+00 -0.86312843401E+02  0.13836121276E+03  0.16307732142E+03  0.00000000000E+00 0.  1.
          5    1    4    4  501    0  0.54176381950E+02  0.31297728162E+02 -0.32028474450E+03  0.32636546709E+03  0.41800000000E+01 0.  1.
         -5    1    4    4    0  501  0.17010322803E+02  0.10445338868E+03 -0.14794111233E+03  0.18194478999E+03  0.41800000000E+01 0.  1.
</event>
<event>
11    1  0.8551154E-009  0.1354371E+03  0.7561462E-02  0.1112763E+00
         22   -1    0    0    0    0  0.00000000000E+00  0.00000000000E+00  0.15059805395E+04  0.15059805395E+04  0.00000000000E+00 0.  1.
         22   -1    0    0    0    0 -0.00000000000E+00 -0.00000000000E+00 -0.15658959160E+03  0.15658959160E+03  0.00000000000E+00 0. -1.
        -24    2    1    2    0    0 -0.29822400487E+02 -0.42034230297E+02 -0.12876798967E+03  0.16066244111E+03  0.81086205555E+02 0.  0.
         25    2    1    2    0    0  0.86700402758E+01  0.72677543330E+02  0.52722162567E+03  0.54677941601E+03  0.12509153567E+03 0.  0.
         24    2    1    2    0    0  0.21152360211E+02 -0.30643313034E+02  0.95093731192E+03  0.95512827399E+03  0.81251545189E+02 0.  0.
        -13    1    5    5    0    0  0.11460153529E+02 -0.58064543424E+02  0.70421771798E+03  0.70670037543E+03  0.00000000000E+00 0.  1.
         14    1    5    5    0    0  0.96922066822E+01  0.27421230390E+02  0.24671959394E+03  0.24842789855E+03  0.00000000000E+00 0. -1.
         13    1    3    3    0    0 -0.52071570255E+02 -0.21916168234E+02 -0.11399326282E+03  0.12722511870E+03  0.00000000000E+00 0. -1.
        -14    1    3    3    0    0  0.22249169768E+02 -0.20118062062E+02 -0.14774726849E+02  0.33437322410E+02  0.00000000000E+00 0.  1.
          5    1    4    4  501    0  0.75984544520E+01  0.13640491599E+02  0.44591175087E+03  0.44620461841E+03  0.41800000000E+01 0.  1.
         -5    1    4    4    0  501  0.10715858238E+01  0.59037051731E+02  0.81309874796E+02  0.10057479760E+03  0.41800000000E+01 0.  1.
</event>
<event>
11    1  0.8551154E-009  0.1450713E+03  0.7561462E-02  0.1102024E+00
         22   -1    0    0    0    0  0.00000000000E+00  0.00000000000E+00  0.23367320214E+03  0.23367320214E+03  0.00000000000E+00 0.  1.
         22   -1    0    0    0    0 -0.00000000000E+00 -0.00000000000E+00 -0.15503387854E+04  0.15503387854E+04  0.00000000000E+00 0.  1.
        -24    2    1    2    0    0  0.28524847370E+02  0.68140688825E+02 -0.14136466342E+04  0.14194145281E+04  0.10432629451E+03 0.  0.
         25    2    1    2    0    0 -0.25919542202E+02 -0.62565671104E+02 -0.79282514986E+02  0.16284766581E+03  0.12508940486E+03 0.  0.
         24    2    1    2    0    0 -0.26053051686E+01 -0.55750177209E+01  0.17626356597E+03  0.20174979362E+03  0.97960533366E+02 0.  0.
        -11    1    5    5    0    0 -0.49767990884E+02 -0.86324505087E+01  0.99910750113E+02  0.11195324965E+03  0.00000000000E+00 0.  1.
         12    1    5    5    0    0  0.47162685716E+02  0.30574327877E+01  0.76352815860E+02  0.89796543970E+02  0.00000000000E+00 0. -1.
         11    1    3    3    0    0 -0.19373854570E+02 -0.19282266596E+02 -0.24345993944E+03  0.24498957969E+03  0.00000000000E+00 0. -1.
        -12    1    3    3    0    0  0.47898701941E+02  0.87422955420E+02 -0.11701866948E+04  0.11744249484E+04  0.00000000000E+00 0.  1.
          5    1    4    4  501    0 -0.29197173283E+02 -0.61939941026E+02  0.13492861647E+02  0.69918244668E+02  0.41800000000E+01 0.  1.
         -5    1    4    4    0  501  0.32776310817E+01 -0.62573007783E+00 -0.92775376633E+02  0.92929421138E+02  0.41800000000E+01 0.  1.
</event>
<event>
11    1  0.8551154E-009  0.1485365E+03  0.7561462E-02  0.1098384E+00
         22   -1    0    0    0    0  0.00000000000E+00  0.00000000000E+00  0.74073510291E+03  0.74073510291E+03  0.00000000000E+00 0.  1.
         22   -1    0    0    0    0 -0.00000000000E+00 -0.00000000000E+00 -0.46667882804E+03  0.46667882804E+03  0.00000000000E+00 0. -1.
         24    2    1    2    0    0  0.61319626861E+02  0.47484889687E+02 -0.39933909027E+03  0.41439158900E+03  0.78954218538E+02 0.  0.
         25    2    1    2    0    0 -0.10518540701E+03 -0.74455771251E+02  0.87943528990E+02  0.19997199277E+03  0.12508837628E+03 0.  0.
        -24    2    1    2    0    0  0.43865780147E+02  0.26970881563E+02  0.58545183616E+03  0.59305034918E+03  0.79392878019E+02 0.  0.
        -13    1    3    3    0    0 -0.71942414580E+01 -0.14925237495E+02 -0.40049092072E+02  0.43341084438E+02  0.00000000000E+00 0.  1.
         14    1    3    3    0    0  0.68513868319E+02  0.62410127183E+02 -0.35928999820E+03  0.37105050456E+03  0.00000000000E+00 0. -1.
         11    1    5    5    0    0 -0.59055962870E+01 -0.18023688473E+02  0.51166614368E+02  0.54568780814E+02  0.00000000000E+00 0. -1.
        -12    1    5    5    0    0  0.49771376434E+02  0.44994570037E+02  0.53428522179E+03  0.53848156837E+03  0.00000000000E+00 0.  1.
          5    1    4    4  501    0 -0.12906026803E+03 -0.36675321565E+02  0.72085623912E+02  0.15236614312E+03  0.41800000000E+01 0.  1.
         -5    1    4    4    0  501  0.23874861017E+02 -0.37780449686E+02  0.15857905078E+02  0.47605849646E+02  0.41800000000E+01 0.  1.
</event>
<event>
11    1  0.8551154E-009  0.1387497E+03  0.7561462E-02  0.1108963E+00
         22   -1    0    0    0    0  0.00000000000E+00  0.00000000000E+00  0.78620552430E+03  0.78620552430E+03  0.00000000000E+00 0. -1.
         22   -1    0    0    0    0 -0.00000000000E+00 -0.00000000000E+00 -0.19419877037E+04  0.19419877037E+04  0.00000000000E+00 0.  1.
        -24    2    1    2    0    0 -0.21121985406E+02  0.16712973251E+02 -0.18698393864E+04  0.18717674351E+04  0.80551464439E+02 0.  0.
         25    2    1    2    0    0 -0.21134633471E+02 -0.59531351359E+02  0.50262940771E+01  0.14022959218E+03  0.12509364638E+03 0.  0.
         24    2    1    2    0    0  0.42256618876E+02  0.42818378108E+02  0.70903091298E+03  0.71619620067E+03  0.81198072303E+02 0.  0.
        -13    1    5    5    0    0  0.44236670435E+02 -0.20109038082E+00  0.53841341741E+03  0.54022766635E+03  0.00000000000E+00 0.  1.
         14    1    5    5    0    0 -0.19800515591E+01  0.43019468489E+02  0.17061749557E+03  0.17596853431E+03  0.00000000000E+00 0. -1.
         11    1    3    3    0    0 -0.41655345824E+02 -0.51195089834E+01 -0.55425240877E+03  0.55583910427E+03  0.00000000000E+00 0. -1.
        -12    1    3    3    0    0  0.20533360418E+02  0.21832482235E+02 -0.13155869777E+04  0.13159283309E+04  0.00000000000E+00 0.  1.
          5    1    4    4  501    0  0.25466936967E+02  0.28298557193E+02 -0.10007348669E+02  0.39585257926E+02  0.41800000000E+01 0.  1.
         -5    1    4    4    0  501 -0.46601570437E+02 -0.87829908552E+02  0.15033642746E+02  0.10064433426E+03  0.41800000000E+01 0.  1.
</event>
<event>
11    1  0.8551154E-009  0.1301211E+03  0.7561462E-02  0.1119120E+00
         22   -1    0    0    0    0  0.00000000000E+00  0.00000000000E+00  0.17607953303E+04  0.17607953303E+04  0.00000000000E+00 0. -1.
         22   -1    0    0    0    0 -0.00000000000E+00 -0.00000000000E+00 -0.21540413367E+03  0.21540413367E+03  0.00000000000E+00 0. -1.
         24    2    1    2    0    0 -0.47865316212E+02  0.23176140347E+02 -0.19166183901E+03  0.20506858638E+03  0.49906338382E+02 0.  0.
         25    2    1    2    0    0  0.11839694048E+02 -0.36907891278E+02  0.25636233565E+03  0.28786380036E+03  0.12506618097E+03 0.  0.
        -24    2    1    2    0    0  0.36025622163E+02  0.13731750931E+02  0.14806907000E+04  0.14832670772E+04  0.78421087163E+02 0.  0.
        -13    1    3    3    0    0 -0.50702450182E+02  0.27174500388E+02 -0.11831899819E+03  0.13156206618E+03  0.00000000000E+00 0.  1.
         14    1    3    3    0    0  0.28371339697E+01 -0.39983600410E+01 -0.73342840821E+02  0.73506520199E+02  0.00000000000E+00 0. -1.
         13    1    5    5    0    0  0.37813772729E+02 -0.13058345747E+02  0.12977584922E+04  0.12983749481E+04  0.00000000000E+00 0. -1.
        -14    1    5    5    0    0 -0.17881505659E+01  0.26790096678E+02  0.18293220779E+03  0.18489212911E+03  0.00000000000E+00 0.  1.
          5    1    4    4  501    0  0.67656955174E+02 -0.30740601288E+02  0.15360643168E+03  0.17068935645E+03  0.41800000000E+01 0. -1.
         -5    1    4    4    0  501 -0.55817261126E+02 -0.61672899900E+01  0.10275590398E+03  0.11717444392E+03  0.41800000000E+01 0. -1.
</event>
<event>
11    1  0.8551154E-009  0.2020738E+03  0.7561462E-02  0.1053067E+00
         22   -1    0    0    0    0  0.00000000000E+00  0.00000000000E+00  0.15350265169E+04  0.15350265169E+04  0.00000000000E+00 0. -1.
         22   -1    0    0    0    0 -0.00000000000E+00 -0.00000000000E+00 -0.15359935753E+03  0.15359935753E+03  0.00000000000E+00 0. -1.
         24    2    1    2    0    0  0.12775024661E+03  0.89301460461E+02 -0.53563061205E+02  0.18338951688E+03  0.80422863833E+02 0.  0.
         25    2    1    2    0    0 -0.14349290493E+03 -0.97693870496E+02  0.30664483555E+03  0.37391395630E+03  0.12508511282E+03 0.  0.
        -24    2    1    2    0    0  0.15742658321E+02  0.83924100351E+01  0.11283453850E+04  0.11313224013E+04  0.80055005074E+02 0.  0.
        -13    1    3    3    0    0  0.11160982370E+02 -0.13727303336E+02 -0.14745532583E+02  0.23031220452E+02  0.00000000000E+00 0.  1.
         14    1    3    3    0    0  0.11658926424E+03  0.10302876380E+03 -0.38817528622E+02  0.16035829643E+03  0.00000000000E+00 0. -1.
         13    1    5    5    0    0  0.37321274931E+02 -0.13125625088E+02  0.91012816287E+03  0.91098761377E+03  0.00000000000E+00 0. -1.
        -14    1    5    5    0    0 -0.21578616610E+02  0.21518035124E+02  0.21821722218E+03  0.22033478751E+03  0.00000000000E+00 0.  1.
          5    1    4    4  501    0 -0.25423843724E+02 -0.70588334274E+02  0.50498578542E+02  0.90535427320E+02  0.41800000000E+01 0.  1.
         -5    1    4    4    0  501 -0.11806906120E+03 -0.27105536222E+02  0.25614625701E+03  0.28337852898E+03  0.41800000000E+01 0.  1.
</event>
<event>
11    1  0.8551154E-009  0.1328460E+03  0.7561462E-02  0.1115821E+00
         22   -1    0    0    0    0  0.00000000000E+00  0.00000000000E+00  0.47751906245E+03  0.47751906245E+03  0.00000000000E+00 0. -1.
         22   -1    0    0    0    0 -0.00000000000E+00 -0.00000000000E+00 -0.17619937769E+04  0.17619937769E+04  0.00000000000E+00 0.  1.
        -24    2    1    2    0    0  0.28016212319E+02  0.35129733081E+02 -0.17049421021E+04  0.17073273234E+04  0.78230502433E+02 0.  0.
         25    2    1    2    0    0 -0.37448513626E+02 -0.86690437376E+01  0.31945829556E+02  0.13470615928E+03  0.12509064645E+03 0.  0.
         24    2    1    2    0    0  0.94323013073E+01 -0.26460689344E+02  0.38852155809E+03  0.39747935664E+03  0.79067701771E+02 0.  0.
        -11    1    5    5    0    0  0.29338682987E+02  0.15320450132E+02  0.10176616761E+03  0.10701321124E+03  0.00000000000E+00 0.  1.
         12    1    5    5    0    0 -0.19906381679E+02 -0.41781139475E+02  0.28675539049E+03  0.29046614540E+03  0.00000000000E+00 0. -1.
         11    1    3    3    0    0 -0.23382943568E+02 -0.43418141608E+01 -0.32806213893E+03  0.32892306152E+03  0.00000000000E+00 0. -1.
        -12    1    3    3    0    0  0.51399155887E+02  0.39471547242E+02 -0.13768799632E+04  0.13784042619E+04  0.00000000000E+00 0.  1.
          5    1    4    4  501    0 -0.38408278615E+02 -0.52935862690E+02  0.54136134242E+02  0.85003499079E+02  0.41800000000E+01 0. -1.
         -5    1    4    4    0  501  0.95976498816E+00  0.44266818953E+02 -0.22190304686E+02  0.49702660201E+02  0.41800000000E+01 0. -1.
</event>
<event>
11    1  0.8551154E-009  0.1434715E+03  0.7561462E-02  0.1103743E+00
         22   -1    0    0    0    0  0.00000000000E+00  0.00000000000E+00  0.72467427158E+03  0.72467427158E+03  0.00000000000E+00 0. -1.
         22   -1    0    0    0    0 -0.00000000000E+00 -0.00000000000E+00 -0.22685552931E+03  0.22685552931E+03  0.00000000000E+00 0. -1.
        -24    2    1    2    0    0  0.32099803493E+01  0.16476925948E+02 -0.15798928460E+03  0.17797069340E+03  0.80194517240E+02 0.  0.
         25    2    1    2    0    0 -0.72092180955E+02 -0.27668560914E+02  0.45467536578E+02  0.15387684092E+03  0.12509178020E+03 0.  0.
         24    2    1    2    0    0  0.68882200605E+02  0.11191634966E+02  0.61034049030E+03  0.61968226656E+03  0.81366990509E+02 0.  0.
        -13    1    5    5    0    0  0.14682647699E+02  0.37010297254E+02  0.14087321163E+03  0.14639195334E+03  0.00000000000E+00 0.  1.
         14    1    5    5    0    0  0.54199552907E+02 -0.25818662288E+02  0.46946727866E+03  0.47329031323E+03  0.00000000000E+00 0. -1.
         11    1    3    3    0    0  0.18584628590E+02  0.19713946246E+02 -0.15986761032E+03  0.16214709657E+03  0.00000000000E+00 0. -1.
        -12    1    3    3    0    0 -0.15374648241E+02 -0.32370202982E+01  0.18783257177E+01  0.15823596824E+02  0.00000000000E+00 0.  1.
          5    1    4    4  501    0  0.18130450136E+02 -0.50420738252E+02  0.19651036464E+02  0.57224118186E+02  0.41800000000E+01 0.  1.
         -5    1    4    4    0  501 -0.90222631091E+02  0.22752177338E+02  0.25816500114E+02  0.96652722739E+02  0.41800000000E+01 0.  1.
</event>
<event>
11    1  0.8551154E-009  0.2438982E+03  0.7561462E-02  0.1027201E+00
         22   -1    0    0    0    0  0.00000000000E+00  0.00000000000E+00  0.33435624740E+04  0.33435624740E+04  0.00000000000E+00 0. -1.
         22   -1    0    0    0    0 -0.00000000000E+00 -0.00000000000E+00 -0.14639809058E+03  0.14639809058E+03  0.00000000000E+00 0.  1.
         24    2    1    2    0    0 -0.17976379147E+03  0.11005317930E+03  0.12001732422E+02  0.22572034381E+03  0.79868072656E+02 0.  0.
         25    2    1    2    0    0  0.16213377528E+03 -0.12708521761E+03  0.33427511999E+03  0.41210192126E+03  0.12510045581E+03 0.  0.
        -24    2    1    2    0    0  0.17630016187E+02  0.17032038309E+02  0.28508875310E+04  0.28521382996E+04  0.80822381359E+02 0.  0.
        -11    1    3    3    0    0 -0.16862787764E+03  0.11726303083E+03 -0.33644979508E+01  0.20541981249E+03  0.00000000000E+00 0.  1.
         12    1    3    3    0    0 -0.11135913824E+02 -0.72098515286E+01  0.15366230373E+02  0.20300531314E+02  0.00000000000E+00 0. -1.
         13    1    5    5    0    0  0.47596976751E+02  0.22839998820E+01  0.20514825462E+04  0.20520358979E+04  0.00000000000E+00 0. -1.
        -14    1    5    5    0    0 -0.29966960564E+02  0.14748038427E+02  0.79940498485E+03  0.80010240167E+03  0.00000000000E+00 0.  1.
          5    1    4    4  501    0  0.72911058215E+02 -0.78530616668E+02  0.67758779562E+02  0.12685347757E+03  0.41800000000E+01 0. -1.
         -5    1    4    4    0  501  0.89222717067E+02 -0.48554600940E+02  0.26651634043E+03  0.28524844369E+03  0.41800000000E+01 0. -1.
</event>
<event>
11    1  0.8551154E-009  0.2331659E+03  0.7561462E-02  0.1033270E+00
         22   -1    0    0    0    0  0.00000000000E+00  0.00000000000E+00  0.22721534526E+04  0.22721534526E+04  0.00000000000E+00 0. -1.
         22   -1    0    0    0    0 -0.00000000000E+00 -0.00000000000E+00 -0.55583952433E+03  0.55583952433E+03  0.00000000000E+00 0.  1.
        -24    2    1    2    0    0  0.67664887308E+02  0.18236905351E+03 -0.44403277103E+03  0.49155335584E+03  0.81379304681E+02 0.  0.
         25    2    1    2    0    0 -0.11563207601E+03 -0.18473292885E+03  0.94521960227E+02  0.26847464443E+03  0.12508877541E+03 0.  0.
         24    2    1    2    0    0  0.47967188697E+02  0.23638753346E+01  0.20658247390E+04  0.20679649766E+04  0.80875540310E+02 0.  0.
        -13    1    5    5    0    0  0.56151646780E+01  0.20582037087E+02  0.14254055400E+03  0.14412827571E+03  0.00000000000E+00 0.  1.
         14    1    5    5    0    0  0.42352024019E+02 -0.18218161753E+02  0.19232841850E+04  0.19238367009E+04  0.00000000000E+00 0. -1.
         11    1    3    3    0    0 -0.32548810066E+01 -0.67359287863E+01 -0.76513925858E+01  0.10700971707E+02  0.00000000000E+00 0. -1.
        -12    1    3    3    0    0  0.70919768315E+02  0.18910498230E+03 -0.43638137844E+03  0.48085238413E+03  0.00000000000E+00 0.  1.
          5    1    4    4  501    0 -0.82337932809E+02 -0.16681786034E+03  0.12115039693E+03  0.22204194375E+03  0.41800000000E+01 0.  1.
         -5    1    4    4    0  501 -0.33294143196E+02 -0.17915068510E+02 -0.26628436707E+02  0.46432700679E+02  0.41800000000E+01 0.  1.
</event>
<event>
11    1  0.8551154E-009  0.1905879E+03  0.7561462E-02  0.1061386E+00
         22   -1    0    0    0    0  0.00000000000E+00  0.00000000000E+00  0.19737800544E+04  0.19737800544E+04  0.00000000000E+00 0.  1.
         22   -1    0    0    0    0 -0.00000000000E+00 -0.00000000000E+00 -0.79339500097E+03  0.79339500097E+03  0.00000000000E+00 0. -1.
         24    2    1    2    0    0  0.55548929509E+02  0.12950864786E+03 -0.69547450466E+03  0.71415596569E+03  0.80472251502E+02 0.  0.
         25    2    1    2    0    0 -0.50159239446E+02 -0.18500635179E+03  0.62823246239E+02  0.23735597352E+03  0.12509116032E+03 0.  0.
        -24    2    1    2    0    0 -0.53896900627E+01  0.55497703929E+02  0.18130363118E+04  0.18156631162E+04  0.80142619102E+02 0.  0.
        -13    1    3    3    0    0  0.51627348967E+01  0.16924463003E+02 -0.28502470075E+03  0.28557340793E+03  0.00000000000E+00 0.  1.
         14    1    3    3    0    0  0.50386194612E+02  0.11258418486E+03 -0.41044980390E+03  0.42858255775E+03  0.00000000000E+00 0. -1.
         11    1    5    5    0    0  0.23958829860E+02  0.59952064195E+01  0.18891641651E+03  0.19052396294E+03  0.00000000000E+00 0. -1.
        -12    1    5    5    0    0 -0.29348519923E+02  0.49502497510E+02  0.16241198953E+04  0.16251391532E+04  0.00000000000E+00 0.  1.
          5    1    4    4  501    0  0.16045045216E+02 -0.10499539108E+03  0.78642039134E+02  0.13222525607E+03  0.41800000000E+01 0. -1.
         -5    1    4    4    0  501 -0.66204284662E+02 -0.80010960708E+02 -0.15818792895E+02  0.10513071744E+03  0.41800000000E+01 0. -1.
</event>
<event>
11    1  0.8551154E-009  0.1751071E+03  0.7561462E-02  0.1073671E+00
         22   -1    0    0    0    0  0.00000000000E+00  0.00000000000E+00  0.10242942014E+04  0.10242942014E+04  0.00000000000E+00 0. -1.
         22   -1    0    0    0    0 -0.00000000000E+00 -0.00000000000E+00 -0.76738034972E+03  0.76738034972E+03  0.00000000000E+00 0. -1.
        -24    2    1    2    0    0 -0.58711587203E+02 -0.65373868781E+02 -0.73232361030E+03  0.74176270729E+03  0.78697207984E+02 0.  0.
         25    2    1    2    0    0  0.14542870346E+03  0.10755474029E+03  0.56125434781E+03  0.60280365147E+03  0.12509304275E+03 0.  0.
         24    2    1    2    0    0 -0.86717116257E+02 -0.42180871507E+02  0.42798311418E+03  0.44710819236E+03  0.86238654223E+02 0.  0.
        -11    1    5    5    0    0  0.46662810269E+01 -0.22140277949E+01  0.17639114807E+03  0.17646674819E+03  0.00000000000E+00 0.  1.
         12    1    5    5    0    0 -0.91383397284E+02 -0.39966843712E+02  0.25159196611E+03  0.27064144417E+03  0.00000000000E+00 0. -1.
         11    1    3    3    0    0 -0.63567442762E+02 -0.78486877463E+02 -0.68534269794E+03  0.69274499156E+03  0.00000000000E+00 0. -1.
        -12    1    3    3    0    0  0.48558555583E+01  0.13113008683E+02 -0.46980912359E+02  0.49017715736E+02  0.00000000000E+00 0.  1.
          5    1    4    4  501    0  0.94563215530E+02  0.70507294776E+02  0.17279546154E+03  0.20925874958E+03  0.41800000000E+01 0.  1.
         -5    1    4    4    0  501  0.50865487930E+02  0.37047445511E+02  0.38845888627E+03  0.39354490189E+03  0.41800000000E+01 0.  1.
</event>
<event>
11    1  0.8551154E-009  0.1688518E+03  0.7561462E-02  0.1079035E+00
         22   -1    0    0    0    0  0.00000000000E+00  0.00000000000E+00  0.20775665361E+03  0.20775665361E+03  0.00000000000E+00 0. -1.
         22   -1    0    0    0    0 -0.00000000000E+00 -0.00000000000E+00 -0.93084691206E+03  0.93084691206E+03  0.00000000000E+00 0. -1.
        -24    2    1    2    0    0 -0.69511262178E+02  0.89317242877E+02 -0.66687360612E+03  0.68179646067E+03  0.85537253814E+02 0.  0.
         25    2    1    2    0    0  0.38415216652E+02 -0.11335919722E+03 -0.21424128229E+03  0.27545073283E+03  0.12509093776E+03 0.  0.
         24    2    1    2    0    0  0.31096045526E+02  0.24041954348E+02  0.15802462997E+03  0.18135637217E+03  0.79833391719E+02 0.  0.
        -11    1    5    5    0    0  0.17620798826E+02  0.14644197949E+02  0.43816869887E+00  0.22915869537E+02  0.00000000000E+00 0.  1.
         12    1    5    5    0    0  0.13475246700E+02  0.93977563992E+01  0.15758646127E+03  0.15844050263E+03  0.00000000000E+00 0. -1.
         11    1    3    3    0    0 -0.57450288692E+02  0.42631608942E+02 -0.55997252463E+03  0.56452388621E+03  0.00000000000E+00 0. -1.
        -12    1    3    3    0    0 -0.12060973486E+02  0.46685633935E+02 -0.10690108149E+03  0.11727257446E+03  0.00000000000E+00 0.  1.
          5    1    4    4  501    0  0.54655953343E+02 -0.13438050538E+03 -0.19117353943E+03  0.24002122415E+03  0.41800000000E+01 0.  1.
         -5    1    4    4    0  501 -0.16240736691E+02  0.21021308153E+02 -0.23067742857E+02  0.35429508679E+02  0.41800000000E+01 0.  1.
</event>
<event>
11    1  0.8551154E-009  0.1384330E+03  0.7561462E-02  0.1109321E+00
         22   -1    0    0    0    0  0.00000000000E+00  0.00000000000E+00  0.20118474323E+04  0.20118474323E+04  0.00000000000E+00 0. -1.
         22   -1    0    0    0    0 -0.00000000000E+00 -0.00000000000E+00 -0.11206881690E+04  0.11206881690E+04  0.00000000000E+00 0. -1.
        -24    2    1    2    0    0  0.42322347932E+02 -0.93814221733E+01 -0.89450202327E+03  0.89925732692E+03  0.81551690192E+02 0.  0.
         25    2    1    2    0    0 -0.21802468436E+01 -0.34522199466E+02 -0.20340400546E+03  0.24129230149E+03  0.12510895087E+03 0.  0.
         24    2    1    2    0    0 -0.40142101088E+02  0.43903621639E+02  0.19890652920E+04  0.19919859728E+04  0.89935887352E+02 0.  0.
        -13    1    5    5    0    0  0.12939216877E+02  0.64954104840E+00  0.48127742544E+02  0.49840995569E+02  0.00000000000E+00 0.  1.
         14    1    5    5    0    0 -0.53081317966E+02  0.43254080591E+02  0.19409375495E+04  0.19421449773E+04  0.00000000000E+00 0. -1.
         13    1    3    3    0    0 -0.20048522552E+02 -0.84734074808E+01 -0.43456116175E+03  0.43510590112E+03  0.00000000000E+00 0. -1.
        -14    1    3    3    0    0  0.62370870484E+02 -0.90801469243E+00 -0.45994086152E+03  0.46415142580E+03  0.00000000000E+00 0.  1.
          5    1    4    4  501    0  0.46545340874E+02 -0.33838345222E+02 -0.38686039247E+02  0.69466426402E+02  0.41800000000E+01 0. -1.
         -5    1    4    4    0  501 -0.48725587717E+02 -0.68385424366E+00 -0.16471796621E+03  0.17182587509E+03  0.41800000000E+01 0. -1.
</event>
<event>
11    1  0.8551154E-009  0.1642207E+03  0.7561462E-02  0.1083173E+00
         22   -1    0    0    0    0  0.00000000000E+00  0.00000000000E+00  0.13732071598E+04  0.13732071598E+04  0.00000000000E+00 0.  1.
         22   -1    0    0    0    0 -0.00000000000E+00 -0.00000000000E+00 -0.21872067909E+04  0.21872067909E+04  0.00000000000E+00 0. -1.
         24    2    1    2    0    0 -0.99960703582E+02  0.13580845912E+02 -0.21431032576E+04  0.21470057260E+04  0.81027359704E+02 0.  0.
         25    2    1    2    0    0  0.24503239985E+02 -0.95737533076E+02  0.12838598978E+03  0.20469768269E+03  0.12510833273E+03 0.  0.
        -24    2    1    2    0    0  0.75457463597E+02  0.82156687164E+02  0.12007176367E+04  0.12087105421E+04  0.82551689711E+02 0.  0.
        -13    1    3    3    0    0  0.52031283890E+01 -0.65700568049E+01 -0.28847870900E+02  0.30040603305E+02  0.00000000000E+00 0.  1.
         14    1    3    3    0    0 -0.10516383197E+03  0.20150902717E+02 -0.21142553867E+04  0.21169651227E+04  0.00000000000E+00 0. -1.
         13    1    5    5    0    0  0.87696201353E+02  0.43239885135E+02  0.87620580880E+03  0.88164444692E+03  0.00000000000E+00 0. -1.
        -14    1    5    5    0    0 -0.12238737757E+02  0.38916802029E+02  0.32451182785E+03  0.32706609515E+03  0.00000000000E+00 0.  1.
          5    1    4    4  501    0  0.37060211498E+02 -0.81659552321E+02  0.16650899385E+02  0.91304252978E+02  0.41800000000E+01 0.  1.
         -5    1    4    4    0  501 -0.12556971513E+02 -0.14077980754E+02  0.11173509040E+03  0.11339342971E+03  0.41800000000E+01 0.  1.
</event>
<event>
11    1  0.8551154E-009  0.1486144E+03  0.7561462E-02  0.1098303E+00
         22   -1    0    0    0    0  0.00000000000E+00  0.00000000000E+00  0.43943891548E+03  0.43943891548E+03  0.00000000000E+00 0.  1.
         22   -1    0    0    0    0 -0.00000000000E+00 -0.00000000000E+00 -0.34490572319E+03  0.34490572319E+03  0.00000000000E+00 0.  1.
         24    2    1    2    0    0  0.43470213975E+02  0.12479037480E+02 -0.18839605790E+03  0.21053856781E+03  0.82389489775E+02 0.  0.
         25    2    1    2    0    0 -0.10160375592E+03  0.40822762655E+02 -0.86811376338E+02  0.18754631617E+03  0.12509030530E+03 0.  0.
        -24    2    1    2    0    0  0.58133541947E+02 -0.53301800135E+02  0.36974062652E+03  0.38625975469E+03  0.79169922298E+02 0.  0.
        -11    1    3    3    0    0  0.34242099000E+02 -0.50022012638E+01 -0.18758945215E+03  0.19075467469E+03  0.00000000000E+00 0.  1.
         12    1    3    3    0    0  0.92281149745E+01  0.17481238744E+02 -0.80660575091E+00  0.19783893116E+02  0.00000000000E+00 0. -1.
         13    1    5    5    0    0  0.28046639219E+02 -0.35005903694E+02  0.62074394052E+02  0.76584970209E+02  0.00000000000E+00 0. -1.
        -14    1    5    5    0    0  0.30086902728E+02 -0.18295896441E+02  0.30766623247E+03  0.30967478449E+03  0.00000000000E+00 0.  1.
          5    1    4    4  501    0 -0.75088453507E+02 -0.13204128969E+02 -0.99976237037E+02  0.12579882847E+03  0.41800000000E+01 0.  1.
         -5    1    4    4    0  501 -0.26515302415E+02  0.54026891624E+02  0.13164860699E+02  0.61747487705E+02  0.41800000000E+01 0.  1.
</event>
<event>
11    1  0.8551154E-009  0.1800196E+03  0.7561462E-02  0.1069627E+00
         22   -1    0    0    0    0  0.00000000000E+00  0.00000000000E+00  0.16670099473E+04  0.16670099473E+04  0.00000000000E+00 0. -1.
         22   -1    0    0    0    0 -0.00000000000E+00 -0.00000000000E+00 -0.12237169959E+03  0.12237169959E+03  0.00000000000E+00 0.  1.
        -24    2    1    2    0    0 -0.94734588222E+02 -0.69896569001E+02  0.22206290708E+00  0.14283025822E+03  0.80871878836E+02 0.  0.
         25    2    1    2    0    0  0.12661978037E+03  0.10618673738E+03  0.16734433954E+03  0.26638146116E+03  0.12508702130E+03 0.  0.
         24    2    1    2    0    0 -0.31885192146E+02 -0.36290168374E+02  0.13770718453E+04  0.13801699275E+04  0.78794162139E+02 0.  0.
        -13    1    5    5    0    0  0.15344357756E+02  0.15788930867E+02  0.35676208933E+03  0.35744080354E+03  0.00000000000E+00 0.  1.
         14    1    5    5    0    0 -0.47229549902E+02 -0.52079099242E+02  0.10203097559E+04  0.10227291240E+04  0.00000000000E+00 0. -1.
         13    1    3    3    0    0 -0.21026883714E+02  0.88226619608E+00  0.29768193331E+02  0.36456186945E+02  0.00000000000E+00 0. -1.
        -14    1    3    3    0    0 -0.73707704508E+02 -0.70778835197E+02 -0.29546130424E+02  0.10637407127E+03  0.00000000000E+00 0.  1.
          5    1    4    4  501    0  0.39562509429E+01  0.19011123998E+02  0.99136447278E+02  0.10110678680E+03  0.41800000000E+01 0.  1.
         -5    1    4    4    0  501  0.12266352942E+03  0.87175613378E+02  0.68207892265E+02  0.16527467436E+03  0.41800000000E+01 0.  1.
</event>
<event>
11    1  0.8551154E-009  0.1866811E+03  0.7561462E-02  0.1064363E+00
         22   -1    0    0    0    0  0.00000000000E+00  0.00000000000E+00  0.67740787275E+03  0.67740787275E+03  0.00000000000E+00 0.  1.
         22   -1    0    0    0    0 -0.00000000000E+00 -0.00000000000E+00 -0.11817992308E+04  0.11817992308E+04  0.00000000000E+00 0. -1.
        -24    2    1    2    0    0 -0.13635476238E+03 -0.67501785113E+01 -0.10545618685E+04  0.10662776073E+04  0.78797304857E+02 0.  0.
         25    2    1    2    0    0  0.17119150478E+03  0.40333511998E+02 -0.18535132392E+02  0.21662265128E+03  0.12509395835E+03 0.  0.
         24    2    1    2    0    0 -0.34836742398E+02 -0.33583333487E+02  0.56870564277E+03  0.57630684502E+03  0.79762350717E+02 0.  0.
        -13    1    5    5    0    0 -0.29143462225E+02  0.46269635737E+00  0.48345510103E+03  0.48433293321E+03  0.00000000000E+00 0.  1.
         14    1    5    5    0    0 -0.56932801728E+01 -0.34046029844E+02  0.85250541733E+02  0.91973911807E+02  0.00000000000E+00 0. -1.
         13    1    3    3    0    0 -0.14661942701E+03 -0.62312196531E+01 -0.10053184279E+04  0.10159730439E+04  0.00000000000E+00 0. -1.
        -14    1    3    3    0    0  0.10264664627E+02 -0.51895885813E+00 -0.49243440537E+02  0.50304563353E+02  0.00000000000E+00 0.  1.
          5    1    4    4  501    0  0.15402410327E+03  0.15590155637E+02  0.31533616664E+02  0.15804530591E+03  0.41800000000E+01 0.  1.
         -5    1    4    4    0  501  0.17167401511E+02  0.24743356361E+02 -0.50068749055E+02  0.58577345370E+02  0.41800000000E+01 0.  1.
</event>
<event>
11    1  0.8551154E-009  0.1291184E+03  0.7561462E-02  0.1120357E+00
         22   -1    0    0    0    0  0.00000000000E+00  0.00000000000E+00  0.22740342262E+04  0.22740342262E+04  0.00000000000E+00 0. -1.
         22   -1    0    0    0    0 -0.00000000000E+00 -0.00000000000E+00 -0.47739284631E+03  0.47739284631E+03  0.00000000000E+00 0.  1.
        -24    2    1    2    0    0  0.25373781764E+02  0.21528469261E+02 -0.43718222219E+03  0.44589709330E+03  0.81170306307E+02 0.  0.
         25    2    1    2    0    0 -0.64715627123E+01  0.90854383211E+01  0.77808704119E+02  0.14773557632E+03  0.12508868758E+03 0.  0.
         24    2    1    2    0    0 -0.18902219052E+02 -0.30613907582E+02  0.21560148979E+04  0.21577944028E+04  0.79887043004E+02 0.  0.
        -13    1    5    5    0    0  0.39221208502E+00  0.22969114449E+02  0.28918674581E+03  0.29009775594E+03  0.00000000000E+00 0.  1.
         14    1    5    5    0    0 -0.19294431137E+02 -0.53583022031E+02  0.18668281521E+04  0.18676966469E+04  0.00000000000E+00 0. -1.
         13    1    3    3    0    0  0.47032064102E+02  0.52971381238E+01 -0.14645545907E+03  0.15391321002E+03  0.00000000000E+00 0. -1.
        -14    1    3    3    0    0 -0.21658282338E+02  0.16231331137E+02 -0.29072676312E+03  0.29198388328E+03  0.00000000000E+00 0.  1.
          5    1    4    4  501    0  0.34523997713E+02  0.50799063748E+02  0.61169083781E+02  0.86784678984E+02  0.41800000000E+01 0. -1.
         -5    1    4    4    0  501 -0.40995560425E+02 -0.41713625427E+02  0.16639620339E+02  0.60950897334E+02  0.41800000000E+01 0. -1.
</event>
<event>
11    1  0.8551154E-009  0.1818134E+03  0.7561462E-02  0.1068185E+00
         22   -1    0    0    0    0  0.00000000000E+00  0.00000000000E+00  0.20963870657E+04  0.20963870657E+04  0.00000000000E+00 0.  1.
         22   -1    0    0    0    0 -0.00000000000E+00 -0.00000000000E+00 -0.19547686200E+04  0.19547686200E+04  0.00000000000E+00 0. -1.
         24    2    1    2    0    0 -0.11400281912E+03  0.39643949734E+02 -0.17969802440E+04  0.18029628436E+04  0.83478934539E+02 0.  0.
         25    2    1    2    0    0  0.17169784141E+03  0.78685068023E+02 -0.67299784953E+02  0.23632221428E+03  0.12508972473E+03 0.  0.
        -24    2    1    2    0    0 -0.57695022292E+02 -0.11832901776E+03  0.20058984747E+04  0.20118706278E+04  0.81634919697E+02 0.  0.
        -13    1    3    3    0    0 -0.75106024509E+02  0.54456301577E+02 -0.84582485810E+03  0.85089722898E+03  0.00000000000E+00 0.  1.
         14    1    3    3    0    0 -0.38896794607E+02 -0.14812351843E+02 -0.95115538593E+03  0.95206561465E+03  0.00000000000E+00 0. -1.
         11    1    5    5    0    0 -0.47869790541E+02 -0.37722931118E+02  0.48633364792E+03  0.49013768829E+03  0.00000000000E+00 0. -1.
        -12    1    5    5    0    0 -0.98252317510E+01 -0.80606086640E+02  0.15195648268E+04  0.15217329395E+04  0.00000000000E+00 0.  1.
          5    1    4    4  501    0  0.66119286199E+02  0.89608961256E+02 -0.16590319617E+01  0.11145290814E+03  0.41800000000E+01 0. -1.
         -5    1    4    4    0  501  0.10557855521E+03 -0.10923893233E+02 -0.65640752992E+02  0.12486930614E+03  0.41800000000E+01 0. -1.
</event>
<event>
11    1  0.8551154E-009  0.1596547E+03  0.7561462E-02  0.1087403E+00
         22   -1    0    0    0    0  0.00000000000E+00  0.00000000000E+00  0.13480531327E+03  0.13480531327E+03  0.00000000000E+00 0. -1.
         22   -1    0    0    0    0 -0.00000000000E+00 -0.00000000000E+00 -0.82959306751E+03  0.82959306751E+03  0.00000000000E+00 0. -1.
         24    2    1    2    0    0  0.39224934494E+02 -0.15163536330E+02 -0.58527568089E+03  0.59225577955E+03  0.80316607523E+02 0.  0.
         25    2    1    2    0    0 -0.13011338525E+03 -0.51264885186E+01 -0.15866679604E+03  0.24037189057E+03  0.12509084581E+03 0.  0.
        -24    2    1    2    0    0  0.90888450754E+02  0.20290024849E+02  0.49154722692E+02  0.13177071066E+03  0.79214505211E+02 0.  0.
        -11    1    3    3    0    0 -0.19908153935E+02 -0.12085330112E+02 -0.74398308088E+02  0.77958309650E+02  0.00000000000E+00 0.  1.
         12    1    3    3    0    0  0.59133088430E+02 -0.30782062179E+01 -0.51087737280E+03  0.51429746990E+03  0.00000000000E+00 0. -1.
         11    1    5    5    0    0  0.10496608158E+03  0.22206795476E+02  0.47935445410E+02  0.11751096534E+03  0.00000000000E+00 0. -1.
        -12    1    5    5    0    0 -0.14077630831E+02 -0.19167706269E+01  0.12192772816E+01  0.14259745318E+02  0.00000000000E+00 0.  1.
          5    1    4    4  501    0 -0.13871783620E+03 -0.13790288546E+02 -0.80259555354E+02  0.16090953596E+03  0.41800000000E+01 0.  1.
         -5    1    4    4    0  501  0.86044509534E+01  0.86638000270E+01 -0.78407240690E+02  0.79462354608E+02  0.41800000000E+01 0.  1.
</event>
<event>
11    1  0.8551154E-009  0.1576336E+03  0.7561462E-02  0.1089324E+00
         22   -1    0    0    0    0  0.00000000000E+00  0.00000000000E+00  0.94841571011E+03  0.94841571011E+03  0.00000000000E+00 0. -1.
         22   -1    0    0    0    0 -0.00000000000E+00 -0.00000000000E+00 -0.60097200717E+03  0.60097200717E+03  0.00000000000E+00 0.  1.
        -24    2    1    2    0    0  0.95886008601E+02 -0.25317100622E+02 -0.56244778974E+03  0.57655335757E+03  0.78937796485E+02 0.  0.
         25    2    1    2    0    0 -0.28023604688E+02  0.12898436721E+01  0.12119098548E+03  0.17641110194E+03  0.12508651330E+03 0.  0.
         24    2    1    2    0    0 -0.67862403912E+02  0.24027256950E+02  0.78870050720E+03  0.79642325777E+03  0.84017263223E+02 0.  0.
        -13    1    5    5    0    0 -0.32792978537E+02  0.36970843195E+02  0.18254293094E+03  0.18911410398E+03  0.00000000000E+00 0.  1.
         14    1    5    5    0    0 -0.35069425375E+02 -0.12943586246E+02  0.60615757626E+03  0.60730915379E+03  0.00000000000E+00 0. -1.
         11    1    3    3    0    0  0.20421050231E+02 -0.40148127383E+02 -0.13713803832E+03  0.14434587967E+03  0.00000000000E+00 0. -1.
        -12    1    3    3    0    0  0.75464958370E+02  0.14831026761E+02 -0.42530975142E+03  0.43220747790E+03  0.00000000000E+00 0.  1.
          5    1    4    4  501    0 -0.43388507053E+02  0.34365375566E+02  0.63775888451E+01  0.55872064769E+02  0.41800000000E+01 0.  1.
         -5    1    4    4    0  501  0.15364902365E+02 -0.33075531894E+02  0.11481339663E+03  0.12053903717E+03  0.41800000000E+01 0.  1.
</event>
<event>
11    1  0.8551154E-009  0.1389771E+03  0.7561462E-02  0.1108706E+00
         22   -1    0    0    0    0  0.00000000000E+00  0.00000000000E+00  0.29831297078E+04  0.29831297078E+04  0.00000000000E+00 0. -1.
         22   -1    0    0    0    0 -0.00000000000E+00 -0.00000000000E+00 -0.71827445724E+02  0.71827445724E+02  0.00000000000E+00 0.  1.
         24    2    1    2    0    0  0.15784367286E+02 -0.62769526346E+02  0.20979158813E+01  0.10358323985E+03  0.80845078005E+02 0.  0.
         25    2    1    2    0    0  0.12684185245E+02  0.46837352044E+02  0.19974804836E+03  0.24062530022E+03  0.12508647482E+03 0.  0.
        -24    2    1    2    0    0 -0.28468552532E+02  0.15932174302E+02  0.27094562979E+04  0.27107486135E+04  0.77073489603E+02 0.  0.
        -11    1    3    3    0    0 -0.29273185056E+02 -0.14574973584E+02 -0.14157023329E+02  0.35633839645E+02  0.00000000000E+00 0.  1.
         12    1    3    3    0    0  0.45057552342E+02 -0.48194552762E+02  0.16254939211E+02  0.67949400202E+02  0.00000000000E+00 0. -1.
         13    1    5    5    0    0 -0.55427756366E+01  0.14697743806E+02  0.24980320700E+04  0.24980814576E+04  0.00000000000E+00 0. -1.
        -14    1    5    5    0    0 -0.22925776895E+02  0.12344304954E+01  0.21142422783E+03  0.21266715585E+03  0.00000000000E+00 0.  1.
          5    1    4    4  501    0  0.37763415300E+02  0.80867540958E+02  0.11318614653E+03  0.14420197947E+03  0.41800000000E+01 0. -1.
         -5    1    4    4    0  501 -0.25079230055E+02 -0.34030188914E+02  0.86561901824E+02  0.96423320753E+02  0.41800000000E+01 0. -1.
</event>
<event>
11    1  0.8551154E-009  0.1338864E+03  0.7561462E-02  0.1114584E+00
         22   -1    0    0    0    0  0.00000000000E+00  0.00000000000E+00  0.12045953581E+04  0.12045953581E+04  0.00000000000E+00 0.  1.
         22   -1    0    0    0    0 -0.00000000000E+00 -0.00000000000E+00 -0.68090340291E+03  0.68090340291E+03  0.00000000000E+00 0.  1.
        -24    2    1    2    0    0 -0.38791950571E+02 -0.28071699780E+02 -0.65240849588E+03  0.65950913191E+03  0.83801037125E+02 0.  0.
         25    2    1    2    0    0  0.25955286301E+02  0.31093247286E+02  0.16186540686E+03  0.20854037039E+03  0.12509280247E+03 0.  0.
         24    2    1    2    0    0  0.12836664269E+02 -0.30215475063E+01  0.10142350442E+04  0.10174492587E+04  0.79726779915E+02 0.  0.
        -11    1    5    5    0    0 -0.29931284566E+02 -0.77333325850E+01  0.64050034042E+03  0.64124595305E+03  0.00000000000E+00 0.  1.
         12    1    5    5    0    0  0.42767948835E+02  0.47117850787E+01  0.37373470381E+03  0.37620330567E+03  0.00000000000E+00 0. -1.
         11    1    3    3    0    0 -0.21250972633E+02 -0.28200383690E+02 -0.87889006294E+02  0.94717173234E+02  0.00000000000E+00 0. -1.
        -12    1    3    3    0    0 -0.17540977938E+02  0.12868391007E+00 -0.56451948958E+03  0.56479195868E+03  0.00000000000E+00 0.  1.
          5    1    4    4  501    0  0.29537332582E+02  0.72372807556E+02  0.14256066334E+03  0.16263853302E+03  0.41800000000E+01 0. -1.
         -5    1    4    4    0  501 -0.35820462806E+01 -0.41279560270E+02  0.19304743521E+02  0.45901837371E+02  0.41800000000E+01 0. -1.
</event>
<event>
11    1  0.8551154E-009  0.2285741E+03  0.7561462E-02  0.1035976E+00
         22   -1    0    0    0    0  0.00000000000E+00  0.00000000000E+00  0.14845790975E+04  0.14845790975E+04  0.00000000000E+00 0.  1.
         22   -1    0    0    0    0 -0.00000000000E+00 -0.00000000000E+00 -0.42801059791E+03  0.42801059791E+03  0.00000000000E+00 0. -1.
         24    2    1    2    0    0 -0.18985655282E+03 -0.15379224564E+02 -0.37164614951E+03  0.42633066772E+03  0.85760985305E+02 0.  0.
         25    2    1    2    0    0  0.20490164759E+03  0.71760411947E+02  0.60295754761E+03  0.65294676288E+03  0.12508968395E+03 0.  0.
        -24    2    1    2    0    0 -0.15045094776E+02 -0.56381187383E+02  0.82525710148E+03  0.83331226480E+03  0.99774014464E+02 0.  0.
        -13    1    3    3    0    0 -0.26290872798E+02  0.21010507438E+02 -0.27139219274E+02  0.43234114286E+02  0.00000000000E+00 0.  1.
         14    1    3    3    0    0 -0.16356568002E+03 -0.36389732002E+02 -0.34450693023E+03  0.38309655343E+03  0.00000000000E+00 0. -1.
         11    1    5    5    0    0  0.17067577466E+02 -0.49329686992E+02  0.18531857292E+03  0.19252972157E+03  0.00000000000E+00 0. -1.
        -12    1    5    5    0    0 -0.32112672241E+02 -0.70515003906E+01  0.63993852855E+03  0.64078254323E+03  0.00000000000E+00 0.  1.
          5    1    4    4  501    0  0.22054745509E+03  0.72706111475E+02  0.53799325207E+03  0.58598768781E+03  0.41800000000E+01 0.  1.
         -5    1    4    4    0  501 -0.15645807496E+02 -0.94569952842E+00  0.64964295541E+02  0.66959075075E+02  0.41800000000E+01 0.  1.
</event>
<event>
11    1  0.8551154E-009  0.1730428E+03  0.7561462E-02  0.1075414E+00
         22   -1    0    0    0    0  0.00000000000E+00  0.00000000000E+00  0.63484193242E+03  0.63484193242E+03  0.00000000000E+00 0. -1.
         22   -1    0    0    0    0 -0.00000000000E+00 -0.00000000000E+00 -0.36709806218E+03  0.36709806218E+03  0.00000000000E+00 0. -1.
         24    2    1    2    0    0 -0.11493346739E+03 -0.16774039978E+02 -0.29193594003E+03  0.32386558063E+03  0.78557309618E+02 0.  0.
         25    2    1    2    0    0  0.15878313507E+03  0.85469831662E+02  0.18724192175E+03  0.28848614502E+03  0.12509013750E+03 0.  0.
        -24    2    1    2    0    0 -0.43849667682E+02 -0.68695791684E+02  0.37243788852E+03  0.38958826895E+03  0.80169404067E+02 0.  0.
        -13    1    3    3    0    0 -0.52256566545E+02  0.35826617636E+01 -0.47525017344E+02  0.70726313956E+02  0.00000000000E+00 0.  1.
         14    1    3    3    0    0 -0.62676900844E+02 -0.20356701741E+02 -0.24441092268E+03  0.25313926667E+03  0.00000000000E+00 0. -1.
         11    1    5    5    0    0 -0.49807200961E+02 -0.60667148236E+02  0.17384836957E+03  0.19074725620E+03  0.00000000000E+00 0. -1.
        -12    1    5    5    0    0  0.59575332797E+01 -0.80286434478E+01  0.19858951895E+03  0.19884101276E+03  0.00000000000E+00 0.  1.
          5    1    4    4  501    0  0.80649657038E+01  0.54791088347E+02  0.15003014406E+02  0.57529730360E+02  0.41800000000E+01 0.  1.
         -5    1    4    4    0  501  0.15071816937E+03  0.30678743315E+02  0.17223890735E+03  0.23095641466E+03  0.41800000000E+01 0.  1.
</event>
<event>
11    1  0.8551154E-009  0.1268579E+03  0.7561462E-02  0.1123191E+00
         22   -1    0    0    0    0  0.00000000000E+00  0.00000000000E+00  0.60868678009E+03  0.60868678009E+03  0.00000000000E+00 0. -1.
         22   -1    0    0    0    0 -0.00000000000E+00 -0.00000000000E+00 -0.60251221092E+03  0.60251221092E+03  0.00000000000E+00 0. -1.
        -24    2    1    2    0    0  0.53015761468E+01 -0.19250504244E+02 -0.52235459563E+03  0.52932375756E+03  0.83250394121E+02 0.  0.
         25    2    1    2    0    0 -0.14187900559E+02  0.37396422136E+02 -0.15132892204E+02  0.13220132952E+03  0.12509355775E+03 0.  0.
         24    2    1    2    0    0  0.88863244124E+01 -0.18145917892E+02  0.54366205701E+03  0.54967390393E+03  0.78515777618E+02 0.  0.
        -11    1    5    5    0    0  0.24545337391E+02  0.23560483873E+02  0.17045495209E+03  0.17381731985E+03  0.00000000000E+00 0.  1.
         12    1    5    5    0    0 -0.15659012978E+02 -0.41706401764E+02  0.37320710492E+03  0.37585658408E+03  0.00000000000E+00 0. -1.
         11    1    3    3    0    0  0.20780875138E+02 -0.18948355590E+02 -0.50608185744E+03  0.50686263561E+03  0.00000000000E+00 0. -1.
        -12    1    3    3    0    0 -0.15479298991E+02 -0.30214865427E+00 -0.16272738194E+02  0.22461121954E+02  0.00000000000E+00 0.  1.
          5    1    4    4  501    0 -0.43760510387E+02 -0.54267803341E+00 -0.54415567511E+02  0.69955722827E+02  0.41800000000E+01 0.  1.
         -5    1    4    4    0  501  0.29572609828E+02  0.37939100169E+02  0.39282675307E+02  0.62245606696E+02  0.41800000000E+01 0.  1.
</event>
<event>
11    1  0.8551154E-009  0.1588117E+03  0.7561462E-02  0.1088200E+00
         22   -1    0    0    0    0  0.00000000000E+00  0.00000000000E+00  0.49906559923E+03  0.49906559923E+03  0.00000000000E+00 0.  1.
         22   -1    0    0    0    0 -0.00000000000E+00 -0.00000000000E+00 -0.26843359481E+04  0.26843359481E+04  0.00000000000E+00 0.  1.
         24    2    1    2    0    0  0.60428576296E+01 -0.55731858337E+02 -0.74988001493E+03  0.75633900038E+03  0.81154732065E+02 0.  0.
         25    2    1    2    0    0  0.22847819250E+02  0.14898473237E+03 -0.19180596961E+04  0.19280350747E+04  0.12509107857E+03 0.  0.
        -24    2    1    2    0    0 -0.28890676879E+02 -0.93252874035E+02  0.48266936214E+03  0.49902747233E+03  0.80795638903E+02 0.  0.
        -13    1    3    3    0    0 -0.23057533912E+02 -0.39996984689E+02 -0.63805777257E+03  0.63972582392E+03  0.00000000000E+00 0.  1.
         14    1    3    3    0    0  0.29100391541E+02 -0.15734873648E+02 -0.11182224236E+03  0.11661317646E+03  0.00000000000E+00 0. -1.
         13    1    5    5    0    0 -0.54443216030E+02 -0.39909708181E+02  0.26557527977E+03  0.27402021422E+03  0.00000000000E+00 0. -1.
        -14    1    5    5    0    0  0.25552539150E+02 -0.53343165854E+02  0.21709408237E+03  0.22500725811E+03  0.00000000000E+00 0.  1.
          5    1    4    4  501    0 -0.26125172036E+02 -0.20916285467E+01 -0.11654196567E+03  0.11952573650E+03  0.41800000000E+01 0.  1.
         -5    1    4    4    0  501  0.48972991285E+02  0.15107636092E+03 -0.18015177304E+04  0.18085093382E+04  0.41800000000E+01 0.  1.
</event>
<event>
11    1  0.8551154E-009  0.1660525E+03  0.7561462E-02  0.1081519E+00
         22   -1    0    0    0    0  0.00000000000E+00  0.00000000000E+00  0.13462362309E+04  0.13462362309E+04  0.00000000000E+00 0. -1.
         22   -1    0    0    0    0 -0.00000000000E+00 -0.00000000000E+00 -0.29895240207E+03  0.29895240207E+03  0.00000000000E+00 0. -1.
         24    2    1    2    0    0  0.67057867827E+02 -0.86921646982E+02 -0.24236876773E+03  0.27812679746E+03  0.80992379529E+02 0.  0.
         25    2    1    2    0    0 -0.78048539048E+02  0.70024559898E+02  0.14491228436E+03  0.21827458814E+03  0.12509681144E+03 0.  0.
        -24    2    1    2    0    0  0.10990671221E+02  0.16897087084E+02  0.11447403122E+04  0.11487872473E+04  0.94209611723E+02 0.  0.
        -13    1    3    3    0    0  0.24075613207E+02 -0.53586003819E+02 -0.46724685744E+02  0.75061915872E+02  0.00000000000E+00 0.  1.
         14    1    3    3    0    0  0.42982254620E+02 -0.33335643164E+02 -0.19564408198E+03  0.20306488158E+03  0.00000000000E+00 0. -1.
         13    1    5    5    0    0  0.38792184399E+02 -0.24243287076E+02  0.62951752265E+03  0.63117737749E+03  0.00000000000E+00 0. -1.
        -14    1    5    5    0    0 -0.27801513177E+02  0.41140374160E+02  0.51522278951E+03  0.51760986983E+03  0.00000000000E+00 0.  1.
          5    1    4    4  501    0  0.29711383156E+02  0.12430564617E+02  0.56547425772E+01  0.32965644834E+02  0.41800000000E+01 0. -1.
         -5    1    4    4    0  501 -0.10775992220E+03  0.57593995281E+02  0.13925754179E+03  0.18530894331E+03  0.41800000000E+01 0. -1.
</event>
<event>
11    1  0.8551154E-009  0.1600090E+03  0.7561462E-02  0.1087069E+00
         22   -1    0    0    0    0  0.00000000000E+00  0.00000000000E+00  0.22707430380E+04  0.22707430380E+04  0.00000000000E+00 0. -1.
         22   -1    0    0    0    0 -0.00000000000E+00 -0.00000000000E+00 -0.19932256418E+04  0.19932256418E+04  0.00000000000E+00 0. -1.
         24    2    1    2    0    0 -0.44967792196E+02 -0.54758804259E+02 -0.18941815939E+04  0.18971155090E+04  0.78119876248E+02 0.  0.
         25    2    1    2    0    0  0.58471874673E+02 -0.45047540634E+02 -0.40551663398E+02  0.15079622058E+03  0.12508725631E+03 0.  0.
        -24    2    1    2    0    0 -0.13504082477E+02  0.99806344893E+02  0.22122506535E+04  0.22160569502E+04  0.81925488953E+02 0.  0.
        -13    1    3    3    0    0 -0.31154424944E+02 -0.20926838765E+02 -0.27812138162E+03  0.28064218088E+03  0.00000000000E+00 0.  1.
         14    1    3    3    0    0 -0.13813367252E+02 -0.33831965495E+02 -0.16160602123E+04  0.16164733282E+04  0.00000000000E+00 0. -1.
         11    1    5    5    0    0 -0.12228058890E+02  0.93434168041E+02  0.22013515796E+04  0.22033674787E+04  0.00000000000E+00 0. -1.
        -12    1    5    5    0    0 -0.12760235871E+01  0.63721768522E+01  0.10899073849E+02  0.12689471415E+02  0.00000000000E+00 0.  1.
          5    1    4    4  501    0 -0.12320474232E+02 -0.84170065360E+01 -0.65391907395E+02  0.67202782956E+02  0.41800000000E+01 0.  1.
         -5    1    4    4    0  501  0.70792348905E+02 -0.36630534098E+02  0.24840243996E+02  0.83593437622E+02  0.41800000000E+01 0.  1.
</event>
<event>
11    1  0.8551154E-009  0.1471894E+03  0.7561462E-02  0.1099786E+00
         22   -1    0    0    0    0  0.00000000000E+00  0.00000000000E+00  0.72490217014E+03  0.72490217014E+03  0.00000000000E+00 0.  1.
         22   -1    0    0    0    0 -0.00000000000E+00 -0.00000000000E+00 -0.12209106333E+04  0.12209106333E+04  0.00000000000E+00 0.  1.
        -24    2    1    2    0    0 -0.72857856739E+02  0.34413506059E+02 -0.11348694219E+04  0.11404942001E+04  0.79409439643E+02 0.  0.
         25    2    1    2    0    0  0.27623488229E+02  0.66436712776E+01 -0.27641199907E+02  0.13121951555E+03  0.12508928754E+03 0.  0.
         24    2    1    2    0    0  0.45234368510E+02 -0.41057177337E+02  0.66650215868E+03  0.67409908773E+03  0.80328156014E+02 0.  0.
        -13    1    5    5    0    0  0.40414284289E+02 -0.22418484566E+01  0.54401039200E+03  0.54551411243E+03  0.00000000000E+00 0.  1.
         14    1    5    5    0    0  0.48200842211E+01 -0.38815328880E+02  0.12249176668E+03  0.12858497530E+03  0.00000000000E+00 0. -1.
         13    1    3    3    0    0  0.15486035353E+02  0.89219123859E+01 -0.10326714745E+03  0.10480229747E+03  0.00000000000E+00 0. -1.
        -14    1    3    3    0    0 -0.88343892092E+02  0.25491593674E+02 -0.10316022744E+04  0.10356919027E+04  0.00000000000E+00 0.  1.
          5    1    4    4  501    0  0.49367079868E+02  0.21858684123E+02  0.34026070242E+02  0.63954331381E+02  0.41800000000E+01 0.  1.
         -5    1    4    4    0  501 -0.21743591640E+02 -0.15215012845E+02 -0.61667270149E+02  0.67265184166E+02  0.41800000000E+01 0.  1.
</event>
<event>
11    1  0.8551154E-009  0.5946687E+03  0.7561462E-02  0.9203775E-01
         22   -1    0    0    0    0  0.00000000000E+00  0.00000000000E+00  0.15123019335E+04  0.15123019335E+04  0.00000000000E+00 0. -1.
         22   -1    0    0    0    0 -0.00000000000E+00 -0.00000000000E+00 -0.13638102623E+04  0.13638102623E+04  0.00000000000E+00 0. -1.
        -24    2    1    2    0    0  0.43191543229E+03  0.34401341838E+03 -0.87183269966E+03  0.10351356512E+04  0.80730338707E+02 0.  0.
         25    2    1    2    0    0 -0.48029318925E+03 -0.86723762600E+03  0.70393542646E+03  0.12222746255E+04  0.12509007883E+03 0.  0.
         24    2    1    2    0    0  0.48377756957E+02  0.52322420762E+03  0.31638894432E+03  0.61870191909E+03  0.81154924648E+02 0.  0.
        -13    1    5    5    0    0  0.56118800710E+02  0.51500107293E+03  0.29952819517E+03  0.59840835942E+03  0.00000000000E+00 0.  1.
         14    1    5    5    0    0 -0.77410437529E+01  0.82231346825E+01  0.16860749151E+02  0.20293559676E+02  0.00000000000E+00 0. -1.
         11    1    3    3    0    0  0.27040759108E+03  0.16829115195E+03 -0.46950242111E+03  0.56734002200E+03  0.00000000000E+00 0. -1.
        -12    1    3    3    0    0  0.16150784121E+03  0.17572226643E+03 -0.40233027855E+03  0.46779562923E+03  0.00000000000E+00 0.  1.
          5    1    4    4  501    0 -0.87480335039E+02 -0.17003581605E+03  0.79097454667E+02  0.20697552390E+03  0.41800000000E+01 0.  1.
         -5    1    4    4    0  501 -0.39281285421E+03 -0.69720180995E+03  0.62483797179E+03  0.10152991016E+04  0.41800000000E+01 0.  1.
</event>
<event>
11    1  0.8551154E-009  0.2929359E+03  0.7561462E-02  0.1003226E+00
         22   -1    0    0    0    0  0.00000000000E+00  0.00000000000E+00  0.19962445995E+03  0.19962445995E+03  0.00000000000E+00 0. -1.
         22   -1    0    0    0    0 -0.00000000000E+00 -0.00000000000E+00 -0.16219410541E+04  0.16219410541E+04  0.00000000000E+00 0. -1.
         24    2    1    2    0    0  0.62639912335E+01  0.43857905528E+02 -0.87102090731E+03  0.87687276601E+03  0.90915748525E+02 0.  0.
         25    2    1    2    0    0 -0.11514248166E+03  0.20412506933E+03 -0.60122096295E+03  0.65729729113E+03  0.12509295594E+03 0.  0.
        -24    2    1    2    0    0  0.10887849042E+03 -0.24798297486E+03  0.49925276148E+02  0.28739545688E+03  0.82179887677E+02 0.  0.
        -11    1    3    3    0    0  0.11092095096E+02  0.59543741507E+02 -0.32441841782E+03  0.33002394087E+03  0.00000000000E+00 0.  1.
         12    1    3    3    0    0 -0.48281038621E+01 -0.15685835979E+02 -0.54660248949E+03  0.54684882514E+03  0.00000000000E+00 0. -1.
         11    1    5    5    0    0  0.73071509791E+02 -0.22197364121E+03  0.61503992455E+02  0.24164950656E+03  0.00000000000E+00 0. -1.
        -12    1    5    5    0    0  0.35806980631E+02 -0.26009333653E+02 -0.11578716306E+02  0.45745950316E+02  0.00000000000E+00 0.  1.
          5    1    4    4  501    0 -0.13639147813E+03  0.14134622782E+03 -0.40488356437E+03  0.45003284827E+03  0.41800000000E+01 0. -1.
         -5    1    4    4    0  501  0.21248996474E+02  0.62778841512E+02 -0.19633739858E+03  0.20726444286E+03  0.41800000000E+01 0. -1.
</event>
<event>
11    1  0.8551154E-009  0.1583702E+03  0.7561462E-02  0.1088620E+00
         22   -1    0    0    0    0  0.00000000000E+00  0.00000000000E+00  0.38109310530E+03  0.38109310530E+03  0.00000000000E+00 0.  1.
         22   -1    0    0    0    0 -0.00000000000E+00 -0.00000000000E+00 -0.13734856331E+04  0.13734856331E+04  0.00000000000E+00 0. -1.
        -24    2    1    2    0    0 -0.25344350387E+02  0.37977122220E+01 -0.13051642002E+04  0.13078339344E+04  0.79493722297E+02 0.  0.
         25    2    1    2    0    0 -0.49683807200E+02  0.65201633220E+02  0.56537396925E+02  0.15988163704E+03  0.12508367975E+03 0.  0.
         24    2    1    2    0    0  0.75028157588E+02 -0.68999345442E+02  0.25623427540E+03  0.28686316700E+03  0.79021127460E+02 0.  0.
        -13    1    5    5    0    0  0.54282650008E+02 -0.85571142138E+02  0.21691571366E+03  0.23941899108E+03  0.00000000000E+00 0.  1.
         14    1    5    5    0    0  0.20745507580E+02  0.16571796696E+02  0.39318561741E+02  0.47444175911E+02  0.00000000000E+00 0. -1.
         13    1    3    3    0    0 -0.47478507543E+02 -0.92749473608E+01 -0.11003412442E+04  0.11014041433E+04  0.00000000000E+00 0. -1.
        -14    1    3    3    0    0  0.22134157156E+02  0.13072659583E+02 -0.20482295598E+03  0.20642979106E+03  0.00000000000E+00 0.  1.
          5    1    4    4  501    0  0.29811009402E+02  0.62206337700E+02  0.18132839259E+02  0.71446462412E+02  0.41800000000E+01 0.  1.
         -5    1    4    4    0  501 -0.79494816603E+02  0.29952955204E+01  0.38404557666E+02  0.88435174628E+02  0.41800000000E+01 0.  1.
</event>
<event>
11    1  0.8551154E-009  0.1603295E+03  0.7561462E-02  0.1086768E+00
         22   -1    0    0    0    0  0.00000000000E+00  0.00000000000E+00  0.32906590757E+03  0.32906590757E+03  0.00000000000E+00 0.  1.
         22   -1    0    0    0    0 -0.00000000000E+00 -0.00000000000E+00 -0.25329667789E+03  0.25329667789E+03  0.00000000000E+00 0. -1.
        -24    2    1    2    0    0 -0.62312459536E+02  0.18474907362E+02 -0.15784162711E+03  0.18884404415E+03  0.80770842167E+02 0.  0.
         25    2    1    2    0    0 -0.36731760149E+02 -0.71071721040E+02  0.36544025656E+02  0.15291675788E+03  0.12509059634E+03 0.  0.
         24    2    1    2    0    0  0.99044219685E+02  0.52596813678E+02  0.19706683114E+03  0.24060178344E+03  0.80484159904E+02 0.  0.
        -11    1    5    5    0    0  0.82269848182E+02  0.11367261080E+02  0.16809402928E+03  0.18749172041E+03  0.00000000000E+00 0.  1.
         12    1    5    5    0    0  0.16774371502E+02  0.41229552598E+02  0.28972801863E+02  0.53110063025E+02  0.00000000000E+00 0. -1.
         13    1    3    3    0    0 -0.67292386515E+02  0.30469416015E+02 -0.15947699186E+03  0.17575426461E+03  0.00000000000E+00 0. -1.
        -14    1    3    3    0    0  0.49799269797E+01 -0.11994508653E+02  0.16353647455E+01  0.13089779539E+02  0.00000000000E+00 0.  1.
          5    1    4    4  501    0 -0.20083579668E+02  0.26806176366E+02 -0.19346382489E+02  0.38905991557E+02  0.41800000000E+01 0.  1.
         -5    1    4    4    0  501 -0.16648180482E+02 -0.97877897406E+02  0.55890408144E+02  0.11401076632E+03  0.41800000000E+01 0.  1.
</event>
<event>
11    1  0.8551154E-009  0.1522946E+03  0.7561462E-02  0.1094557E+00
         22   -1    0    0    0    0  0.00000000000E+00  0.00000000000E+00  0.10218949546E+04  0.10218949546E+04  0.00000000000E+00 0.  1.
         22   -1    0    0    0    0 -0.00000000000E+00 -0.00000000000E+00 -0.54916843483E+03  0.54916843483E+03  0.00000000000E+00 0. -1.
        -24    2    1    2    0    0  0.42265735711E+02 -0.36128984256E+02 -0.35142276654E+03  0.36477069414E+03  0.80423892833E+02 0.  0.
         25    2    1    2    0    0 -0.12736166741E+03  0.22725463591E+02 -0.14428470697E+03  0.23067301364E+03  0.12511803041E+03 0.  0.
         24    2    1    2    0    0  0.85095931696E+02  0.13403520665E+02  0.96843399327E+03  0.97561968163E+03  0.80922134910E+02 0.  0.
        -11    1    5    5    0    0  0.24648180013E+02 -0.43843145119E+01  0.67649804111E+03  0.67696111751E+03  0.00000000000E+00 0.  1.
         12    1    5    5    0    0  0.60447751683E+02  0.17787835177E+02  0.29193595215E+03  0.29865856412E+03  0.00000000000E+00 0. -1.
         13    1    3    3    0    0  0.55048961050E+02 -0.50648410254E+02 -0.23116349795E+03  0.24296545507E+03  0.00000000000E+00 0. -1.
        -14    1    3    3    0    0 -0.12783225339E+02  0.14519425997E+02 -0.12025926859E+03  0.12180523906E+03  0.00000000000E+00 0.  1.
          5    1    4    4  501    0 -0.13336592755E+03  0.32791350926E+02 -0.15982261889E+03  0.21076642341E+03  0.41800000000E+01 0.  1.
         -5    1    4    4    0  501  0.60042601441E+01 -0.10065887335E+02  0.15537911920E+02  0.19906590229E+02  0.41800000000E+01 0.  1.
</event>
<event>
11    1  0.8551154E-009  0.1557155E+03  0.7561462E-02  0.1091178E+00
         22   -1    0    0    0    0  0.00000000000E+00  0.00000000000E+00  0.85013607096E+03  0.85013607096E+03  0.00000000000E+00 0.  1.
         22   -1    0    0    0    0 -0.00000000000E+00 -0.00000000000E+00 -0.20809301822E+03  0.20809301822E+03  0.00000000000E+00 0.  1.
         24    2    1    2    0    0 -0.80879984088E+02  0.11068224064E+02 -0.84901212822E+02  0.14194660420E+03  0.79224649536E+02 0.  0.
         25    2    1    2    0    0  0.12780333060E+03  0.38515826286E+01 -0.44267273223E+01  0.17892894599E+03  0.12508975098E+03 0.  0.
        -24    2    1    2    0    0 -0.46923346510E+02 -0.14919806693E+02  0.73137099288E+03  0.73735353900E+03  0.79764096919E+02 0.  0.
        -11    1    3    3    0    0 -0.43326304696E+02 -0.33645594454E+02 -0.47839742737E+02  0.72786232832E+02  0.00000000000E+00 0.  1.
         12    1    3    3    0    0 -0.37553679392E+02  0.44713818518E+02 -0.37061470085E+02  0.69160371364E+02  0.00000000000E+00 0. -1.
         13    1    5    5    0    0 -0.11033526875E+02  0.26784225517E+02  0.43188023518E+03  0.43285063358E+03  0.00000000000E+00 0. -1.
        -14    1    5    5    0    0 -0.35889819635E+02 -0.41704032210E+02  0.29949075771E+03  0.30450290542E+03  0.00000000000E+00 0.  1.
          5    1    4    4  501    0  0.46578365417E+02 -0.59293226233E+02 -0.77148887749E+01  0.75909305826E+02  0.41800000000E+01 0.  1.
         -5    1    4    4    0  501  0.81224965180E+02  0.63144808862E+02  0.32881614525E+01  0.10301964017E+03  0.41800000000E+01 0.  1.
</event>
<event>
11    1  0.8551154E-009  0.1335685E+03  0.7561462E-02  0.1114961E+00
         22   -1    0    0    0    0  0.00000000000E+00  0.00000000000E+00  0.18767411801E+04  0.18767411801E+04  0.00000000000E+00 0.  1.
         22   -1    0    0    0    0 -0.00000000000E+00 -0.00000000000E+00 -0.45650777903E+03  0.45650777903E+03  0.00000000000E+00 0. -1.
        -24    2    1    2    0    0  0.28410193058E+02 -0.30822191803E+02 -0.43935931380E+03  0.44836820638E+03  0.78995539719E+02 0.  0.
         25    2    1    2    0    0 -0.71348253970E+02  0.20010066526E+02  0.46229686661E+03  0.48462082378E+03  0.12509186166E+03 0.  0.
         24    2    1    2    0    0  0.42938060912E+02  0.10812125277E+02  0.13972958483E+04  0.14002599290E+04  0.79571364254E+02 0.  0.
        -13    1    5    5    0    0  0.31713847334E+02  0.42704925851E+02  0.63878183994E+03  0.64099275958E+03  0.00000000000E+00 0.  1.
         14    1    5    5    0    0  0.11224213578E+02 -0.31892800574E+02  0.75851400833E+03  0.75926716940E+03  0.00000000000E+00 0. -1.
         13    1    3    3    0    0  0.47922948589E+02  0.97815064130E+00 -0.31185881865E+03  0.31552097957E+03  0.00000000000E+00 0. -1.
        -14    1    3    3    0    0 -0.19512755531E+02 -0.31800342444E+02 -0.12750049514E+03  0.13284722681E+03  0.00000000000E+00 0.  1.
          5    1    4    4  501    0 -0.28040157711E+01 -0.34546133116E+02  0.39040165441E+02  0.52372748022E+02  0.41800000000E+01 0. -1.
         -5    1    4    4    0  501 -0.68544238198E+02  0.54556199642E+02  0.42325670117E+03  0.43224807576E+03  0.41800000000E+01 0. -1.
</event>
<event>
11    1  0.8551154E-009  0.3842976E+03  0.7561462E-02  0.9697259E-01
         22   -1    0    0    0    0  0.00000000000E+00  0.00000000000E+00  0.80390349258E+03  0.80390349258E+03  0.00000000000E+00 0. -1.
         22   -1    0    0    0    0 -0.00000000000E+00 -0.00000000000E+00 -0.30981117453E+03  0.30981117453E+03  0.00000000000E+00 0. -1.
         24    2    1    2    0    0 -0.34148624768E+02 -0.21401144574E+02 -0.23340072655E+02  0.89835102305E+02  0.76820889425E+02 0.  0.
         25    2    1    2    0    0  0.30512274879E+03  0.24909051217E+03  0.27427729708E+02  0.41418055061E+03  0.12508906052E+03 0.  0.
        -24    2    1    2    0    0 -0.27097412402E+03 -0.22768936759E+03  0.49000466100E+03  0.60969901420E+03  0.79742686910E+02 0.  0.
        -11    1    3    3    0    0 -0.57410773007E+02 -0.78258381446E+01 -0.70768238838E+01  0.58372271124E+02  0.00000000000E+00 0.  1.
         12    1    3    3    0    0  0.23262148239E+02 -0.13575306429E+02 -0.16263248771E+02  0.31462831181E+02  0.00000000000E+00 0. -1.
         13    1    5    5    0    0 -0.22930132346E+03 -0.15383368639E+03  0.34718474194E+03  0.44360020857E+03  0.00000000000E+00 0. -1.
        -14    1    5    5    0    0 -0.41672800567E+02 -0.73855681204E+02  0.14281991906E+03  0.16609880563E+03  0.00000000000E+00 0.  1.
          5    1    4    4  501    0  0.24312147614E+03  0.16583243170E+03 -0.29356037794E+02  0.29578319242E+03  0.41800000000E+01 0. -1.
         -5    1    4    4    0  501  0.62001272649E+02  0.83258080468E+02  0.56783767502E+02  0.11839735818E+03  0.41800000000E+01 0. -1.
</event>
<event>
11    1  0.8551154E-009  0.1361839E+03  0.7561462E-02  0.1111896E+00
         22   -1    0    0    0    0  0.00000000000E+00  0.00000000000E+00  0.16509012417E+03  0.16509012417E+03  0.00000000000E+00 0. -1.
         22   -1    0    0    0    0 -0.00000000000E+00 -0.00000000000E+00 -0.17140971747E+04  0.17140971747E+04  0.00000000000E+00 0.  1.
         24    2    1    2    0    0 -0.25580777094E+01 -0.53500668782E+02 -0.15891011647E+04  0.15920512110E+04  0.80719770907E+02 0.  0.
         25    2    1    2    0    0  0.50118939996E+01  0.62531953269E+02 -0.58600527328E+02  0.15171171144E+03  0.12508819818E+03 0.  0.
        -24    2    1    2    0    0 -0.24538162902E+01 -0.90312844875E+01  0.98694641558E+02  0.13542437638E+03  0.92258030177E+02 0.  0.
        -11    1    3    3    0    0 -0.25167007942E+02 -0.62355348610E+02 -0.13612809792E+04  0.13629407441E+04  0.00000000000E+00 0.  1.
         12    1    3    3    0    0  0.22608930233E+02  0.88546798284E+01 -0.22782018556E+03  0.22911046687E+03  0.00000000000E+00 0. -1.
         13    1    5    5    0    0  0.28358626587E+01 -0.22221782573E+02  0.11303581142E+03  0.11523430219E+03  0.00000000000E+00 0. -1.
        -14    1    5    5    0    0 -0.52896789489E+01  0.13190498086E+02 -0.14341169858E+02  0.20190074196E+02  0.00000000000E+00 0.  1.
          5    1    4    4  501    0  0.27838102018E+02 -0.31085415006E+02 -0.76453029278E+01  0.42628464750E+02  0.41800000000E+01 0.  1.
         -5    1    4    4    0  501 -0.22826208019E+02  0.93617368275E+02 -0.50955224400E+02  0.10908324669E+03  0.41800000000E+01 0.  1.
</event>
<event>
11    1  0.8551154E-009  0.2452031E+03  0.7561462E-02  0.1026486E+00
         22   -1    0    0    0    0  0.00000000000E+00  0.00000000000E+00  0.82394634878E+03  0.82394634878E+03  0.00000000000E+00 0. -1.
         22   -1    0    0    0    0 -0.00000000000E+00 -0.00000000000E+00 -0.67745285348E+03  0.67745285348E+03  0.00000000000E+00 0.  1.
        -24    2    1    2    0    0 -0.23039171219E+03 -0.44088764275E+02 -0.60817670324E+03  0.65701583789E+03  0.82260249743E+02 0.  0.
         25    2    1    2    0    0  0.97650171123E+02 -0.14317982777E+02  0.15487864077E+03  0.22220809284E+03  0.12509389516E+03 0.  0.
         24    2    1    2    0    0  0.13274154107E+03  0.58406747052E+02  0.59979155778E+03  0.62217527154E+03  0.79501515122E+02 0.  0.
        -13    1    5    5    0    0  0.21042642589E+02 -0.19905583259E+02  0.10377448183E+03  0.10774120907E+03  0.00000000000E+00 0.  1.
         14    1    5    5    0    0  0.11169889848E+03  0.78312330311E+02  0.49601707594E+03  0.51443406247E+03  0.00000000000E+00 0. -1.
         11    1    3    3    0    0 -0.95999731552E+02 -0.21616429312E+02 -0.15326167940E+03  0.18213281101E+03  0.00000000000E+00 0. -1.
        -12    1    3    3    0    0 -0.13439198064E+03 -0.22472334963E+02 -0.45491502384E+03  0.47488302687E+03  0.00000000000E+00 0.  1.
          5    1    4    4  501    0  0.57926695974E+02 -0.67064977398E+02  0.62257388346E+02  0.10838204696E+03  0.41800000000E+01 0. -1.
         -5    1    4    4    0  501  0.39723475149E+02  0.52746994621E+02  0.92621252422E+02  0.11382604588E+03  0.41800000000E+01 0. -1.
</event>
<event>
11    1  0.8551154E-009  0.1457271E+03  0.7561462E-02  0.1101327E+00
         22   -1    0    0    0    0  0.00000000000E+00  0.00000000000E+00  0.20529159193E+03  0.20529159193E+03  0.00000000000E+00 0. -1.
         22   -1    0    0    0    0 -0.00000000000E+00 -0.00000000000E+00 -0.14266257529E+04  0.14266257529E+04  0.00000000000E+00 0.  1.
         24    2    1    2    0    0 -0.29857559142E+02  0.67557384024E+02 -0.11861191561E+04  0.11911789991E+04  0.81075776923E+02 0.  0.
         25    2    1    2    0    0  0.67612592153E+02 -0.61267248906E+02 -0.19924733293E+03  0.25233354775E+03  0.12509029232E+03 0.  0.
        -24    2    1    2    0    0 -0.37755033012E+02 -0.62901351186E+01  0.16403232809E+03  0.18840479789E+03  0.84408263186E+02 0.  0.
        -13    1    3    3    0    0 -0.16071807900E+02  0.25998076477E+02 -0.97924181434E+03  0.97971870143E+03  0.00000000000E+00 0.  1.
         14    1    3    3    0    0 -0.13785751242E+02  0.41559307547E+02 -0.20687734175E+03  0.21146029772E+03  0.00000000000E+00 0. -1.
         11    1    5    5    0    0  0.12079859399E+02  0.37989432514E+01  0.12137836561E+03  0.12203713620E+03  0.00000000000E+00 0. -1.
        -12    1    5    5    0    0 -0.49834892410E+02 -0.10089078370E+02  0.42653962472E+02  0.66367661692E+02  0.00000000000E+00 0.  1.
          5    1    4    4  501    0  0.59390353757E+02  0.32811169216E+01 -0.17132063469E+03  0.18140069492E+03  0.41800000000E+01 0. -1.
         -5    1    4    4    0  501  0.82222383958E+01 -0.64548365827E+02 -0.27926698243E+02  0.70932852825E+02  0.41800000000E+01 0. -1.
</event>
<event>
11    1  0.8551154E-009  0.1407996E+03  0.7561462E-02  0.1106669E+00
         22   -1    0    0    0    0  0.00000000000E+00  0.00000000000E+00  0.54491855144E+03  0.54491855144E+03  0.00000000000E+00 0. -1.
         22   -1    0    0    0    0 -0.00000000000E+00 -0.00000000000E+00 -0.45541938169E+03  0.45541938169E+03  0.00000000000E+00 0.  1.
        -24    2    1    2    0    0 -0.43262112150E+02  0.21409512588E+02 -0.37867976985E+03  0.38998460474E+03  0.79747390354E+02 0.  0.
         25    2    1    2    0    0  0.29568016666E+01  0.32937008726E+02 -0.26675049775E+01  0.12941470163E+03  0.12508980852E+03 0.  0.
         24    2    1    2    0    0  0.40305310483E+02 -0.54346521314E+02  0.47084644457E+03  0.48093862675E+03  0.70905048527E+02 0.  0.
        -13    1    5    5    0    0 -0.16715031237E+02  0.10093790862E+01  0.12267759242E+03  0.12381519615E+03  0.00000000000E+00 0.  1.
         14    1    5    5    0    0  0.57020341720E+02 -0.55355900400E+02  0.34816885214E+03  0.35712343060E+03  0.00000000000E+00 0. -1.
         11    1    3    3    0    0 -0.11871362797E+02 -0.30338504493E+02 -0.12340778904E+03  0.12763556129E+03  0.00000000000E+00 0. -1.
        -12    1    3    3    0    0 -0.31390749353E+02  0.51748017081E+02 -0.25527198081E+03  0.26234904346E+03  0.00000000000E+00 0.  1.
          5    1    4    4  501    0  0.60218295551E+01 -0.31994747870E+02  0.39850374653E+02  0.51628006764E+02  0.41800000000E+01 0.  1.
         -5    1    4    4    0  501 -0.30650278884E+01  0.64931756596E+02 -0.42517879630E+02  0.77786694870E+02  0.41800000000E+01 0.  1.
</event>
<event>
11    1  0.8551154E-009  0.2144130E+03  0.7561462E-02  0.1044775E+00
         22   -1    0    0    0    0  0.00000000000E+00  0.00000000000E+00  0.22245265329E+04  0.22245265329E+04  0.00000000000E+00 0.  1.
         22   -1    0    0    0    0 -0.00000000000E+00 -0.00000000000E+00 -0.14327709678E+03  0.14327709678E+03  0.00000000000E+00 0.  1.
        -24    2    1    2    0    0  0.58363819922E+02 -0.16571620363E+03 -0.27637416749E+02  0.19495460601E+03  0.79845325351E+02 0.  0.
         25    2    1    2    0    0 -0.76799665111E+02  0.15030474053E+03  0.32408917855E+03  0.38622633322E+03  0.12508909319E+03 0.  0.
         24    2    1    2    0    0  0.18435845190E+02  0.15411463101E+02  0.17847976743E+04  0.17866226905E+04  0.77074679120E+02 0.  0.
        -13    1    5    5    0    0  0.22472209508E+02  0.39071055649E+02  0.64526586083E+03  0.64683813952E+03  0.00000000000E+00 0.  1.
         14    1    5    5    0    0 -0.40363643186E+01 -0.23659592548E+02  0.11395318135E+04  0.11397845509E+04  0.00000000000E+00 0. -1.
         13    1    3    3    0    0 -0.29895803027E+01 -0.14866411400E+02 -0.28296928408E+02  0.32103955140E+02  0.00000000000E+00 0. -1.
        -14    1    3    3    0    0  0.61353400224E+02 -0.15084979223E+03  0.65951165883E+00  0.16285065087E+03  0.00000000000E+00 0.  1.
          5    1    4    4  501    0 -0.90400638601E+02  0.10690232933E+03  0.14578971557E+03  0.20216947604E+03  0.41800000000E+01 0.  1.
         -5    1    4    4    0  501  0.13600973490E+02  0.43402411196E+02  0.17829946298E+03  0.18405685718E+03  0.41800000000E+01 0.  1.
</event>
<event>
11    1  0.8551154E-009  0.1335441E+03  0.7561462E-02  0.1114989E+00
         22   -1    0    0    0    0  0.00000000000E+00  0.00000000000E+00  0.12015151315E+04  0.12015151315E+04  0.00000000000E+00 0.  1.
         22   -1    0    0    0    0 -0.00000000000E+00 -0.00000000000E+00 -0.54709769828E+03  0.54709769828E+03  0.00000000000E+00 0. -1.
        -24    2    1    2    0    0  0.44899959122E+02 -0.12958917575E+02 -0.48216169560E+03  0.49116330662E+03  0.81102115812E+02 0.  0.
         25    2    1    2    0    0 -0.39185331647E+02  0.34018740376E+02  0.19020410446E+02  0.13675318298E+03  0.12508753786E+03 0.  0.
         24    2    1    2    0    0 -0.57146274744E+01 -0.21059822801E+02  0.11175587183E+04  0.11206963402E+04  0.80911215552E+02 0.  0.
        -11    1    5    5    0    0  0.31256159571E+01 -0.46386011356E+02  0.93733363069E+03  0.93848589054E+03  0.00000000000E+00 0.  1.
         12    1    5    5    0    0 -0.88402434315E+01  0.25326188555E+02  0.18022508764E+03  0.18221044961E+03  0.00000000000E+00 0. -1.
         13    1    3    3    0    0  0.45372097553E+02  0.75647011408E+01 -0.45394111713E+03  0.45626570084E+03  0.00000000000E+00 0. -1.
        -14    1    3    3    0    0 -0.47213843197E+00 -0.20523618716E+02 -0.28220578466E+02  0.34897605775E+02  0.00000000000E+00 0.  1.
          5    1    4    4  501    0 -0.64054538672E+02 -0.24506742895E+01 -0.29791428530E+02  0.70809542739E+02  0.41800000000E+01 0.  1.
         -5    1    4    4    0  501  0.24869207025E+02  0.36469414666E+02  0.48811838976E+02  0.65943640242E+02  0.41800000000E+01 0.  1.
</event>
<event>
11    1  0.8551154E-009  0.1694461E+03  0.7561462E-02  0.1078515E+00
         22   -1    0    0    0    0  0.00000000000E+00  0.00000000000E+00  0.40835957355E+03  0.40835957355E+03  0.00000000000E+00 0.  1.
         22   -1    0    0    0    0 -0.00000000000E+00 -0.00000000000E+00 -0.16375954775E+04  0.16375954775E+04  0.00000000000E+00 0.  1.
        -24    2    1    2    0    0  0.19394019676E+02 -0.11116974730E+03 -0.10194580015E+04  0.10283905891E+04  0.74550292718E+02 0.  0.
         25    2    1    2    0    0 -0.54283584482E+02  0.10928126583E+03 -0.59620958700E+03  0.62129123080E+03  0.12509124362E+03 0.  0.
         24    2    1    2    0    0  0.34889564806E+02  0.18884814606E+01  0.38643168460E+03  0.39627323114E+03  0.80511979006E+02 0.  0.
        -13    1    5    5    0    0 -0.10995845147E+02 -0.21903586522E+02  0.23477154018E+03  0.23604735074E+03  0.00000000000E+00 0.  1.
         14    1    5    5    0    0  0.45885409953E+02  0.23792067983E+02  0.15166014442E+03  0.16022588040E+03  0.00000000000E+00 0. -1.
         11    1    3    3    0    0 -0.26905292736E+02 -0.52534726538E+02 -0.37502362404E+03  0.37963997532E+03  0.00000000000E+00 0. -1.
        -12    1    3    3    0    0  0.46299312413E+02 -0.58635020757E+02 -0.64443437748E+03  0.64875061377E+03  0.00000000000E+00 0.  1.
          5    1    4    4  501    0 -0.25753524649E+02 -0.21321973331E+02 -0.20742501746E+03  0.21014395267E+03  0.41800000000E+01 0. -1.
         -5    1    4    4    0  501 -0.28530059833E+02  0.13060323917E+03 -0.38878456955E+03  0.41114727813E+03  0.41800000000E+01 0. -1.
</event>
<event>
11    1  0.8551154E-009  0.1320338E+03  0.7561462E-02  0.1116795E+00
         22   -1    0    0    0    0  0.00000000000E+00  0.00000000000E+00  0.24094253676E+04  0.24094253676E+04  0.00000000000E+00 0. -1.
         22   -1    0    0    0    0 -0.00000000000E+00 -0.00000000000E+00 -0.14695440403E+03  0.14695440403E+03  0.00000000000E+00 0.  1.
         24    2    1    2    0    0 -0.67155065453E+02  0.59027818172E+01 -0.11643485776E+03  0.15636093349E+03  0.79668185425E+02 0.  0.
         25    2    1    2    0    0  0.97386788274E+02  0.30104288116E+01  0.70699813901E+03  0.72455842284E+03  0.12508113498E+03 0.  0.
        -24    2    1    2    0    0 -0.30231722821E+02 -0.89132106289E+01  0.16719076824E+04  0.16754604153E+04  0.10439780957E+03 0.  0.
        -11    1    3    3    0    0 -0.51266634628E+02  0.26566469244E+02 -0.28014048210E+02  0.64178127203E+02  0.00000000000E+00 0.  1.
         12    1    3    3    0    0 -0.15888430825E+02 -0.20663687426E+02 -0.88420809553E+02  0.92182806282E+02  0.00000000000E+00 0. -1.
         11    1    5    5    0    0 -0.44840693301E+02 -0.20079725761E+02  0.16130330587E+04  0.16137811288E+04  0.00000000000E+00 0. -1.
        -12    1    5    5    0    0  0.14608970480E+02  0.11166515132E+02  0.58874623663E+02  0.61679286556E+02  0.00000000000E+00 0.  1.
          5    1    4    4  501    0  0.11014428721E+03  0.21935295601E+02  0.36827227016E+03  0.38503877541E+03  0.41800000000E+01 0. -1.
         -5    1    4    4    0  501 -0.12757498939E+02 -0.18924866789E+02  0.33872586885E+03  0.33951964743E+03  0.41800000000E+01 0. -1.
</event>
<event>
11    1  0.8551154E-009  0.1438017E+03  0.7561462E-02  0.1103386E+00
         22   -1    0    0    0    0  0.00000000000E+00  0.00000000000E+00  0.69769667164E+03  0.69769667164E+03  0.00000000000E+00 0.  1.
         22   -1    0    0    0    0 -0.00000000000E+00 -0.00000000000E+00 -0.78780732701E+03  0.78780732701E+03  0.00000000000E+00 0. -1.
         24    2    1    2    0    0 -0.53427147975E+02  0.45621486615E+02 -0.62562488322E+03  0.63488206523E+03  0.82054628562E+02 0.  0.
         25    2    1    2    0    0  0.69654601761E+02 -0.35202188398E+02 -0.11978692070E+03  0.18996494327E+03  0.12508723231E+03 0.  0.
        -24    2    1    2    0    0 -0.16227453786E+02 -0.10419298217E+02  0.65530114855E+03  0.66065699016E+03  0.81707841284E+02 0.  0.
        -13    1    3    3    0    0 -0.12504342227E+02  0.78786364543E+01 -0.12852881842E+02  0.19586425364E+02  0.00000000000E+00 0.  1.
         14    1    3    3    0    0 -0.40922805749E+02  0.37742850161E+02 -0.61277200138E+03  0.61529563987E+03  0.00000000000E+00 0. -1.
         11    1    5    5    0    0 -0.22816016755E+02  0.25414008428E+02  0.14140875513E+03  0.14547466608E+03  0.00000000000E+00 0. -1.
        -12    1    5    5    0    0  0.65885629689E+01 -0.35833306646E+02  0.51389239342E+03  0.51518232408E+03  0.00000000000E+00 0.  1.
          5    1    4    4  501    0 -0.76385305722E+01 -0.46836464403E+02 -0.92971174459E+00  0.47648067233E+02  0.41800000000E+01 0. -1.
         -5    1    4    4    0  501  0.77293132333E+02  0.11634276005E+02 -0.11885720895E+03  0.14231687604E+03  0.41800000000E+01 0. -1.
</event>
<event>
11    1  0.8551154E-009  0.1581334E+03  0.7561462E-02  0.1088846E+00
         22   -1    0    0    0    0  0.00000000000E+00  0.00000000000E+00  0.32463323356E+04  0.32463323356E+04  0.00000000000E+00 0. -1.
         22   -1    0    0    0    0 -0.00000000000E+00 -0.00000000000E+00 -0.14204673794E+04  0.14204673794E+04  0.00000000000E+00 0.  1.
        -24    2    1    2    0    0 -0.76663942133E+02  0.61734957838E+02 -0.13392728650E+04  0.13453402572E+04  0.81240603903E+02 0.  0.
         25    2    1    2    0    0  0.56780610762E+02 -0.27631892073E+02 -0.14240212346E+02  0.14084277846E+03  0.12508535238E+03 0.  0.
         24    2    1    2    0    0  0.19883331370E+02 -0.34103065765E+02  0.31793780336E+04  0.31806166792E+04  0.79494741375E+02 0.  0.
        -13    1    5    5    0    0  0.52466431265E+00 -0.34248800049E+02  0.50137629427E+03  0.50254496718E+03  0.00000000000E+00 0.  1.
         14    1    5    5    0    0  0.19358667058E+02  0.14573428412E+00  0.26780017393E+04  0.26780717121E+04  0.00000000000E+00 0. -1.
         11    1    3    3    0    0  0.56620974826E+01 -0.57348337015E+01 -0.17254304975E+02  0.19043600124E+02  0.00000000000E+00 0. -1.
        -12    1    3    3    0    0 -0.82326039615E+02  0.67469791539E+02 -0.13220185600E+04  0.13262966571E+04  0.00000000000E+00 0.  1.
          5    1    4    4  501    0  0.81874293271E+02  0.83425806133E+01 -0.38045049302E+02  0.90762859839E+02  0.41800000000E+01 0. -1.
         -5    1    4    4    0  501 -0.25093682508E+02 -0.35974472686E+02  0.23804836956E+02  0.50079918624E+02  0.41800000000E+01 0. -1.
</event>
<event>
11    1  0.8551154E-009  0.1313745E+03  0.7561462E-02  0.1117592E+00
         22   -1    0    0    0    0  0.00000000000E+00  0.00000000000E+00  0.29551136787E+03  0.29551136787E+03  0.00000000000E+00 0. -1.
         22   -1    0    0    0    0 -0.00000000000E+00 -0.00000000000E+00 -0.18714878205E+04  0.18714878205E+04  0.00000000000E+00 0. -1.
        -24    2    1    2    0    0 -0.15952971682E+02  0.36599405440E+02 -0.17978349853E+04  0.18000095220E+04  0.78928013427E+02 0.  0.
         25    2    1    2    0    0  0.45507706137E+02 -0.40365997532E+02  0.99122869435E+01  0.13944960809E+03  0.12509026617E+03 0.  0.
         24    2    1    2    0    0 -0.29554734455E+02  0.37665920925E+01  0.21194624567E+03  0.22754005828E+03  0.77237280677E+02 0.  0.
        -13    1    5    5    0    0  0.11221171837E+02  0.19509860237E+02  0.15026846247E+03  0.15194459568E+03  0.00000000000E+00 0.  1.
         14    1    5    5    0    0 -0.40775906292E+02 -0.15743268145E+02  0.61677783199E+02  0.75595462603E+02  0.00000000000E+00 0. -1.
         11    1    3    3    0    0  0.70004534641E+01  0.23975189690E+02 -0.16257714014E+04  0.16259632424E+04  0.00000000000E+00 0. -1.
        -12    1    3    3    0    0 -0.22953425146E+02  0.12624215750E+02 -0.17206358385E+03  0.17404627958E+03  0.00000000000E+00 0.  1.
          5    1    4    4  501    0  0.24223066521E+02  0.55953049142E+00  0.63810280394E+02  0.68383435934E+02  0.41800000000E+01 0. -1.
         -5    1    4    4    0  501  0.21284639616E+02 -0.40925528024E+02 -0.53897993451E+02  0.71066172161E+02  0.41800000000E+01 0. -1.
</event>
<event>
11    1  0.8551154E-009  0.1441648E+03  0.7561462E-02  0.1102995E+00
         22   -1    0    0    0    0  0.00000000000E+00  0.00000000000E+00  0.57462284559E+02  0.57462284559E+02  0.00000000000E+00 0.  1.
         22   -1    0    0    0    0 -0.00000000000E+00 -0.00000000000E+00 -0.14305301642E+04  0.14305301642E+04  0.00000000000E+00 0.  1.
        -24    2    1    2    0    0  0.69945975594E+02  0.20230706493E+02 -0.10961470342E+04  0.11013811285E+04  0.78742292607E+02 0.  0.
         25    2    1    2    0    0 -0.60710378931E+02 -0.21219692832E+02 -0.27620398711E+03  0.30995637727E+03  0.12509311670E+03 0.  0.
         24    2    1    2    0    0 -0.92355966631E+01  0.98898633968E+00 -0.71685837920E+00  0.76654943030E+02  0.76086740404E+02 0.  0.
        -11    1    5    5    0    0 -0.32153845424E+02  0.13478914674E+02  0.22688463969E+02  0.41597082994E+02  0.00000000000E+00 0.  1.
         12    1    5    5    0    0  0.22918248761E+02 -0.12489928335E+02 -0.23405322348E+02  0.35057860036E+02  0.00000000000E+00 0. -1.
         13    1    3    3    0    0  0.44589794570E+01 -0.10005996256E+02 -0.19868908427E+02  0.22688675170E+02  0.00000000000E+00 0. -1.
        -14    1    3    3    0    0  0.65486996137E+02  0.30236702749E+02 -0.10762781257E+04  0.10786924533E+04  0.00000000000E+00 0.  1.
          5    1    4    4  501    0 -0.54942874664E+02 -0.49177810271E+02 -0.70046290834E+02  0.10178964465E+03  0.41800000000E+01 0. -1.
         -5    1    4    4    0  501 -0.57675042670E+01  0.27958117438E+02 -0.20615769627E+03  0.20816673262E+03  0.41800000000E+01 0. -1.
</event>
<event>
11    1  0.8551154E-009  0.1348398E+03  0.7561462E-02  0.1113461E+00
         22   -1    0    0    0    0  0.00000000000E+00  0.00000000000E+00  0.18598382270E+03  0.18598382270E+03  0.00000000000E+00 0. -1.
         22   -1    0    0    0    0 -0.00000000000E+00 -0.00000000000E+00 -0.58263776859E+03  0.58263776859E+03  0.00000000000E+00 0. -1.
        -24    2    1    2    0    0  0.21931727596E+02 -0.24143777319E+02 -0.30778655658E+03  0.31941222378E+03  0.78915661503E+02 0.  0.
         25    2    1    2    0    0 -0.65147917838E+02 -0.90930221633E+00 -0.23538671186E+03  0.27440750344E+03  0.12508995081E+03 0.  0.
         24    2    1    2    0    0  0.43216190241E+02  0.25053079535E+02  0.14651932255E+03  0.17480186407E+03  0.81194112531E+02 0.  0.
        -13    1    5    5    0    0 -0.12209311591E+02 -0.14750794206E+02  0.87358762396E+01  0.21046822870E+02  0.00000000000E+00 0.  1.
         14    1    5    5    0    0  0.55425501833E+02  0.39803873741E+02  0.13778344631E+03  0.15375504120E+03  0.00000000000E+00 0. -1.
         13    1    3    3    0    0  0.38107402763E+02 -0.10903193333E+02 -0.28771486500E+03  0.29043225942E+03  0.00000000000E+00 0. -1.
        -14    1    3    3    0    0 -0.16175675166E+02 -0.13240583986E+02 -0.20071691577E+02  0.28979964357E+02  0.00000000000E+00 0.  1.
          5    1    4    4  501    0 -0.80767433717E+02  0.14230771007E+01 -0.66450022540E+02  0.10468276550E+03  0.41800000000E+01 0. -1.
         -5    1    4    4    0  501  0.15619515879E+02 -0.23323793170E+01 -0.16893668932E+03  0.16972473794E+03  0.41800000000E+01 0. -1.
</event>
<event>
11    1  0.8551154E-009  0.1688304E+03  0.7561462E-02  0.1079054E+00
         22   -1    0    0    0    0  0.00000000000E+00  0.00000000000E+00  0.11776457332E+03  0.11776457332E+03  0.00000000000E+00 0.  1.
         22   -1    0    0    0    0 -0.00000000000E+00 -0.00000000000E+00 -0.53294609336E+03  0.53294609336E+03  0.00000000000E+00 0. -1.
        -24    2    1    2    0    0 -0.67442667170E+02 -0.95076785927E+02 -0.38036814746E+03  0.40561988009E+03  0.79116691957E+02 0.  0.
         25    2    1    2    0    0  0.43637012629E+02  0.83019144392E+02  0.49659815744E+01  0.15642326705E+03  0.12508880964E+03 0.  0.
         24    2    1    2    0    0  0.23805654541E+02  0.12057641536E+02 -0.39779354151E+02  0.88667519527E+02  0.74615253768E+02 0.  0.
        -13    1    5    5    0    0 -0.26287221734E+02  0.17438063483E+01 -0.49908553269E+01  0.26813569773E+02  0.00000000000E+00 0.  1.
         14    1    5    5    0    0  0.50092876275E+02  0.10313835187E+02 -0.34788498824E+02  0.61853949754E+02  0.00000000000E+00 0. -1.
         13    1    3    3    0    0 -0.85296082997E+02 -0.71741582672E+02 -0.30508979030E+03  0.32481080124E+03  0.00000000000E+00 0. -1.
        -14    1    3    3    0    0  0.17853415827E+02 -0.23335203255E+02 -0.75278357164E+02  0.80809078852E+02  0.00000000000E+00 0.  1.
          5    1    4    4  501    0  0.67530679721E+02  0.54673753302E+00 -0.12219700790E+02  0.68756709584E+02  0.41800000000E+01 0.  1.
         -5    1    4    4    0  501 -0.23893667092E+02  0.82472406859E+02  0.17185682365E+02  0.87666557469E+02  0.41800000000E+01 0.  1.
</event>
<event>
11    1  0.8551154E-009  0.2500800E+03  0.7561462E-02  0.1023857E+00
         22   -1    0    0    0    0  0.00000000000E+00  0.00000000000E+00  0.14230777014E+04  0.14230777014E+04  0.00000000000E+00 0. -1.
         22   -1    0    0    0    0 -0.00000000000E+00 -0.00000000000E+00 -0.63205178899E+03  0.63205178899E+03  0.00000000000E+00 0. -1.
         24    2    1    2    0    0  0.63488159717E+02  0.12776297065E+02 -0.56033164179E+03  0.56991568129E+03  0.81476099540E+02 0.  0.
         25    2    1    2    0    0 -0.48227762390E+02  0.20601377955E+03  0.21970386987E+03  0.32967445534E+03  0.12509141311E+03 0.  0.
        -24    2    1    2    0    0 -0.15260397326E+02 -0.21879007662E+03  0.11316536844E+04  0.11555393538E+04  0.80803214657E+02 0.  0.
        -11    1    3    3    0    0 -0.44556596241E+01  0.11862197843E+01  0.70202493332E+00  0.46639960409E+01  0.00000000000E+00 0.  1.
         12    1    3    3    0    0  0.67943819341E+02  0.11590077281E+02 -0.56103366672E+03  0.56525168525E+03  0.00000000000E+00 0. -1.
         11    1    5    5    0    0 -0.19675508448E+02 -0.14128282323E+03  0.89972283670E+03  0.91096056152E+03  0.00000000000E+00 0. -1.
        -12    1    5    5    0    0  0.44151111216E+01 -0.77507253390E+02  0.23193084765E+03  0.24457879227E+03  0.00000000000E+00 0.  1.
          5    1    4    4  501    0  0.15516170570E+02 -0.86486554242E+01  0.34594065501E+02  0.39112306985E+02  0.41800000000E+01 0. -1.
         -5    1    4    4    0  501 -0.63743932960E+02  0.21466243498E+03  0.18510980437E+03  0.29056214835E+03  0.41800000000E+01 0. -1.
</event>
<event>
11    1  0.8551154E-009  0.2358369E+03  0.7561462E-02  0.1031727E+00
         22   -1    0    0    0    0  0.00000000000E+00  0.00000000000E+00  0.17733281654E+04  0.17733281654E+04  0.00000000000E+00 0. -1.
         22   -1    0    0    0    0 -0.00000000000E+00 -0.00000000000E+00 -0.23068612086E+03  0.23068612086E+03  0.00000000000E+00 0.  1.
        -24    2    1    2    0    0 -0.14518586376E+03 -0.13469580149E+03  0.12796243643E+02  0.21469311152E+03  0.81899293703E+02 0.  0.
         25    2    1    2    0    0  0.12657111789E+02  0.23800378626E+03  0.22018339168E+02  0.27007227832E+03  0.12509285951E+03 0.  0.
         24    2    1    2    0    0  0.13252875197E+03 -0.10330798477E+03  0.15078274618E+04  0.15192488965E+04  0.79606187705E+02 0.  0.
        -13    1    5    5    0    0  0.99513888574E+02 -0.38143380219E+02  0.69214209675E+03  0.70029894586E+03  0.00000000000E+00 0.  1.
         14    1    5    5    0    0  0.33014863392E+02 -0.65164604548E+02  0.81568536501E+03  0.81894995060E+03  0.00000000000E+00 0. -1.
         11    1    3    3    0    0 -0.14036138759E+03 -0.11236696623E+03 -0.12960540422E+02  0.18026544271E+03  0.00000000000E+00 0. -1.
        -12    1    3    3    0    0 -0.48244761619E+01 -0.22328835268E+02  0.25756784066E+02  0.34427668816E+02  0.00000000000E+00 0.  1.
          5    1    4    4  501    0  0.35368019205E+02  0.26302989057E+02  0.35413200152E+02  0.56694895368E+02  0.41800000000E+01 0.  1.
         -5    1    4    4    0  501 -0.22710907416E+02  0.21170079720E+03 -0.13394860984E+02  0.21337738295E+03  0.41800000000E+01 0.  1.
</event>
<event>
11    1  0.8551154E-009  0.1448539E+03  0.7561462E-02  0.1102256E+00
         22   -1    0    0    0    0  0.00000000000E+00  0.00000000000E+00  0.62045477595E+03  0.62045477595E+03  0.00000000000E+00 0. -1.
         22   -1    0    0    0    0 -0.00000000000E+00 -0.00000000000E+00 -0.44403101158E+03  0.44403101158E+03  0.00000000000E+00 0.  1.
        -24    2    1    2    0    0 -0.19541134997E+02  0.45842120979E+02 -0.38058385249E+03  0.39221061211E+03  0.80633364468E+02 0.  0.
         25    2    1    2    0    0  0.76861763071E+01  0.31481206977E+02  0.29700830675E+02  0.13258331687E+03  0.12508418313E+03 0.  0.
         24    2    1    2    0    0  0.11854958690E+02 -0.77323327956E+02  0.52730678618E+03  0.53969185854E+03  0.84234306168E+02 0.  0.
        -13    1    5    5    0    0  0.34105382578E+02 -0.34582767417E+02  0.11868953207E+03  0.12824332320E+03  0.00000000000E+00 0.  1.
         14    1    5    5    0    0 -0.22250423889E+02 -0.42740560540E+02  0.40861725411E+03  0.41144853534E+03  0.00000000000E+00 0. -1.
         11    1    3    3    0    0  0.35541723769E+01  0.11070077814E+01  0.33391341270E+01  0.50007423680E+01  0.00000000000E+00 0. -1.
        -12    1    3    3    0    0 -0.23095307374E+02  0.44735113198E+02 -0.38392298661E+03  0.38720986974E+03  0.00000000000E+00 0.  1.
          5    1    4    4  501    0  0.24381796493E+01 -0.48525998264E+02  0.80433026065E+01  0.49425543440E+02  0.41800000000E+01 0. -1.
         -5    1    4    4    0  501  0.52479966578E+01  0.80007205241E+02  0.21657528069E+02  0.83157773428E+02  0.41800000000E+01 0. -1.
</event>
<event>
11    1  0.8551154E-009  0.1465371E+03  0.7561462E-02  0.1100471E+00
         22   -1    0    0    0    0  0.00000000000E+00  0.00000000000E+00  0.12346919105E+04  0.12346919105E+04  0.00000000000E+00 0.  1.
         22   -1    0    0    0    0 -0.00000000000E+00 -0.00000000000E+00 -0.21042522876E+03  0.21042522876E+03  0.00000000000E+00 0. -1.
         24    2    1    2    0    0 -0.59827497313E+02 -0.50107409728E+02 -0.18175005023E+03  0.21459909756E+03  0.83244278911E+02 0.  0.
         25    2    1    2    0    0  0.15568568038E+02  0.28871373516E+02  0.43104622941E+03  0.45002615742E+03  0.12508698556E+03 0.  0.
        -24    2    1    2    0    0  0.44258929275E+02  0.21236036213E+02  0.77497050252E+03  0.78049188424E+03  0.78603304837E+02 0.  0.
        -13    1    3    3    0    0 -0.65042247981E+02 -0.13656248407E+02 -0.68197401887E+02  0.95225378797E+02  0.00000000000E+00 0.  1.
         14    1    3    3    0    0  0.52147506673E+01 -0.36451161321E+02 -0.11355264834E+03  0.11937371876E+03  0.00000000000E+00 0. -1.
         11    1    5    5    0    0 -0.70295049535E+01  0.26480145333E+02  0.10415344288E+03  0.10769657237E+03  0.00000000000E+00 0. -1.
        -12    1    5    5    0    0  0.51288434229E+02 -0.52441091208E+01  0.67081705964E+03  0.67279531187E+03  0.00000000000E+00 0.  1.
          5    1    4    4  501    0  0.24735496583E+02  0.71440748069E+02  0.18127192071E+03  0.19645001123E+03  0.41800000000E+01 0. -1.
         -5    1    4    4    0  501 -0.91669285447E+01 -0.42569374553E+02  0.24977430870E+03  0.25357614619E+03  0.41800000000E+01 0. -1.
</event>
<event>
11    1  0.8551154E-009  0.3138098E+03  0.7561462E-02  0.9945103E-01
         22   -1    0    0    0    0  0.00000000000E+00  0.00000000000E+00  0.10969677156E+03  0.10969677156E+03  0.00000000000E+00 0.  1.
         22   -1    0    0    0    0 -0.00000000000E+00 -0.00000000000E+00 -0.20425383301E+04  0.20425383301E+04  0.00000000000E+00 0. -1.
         24    2    1    2    0    0 -0.14507757489E+03  0.19927158869E+03 -0.85657302598E+03  0.89496220748E+03  0.80519160358E+02 0.  0.
         25    2    1    2    0    0  0.27308926465E+03 -0.25027841364E+03 -0.10110316189E+04  0.10839981999E+04  0.12510048822E+03 0.  0.
        -24    2    1    2    0    0 -0.12801168976E+03  0.51006824952E+02 -0.65236913649E+02  0.17327469427E+03  0.82338179882E+02 0.  0.
        -11    1    3    3    0    0 -0.46078474183E+02  0.87120101495E+02 -0.47491509599E+03  0.48503348984E+03  0.00000000000E+00 0.  1.
         12    1    3    3    0    0 -0.98999100712E+02  0.11215148719E+03 -0.38165792999E+03  0.40992871764E+03  0.00000000000E+00 0. -1.
         13    1    5    5    0    0 -0.29964816009E+02  0.14907425475E+02 -0.59950207723E+02  0.68659660200E+02  0.00000000000E+00 0. -1.
        -14    1    5    5    0    0 -0.98046873746E+02  0.36099399477E+02 -0.52867059265E+01  0.10461503407E+03  0.00000000000E+00 0.  1.
          5    1    4    4  501    0  0.14307188827E+03 -0.71314279917E+02 -0.54742947614E+03  0.57030850904E+03  0.41800000000E+01 0. -1.
         -5    1    4    4    0  501  0.13001737638E+03 -0.17896413372E+03 -0.46360214277E+03  0.51368969086E+03  0.41800000000E+01 0. -1.
</event>
<event>
11    1  0.8551154E-009  0.1491922E+03  0.7561462E-02  0.1097707E+00
         22   -1    0    0    0    0  0.00000000000E+00  0.00000000000E+00  0.65111548334E+02  0.65111548334E+02  0.00000000000E+00 0.  1.
         22   -1    0    0    0    0 -0.00000000000E+00 -0.00000000000E+00 -0.25605816549E+04  0.25605816549E+04  0.00000000000E+00 0.  1.
        -24    2    1    2    0    0  0.30094418428E+01  0.80816452307E+02 -0.16391328137E+04  0.16427767842E+04  0.73612676485E+02 0.  0.
         25    2    1    2    0    0  0.42911315530E+02 -0.81895434281E+02 -0.87341391879E+03  0.88715656586E+03  0.12508659262E+03 0.  0.
         24    2    1    2    0    0 -0.45920757373E+02  0.10789819739E+01  0.17076625919E+02  0.95759853154E+02  0.82270639742E+02 0.  0.
        -13    1    5    5    0    0 -0.58734009160E+02 -0.40541990488E+01  0.38449622457E+02  0.70317094856E+02  0.00000000000E+00 0.  1.
         14    1    5    5    0    0  0.12813251787E+02  0.51331810227E+01 -0.21372996539E+02  0.25442758298E+02  0.00000000000E+00 0. -1.
         13    1    3    3    0    0  0.36957383086E+02  0.51728370341E+02 -0.10729237405E+04  0.10748055756E+04  0.00000000000E+00 0. -1.
        -14    1    3    3    0    0 -0.33947941243E+02  0.29088081966E+02 -0.56620907318E+03  0.56797120858E+03  0.00000000000E+00 0.  1.
          5    1    4    4  501    0  0.40755909211E+02 -0.61000647367E+02 -0.85707255421E+03  0.86021680913E+03  0.41800000000E+01 0. -1.
         -5    1    4    4    0  501  0.21554063188E+01 -0.20894786914E+02 -0.16341364572E+02  0.26939756730E+02  0.41800000000E+01 0. -1.
</event>
<event>
11    1  0.8551154E-009  0.1347462E+03  0.7561462E-02  0.1113571E+00
         22   -1    0    0    0    0  0.00000000000E+00  0.00000000000E+00  0.34601264599E+03  0.34601264599E+03  0.00000000000E+00 0. -1.
         22   -1    0    0    0    0 -0.00000000000E+00 -0.00000000000E+00 -0.45330880622E+03  0.45330880622E+03  0.00000000000E+00 0. -1.
        -24    2    1    2    0    0 -0.45795321502E+02  0.32901086030E+02 -0.36196676920E+03  0.37534493525E+03  0.81756868073E+02 0.  0.
         25    2    1    2    0    0 -0.16275160249E+02 -0.21893285461E+02 -0.24979225740E+02  0.13044590278E+03  0.12509186642E+03 0.  0.
         24    2    1    2    0    0  0.62070481752E+02 -0.11007800569E+02  0.27964983472E+03  0.29353061418E+03  0.63105269391E+02 0.  0.
        -11    1    5    5    0    0 -0.47616640675E+01 -0.33141863948E+01 -0.10325860385E+00  0.58024079907E+01  0.00000000000E+00 0.  1.
         12    1    5    5    0    0  0.66832145819E+02 -0.76936141740E+01  0.27975309332E+03  0.28772820619E+03  0.00000000000E+00 0. -1.
         13    1    3    3    0    0 -0.57261369120E+02  0.39511336925E+02 -0.35191443673E+03  0.35872521645E+03  0.00000000000E+00 0. -1.
        -14    1    3    3    0    0  0.11466047617E+02 -0.66102508942E+01 -0.10052332477E+02  0.16619718803E+02  0.00000000000E+00 0.  1.
          5    1    4    4  501    0 -0.45287631656E+02  0.23429838341E+02  0.24948353438E+02  0.56919413603E+02  0.41800000000E+01 0. -1.
         -5    1    4    4    0  501  0.29012471406E+02 -0.45323123802E+02 -0.49927579178E+02  0.73526489178E+02  0.41800000000E+01 0. -1.
</event>
<event>
11    1  0.8551154E-009  0.1494451E+03  0.7561462E-02  0.1097447E+00
         22   -1    0    0    0    0  0.00000000000E+00  0.00000000000E+00  0.14765852008E+04  0.14765852008E+04  0.00000000000E+00 0. -1.
         22   -1    0    0    0    0 -0.00000000000E+00 -0.00000000000E+00 -0.46850276053E+03  0.46850276053E+03  0.00000000000E+00 0.  1.
         24    2    1    2    0    0 -0.19680976548E+02  0.81055002392E+02 -0.43732037369E+03  0.45239720273E+03  0.80354623670E+02 0.  0.
         25    2    1    2    0    0  0.14782041016E+02 -0.36710439669E+02  0.17355102370E+03  0.21756365118E+03  0.12509124418E+03 0.  0.
        -24    2    1    2    0    0  0.48989355317E+01 -0.44344562723E+02  0.12718517902E+04  0.12751271074E+04  0.79697703073E+02 0.  0.
        -11    1    3    3    0    0 -0.27909499293E+02  0.93079466237E+02 -0.32743369912E+03  0.34154875861E+03  0.00000000000E+00 0.  1.
         12    1    3    3    0    0  0.82285227446E+01 -0.12024463845E+02 -0.10988667457E+03  0.11084844412E+03  0.00000000000E+00 0. -1.
         13    1    5    5    0    0 -0.17828315984E+02  0.13446645976E+02  0.59889161104E+03  0.59930778646E+03  0.00000000000E+00 0. -1.
        -14    1    5    5    0    0  0.22727251515E+02 -0.57791208699E+02  0.67296017921E+03  0.67581932095E+03  0.00000000000E+00 0.  1.
          5    1    4    4  501    0 -0.14821940000E+02  0.18159481475E+02  0.14824874106E+03  0.15014865400E+03  0.41800000000E+01 0. -1.
         -5    1    4    4    0  501  0.29603981016E+02 -0.54869921144E+02  0.25302282648E+02  0.67414997186E+02  0.41800000000E+01 0. -1.
</event>
<event>
11    1  0.8551154E-009  0.1695174E+03  0.7561462E-02  0.1078452E+00
         22   -1    0    0    0    0  0.00000000000E+00  0.00000000000E+00  0.89061301298E+03  0.89061301298E+03  0.00000000000E+00 0.  1.
         22   -1    0    0    0    0 -0.00000000000E+00 -0.00000000000E+00 -0.24756955678E+03  0.24756955678E+03  0.00000000000E+00 0. -1.
         24    2    1    2    0    0  0.47067398900E+02 -0.10844595958E+03 -0.19735724204E+03  0.24355147125E+03  0.79947307484E+02 0.  0.
         25    2    1    2    0    0 -0.51790806270E+02  0.60070594991E+02  0.20936043406E+03  0.25645686600E+03  0.12509024253E+03 0.  0.
        -24    2    1    2    0    0  0.47234073695E+01  0.48375364587E+02  0.63104026419E+03  0.63817423251E+03  0.81804948155E+02 0.  0.
        -13    1    3    3    0    0  0.19562582204E+02  0.92870261182E+01 -0.34223794448E+02  0.40499525714E+02  0.00000000000E+00 0.  1.
         14    1    3    3    0    0  0.27504816696E+02 -0.11773298570E+03 -0.16313344759E+03  0.20305194554E+03  0.00000000000E+00 0. -1.
         13    1    5    5    0    0 -0.53753715942E+01  0.46855786482E+02  0.15481688705E+03  0.16184136635E+03  0.00000000000E+00 0. -1.
        -14    1    5    5    0    0  0.10098778964E+02  0.15195781052E+01  0.47622337714E+03  0.47633286616E+03  0.00000000000E+00 0.  1.
          5    1    4    4  501    0 -0.63329659392E+02  0.71763732366E+02  0.21749120903E+03  0.23765642732E+03  0.41800000000E+01 0. -1.
         -5    1    4    4    0  501  0.11538853122E+02 -0.11693137376E+02 -0.81307749718E+01  0.18800438684E+02  0.41800000000E+01 0. -1.
</event>
<event>
11    1  0.8551154E-009  0.1758524E+03  0.7561462E-02  0.1073048E+00
         22   -1    0    0    0    0  0.00000000000E+00  0.00000000000E+00  0.30278618075E+03  0.30278618075E+03  0.00000000000E+00 0. -1.
         22   -1    0    0    0    0 -0.00000000000E+00 -0.00000000000E+00 -0.43315605480E+03  0.43315605480E+03  0.00000000000E+00 0. -1.
         24    2    1    2    0    0 -0.30213711853E+02 -0.11631086390E+03 -0.33520490813E+03  0.36482386121E+03  0.79328644459E+02 0.  0.
         25    2    1    2    0    0  0.69160495912E+02  0.15580277643E+03  0.13579547024E+03  0.25128720518E+03  0.12508865022E+03 0.  0.
        -24    2    1    2    0    0 -0.38946784059E+02 -0.39491912526E+02  0.69039563838E+02  0.11983116915E+03  0.80725365169E+02 0.  0.
        -13    1    3    3    0    0 -0.35950534516E+02 -0.11374513223E+02 -0.11052938002E+03  0.11678426406E+03  0.00000000000E+00 0.  1.
         14    1    3    3    0    0  0.57368226634E+01 -0.10493635068E+03 -0.22467552810E+03  0.24803959715E+03  0.00000000000E+00 0. -1.
         11    1    5    5    0    0  0.80950902007E+01 -0.14337368040E+02  0.64187944889E+02  0.66266000911E+02  0.00000000000E+00 0. -1.
        -12    1    5    5    0    0 -0.47041874260E+02 -0.25154544486E+02  0.48516189497E+01  0.53565168241E+02  0.00000000000E+00 0.  1.
          5    1    4    4  501    0 -0.11771079033E+02  0.11223960636E+03  0.43656998649E+02  0.12107722109E+03  0.41800000000E+01 0. -1.
         -5    1    4    4    0  501  0.80931574946E+02  0.43563170071E+02  0.92138471590E+02  0.13020998409E+03  0.41800000000E+01 0. -1.
</event>
<event>
11    1  0.8551154E-009  0.1457027E+03  0.7561462E-02  0.1101352E+00
         22   -1    0    0    0    0  0.00000000000E+00  0.00000000000E+00  0.72535797193E+03  0.72535797193E+03  0.00000000000E+00 0.  1.
         22   -1    0    0    0    0 -0.00000000000E+00 -0.00000000000E+00 -0.62421277168E+03  0.62421277168E+03  0.00000000000E+00 0.  1.
        -24    2    1    2    0    0  0.20679084656E+02 -0.72855302590E+02 -0.56133152277E+03  0.57248939330E+03  0.83159529390E+02 0.  0.
         25    2    1    2    0    0  0.25061540281E+02  0.65833900675E+02  0.42151213394E+02  0.14962103463E+03  0.12509015123E+03 0.  0.
         24    2    1    2    0    0 -0.45740624937E+02  0.70214019152E+01  0.62032550962E+03  0.62746031567E+03  0.82226546783E+02 0.  0.
        -11    1    5    5    0    0 -0.35166936886E+02 -0.10168972528E+02  0.58937671744E+03  0.59051252019E+03  0.00000000000E+00 0.  1.
         12    1    5    5    0    0 -0.10573688051E+02  0.17190374444E+02  0.30948792188E+02  0.36947795474E+02  0.00000000000E+00 0. -1.
         13    1    3    3    0    0 -0.23397306040E+02 -0.15684024446E+01 -0.64335640204E+02  0.68476042647E+02  0.00000000000E+00 0. -1.
        -14    1    3    3    0    0  0.44076390696E+02 -0.71286900145E+02 -0.49699588257E+03  0.50401335065E+03  0.00000000000E+00 0.  1.
          5    1    4    4  501    0  0.17720683649E+02  0.97143184537E+02  0.56847767232E+02  0.11401737574E+03  0.41800000000E+01 0.  1.
         -5    1    4    4    0  501  0.73408566316E+01 -0.31309283863E+02 -0.14696553838E+02  0.35603658896E+02  0.41800000000E+01 0.  1.
</event>
<event>
11    1  0.8551154E-009  0.1990176E+03  0.7561462E-02  0.1055221E+00
         22   -1    0    0    0    0  0.00000000000E+00  0.00000000000E+00  0.31754745181E+03  0.31754745181E+03  0.00000000000E+00 0. -1.
         22   -1    0    0    0    0 -0.00000000000E+00 -0.00000000000E+00 -0.20495403819E+04  0.20495403819E+04  0.00000000000E+00 0.  1.
        -24    2    1    2    0    0 -0.39120127669E+02  0.14711633523E+03 -0.17627554987E+04  0.17710902819E+04  0.79247951545E+02 0.  0.
         25    2    1    2    0    0  0.48768246786E+02 -0.17530842964E+03 -0.23190449090E+03  0.32021621149E+03  0.12508933528E+03 0.  0.
         24    2    1    2    0    0 -0.96481191169E+01  0.28192094406E+02  0.26266705954E+03  0.27578134033E+03  0.78571515944E+02 0.  0.
        -11    1    5    5    0    0 -0.38634600768E+00  0.13736229093E+02  0.12469896062E+01  0.13798124366E+02  0.00000000000E+00 0.  1.
         12    1    5    5    0    0 -0.92617731093E+01  0.14455865313E+02  0.26142006994E+03  0.26198321597E+03  0.00000000000E+00 0. -1.
         11    1    3    3    0    0 -0.68177538784E+01 -0.54665314713E+01 -0.27859347598E+02  0.29197739345E+02  0.00000000000E+00 0. -1.
        -12    1    3    3    0    0 -0.32302373791E+02  0.15258286670E+03 -0.17348961511E+04  0.17418925425E+04  0.00000000000E+00 0.  1.
          5    1    4    4  501    0  0.86580712805E+02 -0.12331664518E+03 -0.19325615767E+03  0.24508902400E+03  0.41800000000E+01 0. -1.
         -5    1    4    4    0  501 -0.37812466019E+02 -0.51991784459E+02 -0.38648333231E+02  0.75127187484E+02  0.41800000000E+01 0. -1.
</event>
<event>
11    1  0.8551154E-009  0.1307711E+03  0.7561462E-02  0.1118325E+00
         22   -1    0    0    0    0  0.00000000000E+00  0.00000000000E+00  0.79612217402E+02  0.79612217402E+02  0.00000000000E+00 0.  1.
         22   -1    0    0    0    0 -0.00000000000E+00 -0.00000000000E+00 -0.69202670108E+03  0.69202670108E+03  0.00000000000E+00 0.  1.
         24    2    1    2    0    0 -0.45677874951E+02 -0.52624230327E+01 -0.38725198676E+03  0.39798863887E+03  0.79477632461E+02 0.  0.
         25    2    1    2    0    0  0.98631454547E+01 -0.18494043312E+02 -0.24837562264E+03  0.27888072531E+03  0.12507876619E+03 0.  0.
        -24    2    1    2    0    0  0.35814729496E+02  0.23756466345E+02  0.23213125721E+02  0.94769554306E+02  0.81211789018E+02 0.  0.
        -11    1    3    3    0    0 -0.54956725626E+02  0.16699484318E+01 -0.38076311216E+03  0.38471233149E+03  0.00000000000E+00 0.  1.
         12    1    3    3    0    0  0.92788506753E+01 -0.69323714645E+01 -0.64888746000E+01  0.13276307376E+02  0.00000000000E+00 0. -1.
         11    1    5    5    0    0 -0.13244502816E+02  0.34222832032E+02  0.25284209530E+02  0.44563553928E+02  0.00000000000E+00 0. -1.
        -12    1    5    5    0    0  0.49059232312E+02 -0.10466365687E+02 -0.20710838088E+01  0.50206000378E+02  0.00000000000E+00 0.  1.
          5    1    4    4  501    0 -0.71932384115E+01  0.43409528667E+02 -0.17850056026E+03  0.18389141434E+03  0.41800000000E+01 0.  1.
         -5    1    4    4    0  501  0.17056383866E+02 -0.61903571980E+02 -0.69875062381E+02  0.94989310963E+02  0.41800000000E+01 0.  1.
</event>
<event>
11    1  0.8551154E-009  0.1423999E+03  0.7561462E-02  0.1104908E+00
         22   -1    0    0    0    0  0.00000000000E+00  0.00000000000E+00  0.18592561695E+04  0.18592561695E+04  0.00000000000E+00 0. -1.
         22   -1    0    0    0    0 -0.00000000000E+00 -0.00000000000E+00 -0.74304423683E+03  0.74304423683E+03  0.00000000000E+00 0.  1.
        -24    2    1    2    0    0  0.56465059383E+02 -0.37894372104E+02 -0.72908637450E+03  0.73762553782E+03  0.88883104071E+02 0.  0.
         25    2    1    2    0    0 -0.87745712368E+02  0.53055463821E+01  0.74806806688E+03  0.76353172977E+03  0.12508961117E+03 0.  0.
         24    2    1    2    0    0  0.31280652985E+02  0.32588825722E+02  0.10972302403E+04  0.11011431387E+04  0.81003092344E+02 0.  0.
        -13    1    5    5    0    0 -0.14210313880E+02 -0.18690994168E+02  0.22432432482E+03  0.22554974837E+03  0.00000000000E+00 0.  1.
         14    1    5    5    0    0  0.45490966865E+02  0.51279819890E+02  0.87290591543E+03  0.87559339033E+03  0.00000000000E+00 0. -1.
         13    1    3    3    0    0 -0.23851281280E+02 -0.14219491631E+02 -0.21028218931E+03  0.21210770072E+03  0.00000000000E+00 0. -1.
        -14    1    3    3    0    0  0.80316340663E+02 -0.23674880473E+02 -0.51880418519E+03  0.52551783710E+03  0.00000000000E+00 0.  1.
          5    1    4    4  501    0 -0.95682579275E+01  0.51834556278E+02  0.41060974851E+03  0.41400025454E+03  0.41800000000E+01 0. -1.
         -5    1    4    4    0  501 -0.78177454441E+02 -0.46529009895E+02  0.33745831837E+03  0.34953147523E+03  0.41800000000E+01 0. -1.
</event>
<event>
11    1  0.8551154E-009  0.3250740E+03  0.7561462E-02  0.9901044E-01
         22   -1    0    0    0    0  0.00000000000E+00  0.00000000000E+00  0.84003517456E+03  0.84003517456E+03  0.00000000000E+00 0.  1.
         22   -1    0    0    0    0 -0.00000000000E+00 -0.00000000000E+00 -0.69823646536E+03  0.69823646536E+03  0.00000000000E+00 0. -1.
        -24    2    1    2    0    0 -0.11012497641E+02  0.11053225002E+02 -0.46938365452E+03  0.47829103762E+03  0.90541993832E+02 0.  0.
         25    2    1    2    0    0 -0.28886668468E+03  0.23969055666E+02 -0.58710352417E+02  0.32111173829E+03  0.12508943135E+03 0.  0.
         24    2    1    2    0    0  0.29987918232E+03 -0.35022280667E+02  0.66989271614E+03  0.73886886400E+03  0.77568440218E+02 0.  0.
        -13    1    5    5    0    0  0.26771241830E+03 -0.12553540123E+02  0.53484073399E+03  0.59823251418E+03  0.00000000000E+00 0.  1.
         14    1    5    5    0    0  0.32166764023E+02 -0.22468740545E+02  0.13505198215E+03  0.14063634983E+03  0.00000000000E+00 0. -1.
         13    1    3    3    0    0  0.10336689292E+02  0.18835600035E+02 -0.44279179288E+03  0.44331275508E+03  0.00000000000E+00 0. -1.
        -14    1    3    3    0    0 -0.21349186933E+02 -0.77823750328E+01 -0.26591861642E+02  0.34978282540E+02  0.00000000000E+00 0.  1.
          5    1    4    4  501    0 -0.12146524707E+03 -0.41884942327E+02 -0.58347816373E+02  0.14117398739E+03  0.41800000000E+01 0.  1.
         -5    1    4    4    0  501 -0.16740143761E+03  0.65853997993E+02 -0.36253604424E+00  0.17993775090E+03  0.41800000000E+01 0.  1.
</event>
<event>
11    1  0.8551154E-009  0.2144679E+03  0.7561462E-02  0.1044739E+00
         22   -1    0    0    0    0  0.00000000000E+00  0.00000000000E+00  0.61414492716E+03  0.61414492716E+03  0.00000000000E+00 0. -1.
         22   -1    0    0    0    0 -0.00000000000E+00 -0.00000000000E+00 -0.28559061707E+03  0.28559061707E+03  0.00000000000E+00 0. -1.
         24    2    1    2    0    0 -0.15526638531E+03 -0.91097334441E+02 -0.21085319882E+03  0.28885828629E+03  0.81078131195E+02 0.  0.
         25    2    1    2    0    0  0.12529988552E+03  0.38955425614E+02  0.28341248078E+03  0.33643303914E+03  0.12508784539E+03 0.  0.
        -24    2    1    2    0    0  0.29966499792E+02  0.52141908827E+02  0.25599502811E+03  0.27444421880E+03  0.78545560347E+02 0.  0.
        -11    1    3    3    0    0 -0.36338129609E+02 -0.64710792555E+01 -0.61104135207E+01  0.37412186298E+02  0.00000000000E+00 0.  1.
         12    1    3    3    0    0 -0.11892825570E+03 -0.84626255186E+02 -0.20474278529E+03  0.25144609999E+03  0.00000000000E+00 0. -1.
         11    1    5    5    0    0 -0.24174689924E+02  0.34166914312E+02  0.10538386975E+03  0.11339115340E+03  0.00000000000E+00 0. -1.
        -12    1    5    5    0    0  0.54141189715E+02  0.17974994516E+02  0.15061115837E+03  0.16105306541E+03  0.00000000000E+00 0.  1.
          5    1    4    4  501    0  0.79860142227E+02  0.55293748019E+02  0.26874980529E+03  0.28579533084E+03  0.41800000000E+01 0.  1.
         -5    1    4    4    0  501  0.45439743290E+02 -0.16338322405E+02  0.14662675498E+02  0.50637708302E+02  0.41800000000E+01 0.  1.
</event>
<event>
11    1  0.8551154E-009  0.1571111E+03  0.7561462E-02  0.1089826E+00
         22   -1    0    0    0    0  0.00000000000E+00  0.00000000000E+00  0.35757997403E+03  0.35757997403E+03  0.00000000000E+00 0.  1.
         22   -1    0    0    0    0 -0.00000000000E+00 -0.00000000000E+00 -0.46719474598E+03  0.46719474598E+03  0.00000000000E+00 0.  1.
        -24    2    1    2    0    0 -0.21033314037E+02 -0.74872306319E+02 -0.21647593791E+03  0.24331934468E+03  0.79336052630E+02 0.  0.
         25    2    1    2    0    0  0.51584350421E+02  0.13964555173E+03 -0.18595668040E+03  0.26905297876E+03  0.12509113905E+03 0.  0.
         24    2    1    2    0    0 -0.30551036384E+02 -0.64773245413E+02  0.29281784636E+03  0.31240239657E+03  0.82000165168E+02 0.  0.
        -11    1    5    5    0    0 -0.60397538159E+01 -0.44946043978E+02  0.26924474912E+03  0.27303728761E+03  0.00000000000E+00 0.  1.
         12    1    5    5    0    0 -0.24511282568E+02 -0.19827201435E+02  0.23573097243E+02  0.39365108961E+02  0.00000000000E+00 0. -1.
         11    1    3    3    0    0 -0.62446142447E+01  0.14087232718E+02 -0.11023189039E+02  0.18946134943E+02  0.00000000000E+00 0. -1.
        -12    1    3    3    0    0 -0.14788699792E+02 -0.88959539037E+02 -0.20545274887E+03  0.22437320974E+03  0.00000000000E+00 0.  1.
          5    1    4    4  501    0  0.30610785800E+02  0.48858995683E+02 -0.16307224934E+03  0.17301518018E+03  0.41800000000E+01 0. -1.
         -5    1    4    4    0  501  0.20973564621E+02  0.90786556049E+02 -0.22884431057E+02  0.96037798585E+02  0.41800000000E+01 0. -1.
</event>
<event>
11    1  0.8551154E-009  0.2054368E+03  0.7561462E-02  0.1050744E+00
         22   -1    0    0    0    0  0.00000000000E+00  0.00000000000E+00  0.11170716573E+04  0.11170716573E+04  0.00000000000E+00 0. -1.
         22   -1    0    0    0    0 -0.00000000000E+00 -0.00000000000E+00 -0.18626385803E+03  0.18626385803E+03  0.00000000000E+00 0.  1.
        -24    2    1    2    0    0  0.56898915344E+02  0.10001419285E+03 -0.77642960034E+02  0.16022029267E+03  0.80011171729E+02 0.  0.
         25    2    1    2    0    0 -0.19801278561E+03 -0.20327149806E+02  0.18235796585E+03  0.29752842448E+03  0.12508588802E+03 0.  0.
         24    2    1    2    0    0  0.14111387027E+03 -0.79687043042E+02  0.82609279344E+03  0.84558679817E+03  0.79527232145E+02 0.  0.
        -11    1    5    5    0    0  0.32750300357E+02 -0.29597302663E+02  0.94300196671E+02  0.10412064920E+03  0.00000000000E+00 0.  1.
         12    1    5    5    0    0  0.10836356991E+03 -0.50089740380E+02  0.73179259677E+03  0.74146614896E+03  0.00000000000E+00 0. -1.
         13    1    3    3    0    0 -0.62122077282E+01  0.55281855858E+02 -0.81312964130E+01  0.56220931096E+02  0.00000000000E+00 0. -1.
        -14    1    3    3    0    0  0.63111123072E+02  0.44732336990E+02 -0.69511663621E+02  0.10399936157E+03  0.00000000000E+00 0.  1.
          5    1    4    4  501    0 -0.16822523110E+03  0.34685205723E+02  0.14264222115E+03  0.22330935387E+03  0.41800000000E+01 0. -1.
         -5    1    4    4    0  501 -0.29787554514E+02 -0.55012355529E+02  0.39715744701E+02  0.74219070608E+02  0.41800000000E+01 0. -1.
</event>
<event>
11    1  0.8551154E-009  0.1594907E+03  0.7561462E-02  0.1087557E+00
         22   -1    0    0    0    0  0.00000000000E+00  0.00000000000E+00  0.13630482279E+04  0.13630482279E+04  0.00000000000E+00 0.  1.
         22   -1    0    0    0    0 -0.00000000000E+00 -0.00000000000E+00 -0.19356529396E+03  0.19356529396E+03  0.00000000000E+00 0. -1.
        -24    2    1    2    0    0 -0.70232818892E+02 -0.68636277552E+02 -0.13036298784E+03  0.18047849819E+03  0.77035006740E+02 0.  0.
         25    2    1    2    0    0  0.10756986681E+03  0.38030991330E+02  0.16099534676E+03  0.23363147952E+03  0.12508610633E+03 0.  0.
         24    2    1    2    0    0 -0.37337047921E+02  0.30605286223E+02  0.11388505750E+04  0.11425035441E+04  0.77478884083E+02 0.  0.
        -11    1    5    5    0    0 -0.58475888303E+02  0.21415897341E+02  0.98150901129E+03  0.98348259233E+03  0.00000000000E+00 0.  1.
         12    1    5    5    0    0  0.21138840382E+02  0.91893888815E+01  0.15734156371E+03  0.15902095180E+03  0.00000000000E+00 0. -1.
         11    1    3    3    0    0 -0.74181428828E+02 -0.69504537306E+02 -0.78444669731E+02  0.12840300346E+03  0.00000000000E+00 0. -1.
        -12    1    3    3    0    0  0.39486099357E+01  0.86825975340E+00 -0.51918318112E+02  0.52075494727E+02  0.00000000000E+00 0.  1.
          5    1    4    4  501    0  0.76392780311E+02  0.83072815200E+02  0.93601473872E+02  0.14668216599E+03  0.41800000000E+01 0. -1.
         -5    1    4    4    0  501  0.31177086502E+02 -0.45041823871E+02  0.67393872890E+02  0.86949313531E+02  0.41800000000E+01 0. -1.
</event>
<event>
11    1  0.8551154E-009  0.1718509E+03  0.7561462E-02  0.1076432E+00
         22   -1    0    0    0    0  0.00000000000E+00  0.00000000000E+00  0.55427653290E+02  0.55427653290E+02  0.00000000000E+00 0. -1.
         22   -1    0    0    0    0 -0.00000000000E+00 -0.00000000000E+00 -0.13721687753E+04  0.13721687753E+04  0.00000000000E+00 0.  1.
        -24    2    1    2    0    0  0.12307199068E+02 -0.51728983836E+02 -0.63009373696E+03  0.63764669099E+03  0.82145177916E+02 0.  0.
         25    2    1    2    0    0  0.57795987237E+02  0.13810680490E+03 -0.57870502516E+03  0.61070540582E+03  0.12509085038E+03 0.  0.
         24    2    1    2    0    0 -0.70103186306E+02 -0.86377821065E+02 -0.10794235984E+03  0.17924433174E+03  0.90007736943E+02 0.  0.
        -11    1    5    5    0    0 -0.45822885073E+02  0.52173958821E+01 -0.21121303937E+02  0.50725412726E+02  0.00000000000E+00 0.  1.
         12    1    5    5    0    0 -0.24280301233E+02 -0.91595216947E+02 -0.86821055906E+02  0.12851891901E+03  0.00000000000E+00 0. -1.
         11    1    3    3    0    0 -0.87725764550E+01  0.20666204651E+02 -0.14492873036E+03  0.14665737961E+03  0.00000000000E+00 0. -1.
        -12    1    3    3    0    0  0.21079775523E+02 -0.72395188487E+02 -0.48516500660E+03  0.49098931137E+03  0.00000000000E+00 0.  1.
          5    1    4    4  501    0  0.67590647820E+02  0.40027141842E+02 -0.13573773162E+03  0.15688490030E+03  0.41800000000E+01 0.  1.
         -5    1    4    4    0  501 -0.97946605829E+01  0.98079663059E+02 -0.44296729354E+03  0.45382050552E+03  0.41800000000E+01 0.  1.
</event>
<event>
11    1  0.8551154E-009  0.1396461E+03  0.7561462E-02  0.1107954E+00
         22   -1    0    0    0    0  0.00000000000E+00  0.00000000000E+00  0.35262235592E+04  0.35262235592E+04  0.00000000000E+00 0. -1.
         22   -1    0    0    0    0 -0.00000000000E+00 -0.00000000000E+00 -0.40019494012E+03  0.40019494012E+03  0.00000000000E+00 0. -1.
         24    2    1    2    0    0  0.30057531453E+02 -0.54012982468E+02 -0.38456624085E+03  0.39800267645E+03  0.81817353843E+02 0.  0.
         25    2    1    2    0    0 -0.69505513395E+02  0.65288945020E+02  0.74840306707E+03  0.76475438317E+03  0.12509377701E+03 0.  0.
        -24    2    1    2    0    0  0.39447981942E+02 -0.11275962553E+02  0.27621917929E+04  0.27636614397E+04  0.80235666023E+02 0.  0.
        -11    1    3    3    0    0  0.54035961685E+02 -0.22397774623E+02 -0.16956876618E+03  0.17937422314E+03  0.00000000000E+00 0.  1.
         12    1    3    3    0    0 -0.23978430232E+02 -0.31615207844E+02 -0.21499747467E+03  0.21862845331E+03  0.00000000000E+00 0. -1.
         13    1    5    5    0    0  0.22674676337E+02  0.93004100043E+01  0.25017792348E+04  0.25018992742E+04  0.00000000000E+00 0. -1.
        -14    1    5    5    0    0  0.16773305605E+02 -0.20576372557E+02  0.26041255810E+03  0.26176216553E+03  0.00000000000E+00 0.  1.
          5    1    4    4  501    0  0.87487075236E+00 -0.26218568934E+02  0.31835664873E+03  0.31946299777E+03  0.41800000000E+01 0. -1.
         -5    1    4    4    0  501 -0.70380384147E+02  0.91507513954E+02  0.43004641834E+03  0.44529138540E+03  0.41800000000E+01 0. -1.
</event>
<event>
11    1  0.8551154E-009  0.1547917E+03  0.7561462E-02  0.1092081E+00
         22   -1    0    0    0    0  0.00000000000E+00  0.00000000000E+00  0.19743305478E+04  0.19743305478E+04  0.00000000000E+00 0. -1.
         22   -1    0    0    0    0 -0.00000000000E+00 -0.00000000000E+00 -0.33777155073E+02  0.33777155073E+02  0.00000000000E+00 0. -1.
         24    2    1    2    0    0 -0.52406147311E+01  0.18183529289E+02  0.84326370188E+02  0.11842593513E+03  0.80967034164E+02 0.  0.
         25    2    1    2    0    0 -0.83596480699E+02  0.81662601434E+01  0.38433345589E+03  0.41281285699E+03  0.12508872926E+03 0.  0.
        -24    2    1    2    0    0  0.88837095430E+02 -0.26349789432E+02  0.14718935667E+04  0.14768689108E+04  0.78004917155E+02 0.  0.
        -13    1    3    3    0    0 -0.40085578323E+02  0.24093840582E+02  0.57119695001E+02  0.73824293430E+02  0.00000000000E+00 0.  1.
         14    1    3    3    0    0  0.34844963592E+02 -0.59103112931E+01  0.27206675187E+02  0.44601641696E+02  0.00000000000E+00 0. -1.
         13    1    5    5    0    0  0.29700905628E+02  0.94240521036E+01  0.93837550722E+03  0.93889272503E+03  0.00000000000E+00 0. -1.
        -14    1    5    5    0    0  0.59136189802E+02 -0.35773841536E+02  0.53351805947E+03  0.53797618578E+03  0.00000000000E+00 0.  1.
          5    1    4    4  501    0 -0.91650125542E+01 -0.10254993010E+02 -0.55723701093E+01  0.15417069935E+02  0.41800000000E+01 0.  1.
         -5    1    4    4    0  501 -0.74431468145E+02  0.18421253153E+02  0.38990582600E+03  0.39739578705E+03  0.41800000000E+01 0.  1.
</event>
<event>
11    1  0.8551154E-009  0.1316977E+03  0.7561462E-02  0.1117200E+00
         22   -1    0    0    0    0  0.00000000000E+00  0.00000000000E+00  0.20191886452E+04  0.20191886452E+04  0.00000000000E+00 0.  1.
         22   -1    0    0    0    0 -0.00000000000E+00 -0.00000000000E+00 -0.49697055792E+02  0.49697055792E+02  0.00000000000E+00 0. -1.
        -24    2    1    2    0    0  0.17647064603E+02 -0.11818596950E+02  0.95128538964E+00  0.85135228439E+02  0.82437879974E+02 0.  0.
         25    2    1    2    0    0  0.12406983933E+02 -0.22528353834E+02  0.68086946992E+03  0.69274449707E+03  0.12510093195E+03 0.  0.
         24    2    1    2    0    0 -0.30054048536E+02  0.34346950784E+02  0.12876708341E+04  0.12910059755E+04  0.80729752153E+02 0.  0.
        -11    1    5    5    0    0  0.25550900344E+02  0.48834871939E+01  0.56571591843E+03  0.56631369162E+03  0.00000000000E+00 0.  1.
         12    1    5    5    0    0 -0.55604948880E+02  0.29463463590E+02  0.72195491570E+03  0.72469228389E+03  0.00000000000E+00 0. -1.
         11    1    3    3    0    0  0.18209709510E+02 -0.41526828473E+02 -0.19191216963E+02  0.49237930622E+02  0.00000000000E+00 0. -1.
        -12    1    3    3    0    0 -0.56264490703E+00  0.29708231523E+02  0.20142502352E+02  0.35897297817E+02  0.00000000000E+00 0.  1.
          5    1    4    4  501    0  0.52782248449E+02 -0.52362144887E+02  0.47497721285E+03  0.48077914378E+03  0.41800000000E+01 0. -1.
         -5    1    4    4    0  501 -0.40375264515E+02  0.29833791053E+02  0.20589225708E+03  0.21196535330E+03  0.41800000000E+01 0. -1.
</event>
<event>
11    1  0.8551154E-009  0.1308831E+03  0.7561462E-02  0.1118189E+00
         22   -1    0    0    0    0  0.00000000000E+00  0.00000000000E+00  0.45829020954E+03  0.45829020954E+03  0.00000000000E+00 0.  1.
         22   -1    0    0    0    0 -0.00000000000E+00 -0.00000000000E+00 -0.25937777729E+03  0.25937777729E+03  0.00000000000E+00 0.  1.
        -24    2    1    2    0    0  0.42899728786E+02  0.15281263940E+02 -0.12537586832E+03  0.15518477951E+03  0.79305130197E+02 0.  0.
         25    2    1    2    0    0 -0.26730107672E+02  0.22793678405E+02 -0.77169441303E+02  0.15112014395E+03  0.12509246502E+03 0.  0.
         24    2    1    2    0    0 -0.16169621115E+02 -0.38074942345E+02  0.40145774187E+03  0.41136306337E+03  0.79624704182E+02 0.  0.
        -13    1    5    5    0    0 -0.35836454842E+02 -0.24665454401E+02  0.36648623403E+03  0.36905933923E+03  0.00000000000E+00 0.  1.
         14    1    5    5    0    0  0.19666833728E+02 -0.13409487944E+02  0.34971507837E+02  0.42303724141E+02  0.00000000000E+00 0. -1.
         13    1    3    3    0    0  0.29407116581E+02  0.37383529731E+01 -0.11182348933E+01  0.29664865377E+02  0.00000000000E+00 0. -1.
        -14    1    3    3    0    0  0.13492612206E+02  0.11542910966E+02 -0.12425763343E+03  0.12551991413E+03  0.00000000000E+00 0.  1.
          5    1    4    4  501    0 -0.20308115964E+02 -0.30241948826E+02 -0.88987831630E+02  0.96246047300E+02  0.41800000000E+01 0. -1.
         -5    1    4    4    0  501 -0.64219917079E+01  0.53035627231E+02  0.11818390327E+02  0.54874096651E+02  0.41800000000E+01 0. -1.
</event>
<event>
11    1  0.8551154E-009  0.1508391E+03  0.7561462E-02  0.1096024E+00
         22   -1    0    0    0    0  0.00000000000E+00  0.00000000000E+00  0.41537333678E+03  0.41537333678E+03  0.00000000000E+00 0. -1.
         22   -1    0    0    0    0 -0.00000000000E+00 -0.00000000000E+00 -0.44597840865E+03  0.44597840865E+03  0.00000000000E+00 0.  1.
         24    2    1    2    0    0 -0.13755118634E+02 -0.20764438293E+02 -0.37081399173E+03  0.38054914451E+03  0.81818517084E+02 0.  0.
         25    2    1    2    0    0  0.57381547655E+02  0.88339730922E+02  0.53128978451E+02  0.17194957306E+03  0.12508963687E+03 0.  0.
        -24    2    1    2    0    0 -0.43626429021E+02 -0.67575292629E+02  0.28707994141E+03  0.30885302786E+03  0.80657390093E+02 0.  0.
        -11    1    3    3    0    0  0.17711430634E+02 -0.38290390947E+02 -0.27445446000E+03  0.27767804995E+03  0.00000000000E+00 0.  1.
         12    1    3    3    0    0 -0.31466549268E+02  0.17525952654E+02 -0.96359531736E+02  0.10287109456E+03  0.00000000000E+00 0. -1.
         13    1    5    5    0    0 -0.36622699355E+02 -0.32764424180E+02  0.25889779392E+03  0.26352001309E+03  0.00000000000E+00 0. -1.
        -14    1    5    5    0    0 -0.70037296656E+01 -0.34810868449E+02  0.28182147483E+02  0.45333014770E+02  0.00000000000E+00 0.  1.
          5    1    4    4  501    0  0.10159408790E+02  0.10881106879E+03  0.49900968723E+02  0.12021082046E+03  0.41800000000E+01 0. -1.
         -5    1    4    4    0  501  0.47222138865E+02 -0.20471337863E+02  0.32280097286E+01  0.51738752591E+02  0.41800000000E+01 0. -1.
</event>
<event>
11    1  0.1045609E-008  0.1632240E+03  0.7561462E-02  0.1084084E+00
         22   -1    0    0    0    0  0.00000000000E+00  0.00000000000E+00  0.50439568269E+03  0.50439568269E+03  0.00000000000E+00 0.  1.
         22   -1    0    0    0    0 -0.00000000000E+00 -0.00000000000E+00 -0.13519139163E+04  0.13519139163E+04  0.00000000000E+00 0.  1.
        -24    2    1    2    0    0  0.97237696200E+02 -0.48242710156E+02 -0.11021745566E+04  0.11103658278E+04  0.79630330767E+02 0.  0.
         25    2    1    2    0    0 -0.85589863612E+02  0.13741861381E+02 -0.21767626169E+03  0.26560356606E+03  0.12509131022E+03 0.  0.
         24    2    1    2    0    0 -0.11647832588E+02  0.34500848775E+02  0.47233258476E+03  0.48034020510E+03  0.79389303056E+02 0.  0.
        -13    1    5    5    0    0 -0.17165441112E+02 -0.12571416760E+02  0.32225998725E+03  0.32296159566E+03  0.00000000000E+00 0.  1.
         14    1    5    5    0    0  0.55176085241E+01  0.47072265535E+02  0.15007259750E+03  0.15737860943E+03  0.00000000000E+00 0. -1.
         11    1    3    3    0    0 -0.46168054670E+01  0.11136299346E+02 -0.43269242109E+02  0.44917250234E+02  0.00000000000E+00 0. -1.
        -12    1    3    3    0    0  0.10185450167E+03 -0.59379009503E+02 -0.10589053145E+04  0.10654485775E+04  0.00000000000E+00 0.  1.
          5    1    4    4  501    0 -0.17606273318E+02  0.42353995839E+02 -0.12783683827E+02  0.47798920447E+02  0.41800000000E+01 0. -1.
         -5    1    4    4    0  501 -0.67983590294E+02 -0.28612134458E+02 -0.20489257787E+03  0.21780464562E+03  0.41800000000E+01 0. -1.
</event>
<event>
11    1  0.8551154E-009  0.1740436E+03  0.7561462E-02  0.1074565E+00
         22   -1    0    0    0    0  0.00000000000E+00  0.00000000000E+00  0.30620838456E+03  0.30620838456E+03  0.00000000000E+00 0.  1.
         22   -1    0    0    0    0 -0.00000000000E+00 -0.00000000000E+00 -0.21155413069E+03  0.21155413069E+03  0.00000000000E+00 0.  1.
        -24    2    1    2    0    0 -0.96752193103E+01  0.58815125483E+02 -0.90849601171E+02  0.13904761611E+03  0.86762668584E+02 0.  0.
         25    2    1    2    0    0  0.55471216075E+02  0.73172119932E+02  0.36886209107E+02  0.15949898693E+03  0.12509244366E+03 0.  0.
         24    2    1    2    0    0 -0.45795996764E+02 -0.13198724542E+03  0.14861764593E+03  0.21921591221E+03  0.80315037266E+02 0.  0.
        -13    1    5    5    0    0  0.11136076952E+02 -0.41173250479E+02  0.83603847570E+02  0.93855485153E+02  0.00000000000E+00 0.  1.
         14    1    5    5    0    0 -0.56932073716E+02 -0.90813994936E+02  0.65013798359E+02  0.12536042705E+03  0.00000000000E+00 0. -1.
         11    1    3    3    0    0  0.21748609924E+02  0.60422031544E+02 -0.30728114055E+02  0.71190174342E+02  0.00000000000E+00 0. -1.
        -12    1    3    3    0    0 -0.31423829234E+02 -0.16069060604E+01 -0.60121487116E+02  0.67857441772E+02  0.00000000000E+00 0.  1.
          5    1    4    4  501    0  0.14191734637E+02 -0.16568319675E+02  0.54701256682E+02  0.59039092400E+02  0.41800000000E+01 0. -1.
         -5    1    4    4    0  501  0.41279481437E+02  0.89740439607E+02 -0.17815047574E+02  0.10045989453E+03  0.41800000000E+01 0. -1.
</event>
<event>
11    1  0.8551154E-009  0.1941144E+03  0.7561462E-02  0.1058766E+00
         22   -1    0    0    0    0  0.00000000000E+00  0.00000000000E+00  0.39596477804E+03  0.39596477804E+03  0.00000000000E+00 0. -1.
         22   -1    0    0    0    0 -0.00000000000E+00 -0.00000000000E+00 -0.31921713037E+03  0.31921713037E+03  0.00000000000E+00 0.  1.
        -24    2    1    2    0    0  0.13540393100E+02  0.67766370449E+02 -0.16971429238E+03  0.20844071206E+03  0.99342670581E+02 0.  0.
         25    2    1    2    0    0  0.77525061307E+02 -0.17364315683E+03  0.19522597442E+02  0.22845223366E+03  0.12508880929E+03 0.  0.
         24    2    1    2    0    0 -0.91065454407E+02  0.10587678638E+03  0.22693934261E+03  0.27828896269E+03  0.80252542944E+02 0.  0.
        -13    1    5    5    0    0  0.14565656005E+02  0.19056797847E+02  0.40775685837E+02  0.47307255623E+02  0.00000000000E+00 0.  1.
         14    1    5    5    0    0 -0.10563111041E+03  0.86819988534E+02  0.18616365677E+03  0.23098170706E+03  0.00000000000E+00 0. -1.
         11    1    3    3    0    0  0.17398087797E+02  0.68179164721E+02 -0.44690334075E+02  0.83356570951E+02  0.00000000000E+00 0. -1.
        -12    1    3    3    0    0 -0.38576946977E+01 -0.41279427207E+00 -0.12502395830E+03  0.12508414111E+03  0.00000000000E+00 0.  1.
          5    1    4    4  501    0 -0.33743137185E+02 -0.56476239558E+02  0.32946539228E+01  0.66003727820E+02  0.41800000000E+01 0.  1.
         -5    1    4    4    0  501  0.11126819849E+03 -0.11716691727E+03  0.16227943519E+02  0.16244850584E+03  0.41800000000E+01 0.  1.
</event>
<event>
11    1  0.8551154E-009  0.1520625E+03  0.7561462E-02  0.1094790E+00
         22   -1    0    0    0    0  0.00000000000E+00  0.00000000000E+00  0.43456898199E+03  0.43456898199E+03  0.00000000000E+00 0. -1.
         22   -1    0    0    0    0 -0.00000000000E+00 -0.00000000000E+00 -0.50273707708E+03  0.50273707708E+03  0.00000000000E+00 0.  1.
        -24    2    1    2    0    0 -0.10950133583E+02  0.73081769913E+01 -0.41783385195E+03  0.42585023165E+03  0.81178673803E+02 0.  0.
         25    2    1    2    0    0  0.87013593677E+02  0.32089192124E+02  0.14673698001E+02  0.15640916627E+03  0.12508968040E+03 0.  0.
         24    2    1    2    0    0 -0.76063460094E+02 -0.39397369115E+02  0.33499205886E+03  0.35504666116E+03  0.80626605090E+02 0.  0.
        -11    1    5    5    0    0  0.49713642640E+01 -0.16433217083E+02  0.11246513231E+02  0.20524354952E+02  0.00000000000E+00 0.  1.
         12    1    5    5    0    0 -0.81034824358E+02 -0.22964152032E+02  0.32374554563E+03  0.33452230621E+03  0.00000000000E+00 0. -1.
         11    1    3    3    0    0  0.17223490486E+02  0.22419861473E+02 -0.57234488610E+02  0.63836396354E+02  0.00000000000E+00 0. -1.
        -12    1    3    3    0    0 -0.28173624068E+02 -0.15111684482E+02 -0.36059936334E+03  0.36201383529E+03  0.00000000000E+00 0.  1.
          5    1    4    4  501    0  0.12860685783E+02  0.32354565056E+02 -0.47850583112E+02  0.59324243129E+02  0.41800000000E+01 0. -1.
         -5    1    4    4    0  501  0.74152907893E+02 -0.26537293175E+00  0.62524281112E+02  0.97084923137E+02  0.41800000000E+01 0. -1.
</event>
<event>
11    1  0.8551154E-009  0.1759351E+03  0.7561462E-02  0.1072979E+00
         22   -1    0    0    0    0  0.00000000000E+00  0.00000000000E+00  0.84911342404E+03  0.84911342404E+03  0.00000000000E+00 0. -1.
         22   -1    0    0    0    0 -0.00000000000E+00 -0.00000000000E+00 -0.35953517395E+03  0.35953517395E+03  0.00000000000E+00 0.  1.
        -24    2    1    2    0    0 -0.11155306784E+03 -0.54416431646E+02 -0.30963900841E+03  0.34337119082E+03  0.81377049480E+02 0.  0.
         25    2    1    2    0    0  0.10445427601E+03  0.54777109421E+02  0.21289215508E+03  0.27364601831E+03  0.12509135120E+03 0.  0.
         24    2    1    2    0    0  0.70987918221E+01 -0.36067777514E+00  0.58632510342E+03  0.59163138885E+03  0.78740399083E+02 0.  0.
        -11    1    5    5    0    0  0.22322990607E+02  0.15422372443E+02  0.73670886990E+02  0.78508375803E+02  0.00000000000E+00 0.  1.
         12    1    5    5    0    0 -0.15224198784E+02 -0.15783050218E+02  0.51265421643E+03  0.51312301305E+03  0.00000000000E+00 0. -1.
         13    1    3    3    0    0 -0.99687393938E+02 -0.59026245780E+02 -0.18634839750E+03  0.21942515684E+03  0.00000000000E+00 0. -1.
        -14    1    3    3    0    0 -0.11865673899E+02  0.46098141338E+01 -0.12329061090E+03  0.12394603398E+03  0.00000000000E+00 0.  1.
          5    1    4    4  501    0  0.11900089784E+03  0.72680179011E+02  0.20674766320E+03  0.24941068691E+03  0.41800000000E+01 0.  1.
         -5    1    4    4    0  501 -0.14546621826E+02 -0.17903069590E+02  0.61444918835E+01  0.24235331394E+02  0.41800000000E+01 0.  1.
</event>
<event>
11    1  0.8551154E-009  0.2403880E+03  0.7561462E-02  0.1029148E+00
         22   -1    0    0    0    0  0.00000000000E+00  0.00000000000E+00  0.46702435422E+02  0.46702435422E+02  0.00000000000E+00 0.  1.
         22   -1    0    0    0    0 -0.00000000000E+00 -0.00000000000E+00 -0.15834576402E+04  0.15834576402E+04  0.00000000000E+00 0. -1.
        -24    2    1    2    0    0  0.62762009719E-01  0.22860276649E+02 -0.28359683447E+03  0.29460994191E+03  0.76454281535E+02 0.  0.
         25    2    1    2    0    0  0.15495186207E+03  0.12308335643E+03 -0.63187686991E+03  0.67384982385E+03  0.12508242958E+03 0.  0.
         24    2    1    2    0    0 -0.15501462408E+03 -0.14594363308E+03 -0.62128150036E+03  0.66170030981E+03  0.80793066576E+02 0.  0.
        -11    1    5    5    0    0  0.87818640800E+01 -0.16586541827E+02 -0.60102191479E+02  0.62964338535E+02  0.00000000000E+00 0.  1.
         12    1    5    5    0    0 -0.16379648816E+03 -0.12935709125E+03 -0.56117930888E+03  0.59873597128E+03  0.00000000000E+00 0. -1.
         13    1    3    3    0    0 -0.16668164884E+02  0.31414168733E+02 -0.26754019758E+03  0.26989337717E+03  0.00000000000E+00 0. -1.
        -14    1    3    3    0    0  0.16730926894E+02 -0.85538920841E+01 -0.16056636886E+02  0.24716564741E+02  0.00000000000E+00 0.  1.
          5    1    4    4  501    0  0.95717236885E+01 -0.62891442383E+01  0.49012052786E+00  0.12201796907E+02  0.41800000000E+01 0. -1.
         -5    1    4    4    0  501  0.14538013839E+03  0.12937250067E+03 -0.63236699044E+03  0.66164802695E+03  0.41800000000E+01 0. -1.
</event>
<event>
11    1  0.8551154E-009  0.1636846E+03  0.7561462E-02  0.1083662E+00
         22   -1    0    0    0    0  0.00000000000E+00  0.00000000000E+00  0.57811731024E+03  0.57811731024E+03  0.00000000000E+00 0.  1.
         22   -1    0    0    0    0 -0.00000000000E+00 -0.00000000000E+00 -0.41799800060E+03  0.41799800060E+03  0.00000000000E+00 0.  1.
         24    2    1    2    0    0 -0.58347534073E+02 -0.28218517802E+02 -0.28762835335E+03  0.30538131712E+03  0.79542188262E+02 0.  0.
         25    2    1    2    0    0  0.29018352951E+02  0.12869868550E+03 -0.39158760258E+02  0.18597626631E+03  0.12509335182E+03 0.  0.
        -24    2    1    2    0    0  0.29329181123E+02 -0.10048016770E+03  0.48690642325E+03  0.50475772741E+03  0.82134240197E+02 0.  0.
        -13    1    3    3    0    0 -0.46267580053E+02 -0.33998407611E+02 -0.28621307133E+03  0.29191523236E+03  0.00000000000E+00 0.  1.
         14    1    3    3    0    0 -0.12079954021E+02  0.57798898086E+01 -0.14152820154E+01  0.13466084751E+02  0.00000000000E+00 0. -1.
         13    1    5    5    0    0 -0.23727883840E+02 -0.56603572310E+01  0.88122541003E+02  0.91436504463E+02  0.00000000000E+00 0. -1.
        -14    1    5    5    0    0  0.53057064962E+02 -0.94819810468E+02  0.39878388224E+03  0.41332122295E+03  0.00000000000E+00 0.  1.
          5    1    4    4  501    0 -0.39071711864E+02  0.10062578381E+03 -0.22208171872E+02  0.11028518637E+03  0.41800000000E+01 0.  1.
         -5    1    4    4    0  501  0.68090064815E+02  0.28072901694E+02 -0.16950588386E+02  0.75691079941E+02  0.41800000000E+01 0.  1.
</event>
<event>
11    1  0.8551154E-009  0.1451808E+03  0.7561462E-02  0.1101907E+00
         22   -1    0    0    0    0  0.00000000000E+00  0.00000000000E+00  0.11726112078E+03  0.11726112078E+03  0.00000000000E+00 0. -1.
         22   -1    0    0    0    0 -0.00000000000E+00 -0.00000000000E+00 -0.19543678337E+04  0.19543678337E+04  0.00000000000E+00 0. -1.
         24    2    1    2    0    0  0.33039814258E+02  0.32654021397E+02 -0.11336893755E+04  0.11376194427E+04  0.82270784319E+02 0.  0.
         25    2    1    2    0    0 -0.10523186981E+03 -0.23260101054E+02 -0.78414618731E+03  0.80133857569E+03  0.12507394251E+03 0.  0.
        -24    2    1    2    0    0  0.72192055557E+02 -0.93939203431E+01  0.80728849831E+02  0.13267093610E+03  0.76055844392E+02 0.  0.
        -13    1    3    3    0    0 -0.22368066260E+02  0.18630761186E+02 -0.19169876132E+03  0.19389649492E+03  0.00000000000E+00 0.  1.
         14    1    3    3    0    0  0.55407880518E+02  0.14023260211E+02 -0.94199061416E+03  0.94372294780E+03  0.00000000000E+00 0. -1.
         13    1    5    5    0    0  0.82733177825E+02 -0.10279788913E+02  0.86899727462E+02  0.12042431402E+03  0.00000000000E+00 0. -1.
        -14    1    5    5    0    0 -0.10541122268E+02  0.88586857025E+00 -0.61708776307E+01  0.12246622086E+02  0.00000000000E+00 0.  1.
          5    1    4    4  501    0 -0.58020916213E+02 -0.39537814303E+02 -0.15514281618E+03  0.17034210076E+03  0.41800000000E+01 0. -1.
         -5    1    4    4    0  501 -0.47210953602E+02  0.16277713249E+02 -0.62900337113E+03  0.63099647494E+03  0.41800000000E+01 0. -1.
</event>
<event>
11    1  0.8551154E-009  0.1268089E+03  0.7561462E-02  0.1123253E+00
         22   -1    0    0    0    0  0.00000000000E+00  0.00000000000E+00  0.85018570906E+03  0.85018570906E+03  0.00000000000E+00 0.  1.
         22   -1    0    0    0    0 -0.00000000000E+00 -0.00000000000E+00 -0.10139652093E+03  0.10139652093E+03  0.00000000000E+00 0. -1.
        -24    2    1    2    0    0  0.77059499616E+01 -0.33196944496E+01 -0.60096866277E+02  0.10078394857E+03  0.80469677000E+02 0.  0.
         25    2    1    2    0    0 -0.44078489216E+01  0.23845899199E+02  0.20569208973E+03  0.24193540032E+03  0.12504177746E+03 0.  0.
         24    2    1    2    0    0 -0.32981010401E+01 -0.20526204749E+02  0.60319396467E+03  0.60886288110E+03  0.80242422766E+02 0.  0.
        -11    1    5    5    0    0 -0.33570700449E+02  0.76657135874E+00  0.45040951541E+03  0.45165950796E+03  0.00000000000E+00 0.  1.
         12    1    5    5    0    0  0.30272599409E+02 -0.21292776108E+02  0.15278444926E+03  0.15720337313E+03  0.00000000000E+00 0. -1.
         13    1    3    3    0    0  0.10079054432E+02  0.16136144954E+02 -0.74223850989E+02  0.76623381339E+02  0.00000000000E+00 0. -1.
        -14    1    3    3    0    0 -0.23731044703E+01 -0.19455839404E+02  0.14126984712E+02  0.24160567228E+02  0.00000000000E+00 0.  1.
          5    1    4    4  501    0 -0.20636348630E+02  0.28411047239E+02 -0.14882858612E+00  0.35362989692E+02  0.41800000000E+01 0. -1.
         -5    1    4    4    0  501  0.16228499708E+02 -0.45651480403E+01  0.20584091832E+03  0.20657241063E+03  0.41800000000E+01 0. -1.
</event>
<event>
11    1  0.8551154E-009  0.1455271E+03  0.7561462E-02  0.1101539E+00
         22   -1    0    0    0    0  0.00000000000E+00  0.00000000000E+00  0.20856496408E+03  0.20856496408E+03  0.00000000000E+00 0. -1.
         22   -1    0    0    0    0 -0.00000000000E+00 -0.00000000000E+00 -0.11806143225E+04  0.11806143225E+04  0.00000000000E+00 0.  1.
        -24    2    1    2    0    0  0.58947907524E+02  0.48014443509E+02 -0.10252016415E+04  0.10307850110E+04  0.75492321202E+02 0.  0.
         25    2    1    2    0    0 -0.14155224492E+01 -0.76542592417E+02 -0.97006018727E+02  0.17583580999E+03  0.12508913721E+03 0.  0.
         24    2    1    2    0    0 -0.57532385074E+02  0.28528148907E+02  0.15015830185E+03  0.18255846555E+03  0.81585826707E+02 0.  0.
        -13    1    5    5    0    0  0.20949221040E+02  0.45098908114E+01  0.37205154008E+02  0.42935212380E+02  0.00000000000E+00 0.  1.
         14    1    5    5    0    0 -0.78481606114E+02  0.24018258096E+02  0.11295314784E+03  0.13962325317E+03  0.00000000000E+00 0. -1.
         11    1    3    3    0    0  0.38852216602E+02  0.43750145182E+02 -0.32133621148E+03  0.32661985663E+03  0.00000000000E+00 0. -1.
        -12    1    3    3    0    0  0.20095690922E+02  0.42642983276E+01 -0.70386543006E+03  0.70416515440E+03  0.00000000000E+00 0.  1.
          5    1    4    4  501    0  0.26752164214E+02  0.44695188726E+01  0.17619652621E+02  0.32612565792E+02  0.41800000000E+01 0. -1.
         -5    1    4    4    0  501 -0.28167686663E+02 -0.81012111289E+02 -0.11462567135E+03  0.14322324420E+03  0.41800000000E+01 0. -1.
</event>
<event>
11    1  0.8551154E-009  0.1497423E+03  0.7561462E-02  0.1097142E+00
         22   -1    0    0    0    0  0.00000000000E+00  0.00000000000E+00  0.40999309507E+03  0.40999309507E+03  0.00000000000E+00 0. -1.
         22   -1    0    0    0    0 -0.00000000000E+00 -0.00000000000E+00 -0.15741747091E+04  0.15741747091E+04  0.00000000000E+00 0.  1.
         24    2    1    2    0    0 -0.18634617718E+02 -0.57817182030E+02 -0.10254935153E+04  0.10305782988E+04  0.82247215744E+02 0.  0.
         25    2    1    2    0    0 -0.26696112870E+02 -0.11970587585E+02 -0.53007770772E+03  0.54542179281E+03  0.12508628398E+03 0.  0.
        -24    2    1    2    0    0  0.45330730588E+02  0.69787769615E+02  0.39138960900E+03  0.40816771255E+03  0.80559590423E+02 0.  0.
        -11    1    3    3    0    0 -0.13032287988E+02 -0.55019772501E+02 -0.10216866046E+04  0.10232499861E+04  0.00000000000E+00 0.  1.
         12    1    3    3    0    0 -0.56023297299E+01 -0.27974095291E+01 -0.38069106559E+01  0.73283127129E+01  0.00000000000E+00 0. -1.
         13    1    5    5    0    0  0.60316690324E+02  0.77388004860E+02  0.31389933473E+03  0.32887657073E+03  0.00000000000E+00 0. -1.
        -14    1    5    5    0    0 -0.14985959736E+02 -0.76002352448E+01  0.77490274269E+02  0.79291141821E+02  0.00000000000E+00 0.  1.
          5    1    4    4  501    0 -0.69665600274E+02 -0.30054705779E+02 -0.24456657025E+03  0.25609931840E+03  0.41800000000E+01 0. -1.
         -5    1    4    4    0  501  0.42969487404E+02  0.18084118194E+02 -0.28551113747E+03  0.28932247440E+03  0.41800000000E+01 0. -1.
</event>
<event>
11    1  0.8551154E-009  0.1379239E+03  0.7561462E-02  0.1109899E+00
         22   -1    0    0    0    0  0.00000000000E+00  0.00000000000E+00  0.21471612892E+03  0.21471612892E+03  0.00000000000E+00 0. -1.
         22   -1    0    0    0    0 -0.00000000000E+00 -0.00000000000E+00 -0.54538357378E+03  0.54538357378E+03  0.00000000000E+00 0. -1.
        -24    2    1    2    0    0  0.54236160685E+02  0.84732674993E+01 -0.41910741217E+03  0.43039891648E+03  0.81110091780E+02 0.  0.
         25    2    1    2    0    0 -0.87858936263E+02 -0.13920397360E+02 -0.54029138298E+02  0.16272547166E+03  0.12508981253E+03 0.  0.
         24    2    1    2    0    0  0.33622775578E+02  0.54471298606E+01  0.14246910560E+03  0.16697531456E+03  0.80144540420E+02 0.  0.
        -13    1    5    5    0    0  0.22152077392E+00  0.26384214992E+02  0.91127880031E+01  0.27914490456E+02  0.00000000000E+00 0.  1.
         14    1    5    5    0    0  0.33401254804E+02 -0.20937085132E+02  0.13335631760E+03  0.13906082410E+03  0.00000000000E+00 0. -1.
         13    1    3    3    0    0 -0.45662769468E+01 -0.10746543522E+02 -0.25097326929E+03  0.25124474319E+03  0.00000000000E+00 0. -1.
        -14    1    3    3    0    0  0.58802437632E+02  0.19219811021E+02 -0.16813414288E+03  0.17915417329E+03  0.00000000000E+00 0.  1.
          5    1    4    4  501    0 -0.54003304024E+02  0.20470369272E+02 -0.86728568283E+02  0.10428187676E+03  0.41800000000E+01 0.  1.
         -5    1    4    4    0  501 -0.33855632239E+02 -0.34390766632E+02  0.32699429984E+02  0.58443594902E+02  0.41800000000E+01 0.  1.
</event>
<event>
11    1  0.8551154E-009  0.1377497E+03  0.7561462E-02  0.1110098E+00
         22   -1    0    0    0    0  0.00000000000E+00  0.00000000000E+00  0.57852554364E+03  0.57852554364E+03  0.00000000000E+00 0. -1.
         22   -1    0    0    0    0 -0.00000000000E+00 -0.00000000000E+00 -0.23349141702E+03  0.23349141702E+03  0.00000000000E+00 0.  1.
        -24    2    1    2    0    0 -0.57583272878E+02  0.11571844909E+02 -0.19963480814E+03  0.22312768617E+03  0.80511904721E+02 0.  0.
         25    2    1    2    0    0  0.31748706993E+02 -0.23354253193E+02  0.22973301649E+03  0.26453139770E+03  0.12508477111E+03 0.  0.
         24    2    1    2    0    0  0.25834565885E+02  0.11782408283E+02  0.31493591827E+03  0.32435787679E+03  0.72229839251E+02 0.  0.
        -13    1    5    5    0    0 -0.66156912995E+01 -0.20948212244E+02  0.18863722496E+03  0.18991207863E+03  0.00000000000E+00 0.  1.
         14    1    5    5    0    0  0.32450257185E+02  0.32730620527E+02  0.12629869331E+03  0.13444579816E+03  0.00000000000E+00 0. -1.
         11    1    3    3    0    0 -0.12830081606E+02  0.15363387854E+02 -0.16182358573E+01  0.20081418467E+02  0.00000000000E+00 0. -1.
        -12    1    3    3    0    0 -0.44753191272E+02 -0.37915429441E+01 -0.19801657229E+03  0.20304626770E+03  0.00000000000E+00 0.  1.
          5    1    4    4  501    0 -0.39571922933E+02 -0.22781479314E+02  0.15284002741E+03  0.15956966899E+03  0.41800000000E+01 0. -1.
         -5    1    4    4    0  501  0.71320629926E+02 -0.57277387836E+00  0.76892989082E+02  0.10496172871E+03  0.41800000000E+01 0. -1.
</event>
<event>
11    1  0.8551154E-009  0.1354839E+03  0.7561462E-02  0.1112709E+00
         22   -1    0    0    0    0  0.00000000000E+00  0.00000000000E+00  0.22409605841E+04  0.22409605841E+04  0.00000000000E+00 0.  1.
         22   -1    0    0    0    0 -0.00000000000E+00 -0.00000000000E+00 -0.61439097153E+03  0.61439097153E+03  0.00000000000E+00 0.  1.
        -24    2    1    2    0    0 -0.37855021682E+01  0.51407663845E+02 -0.59282701764E+03  0.60114099409E+03  0.85261620963E+02 0.  0.
         25    2    1    2    0    0  0.27761132893E+02 -0.93821770983E+02  0.37244923043E+03  0.40489764768E+03  0.12510184107E+03 0.  0.
         24    2    1    2    0    0 -0.23975630725E+02  0.42414107139E+02  0.18469473998E+04  0.18493129138E+04  0.79810829170E+02 0.  0.
        -11    1    5    5    0    0 -0.42325106525E+02  0.54740837187E+02  0.15500682560E+04  0.15516119271E+04  0.00000000000E+00 0.  1.
         12    1    5    5    0    0  0.18349475800E+02 -0.12326730049E+02  0.29687914374E+03  0.29770098677E+03  0.00000000000E+00 0. -1.
         11    1    3    3    0    0 -0.45536820049E+01  0.10149206521E+02 -0.55784132439E+01  0.12444320276E+02  0.00000000000E+00 0. -1.
        -12    1    3    3    0    0  0.76817983667E+00  0.41258457324E+02 -0.58724860439E+03  0.58869667382E+03  0.00000000000E+00 0.  1.
          5    1    4    4  501    0 -0.42295462467E+02 -0.95102830147E+01  0.15969311432E+03  0.16552557141E+03  0.41800000000E+01 0. -1.
         -5    1    4    4    0  501  0.70056595360E+02 -0.84311487969E+02  0.21275611611E+03  0.23937207627E+03  0.41800000000E+01 0. -1.
</event>
<event>
11    1  0.8551154E-009  0.1485144E+03  0.7561462E-02  0.1098406E+00
         22   -1    0    0    0    0  0.00000000000E+00  0.00000000000E+00  0.10422278072E+03  0.10422278072E+03  0.00000000000E+00 0.  1.
         22   -1    0    0    0    0 -0.00000000000E+00 -0.00000000000E+00 -0.95449831187E+03  0.95449831187E+03  0.00000000000E+00 0.  1.
        -24    2    1    2    0    0  0.60101535766E+01 -0.35861150432E+02 -0.54061361590E+03  0.54775011056E+03  0.80280494874E+02 0.  0.
         25    2    1    2    0    0  0.74345186121E+02  0.26122649475E+02 -0.35753070079E+03  0.38689233181E+03  0.12509146611E+03 0.  0.
         24    2    1    2    0    0 -0.80355339698E+02  0.97385009570E+01  0.47868785548E+02  0.12407865022E+03  0.80946104244E+02 0.  0.
        -11    1    5    5    0    0 -0.35792536516E+02 -0.98654208479E+01  0.62974989040E+02  0.73104592492E+02  0.00000000000E+00 0.  1.
         12    1    5    5    0    0 -0.44562803183E+02  0.19603921805E+02 -0.15106203492E+02  0.50974057731E+02  0.00000000000E+00 0. -1.
         11    1    3    3    0    0  0.28883365202E+02 -0.20874993309E+02 -0.97759786602E+02  0.10405282316E+03  0.00000000000E+00 0. -1.
        -12    1    3    3    0    0 -0.22873211626E+02 -0.14986157122E+02 -0.44285382930E+03  0.44369728740E+03  0.00000000000E+00 0.  1.
          5    1    4    4  501    0  0.58008319094E+01  0.66325318939E+02 -0.13546208540E+03  0.15099717403E+03  0.41800000000E+01 0.  1.
         -5    1    4    4    0  501  0.68544354212E+02 -0.40202669464E+02 -0.22206861539E+03  0.23589515778E+03  0.41800000000E+01 0.  1.
</event>
<event>
11    1  0.8551154E-009  0.1647867E+03  0.7561462E-02  0.1082660E+00
         22   -1    0    0    0    0  0.00000000000E+00  0.00000000000E+00  0.25134076919E+03  0.25134076919E+03  0.00000000000E+00 0.  1.
         22   -1    0    0    0    0 -0.00000000000E+00 -0.00000000000E+00 -0.27013990309E+03  0.27013990309E+03  0.00000000000E+00 0.  1.
        -24    2    1    2    0    0 -0.92075922222E+02  0.44325971296E+02 -0.13938045985E+03  0.19084810891E+03  0.80952584296E+02 0.  0.
         25    2    1    2    0    0  0.11549653236E+03 -0.45402174199E+02 -0.85626997089E+01  0.17641209735E+03  0.12508837619E+03 0.  0.
         24    2    1    2    0    0 -0.23420610139E+02  0.10762029029E+01  0.12914402565E+03  0.15422046601E+03  0.80969683108E+02 0.  0.
        -11    1    5    5    0    0  0.10287479125E+02  0.22779059557E+01  0.11833235208E+03  0.11880053296E+03  0.00000000000E+00 0.  1.
         12    1    5    5    0    0 -0.33708089263E+02 -0.12017030529E+01  0.10811673573E+02  0.35419933053E+02  0.00000000000E+00 0. -1.
         11    1    3    3    0    0 -0.11819145176E+02  0.46301981111E+02 -0.35339671792E+02  0.59434485359E+02  0.00000000000E+00 0. -1.
        -12    1    3    3    0    0 -0.80256777046E+02 -0.19760098149E+01 -0.10404078806E+03  0.13141362356E+03  0.00000000000E+00 0.  1.
          5    1    4    4  501    0  0.52792254597E+02 -0.10820227788E+02 -0.65434458605E+02  0.84871904938E+02  0.41800000000E+01 0.  1.
         -5    1    4    4    0  501  0.62704277763E+02 -0.34581946411E+02  0.56871758896E+02  0.91540192415E+02  0.41800000000E+01 0.  1.
</event>
<event>
11    1  0.8551154E-009  0.1437910E+03  0.7561462E-02  0.1103397E+00
         22   -1    0    0    0    0  0.00000000000E+00  0.00000000000E+00  0.20669699502E+04  0.20669699502E+04  0.00000000000E+00 0.  1.
         22   -1    0    0    0    0 -0.00000000000E+00 -0.00000000000E+00 -0.29638807433E+03  0.29638807433E+03  0.00000000000E+00 0. -1.
         24    2    1    2    0    0  0.17485684778E+02 -0.68602396889E+02 -0.26329003098E+03  0.28556230162E+03  0.84924376139E+02 0.  0.
         25    2    1    2    0    0 -0.81307167924E+01  0.73532517940E+02  0.23080414727E+03  0.27274992451E+03  0.12509527239E+03 0.  0.
        -24    2    1    2    0    0 -0.93549679861E+01 -0.49301210510E+01  0.18030677596E+04  0.18050457984E+04  0.83816269968E+02 0.  0.
        -11    1    3    3    0    0 -0.19351808385E+02 -0.29900474506E+02 -0.31035963814E+02  0.47241527424E+02  0.00000000000E+00 0.  1.
         12    1    3    3    0    0  0.36837493164E+02 -0.38701922383E+02 -0.23225406717E+03  0.23832077420E+03  0.00000000000E+00 0. -1.
         13    1    5    5    0    0  0.25580493680E+02  0.39067221231E+01  0.21248705404E+03  0.21405693698E+03  0.00000000000E+00 0. -1.
        -14    1    5    5    0    0 -0.34935461666E+02 -0.88368431741E+01  0.15905807056E+04  0.15909888614E+04  0.00000000000E+00 0.  1.
          5    1    4    4  501    0  0.40386636726E+02  0.15150902261E+02  0.16989344191E+03  0.17533363702E+03  0.41800000000E+01 0.  1.
         -5    1    4    4    0  501 -0.48517353518E+02  0.58381615679E+02  0.60910705360E+02  0.97416287494E+02  0.41800000000E+01 0.  1.
</event>
<event>
11    1  0.8551154E-009  0.1657707E+03  0.7561462E-02  0.1081772E+00
         22   -1    0    0    0    0  0.00000000000E+00  0.00000000000E+00  0.81797538180E+02  0.81797538180E+02  0.00000000000E+00 0. -1.
         22   -1    0    0    0    0 -0.00000000000E+00 -0.00000000000E+00 -0.70901569493E+03  0.70901569493E+03  0.00000000000E+00 0. -1.
         24    2    1    2    0    0  0.33167658480E+02 -0.55675873920E+02 -0.17518668630E+03  0.20096492554E+03  0.74139259054E+02 0.  0.
         25    2    1    2    0    0 -0.10683815552E+03  0.11948943867E+03 -0.40149070675E+03  0.45004009235E+03  0.12509668137E+03 0.  0.
        -24    2    1    2    0    0  0.73670497038E+02 -0.63813564754E+02 -0.50540763692E+02  0.13980821521E+03  0.86558968722E+02 0.  0.
        -11    1    3    3    0    0  0.35980374012E+02  0.45423868980E+01 -0.47490700175E+02  0.59754390599E+02  0.00000000000E+00 0.  1.
         12    1    3    3    0    0 -0.28127155326E+01 -0.60218260818E+02 -0.12769598613E+03  0.14121053494E+03  0.00000000000E+00 0. -1.
         11    1    5    5    0    0  0.86108675172E+02 -0.53960259652E+02 -0.17445655775E+02  0.10310559862E+03  0.00000000000E+00 0. -1.
        -12    1    5    5    0    0 -0.12438178134E+02 -0.98533051018E+01 -0.33095107916E+02  0.36702616592E+02  0.00000000000E+00 0.  1.
          5    1    4    4  501    0 -0.73911852508E+02  0.79787368301E+02 -0.11280399406E+03  0.15675203207E+03  0.41800000000E+01 0. -1.
         -5    1    4    4    0  501 -0.32926303009E+02  0.39702070372E+02 -0.28868671269E+03  0.29328806028E+03  0.41800000000E+01 0. -1.
</event>
<event>
11    1  0.8551154E-009  0.1300905E+03  0.7561462E-02  0.1119158E+00
         22   -1    0    0    0    0  0.00000000000E+00  0.00000000000E+00  0.12222260473E+04  0.12222260473E+04  0.00000000000E+00 0.  1.
         22   -1    0    0    0    0 -0.00000000000E+00 -0.00000000000E+00 -0.37409666696E+03  0.37409666696E+03  0.00000000000E+00 0.  1.
         24    2    1    2    0    0 -0.16079351641E+02  0.33026270474E+02 -0.33492934993E+03  0.34607490473E+03  0.78999304736E+02 0.  0.
         25    2    1    2    0    0  0.49092555319E+01 -0.12807627927E+02  0.91740594490E+02  0.15572662656E+03  0.12508520864E+03 0.  0.
        -24    2    1    2    0    0  0.11170096110E+02 -0.20218642547E+02  0.10913181358E+04  0.10945211830E+04  0.80422521239E+02 0.  0.
        -11    1    3    3    0    0 -0.21445228827E+02 -0.74529412663E+01 -0.25785111006E+03  0.25884867999E+03  0.00000000000E+00 0.  1.
         12    1    3    3    0    0  0.53658771855E+01  0.40479211740E+02 -0.77078239869E+02  0.87226224740E+02  0.00000000000E+00 0. -1.
         11    1    5    5    0    0  0.17375202592E+02  0.23348103283E+02  0.72266301668E+03  0.72324882805E+03  0.00000000000E+00 0. -1.
        -12    1    5    5    0    0 -0.62051064828E+01 -0.43566745829E+02  0.36865511910E+03  0.37127235492E+03  0.00000000000E+00 0.  1.
          5    1    4    4  501    0  0.41405279495E+02 -0.34799980712E+02  0.98433056339E+02  0.11239205847E+03  0.41800000000E+01 0. -1.
         -5    1    4    4    0  501 -0.36496023963E+02  0.21992352785E+02 -0.66924618495E+01  0.43334568092E+02  0.41800000000E+01 0. -1.
</event>
<event>
11    1  0.8551154E-009  0.1324001E+03  0.7561462E-02  0.1116355E+00
         22   -1    0    0    0    0  0.00000000000E+00  0.00000000000E+00  0.69900750984E+03  0.69900750984E+03  0.00000000000E+00 0.  1.
         22   -1    0    0    0    0 -0.00000000000E+00 -0.00000000000E+00 -0.14938234897E+04  0.14938234897E+04  0.00000000000E+00 0.  1.
        -24    2    1    2    0    0  0.40623877661E+02  0.13949901906E+01 -0.14409824807E+04  0.14437432933E+04  0.79447730130E+02 0.  0.
         25    2    1    2    0    0 -0.34239795506E+02  0.41943614581E+02  0.48771619320E+02  0.14476413756E+03  0.12508538792E+03 0.  0.
         24    2    1    2    0    0 -0.63840821554E+01 -0.43338604771E+02  0.59739488154E+03  0.60432356867E+03  0.80045861757E+02 0.  0.
        -13    1    5    5    0    0 -0.27944186699E+02 -0.55133457713E+02  0.32524123815E+03  0.33106259034E+03  0.00000000000E+00 0.  1.
         14    1    5    5    0    0  0.21560104544E+02  0.11794852942E+02  0.27215364340E+03  0.27326097833E+03  0.00000000000E+00 0. -1.
         13    1    3    3    0    0  0.88205004866E+01 -0.30428121229E+02 -0.26288987981E+03  0.26479191962E+03  0.00000000000E+00 0. -1.
        -14    1    3    3    0    0  0.31803377175E+02  0.31823111420E+02 -0.11780926009E+04  0.11789513737E+04  0.00000000000E+00 0.  1.
          5    1    4    4  501    0 -0.24739886925E+02  0.27494536964E+02 -0.39759181151E+02  0.54463533247E+02  0.41800000000E+01 0.  1.
         -5    1    4    4    0  501 -0.94999085809E+01  0.14449077617E+02  0.88530800471E+02  0.90300604312E+02  0.41800000000E+01 0.  1.
</event>
<event>
11    1  0.8551154E-009  0.1477895E+03  0.7561462E-02  0.1099159E+00
         22   -1    0    0    0    0  0.00000000000E+00  0.00000000000E+00  0.49221127904E+03  0.49221127904E+03  0.00000000000E+00 0. -1.
         22   -1    0    0    0    0 -0.00000000000E+00 -0.00000000000E+00 -0.40259448338E+03  0.40259448338E+03  0.00000000000E+00 0. -1.
        -24    2    1    2    0    0 -0.35522865667E+02  0.71000713772E+02 -0.27911835537E+03  0.30160942770E+03  0.82208364744E+02 0.  0.
         25    2    1    2    0    0  0.69002144269E+02 -0.47856271314E+02 -0.54786099412E+02  0.16031281325E+03  0.12508861973E+03 0.  0.
         24    2    1    2    0    0 -0.33479278602E+02 -0.23144442458E+02  0.42352125044E+03  0.43288352146E+03  0.79758173665E+02 0.  0.
        -13    1    5    5    0    0  0.17913033675E+02  0.16455580650E+02  0.13299503979E+03  0.13520112248E+03  0.00000000000E+00 0.  1.
         14    1    5    5    0    0 -0.51392312276E+02 -0.39600023109E+02  0.29052621064E+03  0.29768239898E+03  0.00000000000E+00 0. -1.
         11    1    3    3    0    0 -0.23358482280E+01  0.67051801584E+02 -0.24430540557E+03  0.25335060978E+03  0.00000000000E+00 0. -1.
        -12    1    3    3    0    0 -0.33187017440E+02  0.39489121878E+01 -0.34812949795E+02  0.48258817924E+02  0.00000000000E+00 0.  1.
          5    1    4    4  501    0  0.38792580130E+02  0.20723167337E+02  0.25008662335E+02  0.50766322788E+02  0.41800000000E+01 0. -1.
         -5    1    4    4    0  501  0.30209564139E+02 -0.68579438651E+02 -0.79794761746E+02  0.10954649047E+03  0.41800000000E+01 0. -1.
</event>
<event>
11    1  0.8551154E-009  0.1404494E+03  0.7561462E-02  0.1107058E+00
         22   -1    0    0    0    0  0.00000000000E+00  0.00000000000E+00  0.55487653079E+03  0.55487653079E+03  0.00000000000E+00 0. -1.
         22   -1    0    0    0    0 -0.00000000000E+00 -0.00000000000E+00 -0.15461061628E+03  0.15461061628E+03  0.00000000000E+00 0. -1.
        -24    2    1    2    0    0  0.10180208085E+02 -0.18846298392E+02 -0.10279512855E+03  0.13389050456E+03  0.83072312827E+02 0.  0.
         25    2    1    2    0    0  0.35135247403E+02  0.61849831269E+02  0.15448758261E+03  0.21112665278E+03  0.12509261807E+03 0.  0.
         24    2    1    2    0    0 -0.45315455488E+02 -0.43003532877E+02  0.34857346044E+03  0.36446998973E+03  0.86209754344E+02 0.  0.
        -11    1    5    5    0    0 -0.26142964070E+02 -0.76744485413E+01  0.20896469662E+02  0.34336775841E+02  0.00000000000E+00 0.  1.
         12    1    5    5    0    0 -0.19172491417E+02 -0.35329084336E+02  0.32767699077E+03  0.33013321388E+03  0.00000000000E+00 0. -1.
         13    1    3    3    0    0  0.34801085336E+02  0.59643126212E+01 -0.89983538865E+02  0.96662949635E+02  0.00000000000E+00 0. -1.
        -14    1    3    3    0    0 -0.24620877251E+02 -0.24810611013E+02 -0.12811589684E+02  0.37227554925E+02  0.00000000000E+00 0.  1.
          5    1    4    4  501    0  0.15076335311E+02  0.90846154760E+01  0.15345048007E+03  0.15451326273E+03  0.41800000000E+01 0. -1.
         -5    1    4    4    0  501  0.20058912092E+02  0.52765215793E+02  0.10371025438E+01  0.56613390057E+02  0.41800000000E+01 0. -1.
</event>
<event>
11    1  0.8551154E-009  0.2128224E+03  0.7561462E-02  0.1045809E+00
         22   -1    0    0    0    0  0.00000000000E+00  0.00000000000E+00  0.14110329845E+03  0.14110329845E+03  0.00000000000E+00 0.  1.
         22   -1    0    0    0    0 -0.00000000000E+00 -0.00000000000E+00 -0.20067436475E+04  0.20067436475E+04  0.00000000000E+00 0.  1.
        -24    2    1    2    0    0  0.62545171812E+01  0.12513398255E+03 -0.16419758810E+04  0.16487456045E+04  0.81114992104E+02 0.  0.
         25    2    1    2    0    0  0.89162626830E+02 -0.23048553254E+03 -0.17066123058E+03  0.32533947009E+03  0.12508781091E+03 0.  0.
         24    2    1    2    0    0 -0.95417144011E+02  0.10535154999E+03 -0.53003237407E+02  0.17376187132E+03  0.84737620284E+02 0.  0.
        -11    1    5    5    0    0 -0.13358282189E+02  0.57082163328E+02 -0.52290313576E+02  0.78556310804E+02  0.00000000000E+00 0.  1.
         12    1    5    5    0    0 -0.82058861822E+02  0.48269386664E+02 -0.71292383195E+00  0.95205560514E+02  0.00000000000E+00 0. -1.
         11    1    3    3    0    0  0.12984863974E+02  0.30710530615E+02 -0.14519526496E+03  0.14897452249E+03  0.00000000000E+00 0. -1.
        -12    1    3    3    0    0 -0.67303467926E+01  0.94423451934E+02 -0.14967806161E+04  0.14997710820E+04  0.00000000000E+00 0.  1.
          5    1    4    4  501    0  0.10021397336E+03 -0.15505846131E+03 -0.66682123859E+02  0.19634139890E+03  0.41800000000E+01 0. -1.
         -5    1    4    4    0  501 -0.11051346533E+02 -0.75427071233E+02 -0.10397910672E+03  0.12899807118E+03  0.41800000000E+01 0. -1.
</event>
<event>
11    1  0.8551154E-009  0.1417863E+03  0.7561462E-02  0.1105580E+00
         22   -1    0    0    0    0  0.00000000000E+00  0.00000000000E+00  0.70917068304E+03  0.70917068304E+03  0.00000000000E+00 0. -1.
         22   -1    0    0    0    0 -0.00000000000E+00 -0.00000000000E+00 -0.49172534860E+03  0.49172534860E+03  0.00000000000E+00 0.  1.
         24    2    1    2    0    0 -0.63321583618E+02 -0.22540274589E+02 -0.43818936746E+03  0.45040479120E+03  0.79604442392E+02 0.  0.
         25    2    1    2    0    0  0.52008634520E+02  0.28777278279E+02  0.62736575394E+02  0.15203967990E+03  0.12508859485E+03 0.  0.
        -24    2    1    2    0    0  0.11312949098E+02 -0.62370036904E+01  0.59289812650E+03  0.59845156055E+03  0.80306904281E+02 0.  0.
        -13    1    3    3    0    0 -0.23140749957E+02  0.67306727689E+01 -0.33499369540E+03  0.33585945308E+03  0.00000000000E+00 0.  1.
         14    1    3    3    0    0 -0.40180833662E+02 -0.29270947358E+02 -0.10319567206E+03  0.11454533812E+03  0.00000000000E+00 0. -1.
         11    1    5    5    0    0 -0.34272072106E+02  0.24692240401E+01  0.28780056485E+03  0.28984450507E+03  0.00000000000E+00 0. -1.
        -12    1    5    5    0    0  0.45585021204E+02 -0.87062277304E+01  0.30509756165E+03  0.30860705547E+03  0.00000000000E+00 0.  1.
          5    1    4    4  501    0 -0.12400427496E+02 -0.90229907400E+01 -0.29364854857E+02  0.33390897933E+02  0.41800000000E+01 0.  1.
         -5    1    4    4    0  501  0.64409062016E+02  0.37800269019E+02  0.92101430251E+02  0.11864878197E+03  0.41800000000E+01 0.  1.
</event>
<event>
11    1  0.8551154E-009  0.1530515E+03  0.7561462E-02  0.1093801E+00
         22   -1    0    0    0    0  0.00000000000E+00  0.00000000000E+00  0.81038578820E+03  0.81038578820E+03  0.00000000000E+00 0.  1.
         22   -1    0    0    0    0 -0.00000000000E+00 -0.00000000000E+00 -0.35553947461E+03  0.35553947461E+03  0.00000000000E+00 0.  1.
        -24    2    1    2    0    0  0.29118739869E+02 -0.84009492233E+02 -0.32418456255E+03  0.34608318941E+03  0.82294881967E+02 0.  0.
         25    2    1    2    0    0 -0.27909136584E+02  0.62555237823E+02  0.28320040830E+03  0.31708452581E+03  0.12509215627E+03 0.  0.
         24    2    1    2    0    0 -0.12096032854E+01  0.21454254410E+02  0.49583046783E+03  0.50275754759E+03  0.80346441441E+02 0.  0.
        -13    1    5    5    0    0  0.20039909191E+01  0.24285267331E+02  0.49754719129E+03  0.49814355135E+03  0.00000000000E+00 0.  1.
         14    1    5    5    0    0 -0.32135942046E+01 -0.28310129209E+01 -0.17167234571E+01  0.46139962395E+01  0.00000000000E+00 0. -1.
         13    1    3    3    0    0  0.34788360738E+02 -0.43095026222E+01 -0.54406810473E+02  0.64721734229E+02  0.00000000000E+00 0. -1.
        -14    1    3    3    0    0 -0.56696208688E+01 -0.79699989611E+02 -0.26977775208E+03  0.28136145518E+03  0.00000000000E+00 0.  1.
          5    1    4    4  501    0 -0.70281005169E+02  0.41052039145E+02  0.10677373299E+03  0.13432346058E+03  0.41800000000E+01 0.  1.
         -5    1    4    4    0  501  0.42371868585E+02  0.21503198678E+02  0.17642667532E+03  0.18276106523E+03  0.41800000000E+01 0.  1.
</event>
<event>
11    1  0.8551154E-009  0.1357387E+03  0.7561462E-02  0.1112412E+00
         22   -1    0    0    0    0  0.00000000000E+00  0.00000000000E+00  0.67640527271E+03  0.67640527271E+03  0.00000000000E+00 0. -1.
         22   -1    0    0    0    0 -0.00000000000E+00 -0.00000000000E+00 -0.44370081497E+03  0.44370081497E+03  0.00000000000E+00 0.  1.
         24    2    1    2    0    0 -0.52655281624E+02  0.14905906666E+02 -0.40094768574E+03  0.41285884752E+03  0.81845076447E+02 0.  0.
         25    2    1    2    0    0  0.11379182757E+02 -0.37536361506E+01  0.86406026937E+02  0.15250540678E+03  0.12509325330E+03 0.  0.
        -24    2    1    2    0    0  0.41276098866E+02 -0.11152270515E+02  0.54724611654E+03  0.55474183338E+03  0.80200375046E+02 0.  0.
        -13    1    3    3    0    0 -0.67184520073E+02  0.26831989297E+02 -0.23588997021E+03  0.24673425671E+03  0.00000000000E+00 0.  1.
         14    1    3    3    0    0  0.14529238449E+02 -0.11926082631E+02 -0.16505771552E+03  0.16612459081E+03  0.00000000000E+00 0. -1.
         11    1    5    5    0    0  0.88140006149E+01 -0.17044280559E+02  0.47422750503E+03  0.47461555035E+03  0.00000000000E+00 0. -1.
        -12    1    5    5    0    0  0.32462098251E+02  0.58920100439E+01  0.73018611505E+02  0.80126283025E+02  0.00000000000E+00 0.  1.
          5    1    4    4  501    0 -0.72878778852E+01 -0.51779080647E+02  0.75338363790E+00  0.52461665468E+02  0.41800000000E+01 0. -1.
         -5    1    4    4    0  501  0.18667060642E+02  0.48025444497E+02  0.85652643300E+02  0.10004374132E+03  0.41800000000E+01 0. -1.
</event>
<event>
11    1  0.8551154E-009  0.1497355E+03  0.7561462E-02  0.1097149E+00
         22   -1    0    0    0    0  0.00000000000E+00  0.00000000000E+00  0.32104162874E+03  0.32104162874E+03  0.00000000000E+00 0.  1.
         22   -1    0    0    0    0 -0.00000000000E+00 -0.00000000000E+00 -0.74833808861E+03  0.74833808861E+03  0.00000000000E+00 0.  1.
         24    2    1    2    0    0 -0.16486523275E+02  0.87102383120E+02 -0.64120843531E+03  0.65223114496E+03  0.79991114206E+02 0.  0.
         25    2    1    2    0    0  0.82645815462E+01 -0.29566377487E+02 -0.47554152590E+02  0.13730099220E+03  0.12509073125E+03 0.  0.
        -24    2    1    2    0    0  0.82219417285E+01 -0.57536005633E+02  0.26146612803E+03  0.27984758020E+03  0.81068734851E+02 0.  0.
        -13    1    3    3    0    0 -0.25654284612E+02  0.46989545872E+02 -0.54459938497E+03  0.54722449675E+03  0.00000000000E+00 0.  1.
         14    1    3    3    0    0  0.91677613373E+01  0.40112837248E+02 -0.96609050340E+02  0.10500664821E+03  0.00000000000E+00 0. -1.
         11    1    5    5    0    0  0.18550666088E+02 -0.31327354433E+02  0.31443516873E+02  0.48106393561E+02  0.00000000000E+00 0. -1.
        -12    1    5    5    0    0 -0.10328724359E+02 -0.26208651200E+02  0.23002261115E+03  0.23174118664E+03  0.00000000000E+00 0.  1.
          5    1    4    4  501    0 -0.39724350179E+02 -0.54166810178E+02 -0.32444218576E+01  0.67380011837E+02  0.41800000000E+01 0.  1.
         -5    1    4    4    0  501  0.47988931725E+02  0.24600432691E+02 -0.44309730732E+02  0.69920980358E+02  0.41800000000E+01 0.  1.
</event>
<event>
11    1  0.8551154E-009  0.1554781E+03  0.7561462E-02  0.1091409E+00
         22   -1    0    0    0    0  0.00000000000E+00  0.00000000000E+00  0.13491354820E+03  0.13491354820E+03  0.00000000000E+00 0.  1.
         22   -1    0    0    0    0 -0.00000000000E+00 -0.00000000000E+00 -0.57986211007E+03  0.57986211007E+03  0.00000000000E+00 0. -1.
         24    2    1    2    0    0  0.19736023943E+02  0.92119787303E+02 -0.44500601073E+03  0.46193485417E+03  0.80485365468E+02 0.  0.
         25    2    1    2    0    0  0.24320759160E+01 -0.82372513972E+02 -0.49282384611E+02  0.15769531637E+03  0.12509161971E+03 0.  0.
        -24    2    1    2    0    0 -0.22168099859E+02 -0.97472733307E+01  0.49339833468E+02  0.95145487728E+02  0.77664732535E+02 0.  0.
        -11    1    3    3    0    0 -0.22695662083E+02  0.65295597703E+02 -0.19373593966E+03  0.20569934972E+03  0.00000000000E+00 0.  1.
         12    1    3    3    0    0  0.42431686026E+02  0.26824189600E+02 -0.25127007107E+03  0.25623550445E+03  0.00000000000E+00 0. -1.
         11    1    5    5    0    0  0.19679364344E+02 -0.29142541736E+02  0.23221180770E+02  0.42140103894E+02  0.00000000000E+00 0. -1.
        -12    1    5    5    0    0 -0.41847464203E+02  0.19395268405E+02  0.26118652698E+02  0.53005383835E+02  0.00000000000E+00 0.  1.
          5    1    4    4  501    0  0.24128471302E+02 -0.42280082036E+02  0.36144675783E+02  0.60775804822E+02  0.41800000000E+01 0. -1.
         -5    1    4    4    0  501 -0.21696395386E+02 -0.40092431936E+02 -0.85427060394E+02  0.96919511549E+02  0.41800000000E+01 0. -1.
</event>
<event>
11    1  0.1650203E-008  0.1167851E+04  0.7561462E-02  0.8533941E-01
         22   -1    0    0    0    0  0.00000000000E+00  0.00000000000E+00  0.22871591077E+04  0.22871591077E+04  0.00000000000E+00 0.  1.
         22   -1    0    0    0    0 -0.00000000000E+00 -0.00000000000E+00 -0.12976817770E+04  0.12976817770E+04  0.00000000000E+00 0.  1.
         24    2    1    2    0    0 -0.68709051785E+03 -0.14867990116E+03 -0.17822866247E+03  0.72966530240E+03  0.80292619111E+02 0.  0.
         25    2    1    2    0    0  0.13530017309E+04 -0.65311772413E+03  0.40453367993E+03  0.15609202376E+04  0.12509214476E+03 0.  0.
        -24    2    1    2    0    0 -0.66591121302E+03  0.80179762528E+03  0.76317231330E+03  0.12942553447E+04  0.79672717588E+02 0.  0.
        -11    1    3    3    0    0 -0.15066499187E+03 -0.71783763483E+01 -0.60619238155E+02  0.16256125275E+03  0.00000000000E+00 0.  1.
         12    1    3    3    0    0 -0.53642552598E+03 -0.14150152481E+03 -0.11760942431E+03  0.56710404965E+03  0.00000000000E+00 0. -1.
         11    1    5    5    0    0 -0.23409461884E+03  0.32443104604E+03  0.25862947005E+03  0.47638744419E+03  0.00000000000E+00 0. -1.
        -12    1    5    5    0    0 -0.43181659418E+03  0.47736657924E+03  0.50454284325E+03  0.81786790050E+03  0.00000000000E+00 0.  1.
          5    1    4    4  501    0  0.10719085755E+04 -0.46013770403E+03  0.32045165012E+03  0.12097195680E+04  0.41800000000E+01 0. -1.
         -5    1    4    4    0  501  0.28109315539E+03 -0.19298002009E+03  0.84082029813E+02  0.35120066956E+03  0.41800000000E+01 0. -1.
</event>
<event>
11    1  0.8551154E-009  0.1651202E+03  0.7561462E-02  0.1082358E+00
         22   -1    0    0    0    0  0.00000000000E+00  0.00000000000E+00  0.88612104441E+03  0.88612104441E+03  0.00000000000E+00 0.  1.
         22   -1    0    0    0    0 -0.00000000000E+00 -0.00000000000E+00 -0.96007551799E+02  0.96007551799E+02  0.00000000000E+00 0.  1.
         24    2    1    2    0    0 -0.27727254522E+02  0.10412200143E+03 -0.38406756417E+01  0.13304892653E+03  0.77955591442E+02 0.  0.
         25    2    1    2    0    0  0.80535509128E+02 -0.87851443186E+02  0.30759039328E+03  0.35279406529E+03  0.12509179894E+03 0.  0.
        -24    2    1    2    0    0 -0.52808254606E+02 -0.16270558247E+02  0.48636377498E+03  0.49628560439E+03  0.81830536452E+02 0.  0.
        -13    1    3    3    0    0 -0.17536106300E+02  0.10233409941E+03 -0.27346425400E+02  0.10736670764E+03  0.00000000000E+00 0.  1.
         14    1    3    3    0    0 -0.10191148222E+02  0.17879020178E+01  0.23505749758E+02  0.25682218895E+02  0.00000000000E+00 0. -1.
         11    1    5    5    0    0 -0.43968209505E+02 -0.25916555529E+02  0.12968131658E+03  0.13936324898E+03  0.00000000000E+00 0. -1.
        -12    1    5    5    0    0 -0.88400451010E+01  0.96459972824E+01  0.35668245840E+03  0.35692235541E+03  0.00000000000E+00 0.  1.
          5    1    4    4  501    0  0.41558806775E+02 -0.66936945745E+02  0.54642706367E+02  0.95973886476E+02  0.41800000000E+01 0. -1.
         -5    1    4    4    0  501  0.38976702353E+02 -0.20914497440E+02  0.25294768691E+03  0.25682017881E+03  0.41800000000E+01 0. -1.
</event>
<event>
11    1  0.1038584E-008  0.1634185E+03  0.7561462E-02  0.1083905E+00
         22   -1    0    0    0    0  0.00000000000E+00  0.00000000000E+00  0.48856977324E+03  0.48856977324E+03  0.00000000000E+00 0. -1.
         22   -1    0    0    0    0 -0.00000000000E+00 -0.00000000000E+00 -0.56249791735E+03  0.56249791735E+03  0.00000000000E+00 0.  1.
         24    2    1    2    0    0  0.62184743552E+02 -0.39500005854E+02 -0.46293988709E+03  0.47572473075E+03  0.81077047313E+02 0.  0.
         25    2    1    2    0    0  0.13420771386E+02  0.11488175451E+03  0.69997676073E+01  0.17051324215E+03  0.12509130416E+03 0.  0.
        -24    2    1    2    0    0 -0.75605514938E+02 -0.75381748658E+02  0.38201197537E+03  0.40482971768E+03  0.80965110217E+02 0.  0.
        -13    1    3    3    0    0  0.18727128903E+02 -0.28526116265E+02 -0.37930130801E+03  0.38083320092E+03  0.00000000000E+00 0.  1.
         14    1    3    3    0    0  0.43457614649E+02 -0.10973889589E+02 -0.83638579074E+02  0.94891529828E+02  0.00000000000E+00 0. -1.
         13    1    5    5    0    0 -0.65952404445E+02 -0.82363418310E+02  0.37769753552E+03  0.39215925421E+03  0.00000000000E+00 0. -1.
        -14    1    5    5    0    0 -0.96531104925E+01  0.69816696515E+01  0.43144398522E+01  0.12670463470E+02  0.00000000000E+00 0.  1.
          5    1    4    4  501    0 -0.25105407614E+02  0.12716110901E+03  0.38507507200E+01  0.12974023977E+03  0.41800000000E+01 0.  1.
         -5    1    4    4    0  501  0.38526179000E+02 -0.12279354496E+02  0.31490168873E+01  0.40773002373E+02  0.41800000000E+01 0.  1.
</event>
<event>
11    1  0.8551154E-009  0.1332735E+03  0.7561462E-02  0.1115311E+00
         22   -1    0    0    0    0  0.00000000000E+00  0.00000000000E+00  0.19472224029E+03  0.19472224029E+03  0.00000000000E+00 0. -1.
         22   -1    0    0    0    0 -0.00000000000E+00 -0.00000000000E+00 -0.23091655418E+03  0.23091655418E+03  0.00000000000E+00 0. -1.
         24    2    1    2    0    0 -0.10121498528E+02  0.97364123827E+01 -0.83539795955E+02  0.11728832252E+03  0.81119730232E+02 0.  0.
         25    2    1    2    0    0  0.30730454231E+02  0.31890488732E+02 -0.77007155023E+02  0.15342473316E+03  0.12509069802E+03 0.  0.
        -24    2    1    2    0    0 -0.20608955702E+02 -0.41626901115E+02  0.12435263709E+03  0.15492573879E+03  0.79880399592E+02 0.  0.
        -11    1    3    3    0    0  0.25399390756E+02 -0.21488549209E+02 -0.22913489755E+02  0.40396965364E+02  0.00000000000E+00 0.  1.
         12    1    3    3    0    0 -0.35520889284E+02  0.31224961591E+02 -0.60626306200E+02  0.76891357156E+02  0.00000000000E+00 0. -1.
         11    1    5    5    0    0 -0.35712682209E+02 -0.32162518727E+01  0.10171813489E+03  0.10785322856E+03  0.00000000000E+00 0. -1.
        -12    1    5    5    0    0  0.15103726507E+02 -0.38410649242E+02  0.22634502200E+02  0.47072510231E+02  0.00000000000E+00 0.  1.
          5    1    4    4  501    0  0.71914019492E+02  0.40803273478E+02 -0.25251297774E+02  0.86554224422E+02  0.41800000000E+01 0. -1.
         -5    1    4    4    0  501 -0.41183565261E+02 -0.89127847460E+01 -0.51755857250E+02  0.66870508740E+02  0.41800000000E+01 0. -1.
</event>
<event>
11    1  0.8551154E-009  0.3147574E+03  0.7561462E-02  0.9941320E-01
         22   -1    0    0    0    0  0.00000000000E+00  0.00000000000E+00  0.93873024824E+03  0.93873024824E+03  0.00000000000E+00 0. -1.
         22   -1    0    0    0    0 -0.00000000000E+00 -0.00000000000E+00 -0.12290392254E+04  0.12290392254E+04  0.00000000000E+00 0. -1.
         24    2    1    2    0    0 -0.21331643321E+02  0.29501441917E+01 -0.59059842506E+03  0.59631251581E+03  0.79488203390E+02 0.  0.
         25    2    1    2    0    0  0.47222036145E+02 -0.29043029494E+03 -0.56862051780E+03  0.65234555551E+03  0.12508298690E+03 0.  0.
        -24    2    1    2    0    0 -0.25890392825E+02  0.28748015075E+03  0.86890996570E+03  0.91911140231E+03  0.80287557133E+02 0.  0.
        -11    1    3    3    0    0  0.19224394107E+02 -0.13155016467E+02 -0.67681858513E+02  0.71578388909E+02  0.00000000000E+00 0.  1.
         12    1    3    3    0    0 -0.40556037428E+02  0.16105160659E+02 -0.52291656654E+03  0.52473412690E+03  0.00000000000E+00 0. -1.
         11    1    5    5    0    0 -0.49095426382E+02  0.17651133195E+03  0.59801428398E+03  0.62544999404E+03  0.00000000000E+00 0. -1.
        -12    1    5    5    0    0  0.23205033557E+02  0.11096881880E+03  0.27089568173E+03  0.29366140827E+03  0.00000000000E+00 0.  1.
          5    1    4    4  501    0  0.48180145922E+02 -0.10860181428E+03 -0.34011157897E+03  0.36029021507E+03  0.41800000000E+01 0. -1.
         -5    1    4    4    0  501 -0.95810977657E+00 -0.18182848066E+03 -0.22850893883E+03  0.29205534044E+03  0.41800000000E+01 0. -1.
</event>
<event>
11    1  0.8551154E-009  0.1742669E+03  0.7561462E-02  0.1074377E+00
         22   -1    0    0    0    0  0.00000000000E+00  0.00000000000E+00  0.50299767930E+03  0.50299767930E+03  0.00000000000E+00 0. -1.
         22   -1    0    0    0    0 -0.00000000000E+00 -0.00000000000E+00 -0.99378933814E+03  0.99378933814E+03  0.00000000000E+00 0. -1.
        -24    2    1    2    0    0  0.52751446880E+02  0.98811798404E+00 -0.86535001261E+03  0.87071120129E+03  0.80769178602E+02 0.  0.
         25    2    1    2    0    0  0.73846830042E+02  0.32849881657E+01 -0.66342058631E+02  0.15972705467E+03  0.12508923932E+03 0.  0.
         24    2    1    2    0    0 -0.12659827692E+03 -0.42731061498E+01  0.44090041239E+03  0.46634876148E+03  0.83920262933E+02 0.  0.
        -11    1    5    5    0    0 -0.42396008144E+02 -0.34638491458E+02  0.10127000986E+03  0.11512107319E+03  0.00000000000E+00 0.  1.
         12    1    5    5    0    0 -0.84202268778E+02  0.30365385308E+02  0.33963040254E+03  0.35122768829E+03  0.00000000000E+00 0. -1.
         11    1    3    3    0    0 -0.17421855217E+02  0.15784350385E+02 -0.27976837406E+03  0.28075435861E+03  0.00000000000E+00 0. -1.
        -12    1    3    3    0    0  0.70173302097E+02 -0.14796232401E+02 -0.58558163855E+03  0.58995684268E+03  0.00000000000E+00 0.  1.
          5    1    4    4  501    0  0.72961777329E+02 -0.48767183192E+02 -0.61565041127E+02  0.10728180552E+03  0.41800000000E+01 0. -1.
         -5    1    4    4    0  501  0.88505271292E+00  0.52052171358E+02 -0.47770175040E+01  0.52445249142E+02  0.41800000000E+01 0. -1.
</event>
<event>
11    1  0.8551154E-009  0.1328309E+03  0.7561462E-02  0.1115839E+00
         22   -1    0    0    0    0  0.00000000000E+00  0.00000000000E+00  0.47895193772E+03  0.47895193772E+03  0.00000000000E+00 0. -1.
         22   -1    0    0    0    0 -0.00000000000E+00 -0.00000000000E+00 -0.27229570277E+03  0.27229570277E+03  0.00000000000E+00 0. -1.
        -24    2    1    2    0    0  0.36935535731E+02  0.38445623765E+02 -0.22849618840E+03  0.24803341731E+03  0.80422435926E+02 0.  0.
         25    2    1    2    0    0  0.12467228372E+02 -0.11674776323E+02  0.12575706918E+03  0.17819584260E+03  0.12508871127E+03 0.  0.
         24    2    1    2    0    0 -0.49402764103E+02 -0.26770847442E+02  0.30939535417E+03  0.32501838058E+03  0.82183642907E+02 0.  0.
        -13    1    5    5    0    0 -0.11086650753E+02  0.18035717231E+02  0.18210923841E+02  0.27925591634E+02  0.00000000000E+00 0.  1.
         14    1    5    5    0    0 -0.38316113351E+02 -0.44806564673E+02  0.29118443033E+03  0.29709278895E+03  0.00000000000E+00 0. -1.
         11    1    3    3    0    0  0.53292883487E+02  0.40672815419E+02 -0.21890619635E+03  0.22894176584E+03  0.00000000000E+00 0. -1.
        -12    1    3    3    0    0 -0.16357347755E+02 -0.22271916539E+01 -0.95899920512E+01  0.19091651468E+02  0.00000000000E+00 0.  1.
          5    1    4    4  501    0  0.26658544582E+02 -0.64082637167E+02  0.86920197796E+02  0.11130972810E+03  0.41800000000E+01 0. -1.
         -5    1    4    4    0  501 -0.14191316209E+02  0.52407860844E+02  0.38836871383E+02  0.66886114499E+02  0.41800000000E+01 0. -1.
</event>
<event>
11    1  0.8551154E-009  0.1479909E+03  0.7561462E-02  0.1098950E+00
         22   -1    0    0    0    0  0.00000000000E+00  0.00000000000E+00  0.70561072408E+03  0.70561072408E+03  0.00000000000E+00 0. -1.
         22   -1    0    0    0    0 -0.00000000000E+00 -0.00000000000E+00 -0.21602863182E+03  0.21602863182E+03  0.00000000000E+00 0.  1.
        -24    2    1    2    0    0 -0.17090999970E+02 -0.74644799926E+02 -0.16872716202E+03  0.20284387965E+03  0.82539904737E+02 0.  0.
         25    2    1    2    0    0  0.44059271612E+02  0.12717056069E+03  0.35282515988E+03  0.39780517262E+03  0.12509912468E+03 0.  0.
         24    2    1    2    0    0 -0.26968271642E+02 -0.52525760766E+02  0.30548409440E+03  0.32099030363E+03  0.78917677817E+02 0.  0.
        -11    1    5    5    0    0 -0.52362570793E+01  0.59961214031E+01 -0.11702975478E+01  0.80462075807E+01  0.00000000000E+00 0.  1.
         12    1    5    5    0    0 -0.21732014563E+02 -0.58521882169E+02  0.30665439195E+03  0.31294409605E+03  0.00000000000E+00 0. -1.
         13    1    3    3    0    0 -0.15596993355E+02  0.13182651945E+02 -0.58098496970E+02  0.61583145942E+02  0.00000000000E+00 0. -1.
        -14    1    3    3    0    0 -0.14940066150E+01 -0.87827451871E+02 -0.11062866505E+03  0.14126073371E+03  0.00000000000E+00 0.  1.
          5    1    4    4  501    0  0.34851033580E+02  0.14497879980E+03  0.34502670472E+03  0.37589140228E+03  0.41800000000E+01 0. -1.
         -5    1    4    4    0  501  0.92082380322E+01 -0.17808239108E+02  0.77984551597E+01  0.21913770343E+02  0.41800000000E+01 0. -1.
</event>
<event>
11    1  0.8551154E-009  0.1724642E+03  0.7561462E-02  0.1075907E+00
         22   -1    0    0    0    0  0.00000000000E+00  0.00000000000E+00  0.48092952110E+03  0.48092952110E+03  0.00000000000E+00 0. -1.
         22   -1    0    0    0    0 -0.00000000000E+00 -0.00000000000E+00 -0.52824488323E+03  0.52824488323E+03  0.00000000000E+00 0. -1.
         24    2    1    2    0    0 -0.11247857252E+03 -0.23723593244E+02 -0.34559280421E+03  0.37284309299E+03  0.79770593033E+02 0.  0.
         25    2    1    2    0    0  0.95931188836E+02  0.14037535266E+03 -0.84786201818E+02  0.22747300232E+03  0.12508890495E+03 0.  0.
        -24    2    1    2    0    0  0.16547383688E+02 -0.11665175941E+03  0.38306364391E+03  0.40885830901E+03  0.80906814825E+02 0.  0.
        -11    1    3    3    0    0 -0.10732197124E+02 -0.32193248408E+02 -0.52849590410E+02  0.62806564185E+02  0.00000000000E+00 0.  1.
         12    1    3    3    0    0 -0.10174637540E+03  0.84696551646E+01 -0.29274321380E+03  0.31003652881E+03  0.00000000000E+00 0. -1.
         11    1    5    5    0    0 -0.11440410476E+02 -0.70329229236E+02  0.30911173968E+03  0.31721782907E+03  0.00000000000E+00 0. -1.
        -12    1    5    5    0    0  0.27987794164E+02 -0.46322530176E+02  0.73951904229E+02  0.91640479937E+02  0.00000000000E+00 0.  1.
          5    1    4    4  501    0  0.54319171473E+02 -0.78968360845E+01 -0.36402282678E+02  0.65996446828E+02  0.41800000000E+01 0.  1.
         -5    1    4    4    0  501  0.41612017362E+02  0.14827218874E+03 -0.48383919139E+02  0.16147655549E+03  0.41800000000E+01 0.  1.
</event>
<event>
11    1  0.8551154E-009  0.4929577E+03  0.7561462E-02  0.9409397E-01
         22   -1    0    0    0    0  0.00000000000E+00  0.00000000000E+00  0.47204202651E+03  0.47204202651E+03  0.00000000000E+00 0. -1.
         22   -1    0    0    0    0 -0.00000000000E+00 -0.00000000000E+00 -0.84065371738E+03  0.84065371738E+03  0.00000000000E+00 0. -1.
         24    2    1    2    0    0  0.14050052182E+03 -0.83426963944E+02 -0.22642805564E+03  0.29038965415E+03  0.79724725855E+02 0.  0.
         25    2    1    2    0    0 -0.51317253215E+03  0.26118427520E+03 -0.10817906337E+03  0.59909323378E+03  0.12508684844E+03 0.  0.
        -24    2    1    2    0    0  0.37267201033E+03 -0.17775731126E+03 -0.34004571861E+02  0.42321285596E+03  0.86433335872E+02 0.  0.
        -11    1    3    3    0    0  0.21109455903E+02 -0.51098959185E+02 -0.94954653514E+02  0.10987765461E+03  0.00000000000E+00 0.  1.
         12    1    3    3    0    0  0.11939106592E+03 -0.32328004760E+02 -0.13147340213E+03  0.18051199954E+03  0.00000000000E+00 0. -1.
         13    1    5    5    0    0  0.13736358990E+03 -0.21058617444E+02 -0.56164472870E+01  0.13908186683E+03  0.00000000000E+00 0. -1.
        -14    1    5    5    0    0  0.23530842042E+03 -0.15669869382E+03 -0.28388124574E+02  0.28413098913E+03  0.00000000000E+00 0.  1.
          5    1    4    4  501    0 -0.20952165145E+03  0.12695607884E+03 -0.10625192791E+03  0.26706574653E+03  0.41800000000E+01 0. -1.
         -5    1    4    4    0  501 -0.30365088069E+03  0.13422819636E+03 -0.19271354553E+01  0.33202748726E+03  0.41800000000E+01 0. -1.
</event>
<event>
11    1  0.8551154E-009  0.1564055E+03  0.7561462E-02  0.1090508E+00
         22   -1    0    0    0    0  0.00000000000E+00  0.00000000000E+00  0.73727779044E+03  0.73727779044E+03  0.00000000000E+00 0.  1.
         22   -1    0    0    0    0 -0.00000000000E+00 -0.00000000000E+00 -0.41559652677E+03  0.41559652677E+03  0.00000000000E+00 0.  1.
        -24    2    1    2    0    0 -0.39189689704E+02  0.86164766536E+02 -0.37705488775E+03  0.39690124139E+03  0.80000051706E+02 0.  0.
         25    2    1    2    0    0  0.58863283857E+02 -0.57730649523E+02  0.19051809719E+03  0.24236803539E+03  0.12508958845E+03 0.  0.
         24    2    1    2    0    0 -0.19673594154E+02 -0.28434117013E+02  0.50821805423E+03  0.51360504043E+03  0.65642955400E+02 0.  0.
        -11    1    5    5    0    0 -0.31889105348E+02  0.95591021517E+01  0.27345317104E+03  0.27547219139E+03  0.00000000000E+00 0.  1.
         12    1    5    5    0    0  0.12215511194E+02 -0.37993219165E+02  0.23476488318E+03  0.23813284904E+03  0.00000000000E+00 0. -1.
         13    1    3    3    0    0 -0.20619936044E+02 -0.47343739659E+01 -0.24629333644E+02  0.32468448301E+02  0.00000000000E+00 0. -1.
        -14    1    3    3    0    0 -0.18569753659E+02  0.90899140502E+02 -0.35242555410E+03  0.36443279309E+03  0.00000000000E+00 0.  1.
          5    1    4    4  501    0  0.44472427684E+02 -0.93372654568E+02  0.99931110087E+02  0.14387476710E+03  0.41800000000E+01 0.  1.
         -5    1    4    4    0  501  0.14390856173E+02  0.35642005045E+02  0.90586987106E+02  0.98493268288E+02  0.41800000000E+01 0.  1.
</event>
<event>
11    1  0.8551154E-009  0.1309667E+03  0.7561462E-02  0.1118087E+00
         22   -1    0    0    0    0  0.00000000000E+00  0.00000000000E+00  0.22316664117E+04  0.22316664117E+04  0.00000000000E+00 0. -1.
         22   -1    0    0    0    0 -0.00000000000E+00 -0.00000000000E+00 -0.41740961804E+02  0.41740961804E+02  0.00000000000E+00 0. -1.
         24    2    1    2    0    0  0.25086233601E+02  0.27291107403E+02  0.28260280086E+02  0.93101724493E+02  0.80592580387E+02 0.  0.
         25    2    1    2    0    0 -0.28093397944E+02 -0.48497864531E+02  0.56245477912E+03  0.57891694758E+03  0.12509265272E+03 0.  0.
        -24    2    1    2    0    0  0.30071643430E+01  0.21206757128E+02  0.15992103907E+04  0.16013887015E+04  0.80703963985E+02 0.  0.
        -11    1    3    3    0    0  0.90447725700E+01  0.16271760763E+01  0.53136470469E+02  0.53925319718E+02  0.00000000000E+00 0.  1.
         12    1    3    3    0    0  0.16041461031E+02  0.25663931327E+02 -0.24876190382E+02  0.39176404775E+02  0.00000000000E+00 0. -1.
         13    1    5    5    0    0  0.40200959400E+02  0.23954354413E+01  0.93968473735E+03  0.94054731984E+03  0.00000000000E+00 0. -1.
        -14    1    5    5    0    0 -0.37193795057E+02  0.18811321687E+02  0.65952565337E+03  0.66084138162E+03  0.00000000000E+00 0.  1.
          5    1    4    4  501    0 -0.80372369139E+01 -0.89978485861E+02  0.39191116649E+03  0.40220959700E+03  0.41800000000E+01 0.  1.
         -5    1    4    4    0  501 -0.20056161030E+02  0.41480621330E+02  0.17054361263E+03  0.17670735058E+03  0.41800000000E+01 0.  1.
</event>
<event>
11    1  0.8551154E-009  0.1408112E+03  0.7561462E-02  0.1106656E+00
         22   -1    0    0    0    0  0.00000000000E+00  0.00000000000E+00  0.22077506659E+04  0.22077506659E+04  0.00000000000E+00 0. -1.
         22   -1    0    0    0    0 -0.00000000000E+00 -0.00000000000E+00 -0.15330392825E+03  0.15330392825E+03  0.00000000000E+00 0.  1.
        -24    2    1    2    0    0 -0.31286038722E+02 -0.97263359926E+01 -0.13193459233E+03  0.15800442528E+03  0.80531012187E+02 0.  0.
         25    2    1    2    0    0  0.59326397165E+01 -0.54530965324E+02  0.71848522927E+03  0.73135276433E+03  0.12508804431E+03 0.  0.
         24    2    1    2    0    0  0.25353399006E+02  0.64257301316E+02  0.14678961007E+04  0.14716974045E+04  0.80015576243E+02 0.  0.
        -13    1    5    5    0    0 -0.20947825648E+02  0.86127515431E+01  0.13917744975E+03  0.14100834517E+03  0.00000000000E+00 0.  1.
         14    1    5    5    0    0  0.46301224654E+02  0.55644549773E+02  0.13287186510E+04  0.13306890594E+04  0.00000000000E+00 0. -1.
         13    1    3    3    0    0 -0.22434527214E+02 -0.26796231375E+02 -0.12629568736E+02  0.37159817460E+02  0.00000000000E+00 0. -1.
        -14    1    3    3    0    0 -0.88515115079E+01  0.17069895382E+02 -0.11930502359E+03  0.12084460782E+03  0.00000000000E+00 0.  1.
          5    1    4    4  501    0 -0.75826100334E+01 -0.62439521079E+02  0.15091549839E+03  0.16355167325E+03  0.41800000000E+01 0. -1.
         -5    1    4    4    0  501  0.13515249750E+02  0.79085557555E+01  0.56756973088E+03  0.56780109109E+03  0.41800000000E+01 0. -1.
</event>
<event>
11    1  0.8551154E-009  0.2717806E+03  0.7561462E-02  0.1012896E+00
         22   -1    0    0    0    0  0.00000000000E+00  0.00000000000E+00  0.18453497601E+04  0.18453497601E+04  0.00000000000E+00 0. -1.
         22   -1    0    0    0    0 -0.00000000000E+00 -0.00000000000E+00 -0.55555252114E+03  0.55555252114E+03  0.00000000000E+00 0.  1.
         24    2    1    2    0    0  0.13140020752E+03 -0.19949891905E+03 -0.48009513732E+03  0.54247737333E+03  0.82003210010E+02 0.  0.
         25    2    1    2    0    0 -0.14801626881E+03  0.24389894664E+03  0.52797028537E+03  0.61302219905E+03  0.12509229510E+03 0.  0.
        -24    2    1    2    0    0  0.16616061285E+02 -0.44400027588E+02  0.12419220910E+04  0.12454027089E+04  0.80062297014E+02 0.  0.
        -11    1    3    3    0    0  0.10129368043E+03 -0.19077518448E+03 -0.44936014674E+03  0.49857810038E+03  0.00000000000E+00 0.  1.
         12    1    3    3    0    0  0.30106527096E+02 -0.87237345737E+01 -0.30734990586E+02  0.43899272944E+02  0.00000000000E+00 0. -1.
         13    1    5    5    0    0 -0.46867664804E+01 -0.46803301705E+02  0.34136096505E+03  0.34458645256E+03  0.00000000000E+00 0. -1.
        -14    1    5    5    0    0  0.21302827765E+02  0.24032741168E+01  0.90056112591E+03  0.90081625634E+03  0.00000000000E+00 0.  1.
          5    1    4    4  501    0 -0.55840332932E+02  0.17022525823E+03  0.22356914640E+03  0.28652297804E+03  0.41800000000E+01 0. -1.
         -5    1    4    4    0  501 -0.92175935875E+02  0.73673688412E+02  0.30440113896E+03  0.32649922101E+03  0.41800000000E+01 0. -1.
</event>
<event>
11    1  0.8551154E-009  0.4349293E+03  0.7561462E-02  0.9551971E-01
         22   -1    0    0    0    0  0.00000000000E+00  0.00000000000E+00  0.48144370590E+03  0.48144370590E+03  0.00000000000E+00 0. -1.
         22   -1    0    0    0    0 -0.00000000000E+00 -0.00000000000E+00 -0.89814354408E+03  0.89814354408E+03  0.00000000000E+00 0. -1.
         24    2    1    2    0    0 -0.66009319471E+02 -0.65226272936E+01 -0.31301237475E+03  0.33151342241E+03  0.86744611177E+02 0.  0.
         25    2    1    2    0    0  0.44156939729E+03  0.15235923956E+03 -0.32372145778E+03  0.58192801474E+03  0.12509101334E+03 0.  0.
        -24    2    1    2    0    0 -0.37556007781E+03 -0.14583661226E+03  0.22003399435E+03  0.46614581283E+03  0.81014014953E+02 0.  0.
        -11    1    3    3    0    0  0.13457853803E+02  0.91544930571E+01 -0.13211618294E+02  0.20963430780E+02  0.00000000000E+00 0.  1.
         12    1    3    3    0    0 -0.79467173274E+02 -0.15677120351E+02 -0.29980075646E+03  0.31054999163E+03  0.00000000000E+00 0. -1.
         13    1    5    5    0    0 -0.35167220277E+03 -0.14236318861E+03  0.18125798259E+03  0.42047006068E+03  0.00000000000E+00 0. -1.
        -14    1    5    5    0    0 -0.23887875042E+02 -0.34734236556E+01  0.38776011766E+02  0.45675752149E+02  0.00000000000E+00 0.  1.
          5    1    4    4  501    0  0.32979414358E+03  0.73317690742E+02 -0.17779935297E+03  0.38179803985E+03  0.41800000000E+01 0. -1.
         -5    1    4    4    0  501  0.11177525371E+03  0.79041548815E+02 -0.14592210480E+03  0.20012997490E+03  0.41800000000E+01 0. -1.
</event>
<event>
11    1  0.8551154E-009  0.1401825E+03  0.7561462E-02  0.1107355E+00
         22   -1    0    0    0    0  0.00000000000E+00  0.00000000000E+00  0.11748672339E+04  0.11748672339E+04  0.00000000000E+00 0.  1.
         22   -1    0    0    0    0 -0.00000000000E+00 -0.00000000000E+00 -0.53892281340E+02  0.53892281340E+02  0.00000000000E+00 0. -1.
        -24    2    1    2    0    0  0.19480867495E+02 -0.35330073819E+02  0.34097539377E+02  0.96061830672E+02  0.80234124948E+02 0.  0.
         25    2    1    2    0    0  0.29834714909E+02 -0.12192566747E+02  0.19082323655E+03  0.23043172236E+03  0.12508597909E+03 0.  0.
         24    2    1    2    0    0 -0.49315582404E+02  0.47522640566E+02  0.89605417665E+03  0.90226596222E+03  0.80500627706E+02 0.  0.
        -11    1    5    5    0    0 -0.24731995784E+02  0.36615874850E+02  0.16794807168E+03  0.17366331993E+03  0.00000000000E+00 0.  1.
         12    1    5    5    0    0 -0.24583586620E+02  0.10906765717E+02  0.72810610497E+03  0.72860264230E+03  0.00000000000E+00 0. -1.
         11    1    3    3    0    0 -0.79155385568E+01  0.18661264028E+02 -0.85549766855E+01  0.22001957910E+02  0.00000000000E+00 0. -1.
        -12    1    3    3    0    0  0.27396406052E+02 -0.53991337848E+02  0.42652516062E+02  0.74059872762E+02  0.00000000000E+00 0.  1.
          5    1    4    4  501    0  0.73448237397E+02 -0.26528074674E+02  0.87881410329E+02  0.11763926642E+03  0.41800000000E+01 0.  1.
         -5    1    4    4    0  501 -0.43613522488E+02  0.14335507927E+02  0.10294182622E+03  0.11279245594E+03  0.41800000000E+01 0.  1.
</event>
<event>
11    1  0.8551154E-009  0.1733177E+03  0.7561462E-02  0.1075180E+00
         22   -1    0    0    0    0  0.00000000000E+00  0.00000000000E+00  0.31063552783E+04  0.31063552783E+04  0.00000000000E+00 0. -1.
         22   -1    0    0    0    0 -0.00000000000E+00 -0.00000000000E+00 -0.17206258891E+04  0.17206258891E+04  0.00000000000E+00 0. -1.
        -24    2    1    2    0    0  0.29190971046E+02  0.51815796982E+02 -0.14848518527E+04  0.14881671907E+04  0.79495745360E+02 0.  0.
         25    2    1    2    0    0 -0.19935996923E+02  0.68182102067E+02 -0.21016087389E+03  0.25467926670E+03  0.12509073888E+03 0.  0.
         24    2    1    2    0    0 -0.92549741235E+01 -0.11999789905E+03  0.30807421158E+04  0.30841347100E+04  0.80185876745E+02 0.  0.
        -11    1    5    5    0    0 -0.36485679220E+02 -0.55403340383E+02  0.99140701800E+03  0.99362397830E+03  0.00000000000E+00 0.  1.
         12    1    5    5    0    0  0.27230705096E+02 -0.64594558666E+02  0.20893350978E+04  0.20905107317E+04  0.00000000000E+00 0. -1.
         13    1    3    3    0    0  0.38986274390E+02  0.66854522062E+02 -0.13355578765E+04  0.13377983025E+04  0.00000000000E+00 0. -1.
        -14    1    3    3    0    0 -0.97953033440E+01 -0.15038725081E+02 -0.14929397623E+03  0.15036888827E+03  0.00000000000E+00 0.  1.
          5    1    4    4  501    0 -0.57848192333E+02  0.84371580653E+02 -0.15211537337E+03  0.18336176317E+03  0.41800000000E+01 0.  1.
         -5    1    4    4    0  501  0.37912195410E+02 -0.16189478586E+02 -0.58045500528E+02  0.71317503526E+02  0.41800000000E+01 0.  1.
</event>
<event>
11    1  0.8551154E-009  0.1407920E+03  0.7561462E-02  0.1106677E+00
         22   -1    0    0    0    0  0.00000000000E+00  0.00000000000E+00  0.72627337631E+03  0.72627337631E+03  0.00000000000E+00 0.  1.
         22   -1    0    0    0    0 -0.00000000000E+00 -0.00000000000E+00 -0.62939087677E+03  0.62939087677E+03  0.00000000000E+00 0.  1.
        -24    2    1    2    0    0  0.34845208980E+01  0.33900161121E+02 -0.52688467726E+03  0.53378256572E+03  0.78453817810E+02 0.  0.
         25    2    1    2    0    0  0.20535500631E+02 -0.92629531629E+02 -0.30482346449E+02  0.15992918167E+03  0.12508490232E+03 0.  0.
         24    2    1    2    0    0 -0.24020021529E+02  0.58729370508E+02  0.65424952324E+03  0.66195250569E+03  0.78182995230E+02 0.  0.
        -13    1    5    5    0    0 -0.51708877833E+02  0.26266126513E+02  0.38430969073E+03  0.38866136396E+03  0.00000000000E+00 0.  1.
         14    1    5    5    0    0  0.27688856304E+02  0.32463243995E+02  0.26993983251E+03  0.27329114173E+03  0.00000000000E+00 0. -1.
         11    1    3    3    0    0 -0.13532347802E+02  0.13698933356E+02 -0.26797603423E+02  0.32998435741E+02  0.00000000000E+00 0. -1.
        -12    1    3    3    0    0  0.17016868700E+02  0.20201227765E+02 -0.50008707383E+03  0.50078412998E+03  0.00000000000E+00 0.  1.
          5    1    4    4  501    0  0.46281369695E+02 -0.11306946523E+03 -0.14388769165E+02  0.12309012238E+03  0.41800000000E+01 0.  1.
         -5    1    4    4    0  501 -0.25745869064E+02  0.20439933604E+02 -0.16093577284E+02  0.36839059290E+02  0.41800000000E+01 0.  1.
</event>
<event>
11    1  0.8551154E-009  0.1796935E+03  0.7561462E-02  0.1069891E+00
         22   -1    0    0    0    0  0.00000000000E+00  0.00000000000E+00  0.44767449462E+03  0.44767449462E+03  0.00000000000E+00 0. -1.
         22   -1    0    0    0    0 -0.00000000000E+00 -0.00000000000E+00 -0.71884968019E+03  0.71884968019E+03  0.00000000000E+00 0. -1.
        -24    2    1    2    0    0 -0.12580508133E+03  0.16437539599E+02 -0.64411551521E+03  0.66136337285E+03  0.80122423930E+02 0.  0.
         25    2    1    2    0    0  0.18600847202E+03 -0.27648867530E+02  0.18560492867E+03  0.29233617168E+03  0.12509051196E+03 0.  0.
         24    2    1    2    0    0 -0.60203390696E+02  0.11211327932E+02  0.18733540096E+03  0.21282463028E+03  0.80309580206E+02 0.  0.
        -13    1    5    5    0    0  0.72565974241E+01 -0.14612231757E+02  0.90810557890E+02  0.92264472834E+02  0.00000000000E+00 0.  1.
         14    1    5    5    0    0 -0.67459988120E+02  0.25823559688E+02  0.96524843075E+02  0.12056015744E+03  0.00000000000E+00 0. -1.
         11    1    3    3    0    0 -0.10614470783E+03  0.44753896170E+02 -0.47478457704E+03  0.48855911088E+03  0.00000000000E+00 0. -1.
        -12    1    3    3    0    0 -0.19660373503E+02 -0.28316356571E+02 -0.16933093816E+03  0.17280426197E+03  0.00000000000E+00 0.  1.
          5    1    4    4  501    0  0.18892123519E+03 -0.62267214466E+01  0.12196736868E+03  0.22499670350E+03  0.41800000000E+01 0. -1.
         -5    1    4    4    0  501 -0.29127631634E+01 -0.21422146084E+02  0.63637559992E+02  0.67339468173E+02  0.41800000000E+01 0. -1.
</event>
<event>
11    1  0.8551154E-009  0.1564369E+03  0.7561462E-02  0.1090477E+00
         22   -1    0    0    0    0  0.00000000000E+00  0.00000000000E+00  0.12778643232E+04  0.12778643232E+04  0.00000000000E+00 0.  1.
         22   -1    0    0    0    0 -0.00000000000E+00 -0.00000000000E+00 -0.16556859870E+03  0.16556859870E+03  0.00000000000E+00 0.  1.
        -24    2    1    2    0    0 -0.85617968356E+02 -0.40555885189E+02 -0.12766726299E+03  0.17772794111E+03  0.79454859420E+02 0.  0.
         25    2    1    2    0    0  0.69509178776E+02  0.35209223378E+02  0.49237232473E+03  0.51395488962E+03  0.12509159467E+03 0.  0.
         24    2    1    2    0    0  0.16108789580E+02  0.53466618109E+01  0.74759066274E+03  0.75175009115E+03  0.77125356633E+02 0.  0.
        -13    1    5    5    0    0  0.10787707626E+02 -0.32684969462E+02  0.50164636254E+03  0.50282576994E+03  0.00000000000E+00 0.  1.
         14    1    5    5    0    0  0.53210819541E+01  0.38031631273E+02  0.24594430020E+03  0.24892432121E+03  0.00000000000E+00 0. -1.
         13    1    3    3    0    0  0.14912019388E+01 -0.32102312115E+02 -0.16142953904E+02  0.35963552203E+02  0.00000000000E+00 0. -1.
        -14    1    3    3    0    0 -0.87109170295E+02 -0.84535730746E+01 -0.11152430908E+03  0.14176438891E+03  0.00000000000E+00 0.  1.
          5    1    4    4  501    0 -0.21046676402E+02  0.21008657398E+02  0.29572716503E+02  0.42146698977E+02  0.41800000000E+01 0.  1.
         -5    1    4    4    0  501  0.90555855179E+02  0.14200565981E+02  0.46279960823E+03  0.47180819064E+03  0.41800000000E+01 0.  1.
</event>
<event>
11    1  0.8551154E-009  0.1567476E+03  0.7561462E-02  0.1090177E+00
         22   -1    0    0    0    0  0.00000000000E+00  0.00000000000E+00  0.42514213719E+03  0.42514213719E+03  0.00000000000E+00 0.  1.
         22   -1    0    0    0    0 -0.00000000000E+00 -0.00000000000E+00 -0.34487514132E+03  0.34487514132E+03  0.00000000000E+00 0.  1.
         24    2    1    2    0    0  0.44831320413E+02 -0.81600384560E+02 -0.28380194982E+03  0.30929488328E+03  0.80320035162E+02 0.  0.
         25    2    1    2    0    0 -0.85270281338E+02  0.83515403550E+02  0.15189790512E+03  0.23014641942E+03  0.12509419364E+03 0.  0.
        -24    2    1    2    0    0  0.40438960924E+02 -0.19150189904E+01  0.21217104058E+03  0.23057597581E+03  0.80683042236E+02 0.  0.
        -13    1    3    3    0    0  0.62315317405E+01 -0.43528027477E+02 -0.39691842570E+02  0.59236505050E+02  0.00000000000E+00 0.  1.
         14    1    3    3    0    0  0.38599788673E+02 -0.38072357083E+02 -0.24411010725E+03  0.25005837823E+03  0.00000000000E+00 0. -1.
         11    1    5    5    0    0 -0.23704282965E+01 -0.95597769690E+01 -0.35847448439E+01  0.10481348272E+02  0.00000000000E+00 0. -1.
        -12    1    5    5    0    0  0.42809389221E+02  0.76447579786E+01  0.21575578542E+03  0.22009462754E+03  0.00000000000E+00 0.  1.
          5    1    4    4  501    0 -0.98822687281E+01  0.91600558294E+02  0.10954339765E+03  0.14319759036E+03  0.41800000000E+01 0.  1.
         -5    1    4    4    0  501 -0.75388012610E+02 -0.80851547433E+01  0.42354507466E+02  0.86948829062E+02  0.41800000000E+01 0.  1.
</event>
<event>
11    1  0.8551154E-009  0.1472732E+03  0.7561462E-02  0.1099698E+00
         22   -1    0    0    0    0  0.00000000000E+00  0.00000000000E+00  0.17574022693E+04  0.17574022693E+04  0.00000000000E+00 0.  1.
         22   -1    0    0    0    0 -0.00000000000E+00 -0.00000000000E+00 -0.44990707141E+03  0.44990707141E+03  0.00000000000E+00 0.  1.
         24    2    1    2    0    0  0.49907051135E+02  0.55810956617E+02 -0.35615317360E+03  0.37265488374E+03  0.80131159239E+02 0.  0.
         25    2    1    2    0    0 -0.40827639389E+02 -0.10590926759E+03  0.63146213148E+00  0.16891378539E+03  0.12509116296E+03 0.  0.
        -24    2    1    2    0    0 -0.90794117467E+01  0.50098310975E+02  0.16630169093E+04  0.16657406715E+04  0.80464076883E+02 0.  0.
        -13    1    3    3    0    0 -0.52786397293E+01  0.28675550958E+02 -0.23485891937E+03  0.23666191765E+03  0.00000000000E+00 0.  1.
         14    1    3    3    0    0  0.55185690865E+02  0.27135405659E+02 -0.12129425423E+03  0.13599296609E+03  0.00000000000E+00 0. -1.
         11    1    5    5    0    0  0.41158183295E+00 -0.22216686789E+02  0.41473543390E+03  0.41533026702E+03  0.00000000000E+00 0. -1.
        -12    1    5    5    0    0 -0.94909935797E+01  0.72314997764E+02  0.12482814754E+04  0.12504104045E+04  0.00000000000E+00 0.  1.
          5    1    4    4  501    0  0.16456837318E+02 -0.98062954356E+02  0.29977483755E+02  0.10393888802E+03  0.41800000000E+01 0. -1.
         -5    1    4    4    0  501 -0.57284476707E+02 -0.78463132363E+01 -0.29346021624E+02  0.64974897369E+02  0.41800000000E+01 0. -1.
</event>
<event>
11    1  0.8551154E-009  0.1328416E+03  0.7561462E-02  0.1115826E+00
         22   -1    0    0    0    0  0.00000000000E+00  0.00000000000E+00  0.14832361806E+04  0.14832361806E+04  0.00000000000E+00 0. -1.
         22   -1    0    0    0    0 -0.00000000000E+00 -0.00000000000E+00 -0.30272761282E+03  0.30272761282E+03  0.00000000000E+00 0. -1.
        -24    2    1    2    0    0 -0.38839666492E+02 -0.71645655898E+00 -0.27995467460E+03  0.29398513114E+03  0.80892549093E+02 0.  0.
         25    2    1    2    0    0  0.18577051400E+02  0.42714329247E+02  0.31301837340E+03  0.34029253226E+03  0.12509550217E+03 0.  0.
         24    2    1    2    0    0  0.20262615092E+02 -0.41997872688E+02  0.11474448690E+04  0.11516861300E+04  0.87044930173E+02 0.  0.
        -13    1    5    5    0    0 -0.21844096888E+02 -0.16394609300E+02  0.12036900396E+03  0.12342870370E+03  0.00000000000E+00 0.  1.
         14    1    5    5    0    0  0.42106711980E+02 -0.25603263388E+02  0.10270758650E+04  0.10282574263E+04  0.00000000000E+00 0. -1.
         13    1    3    3    0    0  0.12924400101E+01  0.61732553961E+01 -0.22746803660E+03  0.22755545952E+03  0.00000000000E+00 0. -1.
        -14    1    3    3    0    0 -0.40132106502E+02 -0.68897119551E+01 -0.52486638003E+02  0.66429671623E+02  0.00000000000E+00 0.  1.
          5    1    4    4  501    0 -0.89203529761E+01 -0.22683740848E+02  0.63987495820E+01  0.25544885835E+02  0.41800000000E+01 0. -1.
         -5    1    4    4    0  501  0.27497404376E+02  0.65398070095E+02  0.30661962382E+03  0.31474764643E+03  0.41800000000E+01 0. -1.
</event>
<event>
11    1  0.8551154E-009  0.2173546E+03  0.7561462E-02  0.1042887E+00
         22   -1    0    0    0    0  0.00000000000E+00  0.00000000000E+00  0.15353037519E+04  0.15353037519E+04  0.00000000000E+00 0. -1.
         22   -1    0    0    0    0 -0.00000000000E+00 -0.00000000000E+00 -0.15618553724E+03  0.15618553724E+03  0.00000000000E+00 0.  1.
         24    2    1    2    0    0 -0.13576711715E+03  0.82704796479E+01 -0.44882342625E+02  0.18019532735E+03  0.10933810125E+03 0.  0.
         25    2    1    2    0    0 -0.25073382207E+02 -0.11676861411E+03  0.17991883526E+03  0.24956445965E+03  0.12509216004E+03 0.  0.
        -24    2    1    2    0    0  0.16084049936E+03  0.10849813446E+03  0.12440817220E+04  0.12617295021E+04  0.81120244545E+02 0.  0.
        -11    1    3    3    0    0 -0.87134226240E+02  0.53054910986E+02 -0.50526961069E+02  0.11384274574E+03  0.00000000000E+00 0.  1.
         12    1    3    3    0    0 -0.48632890912E+02 -0.44784431338E+02  0.56446184445E+01  0.66352581609E+02  0.00000000000E+00 0. -1.
         11    1    5    5    0    0  0.77291261228E+02  0.44011081815E+02  0.81583634216E+03  0.82067036718E+03  0.00000000000E+00 0. -1.
        -12    1    5    5    0    0  0.83549238132E+02  0.64487052648E+02  0.42824537986E+03  0.44105913495E+03  0.00000000000E+00 0.  1.
          5    1    4    4  501    0  0.26454154486E+02 -0.81712393976E+02  0.16388982633E+03  0.18507859193E+03  0.41800000000E+01 0. -1.
         -5    1    4    4    0  501 -0.51527536693E+02 -0.35056220136E+02  0.16029008933E+02  0.64485867717E+02  0.41800000000E+01 0. -1.
</event>
<event>
11    1  0.8551154E-009  0.3176912E+03  0.7561462E-02  0.9929700E-01
         22   -1    0    0    0    0  0.00000000000E+00  0.00000000000E+00  0.24040329644E+04  0.24040329644E+04  0.00000000000E+00 0.  1.
         22   -1    0    0    0    0 -0.00000000000E+00 -0.00000000000E+00 -0.66401278942E+02  0.66401278942E+02  0.00000000000E+00 0.  1.
         24    2    1    2    0    0 -0.29348653589E+02 -0.28795351187E+03  0.60412762253E+03  0.67415105202E+03  0.75702629896E+02 0.  0.
         25    2    1    2    0    0 -0.45582031256E+02 -0.21056924126E+02  0.36827692553E+03  0.39216885910E+03  0.12508958607E+03 0.  0.
        -24    2    1    2    0    0  0.74930684844E+02  0.30901043599E+03  0.13652271374E+04  0.14041143322E+04  0.81177978402E+02 0.  0.
        -13    1    3    3    0    0 -0.49652577063E+02 -0.14558139705E+03  0.34639010967E+03  0.37900584382E+03  0.00000000000E+00 0.  1.
         14    1    3    3    0    0  0.20303923474E+02 -0.14237211482E+03  0.25773751286E+03  0.29514520820E+03  0.00000000000E+00 0. -1.
         13    1    5    5    0    0 -0.16263262828E+02  0.29495602083E+02  0.16466869602E+03  0.16807814763E+03  0.00000000000E+00 0. -1.
        -14    1    5    5    0    0  0.91193947672E+02  0.27951483391E+03  0.12005584414E+04  0.12360361846E+04  0.00000000000E+00 0.  1.
          5    1    4    4  501    0 -0.26475014975E+02 -0.20861923096E+01  0.36351546874E+03  0.36450822629E+03  0.41800000000E+01 0.  1.
         -5    1    4    4    0  501 -0.19107016281E+02 -0.18970731817E+02  0.47614567864E+01  0.27660632811E+02  0.41800000000E+01 0.  1.
</event>
<event>
11    1  0.8551154E-009  0.1468856E+03  0.7561462E-02  0.1100104E+00
         22   -1    0    0    0    0  0.00000000000E+00  0.00000000000E+00  0.17673228779E+04  0.17673228779E+04  0.00000000000E+00 0. -1.
         22   -1    0    0    0    0 -0.00000000000E+00 -0.00000000000E+00 -0.17868463308E+03  0.17868463308E+03  0.00000000000E+00 0. -1.
         24    2    1    2    0    0  0.61072909463E+02 -0.49348160792E+02 -0.14746722666E+03  0.19072151331E+03  0.91994409924E+02 0.  0.
         25    2    1    2    0    0  0.60372822995E+00  0.51123322569E+02  0.62922154694E+03  0.64356949784E+03  0.12509190547E+03 0.  0.
        -24    2    1    2    0    0 -0.61676637693E+02 -0.17751617770E+01  0.11068839246E+04  0.11117164999E+04  0.83152839728E+02 0.  0.
        -13    1    3    3    0    0  0.17477611576E+01 -0.34394080931E+02 -0.11779292005E+03  0.12272399719E+03  0.00000000000E+00 0.  1.
         14    1    3    3    0    0  0.59325148306E+02 -0.14954079861E+02 -0.29674306608E+02  0.67997516121E+02  0.00000000000E+00 0. -1.
         13    1    5    5    0    0 -0.79804832527E+01 -0.16394361327E+02  0.77385995941E+03  0.77407473797E+03  0.00000000000E+00 0. -1.
        -14    1    5    5    0    0 -0.53696154441E+02  0.14619199550E+02  0.33302396518E+03  0.33764176190E+03  0.00000000000E+00 0.  1.
          5    1    4    4  501    0  0.45482143996E+02  0.39087814992E+01  0.45864553153E+03  0.46093068892E+03  0.41800000000E+01 0.  1.
         -5    1    4    4    0  501 -0.44878415766E+02  0.47214541069E+02  0.17057601542E+03  0.18263880892E+03  0.41800000000E+01 0.  1.
</event>
<event>
11    1  0.8551154E-009  0.1477953E+03  0.7561462E-02  0.1099153E+00
         22   -1    0    0    0    0  0.00000000000E+00  0.00000000000E+00  0.31234282643E+03  0.31234282643E+03  0.00000000000E+00 0.  1.
         22   -1    0    0    0    0 -0.00000000000E+00 -0.00000000000E+00 -0.96502183791E+03  0.96502183791E+03  0.00000000000E+00 0. -1.
         24    2    1    2    0    0 -0.58830242897E+02 -0.47713780431E+02 -0.79390362880E+03  0.80152409400E+03  0.80126769068E+02 0.  0.
         25    2    1    2    0    0  0.96940415370E+02  0.61331331657E+02 -0.11419255459E+03  0.20456069112E+03  0.12508461318E+03 0.  0.
        -24    2    1    2    0    0 -0.38110172473E+02 -0.13617551226E+02  0.25541717190E+03  0.27127987922E+03  0.81957417132E+02 0.  0.
        -13    1    3    3    0    0 -0.29480348409E+02  0.10867631867E+02 -0.10742384763E+03  0.11192443613E+03  0.00000000000E+00 0.  1.
         14    1    3    3    0    0 -0.29349894488E+02 -0.58581412299E+02 -0.68647978117E+03  0.68959965786E+03  0.00000000000E+00 0. -1.
         11    1    5    5    0    0  0.13762193627E+02  0.32529928861E+01  0.50133379518E+01  0.15003782642E+02  0.00000000000E+00 0. -1.
        -12    1    5    5    0    0 -0.51872366100E+02 -0.16870544112E+02  0.25040383394E+03  0.25627609658E+03  0.00000000000E+00 0.  1.
          5    1    4    4  501    0  0.11755680131E+03  0.60817433983E+02 -0.58019027162E+02  0.14457538423E+03  0.41800000000E+01 0. -1.
         -5    1    4    4    0  501 -0.20616385942E+02  0.51389767388E+00 -0.56173527425E+02  0.59985306897E+02  0.41800000000E+01 0. -1.
</event>
<event>
11    1  0.8551154E-009  0.1530768E+03  0.7561462E-02  0.1093776E+00
         22   -1    0    0    0    0  0.00000000000E+00  0.00000000000E+00  0.25677749461E+03  0.25677749461E+03  0.00000000000E+00 0.  1.
         22   -1    0    0    0    0 -0.00000000000E+00 -0.00000000000E+00 -0.14414554127E+04  0.14414554127E+04  0.00000000000E+00 0. -1.
         24    2    1    2    0    0 -0.87043002313E+02 -0.89988249513E+01 -0.13171667072E+04  0.13225028898E+04  0.80176653425E+02 0.  0.
         25    2    1    2    0    0  0.10044090089E+03  0.55130934502E+02 -0.44486952675E+02  0.17536958877E+03  0.12509040409E+03 0.  0.
        -24    2    1    2    0    0 -0.13397898582E+02 -0.46132109550E+02  0.17697574180E+03  0.20036042877E+03  0.80723063722E+02 0.  0.
        -11    1    3    3    0    0 -0.38202237365E+02  0.23334219187E+02 -0.91486390174E+03  0.91595843543E+03  0.00000000000E+00 0.  1.
         12    1    3    3    0    0 -0.48840764948E+02 -0.32333044138E+02 -0.40230280549E+03  0.40654445436E+03  0.00000000000E+00 0. -1.
         11    1    5    5    0    0 -0.25703070860E+01 -0.14669123534E+02 -0.47358622321E+01  0.15627477559E+02  0.00000000000E+00 0. -1.
        -12    1    5    5    0    0 -0.10827591496E+02 -0.31462986017E+02  0.18171160403E+03  0.18473295122E+03  0.00000000000E+00 0.  1.
          5    1    4    4  501    0  0.10680495317E+02 -0.16511680284E+02  0.31664011112E+02  0.37507206850E+02  0.41800000000E+01 0. -1.
         -5    1    4    4    0  501  0.89760405578E+02  0.71642614786E+02 -0.76150963787E+02  0.13786238192E+03  0.41800000000E+01 0. -1.
</event>
<event>
11    1  0.8551154E-009  0.1417459E+03  0.7561462E-02  0.1105624E+00
         22   -1    0    0    0    0  0.00000000000E+00  0.00000000000E+00  0.16682964359E+04  0.16682964359E+04  0.00000000000E+00 0. -1.
         22   -1    0    0    0    0 -0.00000000000E+00 -0.00000000000E+00 -0.11164592226E+04  0.11164592226E+04  0.00000000000E+00 0.  1.
        -24    2    1    2    0    0 -0.51845604401E+02  0.28927059400E+02 -0.11040799445E+04  0.11085932785E+04  0.80385271344E+02 0.  0.
         25    2    1    2    0    0 -0.87357620139E+01 -0.69494878010E+02  0.72331010193E+03  0.73738153467E+03  0.12509265574E+03 0.  0.
         24    2    1    2    0    0  0.60581366414E+02  0.40567818610E+02  0.93260705585E+03  0.93878084534E+03  0.78979143474E+02 0.  0.
        -11    1    5    5    0    0  0.57361706328E+02  0.11968983699E+01  0.33565707918E+03  0.34052528940E+03  0.00000000000E+00 0.  1.
         12    1    5    5    0    0  0.32196600860E+01  0.39370920240E+02  0.59694997667E+03  0.59825555594E+03  0.00000000000E+00 0. -1.
         11    1    3    3    0    0 -0.36062493569E+02 -0.19183162256E+02 -0.72458801136E+03  0.72573844005E+03  0.00000000000E+00 0. -1.
        -12    1    3    3    0    0 -0.15783110832E+02  0.48110221656E+02 -0.37949193313E+03  0.38285483845E+03  0.00000000000E+00 0.  1.
          5    1    4    4  501    0 -0.42312166370E+02 -0.12348871530E+02  0.87028443920E+02  0.97643415048E+02  0.41800000000E+01 0.  1.
         -5    1    4    4    0  501  0.33576404357E+02 -0.57146006480E+02  0.63628165801E+03  0.63973811963E+03  0.41800000000E+01 0.  1.
</event>
<event>
11    1  0.8551154E-009  0.1324530E+03  0.7561462E-02  0.1116291E+00
         22   -1    0    0    0    0  0.00000000000E+00  0.00000000000E+00  0.35667594459E+03  0.35667594459E+03  0.00000000000E+00 0.  1.
         22   -1    0    0    0    0 -0.00000000000E+00 -0.00000000000E+00 -0.28716647279E+03  0.28716647279E+03  0.00000000000E+00 0.  1.
        -24    2    1    2    0    0 -0.33292454354E+02  0.21545073762E+01 -0.17864668532E+03  0.19873266671E+03  0.80417692223E+02 0.  0.
         25    2    1    2    0    0  0.55598243720E+02  0.33901133609E+02 -0.37215164551E+02  0.14585046223E+03  0.12508771840E+03 0.  0.
         24    2    1    2    0    0 -0.22305789366E+02 -0.36055640985E+02  0.28537132167E+03  0.29925928845E+03  0.79509578081E+02 0.  0.
        -13    1    5    5    0    0 -0.19797020148E+02 -0.23797926573E+02  0.28506796048E+03  0.28674379750E+03  0.00000000000E+00 0.  1.
         14    1    5    5    0    0 -0.25087692176E+01 -0.12257714412E+02  0.30336118999E+00  0.12515490945E+02  0.00000000000E+00 0. -1.
         11    1    3    3    0    0  0.15558980407E+02  0.23601986429E+02 -0.32083555450E+02  0.42760848507E+02  0.00000000000E+00 0. -1.
        -12    1    3    3    0    0 -0.48851434761E+02 -0.21447479053E+02 -0.14656312987E+03  0.15597181820E+03  0.00000000000E+00 0.  1.
          5    1    4    4  501    0  0.41454498405E+02  0.48605201808E+02  0.33414353973E+02  0.72214489767E+02  0.41800000000E+01 0.  1.
         -5    1    4    4    0  501  0.14143745315E+02 -0.14704068199E+02 -0.70629518524E+02  0.73635972459E+02  0.41800000000E+01 0.  1.
</event>
<event>
11    1  0.8551154E-009  0.1284318E+03  0.7561462E-02  0.1121211E+00
         22   -1    0    0    0    0  0.00000000000E+00  0.00000000000E+00  0.27325940641E+03  0.27325940641E+03  0.00000000000E+00 0.  1.
         22   -1    0    0    0    0 -0.00000000000E+00 -0.00000000000E+00 -0.20519242031E+04  0.20519242031E+04  0.00000000000E+00 0.  1.
        -24    2    1    2    0    0 -0.62879746962E+01 -0.28383463094E+02 -0.19907107438E+04  0.19925636048E+04  0.80841166711E+02 0.  0.
         25    2    1    2    0    0  0.29109074541E+02  0.26962479623E+02  0.32111648210E+02  0.13510261682E+03  0.12508895072E+03 0.  0.
         24    2    1    2    0    0 -0.22821099845E+02  0.14209834715E+01  0.17993429892E+03  0.19751738783E+03  0.78191718072E+02 0.  0.
        -13    1    5    5    0    0 -0.67088682790E+01 -0.37664601191E+02  0.10046215621E+03  0.10750012059E+03  0.00000000000E+00 0.  1.
         14    1    5    5    0    0 -0.16112231566E+02  0.39085584662E+02  0.79472142711E+02  0.90017267241E+02  0.00000000000E+00 0. -1.
         13    1    3    3    0    0 -0.33575938078E+02  0.78094523887E+01 -0.51247933150E+03  0.51363741723E+03  0.00000000000E+00 0. -1.
        -14    1    3    3    0    0  0.27287963382E+02 -0.36192915483E+02 -0.14782314123E+04  0.14789261876E+04  0.00000000000E+00 0.  1.
          5    1    4    4  501    0  0.63560058838E+02  0.56890519709E+02  0.21094094219E+02  0.87970708325E+02  0.41800000000E+01 0.  1.
         -5    1    4    4    0  501 -0.34450984297E+02 -0.29928040087E+02  0.11017553991E+02  0.47131908495E+02  0.41800000000E+01 0.  1.
</event>
<event>
11    1  0.8551154E-009  0.5823780E+03  0.7561462E-02  0.9226215E-01
         22   -1    0    0    0    0  0.00000000000E+00  0.00000000000E+00  0.23780682398E+03  0.23780682398E+03  0.00000000000E+00 0. -1.
         22   -1    0    0    0    0 -0.00000000000E+00 -0.00000000000E+00 -0.23692363110E+04  0.23692363110E+04  0.00000000000E+00 0. -1.
         24    2    1    2    0    0 -0.48204797393E+03  0.32510059544E+03 -0.78268350223E+03  0.97845637222E+03  0.81992446848E+02 0.  0.
         25    2    1    2    0    0  0.53616875184E+03 -0.18802261733E+03 -0.13401761056E+04  0.14610095098E+04  0.12508940225E+03 0.  0.
        -24    2    1    2    0    0 -0.54120777906E+02 -0.13707797811E+03 -0.85698791909E+01  0.16757725298E+03  0.79304868720E+02 0.  0.
        -13    1    3    3    0    0 -0.43243648872E+03  0.26180645900E+03 -0.69605039817E+03  0.86025001921E+03  0.00000000000E+00 0.  1.
         14    1    3    3    0    0 -0.49611485216E+02  0.63294136447E+02 -0.86633104056E+02  0.11820635301E+03  0.00000000000E+00 0. -1.
         11    1    5    5    0    0 -0.64231424028E+02 -0.67138826173E+02 -0.22383424422E+02  0.95573612998E+02  0.00000000000E+00 0. -1.
        -12    1    5    5    0    0  0.10110646122E+02 -0.69939151940E+02  0.13813545231E+02  0.72003639984E+02  0.00000000000E+00 0.  1.
          5    1    4    4  501    0  0.91027562527E+02 -0.57773257287E+02 -0.16019271836E+03  0.19313970543E+03  0.41800000000E+01 0.  1.
         -5    1    4    4    0  501  0.44514118931E+03 -0.13024936004E+03 -0.11799833872E+04  0.12678698044E+04  0.41800000000E+01 0.  1.
</event>
<event>
11    1  0.8551154E-009  0.1351326E+03  0.7561462E-02  0.1113119E+00
         22   -1    0    0    0    0  0.00000000000E+00  0.00000000000E+00  0.47894008401E+03  0.47894008401E+03  0.00000000000E+00 0.  1.
         22   -1    0    0    0    0 -0.00000000000E+00 -0.00000000000E+00 -0.64041246404E+03  0.64041246404E+03  0.00000000000E+00 0.  1.
         24    2    1    2    0    0 -0.59053223144E+02 -0.10079323954E+02 -0.43464604924E+03  0.44637008863E+03  0.82098672122E+02 0.  0.
         25    2    1    2    0    0  0.14480088909E+02  0.24935001773E+02 -0.17407411022E+03  0.21628700023E+03  0.12508734280E+03 0.  0.
        -24    2    1    2    0    0  0.44573134235E+02 -0.14855677819E+02  0.44724777943E+03  0.45669545919E+03  0.79578331094E+02 0.  0.
        -13    1    3    3    0    0 -0.79895859182E+02 -0.55658047114E+01 -0.35459874176E+03  0.36353073344E+03  0.00000000000E+00 0.  1.
         14    1    3    3    0    0  0.20842636038E+02 -0.45135192428E+01 -0.80047307480E+02  0.82839355187E+02  0.00000000000E+00 0. -1.
         11    1    5    5    0    0 -0.15570785892E+02 -0.17179334702E+02  0.52587664595E+02  0.57472092199E+02  0.00000000000E+00 0. -1.
        -12    1    5    5    0    0  0.60143920127E+02  0.23236568832E+01  0.39466011484E+03  0.39922336699E+03  0.00000000000E+00 0.  1.
          5    1    4    4  501    0 -0.32998668988E+02 -0.14682777759E+02 -0.56169004102E+01  0.36790190104E+02  0.41800000000E+01 0.  1.
         -5    1    4    4    0  501  0.47478757896E+02  0.39617779533E+02 -0.16845720981E+03  0.17949681012E+03  0.41800000000E+01 0.  1.
</event>
<event>
11    1  0.8551154E-009  0.1323244E+03  0.7561462E-02  0.1116446E+00
         22   -1    0    0    0    0  0.00000000000E+00  0.00000000000E+00  0.20220457487E+04  0.20220457487E+04  0.00000000000E+00 0.  1.
         22   -1    0    0    0    0 -0.00000000000E+00 -0.00000000000E+00 -0.82272205884E+03  0.82272205884E+03  0.00000000000E+00 0.  1.
         24    2    1    2    0    0 -0.59665135682E+01 -0.24257899798E+02 -0.80430159444E+03  0.80946691078E+03  0.87815601341E+02 0.  0.
         25    2    1    2    0    0  0.35775108769E+02  0.53104695006E+02  0.32366099957E+03  0.35285107474E+03  0.12508985277E+03 0.  0.
        -24    2    1    2    0    0 -0.29808595201E+02 -0.28846795208E+02  0.16799642847E+04  0.16824498220E+04  0.81466040440E+02 0.  0.
        -11    1    3    3    0    0  0.62022787594E+01  0.23445195078E+02 -0.54463267354E+03  0.54517235305E+03  0.00000000000E+00 0.  1.
         12    1    3    3    0    0 -0.12168792328E+02 -0.47703094876E+02 -0.25966892089E+03  0.26429455773E+03  0.00000000000E+00 0. -1.
         13    1    5    5    0    0  0.92548632199E+01 -0.29517731280E+02  0.24386787701E+03  0.24582207059E+03  0.00000000000E+00 0. -1.
        -14    1    5    5    0    0 -0.39063458421E+02  0.67093607172E+00  0.14360964077E+04  0.14366277514E+04  0.00000000000E+00 0.  1.
          5    1    4    4  501    0  0.35587033545E+02  0.46326101025E+02  0.33439452611E+03  0.33948448578E+03  0.41800000000E+01 0.  1.
         -5    1    4    4    0  501  0.18807522392E+00  0.67785939808E+01 -0.10733526537E+02  0.13366588965E+02  0.41800000000E+01 0.  1.
</event>
<event>
11    1  0.8551154E-009  0.1576264E+03  0.7561462E-02  0.1089331E+00
         22   -1    0    0    0    0  0.00000000000E+00  0.00000000000E+00  0.12976837119E+04  0.12976837119E+04  0.00000000000E+00 0.  1.
         22   -1    0    0    0    0 -0.00000000000E+00 -0.00000000000E+00 -0.11823423382E+03  0.11823423382E+03  0.00000000000E+00 0.  1.
         24    2    1    2    0    0  0.11683256781E+02 -0.94479310044E+02 -0.62507872800E+02  0.14114346612E+03  0.83375088306E+02 0.  0.
         25    2    1    2    0    0 -0.23486162292E+02  0.10215397548E+03  0.45253221521E+03  0.48106174473E+03  0.12509181394E+03 0.  0.
        -24    2    1    2    0    0  0.11802905511E+02 -0.76746654339E+01  0.78942513563E+03  0.79371273483E+03  0.81176669058E+02 0.  0.
        -11    1    3    3    0    0  0.25232443860E+02 -0.82502703387E+02 -0.78768629540E+02  0.11682409550E+03  0.00000000000E+00 0.  1.
         12    1    3    3    0    0 -0.13549187079E+02 -0.11976606657E+02  0.16260756740E+02  0.24319370618E+02  0.00000000000E+00 0. -1.
         13    1    5    5    0    0 -0.10494381558E+02 -0.23874217972E+02  0.69126697669E+03  0.69175873207E+03  0.00000000000E+00 0. -1.
        -14    1    5    5    0    0  0.22297287069E+02  0.16199552538E+02  0.98158158937E+02  0.10195400276E+03  0.00000000000E+00 0.  1.
          5    1    4    4  501    0  0.46310770999E+02  0.13008067297E+02  0.10600386890E+03  0.11648257357E+03  0.41800000000E+01 0.  1.
         -5    1    4    4    0  501 -0.69796933292E+02  0.89145908181E+02  0.34652834632E+03  0.36457917116E+03  0.41800000000E+01 0.  1.
</event>
<event>
11    1  0.8551154E-009  0.1262085E+03  0.7561462E-02  0.1124017E+00
         22   -1    0    0    0    0  0.00000000000E+00  0.00000000000E+00  0.28303751624E+03  0.28303751624E+03  0.00000000000E+00 0. -1.
         22   -1    0    0    0    0 -0.00000000000E+00 -0.00000000000E+00 -0.71435017770E+03  0.71435017770E+03  0.00000000000E+00 0. -1.
        -24    2    1    2    0    0  0.26505821216E+00  0.17440566308E+02 -0.63825229363E+03  0.64354570900E+03  0.80503699543E+02 0.  0.
         25    2    1    2    0    0 -0.70454089789E+01 -0.14333198769E+01 -0.65988219619E+01  0.12546984076E+03  0.12508974497E+03 0.  0.
         24    2    1    2    0    0  0.67803507667E+01 -0.16007246431E+02  0.21353845413E+03  0.22837214418E+03  0.79075658377E+02 0.  0.
        -13    1    5    5    0    0  0.17657879074E+02 -0.37868158058E+02  0.61284804647E+02  0.74172942295E+02  0.00000000000E+00 0.  1.
         14    1    5    5    0    0 -0.10877528307E+02  0.21860911627E+02  0.15225364949E+03  0.15419920188E+03  0.00000000000E+00 0. -1.
         13    1    3    3    0    0  0.11428251836E+01  0.30895212679E+02 -0.62041966013E+03  0.62118948389E+03  0.00000000000E+00 0. -1.
        -14    1    3    3    0    0 -0.87776697143E+00 -0.13454646371E+02 -0.17832633503E+02  0.22356225117E+02  0.00000000000E+00 0.  1.
          5    1    4    4  501    0 -0.25972896592E+02 -0.58582981108E+02 -0.10160630296E+02  0.65017442590E+02  0.41800000000E+01 0.  1.
         -5    1    4    4    0  501  0.18927487613E+02  0.57149661231E+02  0.35618083341E+01  0.60452398172E+02  0.41800000000E+01 0.  1.
</event>
<event>
11    1  0.8551154E-009  0.1428813E+03  0.7561462E-02  0.1104383E+00
         22   -1    0    0    0    0  0.00000000000E+00  0.00000000000E+00  0.46409654097E+03  0.46409654097E+03  0.00000000000E+00 0. -1.
         22   -1    0    0    0    0 -0.00000000000E+00 -0.00000000000E+00 -0.12756050570E+03  0.12756050570E+03  0.00000000000E+00 0. -1.
        -24    2    1    2    0    0  0.20043213695E+02  0.10440330037E+03 -0.27605070633E+01  0.13572750588E+03  0.84335970428E+02 0.  0.
         25    2    1    2    0    0 -0.45166792168E+02  0.12387258862E+02  0.70015489497E+02  0.15080894581E+03  0.12509071137E+03 0.  0.
         24    2    1    2    0    0  0.25123578473E+02 -0.11679055924E+03  0.26928105284E+03  0.30512059498E+03  0.79467371540E+02 0.  0.
        -13    1    5    5    0    0  0.15135522078E+02 -0.64848093370E+02  0.61269406937E+02  0.90489222942E+02  0.00000000000E+00 0.  1.
         14    1    5    5    0    0  0.99880563952E+01 -0.51942465866E+02  0.20801164590E+03  0.21463137204E+03  0.00000000000E+00 0. -1.
         11    1    3    3    0    0 -0.18805545651E+02  0.91664417377E+02 -0.10352589930E+02  0.94144516986E+02  0.00000000000E+00 0. -1.
        -12    1    3    3    0    0  0.38848759347E+02  0.12738882997E+02  0.75920828672E+01  0.41582988890E+02  0.00000000000E+00 0.  1.
          5    1    4    4  501    0 -0.65060031268E+01 -0.54877495631E+02  0.35321488048E+02  0.65718699936E+02  0.41800000000E+01 0.  1.
         -5    1    4    4    0  501 -0.38660789041E+02  0.67264754493E+02  0.34694001449E+02  0.85090245874E+02  0.41800000000E+01 0.  1.
</event>
<event>
11    1  0.8551154E-009  0.1800542E+03  0.7561462E-02  0.1069599E+00
         22   -1    0    0    0    0  0.00000000000E+00  0.00000000000E+00  0.43411041452E+03  0.43411041452E+03  0.00000000000E+00 0. -1.
         22   -1    0    0    0    0 -0.00000000000E+00 -0.00000000000E+00 -0.87319182279E+03  0.87319182279E+03  0.00000000000E+00 0.  1.
         24    2    1    2    0    0  0.11060451734E+03 -0.52825352650E+02 -0.57696837161E+03  0.59538397009E+03  0.81028963105E+02 0.  0.
         25    2    1    2    0    0 -0.13797426724E+03  0.73674689929E+02 -0.24652621895E+03  0.31762695886E+03  0.12508736949E+03 0.  0.
        -24    2    1    2    0    0  0.27369749898E+02 -0.20849337279E+02  0.38441318230E+03  0.39429130836E+03  0.80674302270E+02 0.  0.
        -13    1    3    3    0    0  0.95044906848E+02 -0.40109509586E+02 -0.55896220985E+03  0.56840219838E+03  0.00000000000E+00 0.  1.
         14    1    3    3    0    0  0.15559610493E+02 -0.12715843063E+02 -0.18006161761E+02  0.26981771715E+02  0.00000000000E+00 0. -1.
         13    1    5    5    0    0  0.38798132693E+02  0.20922475183E+02  0.17712451774E+03  0.18252709347E+03  0.00000000000E+00 0. -1.
        -14    1    5    5    0    0 -0.11428382795E+02 -0.41771812462E+02  0.20728866457E+03  0.21176421489E+03  0.00000000000E+00 0.  1.
          5    1    4    4  501    0 -0.16042699706E+03  0.72259777011E+02 -0.22891460921E+03  0.28875191336E+03  0.41800000000E+01 0.  1.
         -5    1    4    4    0  501  0.22452729819E+02  0.14149129175E+01 -0.17611609740E+02  0.28875045498E+02  0.41800000000E+01 0.  1.
</event>
<event>
11    1  0.8551154E-009  0.1790984E+03  0.7561462E-02  0.1070374E+00
         22   -1    0    0    0    0  0.00000000000E+00  0.00000000000E+00  0.44168536675E+03  0.44168536675E+03  0.00000000000E+00 0. -1.
         22   -1    0    0    0    0 -0.00000000000E+00 -0.00000000000E+00 -0.32146067840E+03  0.32146067840E+03  0.00000000000E+00 0.  1.
        -24    2    1    2    0    0 -0.30902494027E+01 -0.10570500984E+03 -0.10141942911E+03  0.16719073611E+03  0.80521692073E+02 0.  0.
         25    2    1    2    0    0 -0.80235003590E+02  0.17264381280E+03 -0.99552738687E+02  0.24859885635E+03  0.12508837557E+03 0.  0.
         24    2    1    2    0    0  0.83325252992E+02 -0.66938802960E+02  0.32119685615E+03  0.34735645268E+03  0.77879289225E+02 0.  0.
        -13    1    5    5    0    0  0.31250230637E+01  0.16161559506E+02  0.32908809674E+02  0.36796080348E+02  0.00000000000E+00 0.  1.
         14    1    5    5    0    0  0.80200229929E+02 -0.83100362466E+02  0.28828804647E+03  0.31056037233E+03  0.00000000000E+00 0. -1.
         13    1    3    3    0    0 -0.23716787483E+02 -0.42770907641E+01 -0.28616311853E+01  0.24268672130E+02  0.00000000000E+00 0. -1.
        -14    1    3    3    0    0  0.20626538081E+02 -0.10142791907E+03 -0.98557797929E+02  0.14292206398E+03  0.00000000000E+00 0.  1.
          5    1    4    4  501    0  0.22838646889E+02  0.66446949868E+02 -0.66648266971E+02  0.96934332559E+02  0.41800000000E+01 0.  1.
         -5    1    4    4    0  501 -0.10307365048E+03  0.10619686293E+03 -0.32904471717E+02  0.15166452379E+03  0.41800000000E+01 0.  1.
</event>
<event>
11    1  0.8551154E-009  0.3421539E+03  0.7561462E-02  0.9837772E-01
         22   -1    0    0    0    0  0.00000000000E+00  0.00000000000E+00  0.59600965803E+03  0.59600965803E+03  0.00000000000E+00 0. -1.
         22   -1    0    0    0    0 -0.00000000000E+00 -0.00000000000E+00 -0.17567860326E+04  0.17567860326E+04  0.00000000000E+00 0. -1.
        -24    2    1    2    0    0  0.31723179386E+03 -0.12370218373E+02 -0.15754776115E+04  0.16089391475E+04  0.75937096616E+02 0.  0.
         25    2    1    2    0    0 -0.32915709945E+03  0.28089491026E+02  0.34607863582E+02  0.35493615799E+03  0.12509419012E+03 0.  0.
         24    2    1    2    0    0  0.11925305594E+02 -0.15719272654E+02  0.38009337335E+03  0.38892038516E+03  0.79992406437E+02 0.  0.
        -11    1    5    5    0    0 -0.18445498518E+02  0.25311921335E+02  0.14887755765E+03  0.15213631042E+03  0.00000000000E+00 0.  1.
         12    1    5    5    0    0  0.30370804112E+02 -0.41031193989E+02  0.23121581570E+03  0.23678407474E+03  0.00000000000E+00 0. -1.
         11    1    3    3    0    0  0.24301374969E+03 -0.41664709697E+02 -0.12052578519E+04  0.12302187286E+04  0.00000000000E+00 0. -1.
        -12    1    3    3    0    0  0.74218044163E+02  0.29294491324E+02 -0.37021975957E+03  0.37872041888E+03  0.00000000000E+00 0.  1.
          5    1    4    4  501    0 -0.27619547455E+03  0.48426178675E+02 -0.13023759761E+02  0.28074209812E+03  0.41800000000E+01 0.  1.
         -5    1    4    4    0  501 -0.52961624906E+02 -0.20336687648E+02  0.47631623343E+02  0.74194059867E+02  0.41800000000E+01 0.  1.
</event>
<event>
11    1  0.8551154E-009  0.1573455E+03  0.7561462E-02  0.1089601E+00
         22   -1    0    0    0    0  0.00000000000E+00  0.00000000000E+00  0.42052730748E+03  0.42052730748E+03  0.00000000000E+00 0. -1.
         22   -1    0    0    0    0 -0.00000000000E+00 -0.00000000000E+00 -0.35053499975E+03  0.35053499975E+03  0.00000000000E+00 0. -1.
        -24    2    1    2    0    0  0.89709483312E+02 -0.18651498971E+02 -0.27534156827E+03  0.30720813383E+03  0.10083743581E+03 0.  0.
         25    2    1    2    0    0 -0.13347253108E+03  0.67479573877E+02  0.16075435038E+03  0.25270156447E+03  0.12509080733E+03 0.  0.
         24    2    1    2    0    0  0.43763047765E+02 -0.48828074906E+02  0.18457952563E+03  0.21115260893E+03  0.78844389322E+02 0.  0.
        -11    1    5    5    0    0 -0.36177521527E+01 -0.35271788399E+02  0.23093953040E+02  0.42314511158E+02  0.00000000000E+00 0.  1.
         12    1    5    5    0    0  0.47380799918E+02 -0.13556286506E+02  0.16148557259E+03  0.16883809777E+03  0.00000000000E+00 0. -1.
         13    1    3    3    0    0  0.10604911124E+01 -0.26204615787E+02 -0.15687839173E+03  0.15905545047E+03  0.00000000000E+00 0. -1.
        -14    1    3    3    0    0  0.88648992199E+02  0.75531168164E+01 -0.11846317654E+03  0.14815268336E+03  0.00000000000E+00 0.  1.
          5    1    4    4  501    0 -0.13017980584E+03  0.58129235743E+01  0.12785292821E+03  0.18260453330E+03  0.41800000000E+01 0. -1.
         -5    1    4    4    0  501 -0.32927252400E+01  0.61666650302E+02  0.32901422164E+02  0.70097031174E+02  0.41800000000E+01 0. -1.
</event>
<event>
11    1  0.8551154E-009  0.1354077E+03  0.7561462E-02  0.1112798E+00
         22   -1    0    0    0    0  0.00000000000E+00  0.00000000000E+00  0.26350713624E+04  0.26350713624E+04  0.00000000000E+00 0. -1.
         22   -1    0    0    0    0 -0.00000000000E+00 -0.00000000000E+00 -0.68781235549E+02  0.68781235549E+02  0.00000000000E+00 0. -1.
        -24    2    1    2    0    0 -0.78934903547E+01 -0.79512344401E+01 -0.34847634639E+02  0.88393437768E+02  0.80458143661E+02 0.  0.
         25    2    1    2    0    0  0.56630569558E+02  0.19052002467E+02  0.82797402578E+03  0.83949877591E+03  0.12508879717E+03 0.  0.
         24    2    1    2    0    0 -0.48737079203E+02 -0.11100768027E+02  0.17731637357E+04  0.17759603842E+04  0.86180757341E+02 0.  0.
        -13    1    5    5    0    0  0.99858856649E+01 -0.19804703518E+01  0.28137576965E+02  0.29922623762E+02  0.00000000000E+00 0.  1.
         14    1    5    5    0    0 -0.58722964868E+02 -0.91202976755E+01  0.17450261587E+04  0.17460377605E+04  0.00000000000E+00 0. -1.
         11    1    3    3    0    0 -0.41242279327E+02  0.10110480425E+02 -0.12038022072E+02  0.44136848482E+02  0.00000000000E+00 0. -1.
        -12    1    3    3    0    0  0.33348788972E+02 -0.18061714865E+02 -0.22809612567E+02  0.44256589286E+02  0.00000000000E+00 0.  1.
          5    1    4    4  501    0  0.71203209995E+02  0.17807358110E+01  0.22401448068E+03  0.23510216521E+03  0.41800000000E+01 0. -1.
         -5    1    4    4    0  501 -0.14572640437E+02  0.17271266656E+02  0.60395954510E+03  0.60439661069E+03  0.41800000000E+01 0. -1.
</event>
<event>
11    1  0.8551154E-009  0.1786392E+03  0.7561462E-02  0.1070749E+00
         22   -1    0    0    0    0  0.00000000000E+00  0.00000000000E+00  0.96652689449E+03  0.96652689449E+03  0.00000000000E+00 0. -1.
         22   -1    0    0    0    0 -0.00000000000E+00 -0.00000000000E+00 -0.33759095226E+03  0.33759095226E+03  0.00000000000E+00 0.  1.
        -24    2    1    2    0    0  0.12569562246E+03 -0.28982984010E+01 -0.28673530654E+03  0.32357472119E+03  0.81704801180E+02 0.  0.
         25    2    1    2    0    0 -0.16272474609E+03  0.11763875015E+02  0.33261072344E+03  0.39101787214E+03  0.12508937301E+03 0.  0.
         24    2    1    2    0    0  0.37029123626E+02 -0.88655766137E+01  0.58306052532E+03  0.58952525342E+03  0.78298747060E+02 0.  0.
        -11    1    5    5    0    0 -0.86783919697E+01  0.24534151891E+02  0.10740212056E+03  0.11050997511E+03  0.00000000000E+00 0.  1.
         12    1    5    5    0    0  0.45707515596E+02 -0.33399728504E+02  0.47565840475E+03  0.47901527832E+03  0.00000000000E+00 0. -1.
         11    1    3    3    0    0  0.18641141828E+02  0.19217841638E+02 -0.15030531958E+02  0.30703981775E+02  0.00000000000E+00 0. -1.
        -12    1    3    3    0    0  0.10705448064E+03 -0.22116140039E+02 -0.27170477458E+03  0.29287073941E+03  0.00000000000E+00 0.  1.
          5    1    4    4  501    0 -0.31739887555E+02 -0.33136784932E+02  0.22297219618E+02  0.51186964945E+02  0.41800000000E+01 0.  1.
         -5    1    4    4    0  501 -0.13098485854E+03  0.44900659947E+02  0.31031350382E+03  0.33983090719E+03  0.41800000000E+01 0.  1.
</event>
<event>
11    1  0.8551154E-009  0.1626128E+03  0.7561462E-02  0.1084645E+00
         22   -1    0    0    0    0  0.00000000000E+00  0.00000000000E+00  0.15851204913E+03  0.15851204913E+03  0.00000000000E+00 0. -1.
         22   -1    0    0    0    0 -0.00000000000E+00 -0.00000000000E+00 -0.33478365810E+03  0.33478365810E+03  0.00000000000E+00 0.  1.
        -24    2    1    2    0    0  0.33802457659E+02 -0.62086087796E+02 -0.14057812846E+03  0.17565107572E+03  0.78062806503E+02 0.  0.
         25    2    1    2    0    0  0.78694969391E+02  0.24538944017E+02 -0.77351005028E+02  0.16859050847E+03  0.12507806997E+03 0.  0.
         24    2    1    2    0    0 -0.11249742705E+03  0.37547143779E+02  0.41657524515E+02  0.14905412304E+03  0.80101954705E+02 0.  0.
        -13    1    5    5    0    0 -0.91770148162E+02 -0.68734487006E+01  0.39040609313E+02  0.99965862004E+02  0.00000000000E+00 0.  1.
         14    1    5    5    0    0 -0.20727278888E+02  0.44420592479E+02  0.26169152021E+01  0.49088261036E+02  0.00000000000E+00 0. -1.
         11    1    3    3    0    0  0.43680075256E+02 -0.56880113691E+02 -0.57761676018E+02  0.92085327410E+02  0.00000000000E+00 0. -1.
        -12    1    3    3    0    0 -0.98776175971E+01 -0.52059741048E+01 -0.82816452439E+02  0.83565748308E+02  0.00000000000E+00 0.  1.
          5    1    4    4  501    0  0.48360028146E+02 -0.15411638523E+02 -0.10089533719E+03  0.11302014153E+03  0.41800000000E+01 0.  1.
         -5    1    4    4    0  501  0.30334941245E+02  0.39950582540E+02  0.23544332161E+02  0.55570366946E+02  0.41800000000E+01 0.  1.
</event>
<event>
11    1  0.8551154E-009  0.1844823E+03  0.7561462E-02  0.1066074E+00
         22   -1    0    0    0    0  0.00000000000E+00  0.00000000000E+00  0.71367971755E+03  0.71367971755E+03  0.00000000000E+00 0. -1.
         22   -1    0    0    0    0 -0.00000000000E+00 -0.00000000000E+00 -0.14697680254E+04  0.14697680254E+04  0.00000000000E+00 0. -1.
         24    2    1    2    0    0  0.71958932861E+01 -0.91701036833E+01 -0.13977449033E+04  0.14001039328E+04  0.80401097183E+02 0.  0.
         25    2    1    2    0    0  0.75384260424E+02  0.11614797561E+03  0.85276996910E+02  0.20516595871E+03  0.12509102867E+03 0.  0.
        -24    2    1    2    0    0 -0.82580153710E+02 -0.10697787193E+03  0.55637959852E+03  0.57817785139E+03  0.80421535126E+02 0.  0.
        -13    1    3    3    0    0  0.10763503473E+01  0.16316121044E+02 -0.62555481267E+02  0.64657270068E+02  0.00000000000E+00 0.  1.
         14    1    3    3    0    0  0.61195429388E+01 -0.25486224728E+02 -0.13351894220E+04  0.13354466628E+04  0.00000000000E+00 0. -1.
         13    1    5    5    0    0 -0.87356046140E+02 -0.63450534377E+02  0.45696788390E+03  0.46954946068E+03  0.00000000000E+00 0. -1.
        -14    1    5    5    0    0  0.47758924301E+01 -0.43527337554E+02  0.99411714626E+02  0.10862839071E+03  0.00000000000E+00 0.  1.
          5    1    4    4  501    0  0.10277781780E+03  0.78054750530E+02  0.90630536746E+02  0.15775674472E+03  0.41800000000E+01 0.  1.
         -5    1    4    4    0  501 -0.27393557378E+02  0.38093225084E+02 -0.53535398353E+01  0.47409213998E+02  0.41800000000E+01 0.  1.
</event>
<event>
11    1  0.8551154E-009  0.1432800E+03  0.7561462E-02  0.1103950E+00
         22   -1    0    0    0    0  0.00000000000E+00  0.00000000000E+00  0.17972146530E+04  0.17972146530E+04  0.00000000000E+00 0. -1.
         22   -1    0    0    0    0 -0.00000000000E+00 -0.00000000000E+00 -0.74780519684E+03  0.74780519684E+03  0.00000000000E+00 0. -1.
        -24    2    1    2    0    0  0.29967683263E+02 -0.63149936213E+02 -0.73306022377E+03  0.74078770438E+03  0.80642140375E+02 0.  0.
         25    2    1    2    0    0 -0.75490676551E+01  0.69660489042E+02  0.53528365328E+03  0.55415249231E+03  0.12508726198E+03 0.  0.
         24    2    1    2    0    0 -0.22418615608E+02 -0.65105528286E+01  0.12471860266E+04  0.12500796531E+04  0.81738439824E+02 0.  0.
        -11    1    5    5    0    0  0.26353997585E+02  0.16428214718E+02  0.47759777747E+03  0.47860636902E+03  0.00000000000E+00 0.  1.
         12    1    5    5    0    0 -0.48772613193E+02 -0.22938767547E+02  0.76958824915E+03  0.77147328410E+03  0.00000000000E+00 0. -1.
         11    1    3    3    0    0  0.52961857351E+02 -0.64464591536E+02 -0.55226125404E+03  0.55852764892E+03  0.00000000000E+00 0. -1.
        -12    1    3    3    0    0 -0.22994174088E+02  0.13146553224E+01 -0.18079896973E+03  0.18226005546E+03  0.00000000000E+00 0.  1.
          5    1    4    4  501    0  0.25203911745E+02 -0.51143318488E+01  0.35783430362E+03  0.35878162552E+03  0.41800000000E+01 0.  1.
         -5    1    4    4    0  501 -0.32752979400E+02  0.74774820891E+02  0.17744934966E+03  0.19537086680E+03  0.41800000000E+01 0.  1.
</event>
<event>
11    1  0.8551154E-009  0.2058593E+03  0.7561462E-02  0.1050456E+00
         22   -1    0    0    0    0  0.00000000000E+00  0.00000000000E+00  0.23887915962E+03  0.23887915962E+03  0.00000000000E+00 0. -1.
         22   -1    0    0    0    0 -0.00000000000E+00 -0.00000000000E+00 -0.73313123450E+03  0.73313123450E+03  0.00000000000E+00 0.  1.
        -24    2    1    2    0    0 -0.10400823152E+03  0.11225902110E+03 -0.49656028415E+03  0.52581558045E+03  0.80561211532E+02 0.  0.
         25    2    1    2    0    0  0.13708228930E+03 -0.17235618639E+03 -0.12531650182E+03  0.28257632298E+03  0.12508774383E+03 0.  0.
         24    2    1    2    0    0 -0.33074057776E+02  0.60097165285E+02  0.12762471109E+03  0.16361849069E+03  0.76009085260E+02 0.  0.
        -11    1    5    5    0    0 -0.12264833202E+02 -0.10862238340E+02  0.30990013577E+00  0.16386286746E+02  0.00000000000E+00 0.  1.
         12    1    5    5    0    0 -0.20809224574E+02  0.70959403625E+02  0.12731481095E+03  0.14723220394E+03  0.00000000000E+00 0. -1.
         13    1    3    3    0    0 -0.31217332262E+02  0.66443924026E+02 -0.12996176761E+03  0.14926278141E+03  0.00000000000E+00 0. -1.
        -14    1    3    3    0    0 -0.72790899262E+02  0.45815097076E+02 -0.36659851654E+03  0.37655279904E+03  0.00000000000E+00 0.  1.
          5    1    4    4  501    0  0.10293574228E+03 -0.12341301793E+03 -0.20733948546E+02  0.16209228561E+03  0.41800000000E+01 0. -1.
         -5    1    4    4    0  501  0.34146547025E+02 -0.48943168461E+02 -0.10458255328E+03  0.12048403738E+03  0.41800000000E+01 0. -1.
</event>
<event>
11    1  0.8551154E-009  0.1715766E+03  0.7561462E-02  0.1076668E+00
         22   -1    0    0    0    0  0.00000000000E+00  0.00000000000E+00  0.67790728916E+03  0.67790728916E+03  0.00000000000E+00 0.  1.
         22   -1    0    0    0    0 -0.00000000000E+00 -0.00000000000E+00 -0.96555507943E+03  0.96555507943E+03  0.00000000000E+00 0. -1.
         24    2    1    2    0    0 -0.10766413825E+03 -0.54103901077E+02 -0.92113077158E+03  0.93239315589E+03  0.79726407289E+02 0.  0.
         25    2    1    2    0    0  0.20531043766E+02  0.49034687822E+02  0.10888790155E+03  0.17415522267E+03  0.12509013594E+03 0.  0.
        -24    2    1    2    0    0  0.87133094485E+02  0.50692132555E+01  0.52459507976E+03  0.53691399003E+03  0.73883434526E+02 0.  0.
        -13    1    3    3    0    0 -0.34667169226E+01  0.85552662102E+01 -0.11858874448E+02  0.15028094001E+02  0.00000000000E+00 0.  1.
         14    1    3    3    0    0 -0.10419742133E+03 -0.62659167287E+02 -0.90927189713E+03  0.91736506189E+03  0.00000000000E+00 0. -1.
         11    1    5    5    0    0 -0.87472173515E+01  0.93585510058E+01  0.13761067416E+03  0.13820562192E+03  0.00000000000E+00 0. -1.
        -12    1    5    5    0    0  0.95880311836E+02 -0.42893377503E+01  0.38698440560E+03  0.39870836811E+03  0.00000000000E+00 0.  1.
          5    1    4    4  501    0  0.34854284648E+02  0.87640749135E+02  0.79008876879E+02  0.12310807079E+03  0.41800000000E+01 0.  1.
         -5    1    4    4    0  501 -0.14323240883E+02 -0.38606061314E+02  0.29879024671E+02  0.51047151878E+02  0.41800000000E+01 0.  1.
</event>
<event>
11    1  0.8551154E-009  0.1469241E+03  0.7561462E-02  0.1100064E+00
         22   -1    0    0    0    0  0.00000000000E+00  0.00000000000E+00  0.10468947691E+04  0.10468947691E+04  0.00000000000E+00 0. -1.
         22   -1    0    0    0    0 -0.00000000000E+00 -0.00000000000E+00 -0.25179424710E+03  0.25179424710E+03  0.00000000000E+00 0.  1.
         24    2    1    2    0    0  0.69503020730E+02 -0.33687631995E+02 -0.22124721082E+03  0.24739881435E+03  0.79311528815E+02 0.  0.
         25    2    1    2    0    0 -0.82875872733E+02 -0.44267660536E+02  0.62849643581E+03  0.64767537975E+03  0.12509033402E+03 0.  0.
        -24    2    1    2    0    0  0.13372852003E+02  0.77955292531E+02  0.38785129703E+03  0.40361482210E+03  0.78869735718E+02 0.  0.
        -13    1    3    3    0    0  0.44572753721E+02  0.78520070813E+01 -0.17376933221E+03  0.17956660382E+03  0.00000000000E+00 0.  1.
         14    1    3    3    0    0  0.24930267009E+02 -0.41539639076E+02 -0.47477878611E+02  0.67832210528E+02  0.00000000000E+00 0. -1.
         11    1    5    5    0    0  0.35823348092E+02  0.44181480160E+02  0.31626441069E+03  0.32133859545E+03  0.00000000000E+00 0. -1.
        -12    1    5    5    0    0 -0.22450496090E+02  0.33773812371E+02  0.71586886337E+02  0.82276226653E+02  0.00000000000E+00 0.  1.
          5    1    4    4  501    0  0.23933573377E+02 -0.38874062735E+02  0.13078300341E+03  0.13858454124E+03  0.41800000000E+01 0.  1.
         -5    1    4    4    0  501 -0.10680944611E+03 -0.53935978008E+01  0.49771343239E+03  0.50909083851E+03  0.41800000000E+01 0.  1.
</event>
<event>
11    1  0.8551154E-009  0.1470667E+03  0.7561462E-02  0.1099914E+00
         22   -1    0    0    0    0  0.00000000000E+00  0.00000000000E+00  0.23070710351E+04  0.23070710351E+04  0.00000000000E+00 0.  1.
         22   -1    0    0    0    0 -0.00000000000E+00 -0.00000000000E+00 -0.25868127514E+04  0.25868127514E+04  0.00000000000E+00 0.  1.
         24    2    1    2    0    0 -0.60931571149E+02 -0.47632747754E+02 -0.25689569226E+04  0.25721180311E+04  0.10134081532E+03 0.  0.
         25    2    1    2    0    0  0.12225025257E+02  0.10601753650E+03  0.44511896726E+03  0.47451906489E+03  0.12509307991E+03 0.  0.
        -24    2    1    2    0    0  0.48706545893E+02 -0.58384788744E+02  0.18440962390E+04  0.18472466905E+04  0.76474084532E+02 0.  0.
        -11    1    3    3    0    0 -0.84885437264E+02 -0.25122481201E+02 -0.21716821589E+04  0.21734856972E+04  0.00000000000E+00 0.  1.
         12    1    3    3    0    0  0.23953866115E+02 -0.22510266553E+02 -0.39727476369E+03  0.39863233394E+03  0.00000000000E+00 0. -1.
         11    1    5    5    0    0  0.33260015475E+02 -0.30858409397E+01  0.26360526249E+03  0.26571316387E+03  0.00000000000E+00 0. -1.
        -12    1    5    5    0    0  0.15446530418E+02 -0.55298947804E+02  0.15804909765E+04  0.15815335266E+04  0.00000000000E+00 0.  1.
          5    1    4    4  501    0 -0.21494068319E+01  0.11700474426E+03  0.43991655600E+03  0.45523486111E+03  0.41800000000E+01 0. -1.
         -5    1    4    4    0  501  0.14374432089E+02 -0.10987207764E+02  0.52024112586E+01  0.19284203775E+02  0.41800000000E+01 0. -1.
</event>
<event>
11    1  0.8551154E-009  0.1733404E+03  0.7561462E-02  0.1075161E+00
         22   -1    0    0    0    0  0.00000000000E+00  0.00000000000E+00  0.18451188156E+03  0.18451188156E+03  0.00000000000E+00 0.  1.
         22   -1    0    0    0    0 -0.00000000000E+00 -0.00000000000E+00 -0.97416706943E+03  0.97416706943E+03  0.00000000000E+00 0.  1.
         24    2    1    2    0    0  0.10887440794E+03 -0.48545221170E+02 -0.85238666115E+03  0.86451607417E+03  0.81331096082E+02 0.  0.
         25    2    1    2    0    0 -0.14257851548E+03  0.80501812686E+01  0.25271431364E+02  0.19152117258E+03  0.12509306859E+03 0.  0.
        -24    2    1    2    0    0  0.33704107548E+02  0.40495039902E+02  0.37460041924E+02  0.10264170424E+03  0.79726090994E+02 0.  0.
        -11    1    3    3    0    0  0.10759441562E+03 -0.41189434932E+02 -0.84813488429E+03  0.85592400934E+03  0.00000000000E+00 0.  1.
         12    1    3    3    0    0  0.12799923189E+01 -0.73557862387E+01 -0.42517768623E+01  0.85920648282E+01  0.00000000000E+00 0. -1.
         13    1    5    5    0    0 -0.11449232168E+02  0.30119540047E+02 -0.12448906735E+02  0.34543405865E+02  0.00000000000E+00 0. -1.
        -14    1    5    5    0    0  0.45153339716E+02  0.10375499855E+02  0.49908948659E+02  0.68098298370E+02  0.00000000000E+00 0.  1.
          5    1    4    4  501    0 -0.48999040886E+02  0.21969087665E+02 -0.47716185718E+02  0.71957304008E+02  0.41800000000E+01 0.  1.
         -5    1    4    4    0  501 -0.93579474597E+02 -0.13918906396E+02  0.72987617083E+02  0.11956386857E+03  0.41800000000E+01 0.  1.
</event>
<event>
11    1  0.8949468E-009  0.1653281E+03  0.7561462E-02  0.1082170E+00
         22   -1    0    0    0    0  0.00000000000E+00  0.00000000000E+00  0.10604089547E+04  0.10604089547E+04  0.00000000000E+00 0.  1.
         22   -1    0    0    0    0 -0.00000000000E+00 -0.00000000000E+00 -0.20829668234E+04  0.20829668234E+04  0.00000000000E+00 0. -1.
        -24    2    1    2    0    0  0.87291393099E+02 -0.62131700370E+02 -0.18486851470E+04  0.18544110555E+04  0.98607577811E+02 0.  0.
         25    2    1    2    0    0 -0.14258622489E+03  0.55668602027E+01 -0.18891066359E+03  0.26776098218E+03  0.12508750258E+03 0.  0.
         24    2    1    2    0    0  0.55294831790E+02  0.56564840168E+02  0.10150379419E+04  0.10212037405E+04  0.79359665510E+02 0.  0.
        -11    1    5    5    0    0  0.75876931485E+02  0.44641757934E+02  0.82460871986E+03  0.82929472213E+03  0.00000000000E+00 0.  1.
         12    1    5    5    0    0 -0.20582099695E+02  0.11923082233E+02  0.19042922205E+03  0.19190901836E+03  0.00000000000E+00 0. -1.
         13    1    3    3    0    0  0.10838288745E+03 -0.61180374395E+02 -0.15960828597E+04  0.16009279757E+04  0.00000000000E+00 0. -1.
        -14    1    3    3    0    0 -0.21091494352E+02 -0.95132597517E+00 -0.25260228734E+03  0.25348307976E+03  0.00000000000E+00 0.  1.
          5    1    4    4  501    0 -0.80547726058E+02  0.30778059790E+02 -0.18057412072E+03  0.20014922086E+03  0.41800000000E+01 0.  1.
         -5    1    4    4    0  501 -0.62038498832E+02 -0.25211199587E+02 -0.83365428682E+01  0.67611761321E+02  0.41800000000E+01 0.  1.
</event>
<event>
11    1  0.8551154E-009  0.1404489E+03  0.7561462E-02  0.1107058E+00
         22   -1    0    0    0    0  0.00000000000E+00  0.00000000000E+00  0.12808532349E+04  0.12808532349E+04  0.00000000000E+00 0.  1.
         22   -1    0    0    0    0 -0.00000000000E+00 -0.00000000000E+00 -0.11859465921E+04  0.11859465921E+04  0.00000000000E+00 0. -1.
        -24    2    1    2    0    0 -0.54953811294E+02 -0.30943620238E+02 -0.10936769717E+04  0.10978905953E+04  0.72505252845E+02 0.  0.
         25    2    1    2    0    0  0.74680180601E+02  0.48209616991E+02 -0.22396222836E+02  0.15508411028E+03  0.12509274127E+03 0.  0.
         24    2    1    2    0    0 -0.19726369307E+02 -0.17265996753E+02  0.12109798374E+04  0.12138251215E+04  0.78816335821E+02 0.  0.
        -13    1    5    5    0    0 -0.36558933018E+02 -0.16457198086E+02  0.11458256532E+04  0.11465268520E+04  0.00000000000E+00 0.  1.
         14    1    5    5    0    0  0.16832563711E+02 -0.80879866700E+00  0.65154184206E+02  0.67298269486E+02  0.00000000000E+00 0. -1.
         11    1    3    3    0    0 -0.42495703439E+02  0.15244180488E+02 -0.67049799676E+03  0.67201624497E+03  0.00000000000E+00 0. -1.
        -12    1    3    3    0    0 -0.12458107855E+02 -0.46187800726E+02 -0.42317897498E+03  0.42587435031E+03  0.00000000000E+00 0.  1.
          5    1    4    4  501    0  0.93012782839E+02  0.25627042398E+02  0.24603412380E+02  0.99654018355E+02  0.41800000000E+01 0.  1.
         -5    1    4    4    0  501 -0.18332602237E+02  0.22582574593E+02 -0.46999635217E+02  0.55430091923E+02  0.41800000000E+01 0.  1.
</event>
<event>
11    1  0.8551154E-009  0.1404853E+03  0.7561462E-02  0.1107018E+00
         22   -1    0    0    0    0  0.00000000000E+00  0.00000000000E+00  0.21729211783E+04  0.21729211783E+04  0.00000000000E+00 0.  1.
         22   -1    0    0    0    0 -0.00000000000E+00 -0.00000000000E+00 -0.10941712454E+03  0.10941712454E+03  0.00000000000E+00 0. -1.
         24    2    1    2    0    0  0.13639650432E+02 -0.29542339126E+02 -0.71830463455E+02  0.11361624369E+03  0.81793920830E+02 0.  0.
         25    2    1    2    0    0 -0.12101802880E+02 -0.36869894004E+02  0.26505694917E+03  0.29564973405E+03  0.12509091185E+03 0.  0.
        -24    2    1    2    0    0 -0.15378475525E+01  0.66412233130E+02  0.18702775681E+04  0.18730723251E+04  0.77774056041E+02 0.  0.
        -11    1    3    3    0    0 -0.13658415379E+02 -0.42770243071E+02 -0.11903583484E+02  0.46449341252E+02  0.00000000000E+00 0.  1.
         12    1    3    3    0    0  0.27298065811E+02  0.13227903946E+02 -0.59926879971E+02  0.67166902436E+02  0.00000000000E+00 0. -1.
         13    1    5    5    0    0 -0.16345865497E+02 -0.84414227893E+01  0.15327518534E+03  0.15437528098E+03  0.00000000000E+00 0. -1.
        -14    1    5    5    0    0  0.14808017945E+02  0.74853655919E+02  0.17170023827E+04  0.17186970441E+04  0.00000000000E+00 0.  1.
          5    1    4    4  501    0 -0.40335927457E+02 -0.17345285185E+02  0.25617790500E+03  0.25994698954E+03  0.41800000000E+01 0. -1.
         -5    1    4    4    0  501  0.28234124577E+02 -0.19524608819E+02  0.88790441657E+01  0.35702744509E+02  0.41800000000E+01 0. -1.
</event>
<event>
11    1  0.8551154E-009  0.1330507E+03  0.7561462E-02  0.1115576E+00
         22   -1    0    0    0    0  0.00000000000E+00  0.00000000000E+00  0.47178000240E+03  0.47178000240E+03  0.00000000000E+00 0. -1.
         22   -1    0    0    0    0 -0.00000000000E+00 -0.00000000000E+00 -0.54588170535E+03  0.54588170535E+03  0.00000000000E+00 0.  1.
        -24    2    1    2    0    0 -0.24371085489E+02 -0.22741458826E+02 -0.48276699420E+03  0.49083295051E+03  0.82109018177E+02 0.  0.
         25    2    1    2    0    0  0.26981012472E+02  0.65695466450E+02  0.42944609009E+02  0.15011859976E+03  0.12508990849E+03 0.  0.
         24    2    1    2    0    0 -0.26099269828E+01 -0.42954007624E+02  0.36572068224E+03  0.37671015748E+03  0.79417043767E+02 0.  0.
        -11    1    5    5    0    0  0.17076471095E+02 -0.13351827943E+02  0.21065556946E+02  0.30226393498E+02  0.00000000000E+00 0.  1.
         12    1    5    5    0    0 -0.19686398078E+02 -0.29602179681E+02  0.34465512529E+03  0.34648376398E+03  0.00000000000E+00 0. -1.
         11    1    3    3    0    0 -0.17098118544E+00 -0.33827365271E+02 -0.75911303837E+02  0.83107436045E+02  0.00000000000E+00 0. -1.
        -12    1    3    3    0    0 -0.24200104304E+02  0.11085906445E+02 -0.40685569036E+03  0.40772551447E+03  0.00000000000E+00 0.  1.
          5    1    4    4  501    0 -0.49734636893E+02  0.35060774589E+02  0.21495736028E+02  0.64670944705E+02  0.41800000000E+01 0.  1.
         -5    1    4    4    0  501  0.76715649365E+02  0.30634691861E+02  0.21448872981E+02  0.85447655059E+02  0.41800000000E+01 0.  1.
</event>
<event>
11    1  0.8551154E-009  0.1528624E+03  0.7561462E-02  0.1093989E+00
         22   -1    0    0    0    0  0.00000000000E+00  0.00000000000E+00  0.65040326860E+03  0.65040326860E+03  0.00000000000E+00 0. -1.
         22   -1    0    0    0    0 -0.00000000000E+00 -0.00000000000E+00 -0.53841293080E+03  0.53841293080E+03  0.00000000000E+00 0. -1.
        -24    2    1    2    0    0  0.24807749480E+02  0.46748987606E+02 -0.48199767907E+03  0.49159729456E+03  0.80902689148E+02 0.  0.
         25    2    1    2    0    0  0.59553554914E+02 -0.74533394528E+02  0.95379514155E+02  0.18397292985E+03  0.12508770681E+03 0.  0.
         24    2    1    2    0    0 -0.84361304394E+02  0.27784406922E+02  0.49860850272E+03  0.51324597498E+03  0.83199692912E+02 0.  0.
        -13    1    5    5    0    0 -0.36775036623E+02  0.48195045723E+02  0.16791669519E+03  0.17852501863E+03  0.00000000000E+00 0.  1.
         14    1    5    5    0    0 -0.47586267772E+02 -0.20410638801E+02  0.33069180753E+03  0.33472095635E+03  0.00000000000E+00 0. -1.
         13    1    3    3    0    0 -0.20657157637E+02  0.23972924966E+02 -0.32574197278E+03  0.32727549881E+03  0.00000000000E+00 0. -1.
        -14    1    3    3    0    0  0.45464907117E+02  0.22776062640E+02 -0.15625570630E+03  0.16432179575E+03  0.00000000000E+00 0.  1.
          5    1    4    4  501    0 -0.34337145336E+02 -0.80766883399E+01  0.47483621606E+02  0.59299571374E+02  0.41800000000E+01 0. -1.
         -5    1    4    4    0  501  0.93890700250E+02 -0.66456706188E+02  0.47895892549E+02  0.12467335848E+03  0.41800000000E+01 0. -1.
</event>
<event>
11    1  0.8551154E-009  0.1364399E+03  0.7561462E-02  0.1111600E+00
         22   -1    0    0    0    0  0.00000000000E+00  0.00000000000E+00  0.93800388052E+03  0.93800388052E+03  0.00000000000E+00 0. -1.
         22   -1    0    0    0    0 -0.00000000000E+00 -0.00000000000E+00 -0.78082749464E+02  0.78082749464E+02  0.00000000000E+00 0. -1.
         24    2    1    2    0    0  0.45496173494E+02 -0.11099045125E+02 -0.20735654069E+02  0.94513434956E+02  0.79433817938E+02 0.  0.
         25    2    1    2    0    0 -0.66691350541E+02  0.54485010760E+02  0.33228569999E+03  0.36534701166E+03  0.12509316480E+03 0.  0.
        -24    2    1    2    0    0  0.21195177047E+02 -0.43385965635E+02  0.54837108514E+03  0.55622618337E+03  0.79656402781E+02 0.  0.
        -11    1    3    3    0    0 -0.24674282933E+01 -0.36924521239E+02 -0.25944300556E+01  0.37097702603E+02  0.00000000000E+00 0.  1.
         12    1    3    3    0    0  0.47963601787E+02  0.25825476114E+02 -0.18141224013E+02  0.57415732353E+02  0.00000000000E+00 0. -1.
         13    1    5    5    0    0  0.19825757569E+02 -0.66046749977E+02  0.36518128989E+03  0.37163504724E+03  0.00000000000E+00 0. -1.
        -14    1    5    5    0    0  0.13694194782E+01  0.22660784341E+02  0.18318979524E+03  0.18459113613E+03  0.00000000000E+00 0.  1.
          5    1    4    4  501    0  0.79689715660E+01 -0.34239984257E+02  0.89886139875E+02  0.96606788433E+02  0.41800000000E+01 0. -1.
         -5    1    4    4    0  501 -0.74660322107E+02  0.88724995017E+02  0.24239956011E+03  0.26874022323E+03  0.41800000000E+01 0. -1.
</event>
<event>
11    1  0.8551154E-009  0.1630639E+03  0.7561462E-02  0.1084230E+00
         22   -1    0    0    0    0  0.00000000000E+00  0.00000000000E+00  0.17947322816E+03  0.17947322816E+03  0.00000000000E+00 0.  1.
         22   -1    0    0    0    0 -0.00000000000E+00 -0.00000000000E+00 -0.11874783798E+04  0.11874783798E+04  0.00000000000E+00 0.  1.
         24    2    1    2    0    0 -0.58283104539E+02  0.50284065943E+02 -0.73160133114E+03  0.74003104263E+03  0.80498625827E+02 0.  0.
         25    2    1    2    0    0  0.62947336987E+02 -0.15149957300E+03 -0.39902312520E+03  0.44920077027E+03  0.12508952681E+03 0.  0.
        -24    2    1    2    0    0 -0.46642324476E+01  0.10121550706E+03  0.12261930469E+03  0.17771979508E+03  0.79262208839E+02 0.  0.
        -13    1    3    3    0    0 -0.67481534421E+02  0.32399673031E+02 -0.35074283754E+03  0.35864193060E+03  0.00000000000E+00 0.  1.
         14    1    3    3    0    0  0.91984298822E+01  0.17884392912E+02 -0.38085849360E+03  0.38138911203E+03  0.00000000000E+00 0. -1.
         13    1    5    5    0    0  0.28122029654E+02  0.57703507051E+02  0.31377648933E+02  0.71449983418E+02  0.00000000000E+00 0. -1.
        -14    1    5    5    0    0 -0.32786262101E+02  0.43512000005E+02  0.91241655753E+02  0.10626981167E+03  0.00000000000E+00 0.  1.
          5    1    4    4  501    0  0.55123355567E+02 -0.10730866618E+03 -0.13392084396E+03  0.18029420127E+03  0.41800000000E+01 0. -1.
         -5    1    4    4    0  501  0.78239814198E+01 -0.44190906816E+02 -0.26510228124E+03  0.26890656900E+03  0.41800000000E+01 0. -1.
</event>
<event>
11    1  0.8551154E-009  0.2361625E+03  0.7561462E-02  0.1031540E+00
         22   -1    0    0    0    0  0.00000000000E+00  0.00000000000E+00  0.16856630735E+03  0.16856630735E+03  0.00000000000E+00 0.  1.
         22   -1    0    0    0    0 -0.00000000000E+00 -0.00000000000E+00 -0.21463084367E+04  0.21463084367E+04  0.00000000000E+00 0. -1.
         24    2    1    2    0    0  0.71325994322E+01  0.11341292743E+03 -0.10104649305E+04  0.10200368177E+04  0.80761177023E+02 0.  0.
         25    2    1    2    0    0 -0.19006240618E+03 -0.18601244177E+03 -0.10317734770E+04  0.10728133477E+04  0.12509046532E+03 0.  0.
        -24    2    1    2    0    0  0.18292980674E+03  0.72599514339E+02  0.64496278161E+02  0.22202457855E+03  0.80007124104E+02 0.  0.
        -11    1    3    3    0    0  0.91642993448E+01 -0.70475952603E+01 -0.23355699993E+03  0.23384294985E+03  0.00000000000E+00 0.  1.
         12    1    3    3    0    0 -0.20316999126E+01  0.12046052270E+03 -0.77690793055E+03  0.78619386788E+03  0.00000000000E+00 0. -1.
         13    1    5    5    0    0  0.54234604959E+02  0.60701809612E+02  0.10976653754E+02  0.82137622274E+02  0.00000000000E+00 0. -1.
        -14    1    5    5    0    0  0.12869520178E+03  0.11897704727E+02  0.53519624407E+02  0.13988695628E+03  0.00000000000E+00 0.  1.
          5    1    4    4  501    0 -0.20061784948E+03 -0.16613634504E+03 -0.83453437480E+03  0.87425048001E+03  0.41800000000E+01 0.  1.
         -5    1    4    4    0  501  0.10555443304E+02 -0.19876096730E+02 -0.19723910221E+03  0.19856286774E+03  0.41800000000E+01 0.  1.
</event>
<event>
11    1  0.8551154E-009  0.1330186E+03  0.7561462E-02  0.1115615E+00
         22   -1    0    0    0    0  0.00000000000E+00  0.00000000000E+00  0.83751712815E+03  0.83751712815E+03  0.00000000000E+00 0.  1.
         22   -1    0    0    0    0 -0.00000000000E+00 -0.00000000000E+00 -0.13098045306E+04  0.13098045306E+04  0.00000000000E+00 0. -1.
        -24    2    1    2    0    0  0.91210139144E+01  0.30159653476E+02 -0.12750330981E+04  0.12780673414E+04  0.82182299836E+02 0.  0.
         25    2    1    2    0    0 -0.30290291596E+01  0.17466409173E+02  0.10175620241E+03  0.16223319429E+03  0.12510409319E+03 0.  0.
         24    2    1    2    0    0 -0.60919847548E+01 -0.47626062649E+02  0.70098949317E+03  0.70702112309E+03  0.78659041652E+02 0.  0.
        -13    1    5    5    0    0 -0.17375533022E+01 -0.48767795579E+02  0.70081938770E+03  0.70251628533E+03  0.00000000000E+00 0.  1.
         14    1    5    5    0    0 -0.43544314526E+01  0.11417329308E+01  0.17010547220E+00  0.45048377587E+01  0.00000000000E+00 0. -1.
         13    1    3    3    0    0  0.45651958381E+02  0.20927767252E+02 -0.76067541313E+03  0.76233139571E+03  0.00000000000E+00 0. -1.
        -14    1    3    3    0    0 -0.36530944466E+02  0.92318862237E+01 -0.51435768495E+03  0.51573594571E+03  0.00000000000E+00 0.  1.
          5    1    4    4  501    0  0.58290400773E+02  0.14061651372E+02  0.72210073002E+02  0.93953541203E+02  0.41800000000E+01 0.  1.
         -5    1    4    4    0  501 -0.61319429933E+02  0.34047578007E+01  0.29546129408E+02  0.68279653089E+02  0.41800000000E+01 0.  1.
</event>
<event>
11    1  0.8551154E-009  0.1722052E+03  0.7561462E-02  0.1076128E+00
         22   -1    0    0    0    0  0.00000000000E+00  0.00000000000E+00  0.62666299856E+03  0.62666299856E+03  0.00000000000E+00 0.  1.
         22   -1    0    0    0    0 -0.00000000000E+00 -0.00000000000E+00 -0.36303782728E+03  0.36303782728E+03  0.00000000000E+00 0. -1.
        -24    2    1    2    0    0  0.19884575755E+02  0.55368781177E+02 -0.23239721949E+03  0.25331228698E+03  0.81838553439E+02 0.  0.
         25    2    1    2    0    0  0.78545734149E+02  0.17187128861E+02 -0.60380742229E+02  0.16049474131E+03  0.12509155928E+03 0.  0.
         24    2    1    2    0    0 -0.98430309904E+02 -0.72555910038E+02  0.55640313300E+03  0.57589379754E+03  0.84358364410E+02 0.  0.
        -11    1    5    5    0    0 -0.10720066605E+03 -0.46308496856E+02  0.49425520111E+03  0.50786283926E+03  0.00000000000E+00 0.  1.
         12    1    5    5    0    0  0.87703561492E+01 -0.26247413183E+02  0.62147931895E+02  0.68030958280E+02  0.00000000000E+00 0. -1.
         13    1    3    3    0    0  0.23804612880E+02  0.72656780310E+02 -0.21612143486E+03  0.22924690167E+03  0.00000000000E+00 0. -1.
        -14    1    3    3    0    0 -0.39200371254E+01 -0.17287999133E+02 -0.16275784633E+02  0.24065385318E+02  0.00000000000E+00 0.  1.
          5    1    4    4  501    0  0.64997875717E+00  0.36064295532E+02  0.24401523514E+02  0.43748858664E+02  0.41800000000E+01 0.  1.
         -5    1    4    4    0  501  0.77895755392E+02 -0.18877166671E+02 -0.84782265743E+02  0.11674588264E+03  0.41800000000E+01 0.  1.
</event>
<event>
11    1  0.8551154E-009  0.1831498E+03  0.7561462E-02  0.1067123E+00
         22   -1    0    0    0    0  0.00000000000E+00  0.00000000000E+00  0.98091871894E+03  0.98091871894E+03  0.00000000000E+00 0. -1.
         22   -1    0    0    0    0 -0.00000000000E+00 -0.00000000000E+00 -0.82219566971E+03  0.82219566971E+03  0.00000000000E+00 0.  1.
         24    2    1    2    0    0  0.39980450527E+02 -0.23559481755E+02 -0.49394104130E+03  0.50243629879E+03  0.79441780339E+02 0.  0.
         25    2    1    2    0    0  0.89693212471E+02 -0.12707366905E+02 -0.29892961622E+03  0.33647117902E+03  0.12509032465E+03 0.  0.
        -24    2    1    2    0    0 -0.12967366300E+03  0.36266848660E+02  0.95159370674E+03  0.96420691083E+03  0.77677802428E+02 0.  0.
        -11    1    3    3    0    0  0.37507085707E+02 -0.10943867274E+02 -0.48547184793E+03  0.48704154324E+03  0.00000000000E+00 0.  1.
         12    1    3    3    0    0  0.24733648192E+01 -0.12615614481E+02 -0.84691933656E+01  0.15394755553E+02  0.00000000000E+00 0. -1.
         11    1    5    5    0    0 -0.12323005587E+03  0.54250308657E+02  0.87317590973E+03  0.88349584718E+03  0.00000000000E+00 0. -1.
        -12    1    5    5    0    0 -0.64436071283E+01 -0.17983459997E+02  0.78417797017E+02  0.80711063649E+02  0.00000000000E+00 0.  1.
          5    1    4    4  501    0 -0.14026620743E+02  0.11348441684E+02 -0.16156751328E+03  0.16262554217E+03  0.41800000000E+01 0. -1.
         -5    1    4    4    0  501  0.10371983321E+03 -0.24055808589E+02 -0.13736210294E+03  0.17384563685E+03  0.41800000000E+01 0. -1.
</event>
<event>
11    1  0.8551154E-009  0.2862105E+03  0.7561462E-02  0.1006202E+00
         22   -1    0    0    0    0  0.00000000000E+00  0.00000000000E+00  0.23096106644E+03  0.23096106644E+03  0.00000000000E+00 0. -1.
         22   -1    0    0    0    0 -0.00000000000E+00 -0.00000000000E+00 -0.61792290305E+03  0.61792290305E+03  0.00000000000E+00 0. -1.
         24    2    1    2    0    0  0.16343602498E+03 -0.20009127237E+03 -0.37636106868E+03  0.46283324847E+03  0.76283093344E+02 0.  0.
         25    2    1    2    0    0 -0.16764955135E+03  0.19219654487E+03 -0.58232464254E+02  0.28997211308E+03  0.12508765943E+03 0.  0.
        -24    2    1    2    0    0  0.42135263631E+01  0.78947274964E+01  0.47631696318E+02  0.96078607952E+02  0.82959266422E+02 0.  0.
        -11    1    3    3    0    0  0.57185712923E+02 -0.10743916772E+03 -0.12390301582E+03  0.17368171421E+03  0.00000000000E+00 0.  1.
         12    1    3    3    0    0  0.10625031206E+03 -0.92652104650E+02 -0.25245805286E+03  0.28915153425E+03  0.00000000000E+00 0. -1.
         13    1    5    5    0    0  0.35689334288E+02 -0.13721152095E+02  0.43117729495E+02  0.57629308459E+02  0.00000000000E+00 0. -1.
        -14    1    5    5    0    0 -0.31475807925E+02  0.21615879591E+02  0.45139668232E+01  0.38449299493E+02  0.00000000000E+00 0.  1.
          5    1    4    4  501    0 -0.74606714166E+02  0.27854053095E+02 -0.62036417841E+02  0.10103464560E+03  0.41800000000E+01 0.  1.
         -5    1    4    4    0  501 -0.93042837179E+02  0.16434249178E+03  0.38039535877E+01  0.18893746748E+03  0.41800000000E+01 0.  1.
</event>
<event>
11    1  0.8551154E-009  0.1896998E+03  0.7561462E-02  0.1062056E+00
         22   -1    0    0    0    0  0.00000000000E+00  0.00000000000E+00  0.26584517789E+03  0.26584517789E+03  0.00000000000E+00 0. -1.
         22   -1    0    0    0    0 -0.00000000000E+00 -0.00000000000E+00 -0.34897387739E+03  0.34897387739E+03  0.00000000000E+00 0.  1.
        -24    2    1    2    0    0  0.13247676907E+03 -0.13588109475E+03 -0.17833106164E+03  0.27238166052E+03  0.79850079440E+02 0.  0.
         25    2    1    2    0    0 -0.59046535888E+02  0.58687640645E+02 -0.36136596074E+02  0.15454354706E+03  0.12508845589E+03 0.  0.
         24    2    1    2    0    0 -0.73430233181E+02  0.77193454103E+02  0.13133895822E+03  0.18789384771E+03  0.81873973630E+02 0.  0.
        -13    1    5    5    0    0 -0.46032475338E+02  0.56200200365E+02  0.26186937690E+02  0.77221803996E+02  0.00000000000E+00 0.  1.
         14    1    5    5    0    0 -0.27397757842E+02  0.20993253738E+02  0.10515202053E+03  0.11067204371E+03  0.00000000000E+00 0. -1.
         11    1    3    3    0    0  0.11000072932E+03 -0.68739699438E+02 -0.84396901655E+02  0.15475187798E+03  0.00000000000E+00 0. -1.
        -12    1    3    3    0    0  0.22476039750E+02 -0.67141395310E+02 -0.93934159988E+02  0.11762978254E+03  0.00000000000E+00 0.  1.
          5    1    4    4  501    0 -0.60122641539E+01 -0.18543422853E+02 -0.55336134675E+02  0.58818075896E+02  0.41800000000E+01 0. -1.
         -5    1    4    4    0  501 -0.53034271734E+02  0.77231063498E+02  0.19199538601E+02  0.95725471166E+02  0.41800000000E+01 0. -1.
</event>
<event>
11    1  0.8551154E-009  0.2872511E+03  0.7561462E-02  0.1005736E+00
         22   -1    0    0    0    0  0.00000000000E+00  0.00000000000E+00  0.89937836875E+03  0.89937836875E+03  0.00000000000E+00 0.  1.
         22   -1    0    0    0    0 -0.00000000000E+00 -0.00000000000E+00 -0.82029857327E+03  0.82029857327E+03  0.00000000000E+00 0.  1.
        -24    2    1    2    0    0  0.13435957141E+03  0.70335897231E+02 -0.60586804363E+03  0.62963573421E+03  0.79783699079E+02 0.  0.
         25    2    1    2    0    0 -0.34684939778E+03 -0.18179184980E+03  0.60169060202E+02  0.41547543351E+03  0.12508692439E+03 0.  0.
         24    2    1    2    0    0  0.21248982637E+03  0.11145595257E+03  0.62477877891E+03  0.67456577430E+03  0.84357012806E+02 0.  0.
        -11    1    5    5    0    0  0.14754870019E+03  0.94226429357E+02  0.53163132516E+03  0.55971519973E+03  0.00000000000E+00 0.  1.
         12    1    5    5    0    0  0.64941126177E+02  0.17229523208E+02  0.93147453749E+02  0.11485057457E+03  0.00000000000E+00 0. -1.
         11    1    3    3    0    0 -0.46907632159E+01  0.23655941032E+02 -0.10491305366E+03  0.10764922496E+03  0.00000000000E+00 0. -1.
        -12    1    3    3    0    0  0.13905033463E+03  0.46679956199E+02 -0.50095498997E+03  0.52198650925E+03  0.00000000000E+00 0.  1.
          5    1    4    4  501    0 -0.13807405561E+03 -0.12998386852E+03 -0.78236848987E+01  0.18983923028E+03  0.41800000000E+01 0.  1.
         -5    1    4    4    0  501 -0.20877534217E+03 -0.51807981273E+02  0.67992745101E+02  0.22563620323E+03  0.41800000000E+01 0.  1.
</event>
<event>
11    1  0.8551154E-009  0.1442088E+03  0.7561462E-02  0.1102948E+00
         22   -1    0    0    0    0  0.00000000000E+00  0.00000000000E+00  0.30549135930E+03  0.30549135930E+03  0.00000000000E+00 0.  1.
         22   -1    0    0    0    0 -0.00000000000E+00 -0.00000000000E+00 -0.20202436121E+04  0.20202436121E+04  0.00000000000E+00 0.  1.
         24    2    1    2    0    0  0.45980238910E+02 -0.15939215204E+02 -0.19340579372E+04  0.19362583937E+04  0.78410597719E+02 0.  0.
         25    2    1    2    0    0 -0.26216463326E+02 -0.57034503026E+02 -0.46525878686E+01  0.14003470120E+03  0.12509130058E+03 0.  0.
        -24    2    1    2    0    0 -0.19763775585E+02  0.72973718229E+02  0.22395827222E+03  0.24944187653E+03  0.79675414602E+02 0.  0.
        -13    1    3    3    0    0  0.54359657393E+02  0.99868572772E+01 -0.16426249850E+04  0.16435545476E+04  0.00000000000E+00 0.  1.
         14    1    3    3    0    0 -0.83794184824E+01 -0.25926072481E+02 -0.29143295219E+03  0.29270384608E+03  0.00000000000E+00 0. -1.
         11    1    5    5    0    0  0.79552096241E+01 -0.64225564345E+01  0.96701173018E-02  0.10224220500E+02  0.00000000000E+00 0. -1.
        -12    1    5    5    0    0 -0.27718985209E+02  0.79396274664E+02  0.22394860210E+03  0.23921765603E+03  0.00000000000E+00 0.  1.
          5    1    4    4  501    0 -0.54656408550E+02 -0.67397992392E+02  0.31760986054E+02  0.92498891935E+02  0.41800000000E+01 0. -1.
         -5    1    4    4    0  501  0.28439945224E+02  0.10363489367E+02 -0.36413573923E+02  0.47535809260E+02  0.41800000000E+01 0. -1.
</event>
<event>
11    1  0.8551154E-009  0.1347232E+04  0.7561462E-02  0.8404639E-01
         22   -1    0    0    0    0  0.00000000000E+00  0.00000000000E+00  0.14410578217E+04  0.14410578217E+04  0.00000000000E+00 0.  1.
         22   -1    0    0    0    0 -0.00000000000E+00 -0.00000000000E+00 -0.31487897196E+03  0.31487897196E+03  0.00000000000E+00 0.  1.
         24    2    1    2    0    0  0.12477934727E+02 -0.56594123621E+02  0.88121976151E+02  0.13558249565E+03  0.85197046681E+02 0.  0.
         25    2    1    2    0    0 -0.28867192099E+03  0.41185039323E+03  0.36534934924E+02  0.51954818494E+03  0.12507314112E+03 0.  0.
        -24    2    1    2    0    0  0.27619398627E+03 -0.35525626961E+03  0.10015219387E+04  0.11008061131E+04  0.78979553123E+02 0.  0.
        -13    1    3    3    0    0 -0.25600363389E+02 -0.55083627822E+02  0.72012208597E+02  0.94209038031E+02  0.00000000000E+00 0.  1.
         14    1    3    3    0    0  0.38078298115E+02 -0.15104957986E+01  0.16109767553E+02  0.41373457621E+02  0.00000000000E+00 0. -1.
         11    1    5    5    0    0  0.86530384142E+02 -0.13165396652E+03  0.26834462614E+03  0.31117376602E+03  0.00000000000E+00 0. -1.
        -12    1    5    5    0    0  0.18966360213E+03 -0.22360230309E+03  0.73317731253E+03  0.78963234706E+03  0.00000000000E+00 0.  1.
          5    1    4    4  501    0 -0.17456685927E+03  0.32027493680E+03 -0.13029350671E+02  0.36501624604E+03  0.41800000000E+01 0.  1.
         -5    1    4    4    0  501 -0.11410506173E+03  0.91575456429E+02  0.49564285595E+02  0.15453193889E+03  0.41800000000E+01 0.  1.
</event>
<event>
11    1  0.8551154E-009  0.1270036E+03  0.7561462E-02  0.1123006E+00
         22   -1    0    0    0    0  0.00000000000E+00  0.00000000000E+00  0.70670448889E+03  0.70670448889E+03  0.00000000000E+00 0.  1.
         22   -1    0    0    0    0 -0.00000000000E+00 -0.00000000000E+00 -0.27595886456E+03  0.27595886456E+03  0.00000000000E+00 0.  1.
        -24    2    1    2    0    0  0.23524530855E+02 -0.57593761914E+01 -0.25022109094E+03  0.26449386095E+03  0.82218210675E+02 0.  0.
         25    2    1    2    0    0  0.13125545252E+01 -0.63501818126E+01  0.26396366782E+03  0.29217646910E+03  0.12509285974E+03 0.  0.
         24    2    1    2    0    0 -0.24837085381E+02  0.12109558004E+02  0.41700304745E+03  0.42599302340E+03  0.82552965981E+02 0.  0.
        -13    1    5    5    0    0 -0.18152637667E+01 -0.28232554598E+02  0.27797640486E+03  0.27941233685E+03  0.00000000000E+00 0.  1.
         14    1    5    5    0    0 -0.23021821614E+02  0.40342112602E+02  0.13902664259E+03  0.14658068655E+03  0.00000000000E+00 0. -1.
         11    1    3    3    0    0  0.41989693535E+02 -0.78544727788E+01 -0.61617615686E+02  0.74977047612E+02  0.00000000000E+00 0. -1.
        -12    1    3    3    0    0 -0.18465162680E+02  0.20950965874E+01 -0.18860347525E+03  0.18951681334E+03  0.00000000000E+00 0.  1.
          5    1    4    4  501    0 -0.30945738556E+02  0.30193312789E+02  0.29128483589E+02  0.52299290895E+02  0.41800000000E+01 0. -1.
         -5    1    4    4    0  501  0.32258293081E+02 -0.36543494602E+02  0.23483518423E+03  0.23987717820E+03  0.41800000000E+01 0. -1.
</event>
<event>
11    1  0.8551154E-009  0.1318363E+03  0.7561462E-02  0.1117033E+00
         22   -1    0    0    0    0  0.00000000000E+00  0.00000000000E+00  0.24080127475E+04  0.24080127475E+04  0.00000000000E+00 0. -1.
         22   -1    0    0    0    0 -0.00000000000E+00 -0.00000000000E+00 -0.27743492612E+04  0.27743492612E+04  0.00000000000E+00 0. -1.
         24    2    1    2    0    0  0.23853469275E+02 -0.22830045772E+02 -0.27361623720E+04  0.27376754672E+04  0.84807066964E+02 0.  0.
         25    2    1    2    0    0 -0.64248714057E+01 -0.15799197945E+02  0.72606018944E+02  0.14563705640E+03  0.12509046560E+03 0.  0.
        -24    2    1    2    0    0 -0.17428597869E+02  0.38629243717E+02  0.22972198393E+04  0.22990494851E+04  0.81323860850E+02 0.  0.
        -11    1    3    3    0    0 -0.21116893214E+01 -0.89686376471E+01 -0.30696799855E+02  0.32049792735E+02  0.00000000000E+00 0.  1.
         12    1    3    3    0    0  0.25965158596E+02 -0.13861408125E+02 -0.27054655722E+04  0.27056256745E+04  0.00000000000E+00 0. -1.
         13    1    5    5    0    0 -0.43884183316E+02  0.74094211106E+01  0.16080746371E+04  0.16086903865E+04  0.00000000000E+00 0. -1.
        -14    1    5    5    0    0  0.26455585446E+02  0.31219822606E+02  0.68914520221E+03  0.69035909862E+03  0.00000000000E+00 0.  1.
          5    1    4    4  501    0 -0.17514696661E+02  0.47245809648E+02  0.62988241501E+02  0.80770799772E+02  0.41800000000E+01 0.  1.
         -5    1    4    4    0  501  0.11089825255E+02 -0.63045007593E+02  0.96177774431E+01  0.64866256633E+02  0.41800000000E+01 0.  1.
</event>
<event>
11    1  0.8551154E-009  0.1580480E+03  0.7561462E-02  0.1088928E+00
         22   -1    0    0    0    0  0.00000000000E+00  0.00000000000E+00  0.23371475781E+03  0.23371475781E+03  0.00000000000E+00 0. -1.
         22   -1    0    0    0    0 -0.00000000000E+00 -0.00000000000E+00 -0.11241006255E+04  0.11241006255E+04  0.00000000000E+00 0. -1.
         24    2    1    2    0    0 -0.68533171279E+02  0.70018243487E+02 -0.10143621685E+04  0.10222174707E+04  0.79991240738E+02 0.  0.
         25    2    1    2    0    0  0.30950102918E+02 -0.75453725461E+02 -0.34903911577E+02  0.15335170140E+03  0.12508911912E+03 0.  0.
        -24    2    1    2    0    0  0.37583068361E+02  0.54354819739E+01  0.15888021235E+03  0.18224621122E+03  0.80800545398E+02 0.  0.
        -11    1    3    3    0    0 -0.10709949655E+02  0.21493470440E+02 -0.63304981311E+03  0.63350512087E+03  0.00000000000E+00 0.  1.
         12    1    3    3    0    0 -0.57823221623E+02  0.48524773047E+02 -0.38131235535E+03  0.38871234982E+03  0.00000000000E+00 0. -1.
         11    1    5    5    0    0  0.42675676919E+02 -0.63814928662E+01  0.16309445567E+03  0.16870607079E+03  0.00000000000E+00 0. -1.
        -12    1    5    5    0    0 -0.50926085577E+01  0.11816974840E+02 -0.42142433145E+01  0.13540140435E+02  0.00000000000E+00 0.  1.
          5    1    4    4  501    0  0.63805841486E+02 -0.68977271705E+02  0.12794082586E+02  0.94922127920E+02  0.41800000000E+01 0. -1.
         -5    1    4    4    0  501 -0.32855738568E+02 -0.64764537558E+01 -0.47697994164E+02  0.58429573482E+02  0.41800000000E+01 0. -1.
</event>
<event>
11    1  0.8551154E-009  0.1295464E+03  0.7561462E-02  0.1119828E+00
         22   -1    0    0    0    0  0.00000000000E+00  0.00000000000E+00  0.11179182234E+04  0.11179182234E+04  0.00000000000E+00 0.  1.
         22   -1    0    0    0    0 -0.00000000000E+00 -0.00000000000E+00 -0.12133748571E+03  0.12133748571E+03  0.00000000000E+00 0. -1.
        -24    2    1    2    0    0  0.30111312737E+02 -0.14751003223E+02 -0.86215366789E+02  0.12213278854E+03  0.79743622407E+02 0.  0.
         25    2    1    2    0    0 -0.23540559739E+02  0.33822029784E+02  0.27535764984E+03  0.30523237988E+03  0.12508750037E+03 0.  0.
         24    2    1    2    0    0 -0.65707529978E+01 -0.19071026561E+02  0.80743845462E+03  0.81189054068E+03  0.82477349598E+02 0.  0.
        -13    1    5    5    0    0  0.27101861198E+02 -0.26496618895E+02  0.62961293431E+03  0.63075274771E+03  0.00000000000E+00 0.  1.
         14    1    5    5    0    0 -0.33672614196E+02  0.74255923348E+01  0.17782552031E+03  0.18113779297E+03  0.00000000000E+00 0. -1.
         13    1    3    3    0    0 -0.89844340079E+01 -0.36204962444E+02 -0.59261572790E+02  0.70024662581E+02  0.00000000000E+00 0. -1.
        -14    1    3    3    0    0  0.39095746745E+02  0.21453959221E+02 -0.26953793999E+02  0.52108125957E+02  0.00000000000E+00 0.  1.
          5    1    4    4  501    0  0.40189236436E+02  0.17101686121E+02  0.20127369559E+03  0.20600052264E+03  0.41800000000E+01 0.  1.
         -5    1    4    4    0  501 -0.63729796176E+02  0.16720343663E+02  0.74083954248E+02  0.99231857232E+02  0.41800000000E+01 0.  1.
</event>
<event>
11    1  0.8551154E-009  0.1377788E+03  0.7561462E-02  0.1110064E+00
         22   -1    0    0    0    0  0.00000000000E+00  0.00000000000E+00  0.81413610466E+03  0.81413610466E+03  0.00000000000E+00 0. -1.
         22   -1    0    0    0    0 -0.00000000000E+00 -0.00000000000E+00 -0.16303314918E+04  0.16303314918E+04  0.00000000000E+00 0. -1.
         24    2    1    2    0    0 -0.54702631625E+02 -0.41562729883E+01 -0.13301566284E+04  0.13337993342E+04  0.81819040879E+02 0.  0.
         25    2    1    2    0    0  0.87953342778E+02  0.26450776351E+02 -0.27584120891E+03  0.31649955254E+03  0.12509260629E+03 0.  0.
        -24    2    1    2    0    0 -0.33250711153E+02 -0.22294503363E+02  0.78980245008E+03  0.79416870976E+03  0.72892899053E+02 0.  0.
        -13    1    3    3    0    0 -0.32868987578E+02  0.18041516302E+02 -0.21757577735E+03  0.22078289233E+03  0.00000000000E+00 0.  1.
         14    1    3    3    0    0 -0.21833644047E+02 -0.22197789291E+02 -0.11125808510E+04  0.11130164419E+04  0.00000000000E+00 0. -1.
         11    1    5    5    0    0 -0.33093687653E+02 -0.45932260520E+02  0.64161804644E+03  0.64411076860E+03  0.00000000000E+00 0. -1.
        -12    1    5    5    0    0 -0.15702350016E+00  0.23637757158E+02  0.14818440365E+03  0.15005794116E+03  0.00000000000E+00 0.  1.
          5    1    4    4  501    0 -0.79768838912E+01  0.99920352144E+01 -0.17772232425E+03  0.17823066061E+03  0.41800000000E+01 0.  1.
         -5    1    4    4    0  501  0.95930226670E+02  0.16458741136E+02 -0.98118884666E+02  0.13826889193E+03  0.41800000000E+01 0.  1.
</event>
<event>
11    1  0.8551154E-009  0.1856082E+03  0.7561462E-02  0.1065195E+00
         22   -1    0    0    0    0  0.00000000000E+00  0.00000000000E+00  0.59805882214E+03  0.59805882214E+03  0.00000000000E+00 0.  1.
         22   -1    0    0    0    0 -0.00000000000E+00 -0.00000000000E+00 -0.21577287613E+03  0.21577287613E+03  0.00000000000E+00 0.  1.
         24    2    1    2    0    0 -0.25673229820E+02 -0.14068048222E+03 -0.10605932541E+03  0.19553463188E+03  0.80839958887E+02 0.  0.
         25    2    1    2    0    0 -0.46688081353E+02  0.12450006322E+03  0.87053319327E+02  0.20224964726E+03  0.12508635709E+03 0.  0.
        -24    2    1    2    0    0  0.72361311173E+02  0.16180418999E+02  0.40129195209E+03  0.41604741913E+03  0.81007770220E+02 0.  0.
        -13    1    3    3    0    0 -0.31926574535E+02 -0.12864756519E+03 -0.56388105540E+02  0.14404555056E+03  0.00000000000E+00 0.  1.
         14    1    3    3    0    0  0.62533447150E+01 -0.12032917035E+02 -0.49671219866E+02  0.51489081323E+02  0.00000000000E+00 0. -1.
         13    1    5    5    0    0  0.62112593842E+02  0.43051058904E+02  0.22317063382E+03  0.23561939603E+03  0.00000000000E+00 0. -1.
        -14    1    5    5    0    0  0.10248717331E+02 -0.26870639905E+02  0.17812131827E+03  0.18042802309E+03  0.00000000000E+00 0.  1.
          5    1    4    4  501    0 -0.79108236355E+02  0.11065246542E+03  0.94879535928E+02  0.16589659400E+03  0.41800000000E+01 0. -1.
         -5    1    4    4    0  501  0.32420155002E+02  0.13847597806E+02 -0.78262166015E+01  0.36353053265E+02  0.41800000000E+01 0. -1.
</event>
<event>
11    1  0.8551154E-009  0.1525188E+03  0.7561462E-02  0.1094333E+00
         22   -1    0    0    0    0  0.00000000000E+00  0.00000000000E+00  0.53646983363E+03  0.53646983363E+03  0.00000000000E+00 0.  1.
         22   -1    0    0    0    0 -0.00000000000E+00 -0.00000000000E+00 -0.44159238201E+03  0.44159238201E+03  0.00000000000E+00 0. -1.
        -24    2    1    2    0    0  0.22705139909E-01 -0.31535988408E+02 -0.16958465920E+03  0.18989192403E+03  0.79406971329E+02 0.  0.
         25    2    1    2    0    0 -0.79481600103E+02 -0.54407639708E+01 -0.23308179591E+03  0.27625743898E+03  0.12507646598E+03 0.  0.
         24    2    1    2    0    0  0.79458894963E+02  0.36976752379E+02  0.49754390672E+03  0.51191285263E+03  0.82606497115E+02 0.  0.
        -13    1    5    5    0    0  0.58702920271E+02  0.60294136415E+02  0.41950155978E+03  0.42785859158E+03  0.00000000000E+00 0.  1.
         14    1    5    5    0    0  0.20755974692E+02 -0.23317384036E+02  0.78042346946E+02  0.84054261050E+02  0.00000000000E+00 0. -1.
         11    1    3    3    0    0  0.13961217192E+02 -0.54715695606E+02 -0.13214063312E+03  0.14370062579E+03  0.00000000000E+00 0. -1.
        -12    1    3    3    0    0 -0.13938512052E+02  0.23179707198E+02 -0.37444026075E+02  0.46191298236E+02  0.00000000000E+00 0.  1.
          5    1    4    4  501    0 -0.10709012499E+03 -0.38109450502E+00 -0.12568427174E+03  0.16517399513E+03  0.41800000000E+01 0.  1.
         -5    1    4    4    0  501  0.27608524884E+02 -0.50596694658E+01 -0.10739752417E+03  0.11108344386E+03  0.41800000000E+01 0.  1.
</event>
<event>
11    1  0.8551154E-009  0.1323457E+03  0.7561462E-02  0.1116420E+00
         22   -1    0    0    0    0  0.00000000000E+00  0.00000000000E+00  0.52255329921E+03  0.52255329921E+03  0.00000000000E+00 0.  1.
         22   -1    0    0    0    0 -0.00000000000E+00 -0.00000000000E+00 -0.75996067580E+03  0.75996067580E+03  0.00000000000E+00 0. -1.
         24    2    1    2    0    0 -0.25182844701E+02 -0.35607620546E+02 -0.73480607620E+03  0.74048262746E+03  0.80451685157E+02 0.  0.
         25    2    1    2    0    0  0.57252243020E+01  0.13983948689E+01  0.26612222408E+03  0.29411426000E+03  0.12508967217E+03 0.  0.
        -24    2    1    2    0    0  0.19457620399E+02  0.34209225677E+02  0.23127647552E+03  0.24791708755E+03  0.80157370566E+02 0.  0.
        -13    1    3    3    0    0 -0.10976469047E+02  0.23706932634E+02 -0.12932406294E+03  0.13193640431E+03  0.00000000000E+00 0.  1.
         14    1    3    3    0    0 -0.14206375654E+02 -0.59314553179E+02 -0.60548201326E+03  0.60854622315E+03  0.00000000000E+00 0. -1.
         13    1    5    5    0    0  0.10454135961E+02  0.27437629290E+02  0.18204101945E+02  0.34547095209E+02  0.00000000000E+00 0. -1.
        -14    1    5    5    0    0  0.90034844387E+01  0.67715963866E+01  0.21307237358E+03  0.21336999234E+03  0.00000000000E+00 0.  1.
          5    1    4    4  501    0  0.29547709983E+02 -0.23883989677E+02  0.25433897904E+03  0.25719506369E+03  0.41800000000E+01 0. -1.
         -5    1    4    4    0  501 -0.23822485681E+02  0.25282384546E+02  0.11783245043E+02  0.36919196309E+02  0.41800000000E+01 0. -1.
</event>
<event>
11    1  0.8551154E-009  0.1384854E+03  0.7561462E-02  0.1109262E+00
         22   -1    0    0    0    0  0.00000000000E+00  0.00000000000E+00  0.77735271501E+03  0.77735271501E+03  0.00000000000E+00 0.  1.
         22   -1    0    0    0    0 -0.00000000000E+00 -0.00000000000E+00 -0.68080019444E+03  0.68080019444E+03  0.00000000000E+00 0.  1.
         24    2    1    2    0    0  0.78381727876E+01  0.53869620468E+02 -0.48029924736E+03  0.49003268051E+03  0.80506446908E+02 0.  0.
         25    2    1    2    0    0  0.21010245842E+01 -0.92610395971E+02 -0.16132618143E+03  0.22417506099E+03  0.12508885407E+03 0.  0.
        -24    2    1    2    0    0 -0.99391973718E+01  0.38740775503E+02  0.73817794936E+03  0.74394516794E+03  0.83355219732E+02 0.  0.
        -11    1    3    3    0    0 -0.24737655796E+02  0.17671721120E+02 -0.34315631282E+03  0.34450035758E+03  0.00000000000E+00 0.  1.
         12    1    3    3    0    0  0.32575828584E+02  0.36197899348E+02 -0.13714293454E+03  0.14553232293E+03  0.00000000000E+00 0. -1.
         11    1    5    5    0    0 -0.98114433232E+01 -0.65942923666E+01  0.13889054673E+02  0.18238830873E+02  0.00000000000E+00 0. -1.
        -12    1    5    5    0    0 -0.12775404861E+00  0.45335067869E+02  0.72428889468E+03  0.72570633707E+03  0.00000000000E+00 0.  1.
          5    1    4    4  501    0  0.44234372770E+02  0.92041712874E+01 -0.45754246759E+02  0.64438497810E+02  0.41800000000E+01 0.  1.
         -5    1    4    4    0  501 -0.42133348186E+02 -0.10181456726E+03 -0.11557193467E+03  0.15973656318E+03  0.41800000000E+01 0.  1.
</event>
<event>
11    1  0.8551154E-009  0.1964241E+03  0.7561462E-02  0.1057082E+00
         22   -1    0    0    0    0  0.00000000000E+00  0.00000000000E+00  0.13551787820E+04  0.13551787820E+04  0.00000000000E+00 0. -1.
         22   -1    0    0    0    0 -0.00000000000E+00 -0.00000000000E+00 -0.72960823633E+03  0.72960823633E+03  0.00000000000E+00 0. -1.
        -24    2    1    2    0    0 -0.13728238401E+02  0.22814508378E+02 -0.69629418686E+03  0.70094840734E+03  0.76119043422E+02 0.  0.
         25    2    1    2    0    0  0.13405221631E+03 -0.10423922934E+03  0.45784188365E+03  0.50408568802E+03  0.12508947523E+03 0.  0.
         24    2    1    2    0    0 -0.12032397791E+03  0.81424720959E+02  0.86402284893E+03  0.87975292301E+03  0.79510233514E+02 0.  0.
        -13    1    5    5    0    0  0.20498965069E+01  0.30860411219E+02  0.11344321919E+03  0.11758371926E+03  0.00000000000E+00 0.  1.
         14    1    5    5    0    0 -0.12237387441E+03  0.50564309740E+02  0.75057962974E+03  0.76216920375E+03  0.00000000000E+00 0. -1.
         11    1    3    3    0    0 -0.40221446351E+02  0.26840632839E+02 -0.55735177026E+03  0.55944542194E+03  0.00000000000E+00 0. -1.
        -12    1    3    3    0    0  0.26493207950E+02 -0.40261244607E+01 -0.13894241660E+03  0.14150298540E+03  0.00000000000E+00 0.  1.
          5    1    4    4  501    0  0.13035606555E+02 -0.36083522120E+01 -0.51429177768E+01  0.15062179364E+02  0.41800000000E+01 0.  1.
         -5    1    4    4    0  501  0.12101660975E+03 -0.10063087713E+03  0.46298480143E+03  0.48902350866E+03  0.41800000000E+01 0.  1.
</event>
<event>
11    1  0.8551154E-009  0.1339386E+03  0.7561462E-02  0.1114522E+00
         22   -1    0    0    0    0  0.00000000000E+00  0.00000000000E+00  0.20423679299E+03  0.20423679299E+03  0.00000000000E+00 0. -1.
         22   -1    0    0    0    0 -0.00000000000E+00 -0.00000000000E+00 -0.11743036915E+04  0.11743036915E+04  0.00000000000E+00 0. -1.
         24    2    1    2    0    0  0.44146595158E+02 -0.18199586972E+02 -0.10352245149E+04  0.10394162467E+04  0.80101128415E+02 0.  0.
         25    2    1    2    0    0 -0.58339833599E+02 -0.12468270551E+02 -0.87971138163E+02  0.16415560127E+03  0.12509654801E+03 0.  0.
        -24    2    1    2    0    0  0.14193238440E+02  0.30667857523E+02  0.15312875459E+03  0.17496863652E+03  0.77612130358E+02 0.  0.
        -11    1    3    3    0    0 -0.19752148449E+02 -0.21546629974E+02 -0.31107850273E+03  0.31244877899E+03  0.00000000000E+00 0.  1.
         12    1    3    3    0    0  0.63898743608E+02  0.33470430026E+01 -0.72414601217E+03  0.72696746769E+03  0.00000000000E+00 0. -1.
         13    1    5    5    0    0  0.17270700195E+02  0.22214230657E+02  0.16074016461E+03  0.16318440381E+03  0.00000000000E+00 0. -1.
        -14    1    5    5    0    0 -0.30774617543E+01  0.84536268662E+01 -0.76114100150E+01  0.11784232706E+02  0.00000000000E+00 0.  1.
          5    1    4    4  501    0 -0.23824869611E+02  0.10902139087E+02 -0.11251654749E+03  0.11560245199E+03  0.41800000000E+01 0.  1.
         -5    1    4    4    0  501 -0.34514963988E+02 -0.23370409638E+02  0.24545409322E+02  0.48553149275E+02  0.41800000000E+01 0.  1.
</event>
<event>
11    1  0.8551154E-009  0.1414793E+03  0.7561462E-02  0.1105918E+00
         22   -1    0    0    0    0  0.00000000000E+00  0.00000000000E+00  0.26284456963E+03  0.26284456963E+03  0.00000000000E+00 0.  1.
         22   -1    0    0    0    0 -0.00000000000E+00 -0.00000000000E+00 -0.72479347584E+03  0.72479347584E+03  0.00000000000E+00 0.  1.
        -24    2    1    2    0    0  0.66211347209E+02  0.23680242226E+02 -0.53559612758E+03  0.54654477580E+03  0.83086001894E+02 0.  0.
         25    2    1    2    0    0 -0.23717913431E+02 -0.57715456497E+02 -0.14555888197E+03  0.20181226210E+03  0.12508871923E+03 0.  0.
         24    2    1    2    0    0 -0.42493433778E+02  0.34035214271E+02  0.21920610333E+03  0.23928100757E+03  0.78993652411E+02 0.  0.
        -13    1    5    5    0    0 -0.38343472207E+02  0.66780744143E+01  0.20405644392E+03  0.20773504963E+03  0.00000000000E+00 0.  1.
         14    1    5    5    0    0 -0.41499615707E+01  0.27357139857E+02  0.15149659412E+02  0.31545957942E+02  0.00000000000E+00 0. -1.
         11    1    3    3    0    0  0.33932838963E+02  0.16676242677E+02 -0.68169744726E+02  0.77952862205E+02  0.00000000000E+00 0. -1.
        -12    1    3    3    0    0  0.32278508246E+02  0.70039995488E+01 -0.46742638285E+03  0.46859191360E+03  0.00000000000E+00 0.  1.
          5    1    4    4  501    0 -0.43525904789E+02 -0.71763820082E+02 -0.15427243824E+03  0.17567586021E+03  0.41800000000E+01 0. -1.
         -5    1    4    4    0  501  0.19807991358E+02  0.14048363584E+02  0.87135562706E+01  0.26136401893E+02  0.41800000000E+01 0. -1.
</event>
<event>
11    1  0.8551154E-009  0.1279382E+03  0.7561462E-02  0.1121828E+00
         22   -1    0    0    0    0  0.00000000000E+00  0.00000000000E+00  0.15241814077E+03  0.15241814077E+03  0.00000000000E+00 0. -1.
         22   -1    0    0    0    0 -0.00000000000E+00 -0.00000000000E+00 -0.13988027287E+04  0.13988027287E+04  0.00000000000E+00 0. -1.
        -24    2    1    2    0    0 -0.24874384387E+02  0.95537760787E+01 -0.12735424426E+04  0.12764074097E+04  0.81212763105E+02 0.  0.
         25    2    1    2    0    0  0.27656900290E+02 -0.18644159375E+02 -0.70396985579E+02  0.14736046739E+03  0.12508742126E+03 0.  0.
         24    2    1    2    0    0 -0.27825159030E+01  0.90903832961E+01  0.97554840218E+02  0.12745299238E+03  0.81467422656E+02 0.  0.
        -11    1    5    5    0    0  0.65473245253E+01 -0.35675910840E+02  0.41746080357E+02  0.55302561405E+02  0.00000000000E+00 0.  1.
         12    1    5    5    0    0 -0.93298404283E+01  0.44766294137E+02  0.55808759861E+02  0.72150430978E+02  0.00000000000E+00 0. -1.
         11    1    3    3    0    0 -0.35977968106E+02 -0.27068923381E+02 -0.82857144297E+03  0.82979381590E+03  0.00000000000E+00 0. -1.
        -12    1    3    3    0    0  0.11103583719E+02  0.36622699459E+02 -0.44497099959E+03  0.44661359379E+03  0.00000000000E+00 0.  1.
          5    1    4    4  501    0 -0.10234639856E+02 -0.10709972323E+02 -0.98273822166E+02  0.99471945207E+02  0.41800000000E+01 0.  1.
         -5    1    4    4    0  501  0.37891540146E+02 -0.79341870517E+01  0.27876836586E+02  0.47888522183E+02  0.41800000000E+01 0.  1.
</event>
<event>
11    1  0.8551154E-009  0.1648178E+03  0.7561462E-02  0.1082632E+00
         22   -1    0    0    0    0  0.00000000000E+00  0.00000000000E+00  0.44353967559E+03  0.44353967559E+03  0.00000000000E+00 0. -1.
         22   -1    0    0    0    0 -0.00000000000E+00 -0.00000000000E+00 -0.19419905354E+04  0.19419905354E+04  0.00000000000E+00 0.  1.
        -24    2    1    2    0    0 -0.17301688967E+02  0.10792946103E+03 -0.18744542792E+04  0.18794115305E+04  0.81613352417E+02 0.  0.
         25    2    1    2    0    0  0.12171823792E+02 -0.44240644122E+02  0.19131531001E+02  0.13460756978E+03  0.12509114468E+03 0.  0.
         24    2    1    2    0    0  0.51298651753E+01 -0.63688816905E+02  0.35687188834E+03  0.37151111072E+03  0.81119540104E+02 0.  0.
        -13    1    5    5    0    0  0.27250991048E+02 -0.37310415777E+02  0.79030897991E+02  0.91545433943E+02  0.00000000000E+00 0.  1.
         14    1    5    5    0    0 -0.22121125872E+02 -0.26378401128E+02  0.27784099035E+03  0.27996567678E+03  0.00000000000E+00 0. -1.
         11    1    3    3    0    0  0.45106857696E+01 -0.12321484468E+02 -0.12280006491E+03  0.12349907371E+03  0.00000000000E+00 0. -1.
        -12    1    3    3    0    0 -0.21812374737E+02  0.12025094550E+03 -0.17516542143E+04  0.17559124568E+04  0.00000000000E+00 0.  1.
          5    1    4    4  501    0  0.34597994148E+02  0.31957616539E+02  0.27383259757E+02  0.54640880015E+02  0.41800000000E+01 0.  1.
         -5    1    4    4    0  501 -0.22426170356E+02 -0.76198260662E+02 -0.82517287560E+01  0.79966689766E+02  0.41800000000E+01 0.  1.
</event>
<event>
11    1  0.8551154E-009  0.1422200E+03  0.7561462E-02  0.1105104E+00
         22   -1    0    0    0    0  0.00000000000E+00  0.00000000000E+00  0.74578052358E+02  0.74578052358E+02  0.00000000000E+00 0.  1.
         22   -1    0    0    0    0 -0.00000000000E+00 -0.00000000000E+00 -0.59265069618E+03  0.59265069618E+03  0.00000000000E+00 0. -1.
        -24    2    1    2    0    0  0.68465023839E+02  0.24754161658E+02 -0.26495471077E+03  0.28598672078E+03  0.79291725258E+02 0.  0.
         25    2    1    2    0    0 -0.38419817500E+02 -0.54560567346E+02 -0.25316034802E+03  0.29015580740E+03  0.12508913971E+03 0.  0.
         24    2    1    2    0    0 -0.30045206339E+02  0.29806405689E+02  0.42414966995E-01  0.91086220359E+02  0.80657061044E+02 0.  0.
        -13    1    5    5    0    0  0.13771893817E+02  0.13164995889E+02  0.29942871590E+02  0.35490248451E+02  0.00000000000E+00 0.  1.
         14    1    5    5    0    0 -0.43817100156E+02  0.16641409800E+02 -0.29900456623E+02  0.55595971909E+02  0.00000000000E+00 0. -1.
         11    1    3    3    0    0  0.83321689563E+02  0.64661729839E+01 -0.21752891838E+03  0.23303035355E+03  0.00000000000E+00 0. -1.
        -12    1    3    3    0    0 -0.14856665724E+02  0.18287988674E+02 -0.47425792388E+02  0.52956367226E+02  0.00000000000E+00 0.  1.
          5    1    4    4  501    0 -0.60752224819E+02 -0.62379845385E+01 -0.21748902100E+03  0.22593957583E+03  0.41800000000E+01 0.  1.
         -5    1    4    4    0  501  0.22332407319E+02 -0.48322582808E+02 -0.35671327029E+02  0.64216231577E+02  0.41800000000E+01 0.  1.
</event>
<event>
11    1  0.8551154E-009  0.1287390E+03  0.7561462E-02  0.1120828E+00
         22   -1    0    0    0    0  0.00000000000E+00  0.00000000000E+00  0.44420073232E+03  0.44420073232E+03  0.00000000000E+00 0.  1.
         22   -1    0    0    0    0 -0.00000000000E+00 -0.00000000000E+00 -0.76999290828E+03  0.76999290828E+03  0.00000000000E+00 0. -1.
         24    2    1    2    0    0 -0.36533185133E+01 -0.14999544188E+02 -0.73725224299E+03  0.74192750141E+03  0.81714224576E+02 0.  0.
         25    2    1    2    0    0  0.31673272021E+02  0.21371314609E+02  0.15842763607E+03  0.20543902064E+03  0.12508375626E+03 0.  0.
        -24    2    1    2    0    0 -0.28019953508E+02 -0.63717704210E+01  0.25303243096E+03  0.26682711854E+03  0.79659166592E+02 0.  0.
        -13    1    3    3    0    0 -0.16203553943E+02  0.14583096940E+02 -0.58739340391E+02  0.62654066000E+02  0.00000000000E+00 0.  1.
         14    1    3    3    0    0  0.12550235430E+02 -0.29582641128E+02 -0.67851290260E+03  0.67927343542E+03  0.00000000000E+00 0. -1.
         11    1    5    5    0    0  0.13051629089E+02 -0.12372167590E+02  0.10617178322E+02  0.20883965818E+02  0.00000000000E+00 0. -1.
        -12    1    5    5    0    0 -0.41071582597E+02  0.60003971690E+01  0.24241525263E+03  0.24594315273E+03  0.00000000000E+00 0.  1.
          5    1    4    4  501    0 -0.11357984926E+02  0.52380070701E+02  0.20379714683E+02  0.57493310905E+02  0.41800000000E+01 0. -1.
         -5    1    4    4    0  501  0.43031256948E+02 -0.31008756092E+02  0.13804792139E+03  0.14794570973E+03  0.41800000000E+01 0. -1.
</event>
<event>
11    1  0.8551154E-009  0.1429590E+03  0.7561462E-02  0.1104298E+00
         22   -1    0    0    0    0  0.00000000000E+00  0.00000000000E+00  0.26546413875E+04  0.26546413875E+04  0.00000000000E+00 0.  1.
         22   -1    0    0    0    0 -0.00000000000E+00 -0.00000000000E+00 -0.79913562499E+03  0.79913562499E+03  0.00000000000E+00 0.  1.
        -24    2    1    2    0    0 -0.19208053125E+02 -0.28162128756E+02 -0.39119036138E+03  0.40134242078E+03  0.82968578900E+02 0.  0.
         25    2    1    2    0    0 -0.46650815185E+02  0.49533818671E+02 -0.38920811759E+03  0.41443870388E+03  0.12508630111E+03 0.  0.
         24    2    1    2    0    0  0.65858868309E+02 -0.21371689915E+02  0.26359042415E+04  0.26379958878E+04  0.78974643213E+02 0.  0.
        -11    1    5    5    0    0  0.54044289319E+02 -0.24690957884E+02  0.86037638421E+03  0.86242562063E+03  0.00000000000E+00 0.  1.
         12    1    5    5    0    0  0.11814578990E+02  0.33192679696E+01  0.17755278572E+04  0.17755702672E+04  0.00000000000E+00 0. -1.
         11    1    3    3    0    0 -0.33367916586E+02 -0.20144063562E+02 -0.73151402906E+02  0.82887447187E+02  0.00000000000E+00 0. -1.
        -12    1    3    3    0    0  0.14159863461E+02 -0.80180651946E+01 -0.31803895847E+03  0.31845497360E+03  0.00000000000E+00 0.  1.
          5    1    4    4  501    0 -0.45576717879E+02 -0.17860361682E+02 -0.56177064571E+02  0.74629516385E+02  0.41800000000E+01 0.  1.
         -5    1    4    4    0  501 -0.10740973061E+01  0.67394180354E+02 -0.33303105302E+03  0.33980918749E+03  0.41800000000E+01 0.  1.
</event>
<event>
11    1  0.8551154E-009  0.1424009E+03  0.7561462E-02  0.1104907E+00
         22   -1    0    0    0    0  0.00000000000E+00  0.00000000000E+00  0.11271418033E+04  0.11271418033E+04  0.00000000000E+00 0.  1.
         22   -1    0    0    0    0 -0.00000000000E+00 -0.00000000000E+00 -0.51794817805E+02  0.51794817805E+02  0.00000000000E+00 0.  1.
         24    2    1    2    0    0  0.46521814184E+01 -0.92995497039E+01  0.67660156383E+02  0.11997623499E+03  0.98530582988E+02 0.  0.
         25    2    1    2    0    0 -0.71649306688E+02  0.15640775570E+02  0.21469658093E+03  0.25907613371E+03  0.12509022417E+03 0.  0.
        -24    2    1    2    0    0  0.66997125269E+02 -0.63412258658E+01  0.79299024821E+03  0.79988425244E+03  0.80327190958E+02 0.  0.
        -13    1    3    3    0    0 -0.28389480137E+02 -0.56455736905E+01 -0.13746402752E+02  0.32043699434E+02  0.00000000000E+00 0.  1.
         14    1    3    3    0    0  0.33041661556E+02 -0.36539760134E+01  0.81406559136E+02  0.87932535556E+02  0.00000000000E+00 0. -1.
         13    1    5    5    0    0  0.72371766948E+02 -0.31578233095E+02  0.58967358867E+03  0.59493680222E+03  0.00000000000E+00 0. -1.
        -14    1    5    5    0    0 -0.53746416786E+01  0.25237007229E+02  0.20331665954E+03  0.20494745022E+03  0.00000000000E+00 0.  1.
          5    1    4    4  501    0 -0.49732851489E+01 -0.16652495114E+02  0.17307874849E+03  0.17399932396E+03  0.41800000000E+01 0. -1.
         -5    1    4    4    0  501 -0.66676021539E+02  0.32293270684E+02  0.41617832442E+02  0.85076809748E+02  0.41800000000E+01 0. -1.
</event>
<event>
11    1  0.9078610E-009  0.1699399E+03  0.7561462E-02  0.1078084E+00
         22   -1    0    0    0    0  0.00000000000E+00  0.00000000000E+00  0.80661961833E+03  0.80661961833E+03  0.00000000000E+00 0. -1.
         22   -1    0    0    0    0 -0.00000000000E+00 -0.00000000000E+00 -0.21303193742E+03  0.21303193742E+03  0.00000000000E+00 0. -1.
        -24    2    1    2    0    0 -0.61356523873E+02 -0.23199745583E+02 -0.95484611979E+02  0.14006502805E+03  0.78727693602E+02 0.  0.
         25    2    1    2    0    0  0.15923864506E+03 -0.30715004417E+02  0.31055018664E+02  0.20715306627E+03  0.12509045169E+03 0.  0.
         24    2    1    2    0    0 -0.97882121189E+02  0.53914750000E+02  0.65801727423E+03  0.67243346144E+03  0.81806582598E+02 0.  0.
        -13    1    5    5    0    0 -0.51690838105E+02  0.70809308241E+02  0.36981639993E+03  0.38006587658E+03  0.00000000000E+00 0.  1.
         14    1    5    5    0    0 -0.46191283085E+02 -0.16894558242E+02  0.28820087430E+03  0.29236758486E+03  0.00000000000E+00 0. -1.
         13    1    3    3    0    0 -0.77200930935E+02 -0.32822713416E+02 -0.76532944609E+02  0.11355441807E+03  0.00000000000E+00 0. -1.
        -14    1    3    3    0    0  0.15844407062E+02  0.96229678331E+01 -0.18951667370E+02  0.26510609974E+02  0.00000000000E+00 0.  1.
          5    1    4    4  501    0  0.44507094073E+02  0.40456380697E+02  0.39058842129E+02  0.71837773563E+02  0.41800000000E+01 0. -1.
         -5    1    4    4    0  501  0.11473155099E+03 -0.71171385114E+02 -0.80038234651E+01  0.13531529271E+03  0.41800000000E+01 0. -1.
</event>
<event>
11    1  0.8551154E-009  0.1360325E+03  0.7561462E-02  0.1112071E+00
         22   -1    0    0    0    0  0.00000000000E+00  0.00000000000E+00  0.15663469054E+04  0.15663469054E+04  0.00000000000E+00 0. -1.
         22   -1    0    0    0    0 -0.00000000000E+00 -0.00000000000E+00 -0.57894900705E+02  0.57894900705E+02  0.00000000000E+00 0. -1.
        -24    2    1    2    0    0  0.18408863651E+02  0.59459611647E+02  0.17023113298E+02  0.10209693451E+03  0.79118050856E+02 0.  0.
         25    2    1    2    0    0 -0.23916051349E+02 -0.72826204003E+00  0.29092695247E+03  0.31758218404E+03  0.12508974406E+03 0.  0.
         24    2    1    2    0    0  0.55071876976E+01 -0.58731349607E+02  0.12005019389E+04  0.12045626875E+04  0.79288475441E+02 0.  0.
        -11    1    5    5    0    0 -0.23622934301E+02 -0.42667171494E+01  0.12472373894E+03  0.12701282989E+03  0.00000000000E+00 0.  1.
         12    1    5    5    0    0  0.29130121998E+02 -0.54464632457E+02  0.10757781999E+04  0.10775498576E+04  0.00000000000E+00 0. -1.
         13    1    3    3    0    0  0.29674711176E+02  0.65347185728E+02 -0.97796576456E+01  0.72432622965E+02  0.00000000000E+00 0. -1.
        -14    1    3    3    0    0 -0.11265847525E+02 -0.58875740811E+01  0.26802770944E+02  0.29664311542E+02  0.00000000000E+00 0.  1.
          5    1    4    4  501    0 -0.62259851971E+02  0.37296807086E+02  0.18042737882E+03  0.19452211292E+03  0.41800000000E+01 0.  1.
         -5    1    4    4    0  501  0.38343800622E+02 -0.38025069126E+02  0.11049957364E+03  0.12306007112E+03  0.41800000000E+01 0.  1.
</event>
<event>
11    1  0.8551154E-009  0.1742178E+03  0.7561462E-02  0.1074418E+00
         22   -1    0    0    0    0  0.00000000000E+00  0.00000000000E+00  0.21046359787E+04  0.21046359787E+04  0.00000000000E+00 0. -1.
         22   -1    0    0    0    0 -0.00000000000E+00 -0.00000000000E+00 -0.65586936428E+03  0.65586936428E+03  0.00000000000E+00 0. -1.
        -24    2    1    2    0    0  0.55879754417E+02  0.10929887850E+03 -0.61872930250E+03  0.63550889890E+03  0.77309889526E+02 0.  0.
         25    2    1    2    0    0 -0.69318615168E+01 -0.89712232001E+02  0.18798230090E+03  0.24306012572E+03  0.12507815152E+03 0.  0.
         24    2    1    2    0    0 -0.48947892901E+02 -0.19586646501E+02  0.18795136160E+04  0.18819363183E+04  0.79582288277E+02 0.  0.
        -13    1    5    5    0    0 -0.43151052054E+02 -0.43844296245E+02  0.89737923074E+03  0.89948530804E+03  0.00000000000E+00 0.  1.
         14    1    5    5    0    0 -0.57968408466E+01  0.24257649744E+02  0.98213438526E+03  0.98245101030E+03  0.00000000000E+00 0. -1.
         13    1    3    3    0    0 -0.30758743995E+01  0.73671355612E+02 -0.37766403017E+03  0.38479481458E+03  0.00000000000E+00 0. -1.
        -14    1    3    3    0    0  0.58955628817E+02  0.35627522891E+02 -0.24106527233E+03  0.25071408433E+03  0.00000000000E+00 0.  1.
          5    1    4    4  501    0  0.16411130682E+02 -0.98409449991E+02  0.19300515395E+03  0.21730671161E+03  0.41800000000E+01 0. -1.
         -5    1    4    4    0  501 -0.23342992198E+02  0.86972179895E+01 -0.50228530528E+01  0.25753414110E+02  0.41800000000E+01 0. -1.
</event>
<event>
11    1  0.8551154E-009  0.1481960E+03  0.7561462E-02  0.1098736E+00
         22   -1    0    0    0    0  0.00000000000E+00  0.00000000000E+00  0.11546216015E+04  0.11546216015E+04  0.00000000000E+00 0.  1.
         22   -1    0    0    0    0 -0.00000000000E+00 -0.00000000000E+00 -0.45961657512E+03  0.45961657512E+03  0.00000000000E+00 0.  1.
         24    2    1    2    0    0 -0.31903434330E+02  0.48883585782E+02 -0.28073731672E+03  0.29809259051E+03  0.81475870284E+02 0.  0.
         25    2    1    2    0    0  0.95168520429E+02 -0.95400383795E+02 -0.11678286709E+03  0.21781873587E+03  0.12509389729E+03 0.  0.
        -24    2    1    2    0    0 -0.63265086098E+02  0.46516798013E+02  0.10925252102E+04  0.10983268503E+04  0.80896547692E+02 0.  0.
        -13    1    3    3    0    0 -0.52892470416E+02  0.16931682805E+02 -0.11118028926E+03  0.12427933066E+03  0.00000000000E+00 0.  1.
         14    1    3    3    0    0  0.20989036086E+02  0.31951902977E+02 -0.16955702746E+03  0.17381325985E+03  0.00000000000E+00 0. -1.
         11    1    5    5    0    0 -0.12756740483E+02  0.36002273795E+02  0.16480524130E+03  0.16917347814E+03  0.00000000000E+00 0. -1.
        -12    1    5    5    0    0 -0.50508345615E+02  0.10514524218E+02  0.92771996890E+03  0.92915337211E+03  0.00000000000E+00 0.  1.
          5    1    4    4  501    0  0.10273470569E+03 -0.70399522882E+02 -0.31505063916E+02  0.12853230733E+03  0.41800000000E+01 0. -1.
         -5    1    4    4    0  501 -0.75661852617E+01 -0.25000860913E+02 -0.85277803178E+02  0.89286428536E+02  0.41800000000E+01 0. -1.
</event>
<event>
11    1  0.8551154E-009  0.1265672E+03  0.7561462E-02  0.1123560E+00
         22   -1    0    0    0    0  0.00000000000E+00  0.00000000000E+00  0.52555776504E+03  0.52555776504E+03  0.00000000000E+00 0. -1.
         22   -1    0    0    0    0 -0.00000000000E+00 -0.00000000000E+00 -0.69601824811E+03  0.69601824811E+03  0.00000000000E+00 0. -1.
        -24    2    1    2    0    0 -0.24931289741E+02 -0.13544785401E+01 -0.62163895241E+03  0.62725040060E+03  0.79904155557E+02 0.  0.
         25    2    1    2    0    0  0.37851488354E+01 -0.13344669370E+01 -0.54237452875E+01  0.12529123398E+03  0.12510942469E+03 0.  0.
         24    2    1    2    0    0  0.21146140905E+02  0.26889454772E+01  0.45660221462E+03  0.46903437857E+03  0.10513456225E+03 0.  0.
        -13    1    5    5    0    0 -0.57878333633E+01  0.12066683093E+01 -0.43207036664E+01  0.73228098175E+01  0.00000000000E+00 0.  1.
         14    1    5    5    0    0  0.26933974269E+02  0.14822771678E+01  0.46092291829E+03  0.46171156875E+03  0.00000000000E+00 0. -1.
         13    1    3    3    0    0  0.11007218597E+02  0.28588051094E+02 -0.37254144813E+03  0.37379883106E+03  0.00000000000E+00 0. -1.
        -14    1    3    3    0    0 -0.35938508338E+02 -0.29942529634E+02 -0.24909750428E+03  0.25345156954E+03  0.00000000000E+00 0.  1.
          5    1    4    4  501    0  0.55589066554E+02 -0.12259831736E+02 -0.32496591897E+02  0.65680656813E+02  0.41800000000E+01 0.  1.
         -5    1    4    4    0  501 -0.51803917718E+02  0.10925364799E+02  0.27072846610E+02  0.59610577170E+02  0.41800000000E+01 0.  1.
</event>
<event>
11    1  0.8551154E-009  0.1573106E+03  0.7561462E-02  0.1089634E+00
         22   -1    0    0    0    0  0.00000000000E+00  0.00000000000E+00  0.22660282858E+03  0.22660282858E+03  0.00000000000E+00 0. -1.
         22   -1    0    0    0    0 -0.00000000000E+00 -0.00000000000E+00 -0.71217739089E+03  0.71217739089E+03  0.00000000000E+00 0. -1.
         24    2    1    2    0    0 -0.24854835419E+02  0.45978348844E+02 -0.54464470208E+03  0.55292576636E+03  0.79732554163E+02 0.  0.
         25    2    1    2    0    0 -0.38050859171E+02  0.34815011779E+02 -0.10874299173E+03  0.17358698951E+03  0.12508977476E+03 0.  0.
        -24    2    1    2    0    0  0.62905694589E+02 -0.80793360623E+02  0.16781313150E+03  0.21226746360E+03  0.80072064223E+02 0.  0.
        -11    1    3    3    0    0  0.26277126285E+02  0.68920552793E+01 -0.24157502746E+03  0.24309767931E+03  0.00000000000E+00 0.  1.
         12    1    3    3    0    0 -0.51131961704E+02  0.39086293565E+02 -0.30306967462E+03  0.30982808705E+03  0.00000000000E+00 0. -1.
         13    1    5    5    0    0  0.11832208579E+02 -0.37506121243E+02  0.12904099447E+03  0.13490103241E+03  0.00000000000E+00 0. -1.
        -14    1    5    5    0    0  0.51073486011E+02 -0.43287239380E+02  0.38772137028E+02  0.77366431197E+02  0.00000000000E+00 0.  1.
          5    1    4    4  501    0  0.10521950275E+02  0.37257021059E+01 -0.11482905723E+03  0.11544599204E+03  0.41800000000E+01 0. -1.
         -5    1    4    4    0  501 -0.48572809446E+02  0.31089309673E+02  0.60860655034E+01  0.58140997469E+02  0.41800000000E+01 0. -1.
</event>
<event>
11    1  0.8551154E-009  0.2804521E+03  0.7561462E-02  0.1008821E+00
         22   -1    0    0    0    0  0.00000000000E+00  0.00000000000E+00  0.36232118180E+03  0.36232118180E+03  0.00000000000E+00 0.  1.
         22   -1    0    0    0    0 -0.00000000000E+00 -0.00000000000E+00 -0.54599814288E+03  0.54599814288E+03  0.00000000000E+00 0.  1.
         24    2    1    2    0    0  0.25960203670E+03  0.13872282118E+03 -0.34690773296E+03  0.46197647987E+03  0.80249948233E+02 0.  0.
         25    2    1    2    0    0 -0.13332251471E+03 -0.11556287560E+03 -0.97191006689E+01  0.21649874683E+03  0.12509026866E+03 0.  0.
        -24    2    1    2    0    0 -0.12627952199E+03 -0.23159945576E+02  0.17294987255E+03  0.22984409799E+03  0.80210661465E+02 0.  0.
        -13    1    3    3    0    0  0.24159107847E+03  0.14708023163E+03 -0.33642665052E+03  0.43952444177E+03  0.00000000000E+00 0.  1.
         14    1    3    3    0    0  0.18010958233E+02 -0.83574104494E+01 -0.10481082441E+02  0.22452038104E+02  0.00000000000E+00 0. -1.
         13    1    5    5    0    0 -0.77656724822E+02 -0.26323520343E+01  0.41270719907E+02  0.87981637340E+02  0.00000000000E+00 0. -1.
        -14    1    5    5    0    0 -0.48622797171E+02 -0.20527593541E+02  0.13167915264E+03  0.14186246065E+03  0.00000000000E+00 0.  1.
          5    1    4    4  501    0 -0.15719562009E+03 -0.10218351253E+03 -0.15648633722E+02  0.18818683627E+03  0.41800000000E+01 0. -1.
         -5    1    4    4    0  501  0.23873105386E+02 -0.13379363076E+02  0.59295330528E+01  0.28311910556E+02  0.41800000000E+01 0. -1.
</event>
<event>
11    1  0.8551154E-009  0.1455529E+03  0.7561462E-02  0.1101511E+00
         22   -1    0    0    0    0  0.00000000000E+00  0.00000000000E+00  0.31733896585E+03  0.31733896585E+03  0.00000000000E+00 0. -1.
         22   -1    0    0    0    0 -0.00000000000E+00 -0.00000000000E+00 -0.10773525350E+04  0.10773525350E+04  0.00000000000E+00 0. -1.
        -24    2    1    2    0    0  0.27820395994E+02  0.69785378036E+02 -0.98877013855E+03  0.99494348904E+03  0.81253837177E+02 0.  0.
         25    2    1    2    0    0 -0.10473485463E+02 -0.60427524583E+02 -0.17113590027E+02  0.14036800837E+03  0.12509645553E+03 0.  0.
         24    2    1    2    0    0 -0.17346910532E+02 -0.93578534529E+01  0.24587015939E+03  0.25938000348E+03  0.80233198848E+02 0.  0.
        -13    1    5    5    0    0 -0.11715225921E+02 -0.14663057198E+02  0.64661661854E+01  0.19851021886E+02  0.00000000000E+00 0.  1.
         14    1    5    5    0    0 -0.56316846113E+01  0.53052037451E+01  0.23940399321E+03  0.23952898159E+03  0.00000000000E+00 0. -1.
         11    1    3    3    0    0  0.47693521428E+02  0.76034152706E+02 -0.81646085779E+03  0.82137944743E+03  0.00000000000E+00 0. -1.
        -12    1    3    3    0    0 -0.19873125434E+02 -0.62487746707E+01 -0.17230928077E+03  0.17356404161E+03  0.00000000000E+00 0.  1.
          5    1    4    4  501    0 -0.15259124435E+02  0.11604713577E+02 -0.55239592768E+02  0.58620775029E+02  0.41800000000E+01 0.  1.
         -5    1    4    4    0  501  0.47856389726E+01 -0.72032238160E+02  0.38126002742E+02  0.81747233346E+02  0.41800000000E+01 0.  1.
</event>
<event>
11    1  0.8551154E-009  0.1374506E+03  0.7561462E-02  0.1110439E+00
         22   -1    0    0    0    0  0.00000000000E+00  0.00000000000E+00  0.10959483705E+03  0.10959483705E+03  0.00000000000E+00 0. -1.
         22   -1    0    0    0    0 -0.00000000000E+00 -0.00000000000E+00 -0.68291373396E+03  0.68291373396E+03  0.00000000000E+00 0.  1.
        -24    2    1    2    0    0 -0.35827290513E+02  0.11417214201E+02 -0.52399731374E+03  0.53160275761E+03  0.81328713076E+02 0.  0.
         25    2    1    2    0    0  0.66975125932E+02 -0.49239493187E+02 -0.68933308803E+02  0.16525828944E+03  0.12509318920E+03 0.  0.
         24    2    1    2    0    0 -0.31147835418E+02  0.37822278986E+02  0.19611725632E+02  0.95647523957E+02  0.79769145776E+02 0.  0.
        -13    1    5    5    0    0  0.19577550040E+02 -0.78088356752E+01 -0.72951403289E+01  0.22304202577E+02  0.00000000000E+00 0.  1.
         14    1    5    5    0    0 -0.50725385459E+02  0.45631114661E+02  0.26906865961E+02  0.73343321380E+02  0.00000000000E+00 0. -1.
         13    1    3    3    0    0  0.11274436383E+02 -0.40848438437E+01 -0.11184028040E+02  0.16397601904E+02  0.00000000000E+00 0. -1.
        -14    1    3    3    0    0 -0.47101726897E+02  0.15502058045E+02 -0.51281328570E+03  0.51520515571E+03  0.00000000000E+00 0.  1.
          5    1    4    4  501    0  0.89077706492E+02 -0.39195794467E+02 -0.59068815062E+01  0.97588481631E+02  0.41800000000E+01 0.  1.
         -5    1    4    4    0  501 -0.22102580561E+02 -0.10043698720E+02 -0.63026427296E+02  0.67669807811E+02  0.41800000000E+01 0.  1.
</event>
<event>
11    1  0.8551154E-009  0.1580642E+03  0.7561462E-02  0.1088912E+00
         22   -1    0    0    0    0  0.00000000000E+00  0.00000000000E+00  0.11251335214E+04  0.11251335214E+04  0.00000000000E+00 0. -1.
         22   -1    0    0    0    0 -0.00000000000E+00 -0.00000000000E+00 -0.28951438223E+03  0.28951438223E+03  0.00000000000E+00 0. -1.
        -24    2    1    2    0    0 -0.34165061963E+02  0.55715094839E+01 -0.19689755075E+03  0.21547364208E+03  0.80386265999E+02 0.  0.
         25    2    1    2    0    0  0.73707341380E+02  0.82178060508E+02  0.71692451063E+01  0.16698910642E+03  0.12509179743E+03 0.  0.
         24    2    1    2    0    0 -0.39542279417E+02 -0.87749569992E+02  0.10253474448E+04  0.10321851551E+04  0.69319787765E+02 0.  0.
        -11    1    5    5    0    0  0.99918835449E+01 -0.37731387905E+01  0.26218405514E+02  0.28310406229E+02  0.00000000000E+00 0.  1.
         12    1    5    5    0    0 -0.49534162962E+02 -0.83976431201E+02  0.99912903926E+03  0.10038747489E+04  0.00000000000E+00 0. -1.
         13    1    3    3    0    0  0.51288990499E+01 -0.28920917446E+02 -0.11182666453E+03  0.11561975597E+03  0.00000000000E+00 0. -1.
        -14    1    3    3    0    0 -0.39293961013E+02  0.34492426930E+02 -0.85070886221E+02  0.99853886104E+02  0.00000000000E+00 0.  1.
          5    1    4    4  501    0  0.10473343373E+03  0.45809562147E+02 -0.12615276484E+02  0.11508355976E+03  0.41800000000E+01 0. -1.
         -5    1    4    4    0  501 -0.31026092353E+02  0.36368498361E+02  0.19784521590E+02  0.51905546662E+02  0.41800000000E+01 0. -1.
</event>
<event>
11    1  0.8551154E-009  0.1638898E+03  0.7561462E-02  0.1083475E+00
         22   -1    0    0    0    0  0.00000000000E+00  0.00000000000E+00  0.94104033369E+03  0.94104033369E+03  0.00000000000E+00 0. -1.
         22   -1    0    0    0    0 -0.00000000000E+00 -0.00000000000E+00 -0.19800877564E+04  0.19800877564E+04  0.00000000000E+00 0.  1.
         24    2    1    2    0    0 -0.70921368418E+02  0.79935301367E+02 -0.18999222572E+04  0.19046176298E+04  0.80276020281E+02 0.  0.
         25    2    1    2    0    0  0.48842343744E+02 -0.59063991689E+02 -0.51093460069E+01  0.14678947544E+03  0.12508762939E+03 0.  0.
        -24    2    1    2    0    0  0.22079024674E+02 -0.20871309678E+02  0.86598418051E+03  0.86972098485E+03  0.74584822183E+02 0.  0.
        -13    1    3    3    0    0 -0.67252116065E+02  0.93669996910E+02 -0.14927249224E+04  0.14971722043E+04  0.00000000000E+00 0.  1.
         14    1    3    3    0    0 -0.36692523526E+01 -0.13734695543E+02 -0.40719733480E+03  0.40744542548E+03  0.00000000000E+00 0. -1.
         13    1    5    5    0    0 -0.41464184733E+01 -0.15384047915E+02  0.76726502257E+03  0.76743043762E+03  0.00000000000E+00 0. -1.
        -14    1    5    5    0    0  0.26225443147E+02 -0.54872617628E+01  0.98719157936E+02  0.10229054723E+03  0.00000000000E+00 0.  1.
          5    1    4    4  501    0  0.63426514857E+02 -0.59760687724E+02 -0.49196296044E+02  0.10015992476E+03  0.41800000000E+01 0.  1.
         -5    1    4    4    0  501 -0.14584171113E+02  0.69669603499E+00  0.44086950037E+02  0.46629550673E+02  0.41800000000E+01 0.  1.
</event>
<event>
11    1  0.8551154E-009  0.2364703E+03  0.7561462E-02  0.1031364E+00
         22   -1    0    0    0    0  0.00000000000E+00  0.00000000000E+00  0.46746548079E+03  0.46746548079E+03  0.00000000000E+00 0.  1.
         22   -1    0    0    0    0 -0.00000000000E+00 -0.00000000000E+00 -0.13540345869E+04  0.13540345869E+04  0.00000000000E+00 0.  1.
        -24    2    1    2    0    0 -0.10360126465E+03  0.41139934267E+02 -0.11169219013E+04  0.11253449615E+04  0.80380549381E+02 0.  0.
         25    2    1    2    0    0  0.26167781920E+03  0.68198151247E+02 -0.92703812151E+02  0.31203786246E+03  0.12508941573E+03 0.  0.
         24    2    1    2    0    0 -0.15807655455E+03 -0.10933808551E+03  0.32305660726E+03  0.38411724372E+03  0.78977663838E+02 0.  0.
        -13    1    5    5    0    0 -0.11373818965E+03 -0.11606173176E+03  0.26322817092E+03  0.30934733122E+03  0.00000000000E+00 0.  1.
         14    1    5    5    0    0 -0.44338364898E+02  0.67236462474E+01  0.59828436337E+02  0.74769912500E+02  0.00000000000E+00 0. -1.
         13    1    3    3    0    0  0.38387480049E+01  0.25290890220E+02 -0.32593389342E+03  0.32693618337E+03  0.00000000000E+00 0. -1.
        -14    1    3    3    0    0 -0.10744001265E+03  0.15849044046E+02 -0.79098800784E+03  0.79840877817E+03  0.00000000000E+00 0.  1.
          5    1    4    4  501    0  0.16170823663E+03 -0.16310821964E+02 -0.77749914638E+02  0.18021686473E+03  0.41800000000E+01 0. -1.
         -5    1    4    4    0  501  0.99969582565E+02  0.84508973211E+02 -0.14953897513E+02  0.13182099773E+03  0.41800000000E+01 0. -1.
</event>
<event>
11    1  0.8551154E-009  0.1510195E+03  0.7561462E-02  0.1095842E+00
         22   -1    0    0    0    0  0.00000000000E+00  0.00000000000E+00  0.10773065730E+03  0.10773065730E+03  0.00000000000E+00 0.  1.
         22   -1    0    0    0    0 -0.00000000000E+00 -0.00000000000E+00 -0.10279260778E+04  0.10279260778E+04  0.00000000000E+00 0. -1.
         24    2    1    2    0    0  0.80766235894E+02 -0.21157970326E+02 -0.79766749009E+03  0.80611765345E+03  0.81125839795E+02 0.  0.
         25    2    1    2    0    0 -0.91065486865E+02  0.17254613105E+02 -0.17257549021E+03  0.23242573852E+03  0.12509508199E+03 0.  0.
        -24    2    1    2    0    0  0.10299250972E+02  0.39033572204E+01  0.50047559817E+02  0.97113343113E+02  0.82492014152E+02 0.  0.
        -11    1    3    3    0    0  0.59149514307E+02 -0.40296175656E+02 -0.33549317487E+03  0.34304244227E+03  0.00000000000E+00 0.  1.
         12    1    3    3    0    0  0.21616721587E+02  0.19138205331E+02 -0.46217431522E+03  0.46307521117E+03  0.00000000000E+00 0. -1.
         11    1    5    5    0    0  0.21360569532E+02 -0.32258046916E+02  0.61520147153E+01  0.39175283108E+02  0.00000000000E+00 0. -1.
        -12    1    5    5    0    0 -0.11061318561E+02  0.36161404136E+02  0.43895545101E+02  0.57938060005E+02  0.00000000000E+00 0.  1.
          5    1    4    4  501    0 -0.82816527899E+02 -0.41426480159E+02 -0.80070859840E+02  0.12248896092E+03  0.41800000000E+01 0.  1.
         -5    1    4    4    0  501 -0.82489589665E+01  0.58681093265E+02 -0.92504630367E+02  0.10993677760E+03  0.41800000000E+01 0.  1.
</event>
<event>
11    1  0.8551154E-009  0.1421010E+03  0.7561462E-02  0.1105235E+00
         22   -1    0    0    0    0  0.00000000000E+00  0.00000000000E+00  0.31097576480E+03  0.31097576480E+03  0.00000000000E+00 0.  1.
         22   -1    0    0    0    0 -0.00000000000E+00 -0.00000000000E+00 -0.52599607021E+03  0.52599607021E+03  0.00000000000E+00 0.  1.
        -24    2    1    2    0    0 -0.80629975674E+00 -0.71833325645E+02 -0.32383360251E+03  0.34144680568E+03  0.80975565453E+02 0.  0.
         25    2    1    2    0    0  0.25382102784E+02  0.53118070161E+02 -0.16092757538E+03  0.21215748400E+03  0.12508930002E+03 0.  0.
         24    2    1    2    0    0 -0.24575803028E+02  0.18715255484E+02  0.26974087249E+03  0.28336754533E+03  0.81134435178E+02 0.  0.
        -11    1    5    5    0    0 -0.53085171813E+01 -0.16408245888E+02  0.21416343908E+03  0.21485667205E+03  0.00000000000E+00 0.  1.
         12    1    5    5    0    0 -0.19267285846E+02  0.35123501372E+02  0.55577433416E+02  0.68510873280E+02  0.00000000000E+00 0. -1.
         11    1    3    3    0    0  0.17873805452E+02 -0.59281347493E+01 -0.12349981826E+02  0.22519719227E+02  0.00000000000E+00 0. -1.
        -12    1    3    3    0    0 -0.18680105209E+02 -0.65905190895E+02 -0.31148362069E+03  0.31892708645E+03  0.00000000000E+00 0.  1.
          5    1    4    4  501    0  0.50514089808E+01  0.89680345902E+02 -0.13673135363E+03  0.16364906550E+03  0.41800000000E+01 0. -1.
         -5    1    4    4    0  501  0.20330693804E+02 -0.36562275741E+02 -0.24196221749E+02  0.48508418494E+02  0.41800000000E+01 0. -1.
</event>
<event>
11    1  0.8551154E-009  0.1259255E+03  0.7561462E-02  0.1124379E+00
         22   -1    0    0    0    0  0.00000000000E+00  0.00000000000E+00  0.13538517725E+02  0.13538517725E+02  0.00000000000E+00 0. -1.
         22   -1    0    0    0    0 -0.00000000000E+00 -0.00000000000E+00 -0.29939451156E+04  0.29939451156E+04  0.00000000000E+00 0.  1.
        -24    2    1    2    0    0 -0.33379122765E+01 -0.40162121245E+02 -0.15022670185E+04  0.15049848809E+04  0.80926875420E+02 0.  0.
         25    2    1    2    0    0 -0.74479196617E+01  0.42256108040E+02 -0.11787998392E+04  0.11861945299E+04  0.12508937488E+03 0.  0.
         24    2    1    2    0    0  0.10785831938E+02 -0.20939867947E+01 -0.29933974024E+03  0.31630422260E+03  0.10160394775E+03 0.  0.
        -11    1    5    5    0    0 -0.44011443537E+02 -0.56335499854E+00 -0.17437808472E+03  0.17984727121E+03  0.00000000000E+00 0.  1.
         12    1    5    5    0    0  0.54797275475E+02 -0.15306317962E+01 -0.12496165552E+03  0.13645695139E+03  0.00000000000E+00 0. -1.
         11    1    3    3    0    0  0.36465506189E+02 -0.49447241982E+01 -0.69059084978E+03  0.69157060756E+03  0.00000000000E+00 0. -1.
        -12    1    3    3    0    0 -0.39803418465E+02 -0.35217397047E+02 -0.81167616872E+03  0.81341427332E+03  0.00000000000E+00 0.  1.
          5    1    4    4  501    0 -0.36067335463E+02 -0.26058961239E+02 -0.21794827336E+03  0.22248335760E+03  0.41800000000E+01 0. -1.
         -5    1    4    4    0  501  0.28619415801E+02  0.68315069279E+02 -0.96085156581E+03  0.96371117228E+03  0.41800000000E+01 0. -1.
</event>
<event>
11    1  0.8551154E-009  0.1465642E+03  0.7561462E-02  0.1100442E+00
         22   -1    0    0    0    0  0.00000000000E+00  0.00000000000E+00  0.26753305047E+03  0.26753305047E+03  0.00000000000E+00 0.  1.
         22   -1    0    0    0    0 -0.00000000000E+00 -0.00000000000E+00 -0.20945538113E+03  0.20945538113E+03  0.00000000000E+00 0.  1.
        -24    2    1    2    0    0 -0.62355777974E+02  0.31777535637E+02 -0.89103053974E+02  0.13974358269E+03  0.81797676353E+02 0.  0.
         25    2    1    2    0    0  0.90520229173E+02 -0.30695270473E+02 -0.11062295172E+02  0.15781558611E+03  0.12508906157E+03 0.  0.
         24    2    1    2    0    0 -0.28164451199E+02 -0.10822651640E+01  0.15824301849E+03  0.17942926281E+03  0.79747099263E+02 0.  0.
        -13    1    5    5    0    0 -0.92875490063E+01  0.21635991409E+02  0.14527478696E+03  0.14717044003E+03  0.00000000000E+00 0.  1.
         14    1    5    5    0    0 -0.18876902193E+02 -0.22718256573E+02  0.12968231527E+02  0.32258822778E+02  0.00000000000E+00 0. -1.
         11    1    3    3    0    0 -0.15768422953E+02 -0.70894808092E+01  0.12548346015E+02  0.21362698525E+02  0.00000000000E+00 0. -1.
        -12    1    3    3    0    0 -0.46587355021E+02  0.38867016446E+02 -0.10165139999E+03  0.11838088416E+03  0.00000000000E+00 0.  1.
          5    1    4    4  501    0  0.59819374770E+02  0.44825127327E+02 -0.13854691441E+02  0.76138521871E+02  0.41800000000E+01 0.  1.
         -5    1    4    4    0  501  0.30700854403E+02 -0.75520397800E+02  0.27923962684E+01  0.81677064234E+02  0.41800000000E+01 0.  1.
</event>
<event>
11    1  0.8551154E-009  0.2895171E+03  0.7561462E-02  0.1004728E+00
         22   -1    0    0    0    0  0.00000000000E+00  0.00000000000E+00  0.53622956325E+03  0.53622956325E+03  0.00000000000E+00 0.  1.
         22   -1    0    0    0    0 -0.00000000000E+00 -0.00000000000E+00 -0.95967291942E+03  0.95967291942E+03  0.00000000000E+00 0.  1.
        -24    2    1    2    0    0  0.14748621886E+02  0.40164683115E+02 -0.54394274759E+03  0.55145885190E+03  0.80015180218E+02 0.  0.
         25    2    1    2    0    0 -0.17554636532E+03  0.16826343921E+03 -0.32259059244E+03  0.42289689518E+03  0.12509189530E+03 0.  0.
         24    2    1    2    0    0  0.16079774343E+03 -0.20842812232E+03  0.44308998387E+03  0.52154673558E+03  0.79900357485E+02 0.  0.
        -13    1    5    5    0    0  0.13500082909E+03 -0.18808765371E+03  0.32540620568E+03  0.39936372899E+03  0.00000000000E+00 0.  1.
         14    1    5    5    0    0  0.25796914341E+02 -0.20340468608E+02  0.11768377818E+03  0.12218300659E+03  0.00000000000E+00 0. -1.
         11    1    3    3    0    0 -0.21835372338E+02  0.37637047377E+02 -0.41878330922E+03  0.42103775473E+03  0.00000000000E+00 0. -1.
        -12    1    3    3    0    0  0.36583994224E+02  0.25276357382E+01 -0.12515943837E+03  0.13042109718E+03  0.00000000000E+00 0.  1.
          5    1    4    4  501    0 -0.14871867194E+03  0.18794392706E+03 -0.27727472843E+03  0.36652272853E+03  0.41800000000E+01 0.  1.
         -5    1    4    4    0  501 -0.26827693377E+02 -0.19680487855E+02 -0.45315864009E+02  0.56374166646E+02  0.41800000000E+01 0.  1.
</event>
<event>
11    1  0.8551154E-009  0.1357881E+03  0.7561462E-02  0.1112355E+00
         22   -1    0    0    0    0  0.00000000000E+00  0.00000000000E+00  0.10559758796E+04  0.10559758796E+04  0.00000000000E+00 0.  1.
         22   -1    0    0    0    0 -0.00000000000E+00 -0.00000000000E+00 -0.32842345143E+03  0.32842345143E+03  0.00000000000E+00 0.  1.
        -24    2    1    2    0    0 -0.32116552045E+02  0.42097228063E+02 -0.30491606801E+03  0.31994534569E+03  0.81163823023E+02 0.  0.
         25    2    1    2    0    0  0.41480313749E+02 -0.28554232848E+02  0.31699931286E+03  0.34448675971E+03  0.12508638062E+03 0.  0.
         24    2    1    2    0    0 -0.93637617042E+01 -0.13542995215E+02  0.71546918333E+03  0.71996722564E+03  0.78648337239E+02 0.  0.
        -13    1    5    5    0    0  0.15790380250E+02 -0.89221313501E+01  0.64048105482E+03  0.64073779514E+03  0.00000000000E+00 0.  1.
         14    1    5    5    0    0 -0.25154141954E+02 -0.46208638648E+01  0.74988128506E+02  0.79229430499E+02  0.00000000000E+00 0. -1.
         13    1    3    3    0    0 -0.17889953319E+02 -0.15802728357E+02 -0.28516150976E+02  0.37188002363E+02  0.00000000000E+00 0. -1.
        -14    1    3    3    0    0 -0.14226598726E+02  0.57899956420E+02 -0.27639991704E+03  0.28275734332E+03  0.00000000000E+00 0.  1.
          5    1    4    4  501    0 -0.89056119771E+01 -0.63966256487E+02  0.22161585726E+03  0.23087237272E+03  0.41800000000E+01 0. -1.
         -5    1    4    4    0  501  0.50385925726E+02  0.35412023639E+02  0.95383455599E+02  0.11361438699E+03  0.41800000000E+01 0. -1.
</event>
<event>
11    1  0.8551154E-009  0.1340266E+03  0.7561462E-02  0.1114418E+00
         22   -1    0    0    0    0  0.00000000000E+00  0.00000000000E+00  0.12018778619E+04  0.12018778619E+04  0.00000000000E+00 0. -1.
         22   -1    0    0    0    0 -0.00000000000E+00 -0.00000000000E+00 -0.14881750432E+04  0.14881750432E+04  0.00000000000E+00 0. -1.
         24    2    1    2    0    0 -0.45467602522E+02  0.89199832500E+01 -0.12293860840E+04  0.12329090620E+04  0.80794446836E+02 0.  0.
         25    2    1    2    0    0  0.64299016414E+02 -0.27348106305E+02 -0.23538666210E+03  0.27556553552E+03  0.12508877344E+03 0.  0.
        -24    2    1    2    0    0 -0.18831413892E+02  0.18428123055E+02  0.11784755647E+04  0.11815783076E+04  0.81415124325E+02 0.  0.
        -11    1    3    3    0    0 -0.21481809235E+02  0.19987532463E+02 -0.13271946468E+03  0.13592433883E+03  0.00000000000E+00 0.  1.
         12    1    3    3    0    0 -0.23985793287E+02 -0.11067549213E+02 -0.10966666193E+04  0.10969847232E+04  0.00000000000E+00 0. -1.
         11    1    5    5    0    0 -0.22510487092E+02  0.19932581821E+02  0.11769293694E+04  0.11773133696E+04  0.00000000000E+00 0. -1.
        -12    1    5    5    0    0  0.36790732004E+01 -0.15044587666E+01  0.15461953670E+01  0.42649379723E+01  0.00000000000E+00 0.  1.
          5    1    4    4  501    0 -0.31006187543E+02 -0.47584562301E+01 -0.16415757279E+02  0.35650751166E+02  0.41800000000E+01 0. -1.
         -5    1    4    4    0  501  0.95305203958E+02 -0.22589650075E+02 -0.21897090482E+03  0.23991478435E+03  0.41800000000E+01 0. -1.
</event>
<event>
11    1  0.8551154E-009  0.1541318E+03  0.7561462E-02  0.1092730E+00
         22   -1    0    0    0    0  0.00000000000E+00  0.00000000000E+00  0.13237299898E+03  0.13237299898E+03  0.00000000000E+00 0. -1.
         22   -1    0    0    0    0 -0.00000000000E+00 -0.00000000000E+00 -0.67138194703E+03  0.67138194703E+03  0.00000000000E+00 0. -1.
        -24    2    1    2    0    0  0.64065222121E+02  0.69300823052E+02 -0.39780990075E+03  0.41704031010E+03  0.82237134871E+02 0.  0.
         25    2    1    2    0    0 -0.10841627428E+03  0.10063286892E+02 -0.19411310042E+03  0.25531107263E+03  0.12509392384E+03 0.  0.
         24    2    1    2    0    0  0.44351052157E+02 -0.79364109945E+02  0.52914053122E+02  0.13140356328E+03  0.78748470786E+02 0.  0.
        -11    1    5    5    0    0 -0.17260566538E+02  0.76383538554E+00 -0.78845960554E-01  0.17277639260E+02  0.00000000000E+00 0.  1.
         12    1    5    5    0    0  0.61611618695E+02 -0.80127945330E+02  0.52992899082E+02  0.11412592402E+03  0.00000000000E+00 0. -1.
         13    1    3    3    0    0  0.39277630774E+02 -0.82230265878E+01 -0.18251698362E+03  0.18687642910E+03  0.00000000000E+00 0. -1.
        -14    1    3    3    0    0  0.24787591347E+02  0.77523849640E+02 -0.21529291713E+03  0.23016388099E+03  0.00000000000E+00 0.  1.
          5    1    4    4  501    0  0.67257282403E+01  0.64806026305E+01 -0.11510825405E+03  0.11556217453E+03  0.41800000000E+01 0.  1.
         -5    1    4    4    0  501 -0.11514200252E+03  0.35826842619E+01 -0.79004846363E+02  0.13974889810E+03  0.41800000000E+01 0.  1.
</event>
<event>
11    1  0.8551154E-009  0.1851883E+03  0.7561462E-02  0.1065522E+00
         22   -1    0    0    0    0  0.00000000000E+00  0.00000000000E+00  0.47325528409E+03  0.47325528409E+03  0.00000000000E+00 0.  1.
         22   -1    0    0    0    0 -0.00000000000E+00 -0.00000000000E+00 -0.83104345874E+03  0.83104345874E+03  0.00000000000E+00 0. -1.
        -24    2    1    2    0    0 -0.34956987355E+02 -0.12584984491E+03 -0.68398303023E+03  0.70101349674E+03  0.80789619019E+02 0.  0.
         25    2    1    2    0    0  0.77852858071E+02  0.23139363736E+03  0.29738897618E+02  0.27591034933E+03  0.12505213278E+03 0.  0.
         24    2    1    2    0    0 -0.42895870716E+02 -0.10554379244E+03  0.29645595796E+03  0.32737489677E+03  0.79426948673E+02 0.  0.
        -13    1    5    5    0    0 -0.43273253922E+02 -0.11751868195E+03  0.28229095550E+03  0.30882260065E+03  0.00000000000E+00 0.  1.
         14    1    5    5    0    0  0.37738320592E+00  0.11974889504E+02  0.14165002458E+02  0.18552296121E+02  0.00000000000E+00 0. -1.
         11    1    3    3    0    0 -0.47846250506E+02 -0.50048590453E+02 -0.43350733623E+03  0.43900197683E+03  0.00000000000E+00 0. -1.
        -12    1    3    3    0    0  0.12889263151E+02 -0.75801254460E+02 -0.25047569399E+03  0.26201151991E+03  0.00000000000E+00 0.  1.
          5    1    4    4  501    0  0.31065232600E+02  0.15068066262E+03 -0.40396283531E+02  0.15911958675E+03  0.41800000000E+01 0.  1.
         -5    1    4    4    0  501  0.46787625471E+02  0.80712974733E+02  0.70135181148E+02  0.11679076257E+03  0.41800000000E+01 0.  1.
</event>
<event>
11    1  0.8551154E-009  0.1442603E+03  0.7561462E-02  0.1102892E+00
         22   -1    0    0    0    0  0.00000000000E+00  0.00000000000E+00  0.60644783434E+03  0.60644783434E+03  0.00000000000E+00 0.  1.
         22   -1    0    0    0    0 -0.00000000000E+00 -0.00000000000E+00 -0.43861489901E+03  0.43861489901E+03  0.00000000000E+00 0. -1.
         24    2    1    2    0    0  0.17027846019E+02 -0.72742874329E+02 -0.37052263810E+03  0.38702857114E+03  0.83202260925E+02 0.  0.
         25    2    1    2    0    0  0.45631104018E+02  0.49784214290E+02  0.38359280422E+02  0.14723799338E+03  0.12508767586E+03 0.  0.
        -24    2    1    2    0    0 -0.62658950037E+02  0.22958660038E+02  0.49999629301E+03  0.51079616884E+03  0.80393961158E+02 0.  0.
        -11    1    3    3    0    0  0.12430537696E+02 -0.12121939471E+02 -0.74369300374E+01  0.18888292997E+02  0.00000000000E+00 0.  1.
         12    1    3    3    0    0  0.45973083232E+01 -0.60620934857E+02 -0.36308570807E+03  0.36814027814E+03  0.00000000000E+00 0. -1.
         11    1    5    5    0    0 -0.55379322961E+01  0.19154354281E+02  0.23265880751E+02  0.30640809212E+02  0.00000000000E+00 0. -1.
        -12    1    5    5    0    0 -0.57121017741E+02  0.38043057572E+01  0.47673041225E+03  0.48015535963E+03  0.00000000000E+00 0.  1.
          5    1    4    4  501    0  0.17379909322E+02  0.44459684787E+02 -0.40788113910E+02  0.62927477748E+02  0.41800000000E+01 0.  1.
         -5    1    4    4    0  501  0.28251194696E+02  0.53245295036E+01  0.79147394332E+02  0.84310515630E+02  0.41800000000E+01 0.  1.
</event>
<event>
11    1  0.8551154E-009  0.1410532E+03  0.7561462E-02  0.1106388E+00
         22   -1    0    0    0    0  0.00000000000E+00  0.00000000000E+00  0.60522503860E+03  0.60522503860E+03  0.00000000000E+00 0. -1.
         22   -1    0    0    0    0 -0.00000000000E+00 -0.00000000000E+00 -0.42388960544E+03  0.42388960544E+03  0.00000000000E+00 0. -1.
         24    2    1    2    0    0 -0.15930098250E+02  0.40324362168E+02 -0.35852789262E+03  0.37144546928E+03  0.86888806254E+02 0.  0.
         25    2    1    2    0    0  0.46809733673E+02 -0.93171577141E+02  0.70569931261E+02  0.17748460829E+03  0.12509427256E+03 0.  0.
        -24    2    1    2    0    0 -0.30879635424E+02  0.52847214973E+02  0.46929339451E+03  0.48018456647E+03  0.81206820714E+02 0.  0.
        -11    1    3    3    0    0  0.26576050064E+02  0.34699939861E+02 -0.96554866005E+02  0.10598685962E+03  0.00000000000E+00 0.  1.
         12    1    3    3    0    0 -0.42506148314E+02  0.56244223064E+01 -0.26197302661E+03  0.26545860966E+03  0.00000000000E+00 0. -1.
         13    1    5    5    0    0 -0.19843228546E+02  0.65421291128E+02  0.22110144687E+03  0.23142936041E+03  0.00000000000E+00 0. -1.
        -14    1    5    5    0    0 -0.11036406878E+02 -0.12574076155E+02  0.24819194765E+03  0.24875520607E+03  0.00000000000E+00 0.  1.
          5    1    4    4  501    0  0.84980589066E+02 -0.85370604032E+02  0.67591821716E+02  0.13818815909E+03  0.41800000000E+01 0.  1.
         -5    1    4    4    0  501 -0.38170855392E+02 -0.78009731092E+01  0.29781095449E+01  0.39296449195E+02  0.41800000000E+01 0.  1.
</event>
<event>
11    1  0.8551154E-009  0.1284057E+03  0.7561462E-02  0.1121243E+00
         22   -1    0    0    0    0  0.00000000000E+00  0.00000000000E+00  0.47471227523E+02  0.47471227523E+02  0.00000000000E+00 0.  1.
         22   -1    0    0    0    0 -0.00000000000E+00 -0.00000000000E+00 -0.25224807681E+04  0.25224807681E+04  0.00000000000E+00 0. -1.
         24    2    1    2    0    0  0.15625786304E+02 -0.24474274453E+02 -0.21204381822E+04  0.21222562036E+04  0.82886391034E+02 0.  0.
         25    2    1    2    0    0 -0.29685427406E+02  0.14325029127E+02 -0.33484008534E+03  0.35895924212E+03  0.12508966263E+03 0.  0.
        -24    2    1    2    0    0  0.14059641102E+02  0.10149245327E+02 -0.19731273042E+02  0.88736549919E+02  0.84759491899E+02 0.  0.
        -13    1    3    3    0    0 -0.26800064706E+02 -0.23154581388E+02 -0.49569526103E+03  0.49695892176E+03  0.00000000000E+00 0.  1.
         14    1    3    3    0    0  0.42425851010E+02 -0.13196930655E+01 -0.16247429212E+04  0.16252972819E+04  0.00000000000E+00 0. -1.
         11    1    5    5    0    0  0.20938392898E+02 -0.16940869079E+02 -0.44087445365E+02  0.51663451115E+02  0.00000000000E+00 0. -1.
        -12    1    5    5    0    0 -0.68787517960E+01  0.27090114406E+02  0.24356172322E+02  0.37073098804E+02  0.00000000000E+00 0.  1.
          5    1    4    4  501    0 -0.20039049462E+02  0.43622109472E+02 -0.40408562675E+02  0.62887011978E+02  0.41800000000E+01 0.  1.
         -5    1    4    4    0  501 -0.96463779438E+01 -0.29297080346E+02 -0.29443152267E+03  0.29607223015E+03  0.41800000000E+01 0.  1.
</event>
<event>
11    1  0.8551154E-009  0.2076962E+03  0.7561462E-02  0.1049211E+00
         22   -1    0    0    0    0  0.00000000000E+00  0.00000000000E+00  0.14548327516E+04  0.14548327516E+04  0.00000000000E+00 0.  1.
         22   -1    0    0    0    0 -0.00000000000E+00 -0.00000000000E+00 -0.15555236901E+03  0.15555236901E+03  0.00000000000E+00 0. -1.
         24    2    1    2    0    0  0.13984850659E+03 -0.98321280657E+02 -0.73667079388E+02  0.20223980652E+03  0.79053284133E+02 0.  0.
         25    2    1    2    0    0 -0.12979837469E+03  0.16003288036E+02  0.60366401238E+03  0.63020519616E+03  0.12507847985E+03 0.  0.
        -24    2    1    2    0    0 -0.10050131893E+02  0.82317992621E+02  0.76928344959E+03  0.77794011792E+03  0.80725115060E+02 0.  0.
        -13    1    3    3    0    0 -0.99502940794E+00 -0.89145841791E+01 -0.27819430474E+02  0.29229789710E+02  0.00000000000E+00 0.  1.
         14    1    3    3    0    0  0.14084353599E+03 -0.89406696478E+02 -0.45847648914E+02  0.17301001681E+03  0.00000000000E+00 0. -1.
         13    1    5    5    0    0  0.48234894081E+01  0.72605648251E+02  0.31443070430E+03  0.32274062963E+03  0.00000000000E+00 0. -1.
        -14    1    5    5    0    0 -0.14873621301E+02  0.97123443697E+01  0.45485274529E+03  0.45519948829E+03  0.00000000000E+00 0.  1.
          5    1    4    4  501    0 -0.84737290411E+02  0.31894098952E+02  0.55323093026E+03  0.56060643639E+03  0.41800000000E+01 0. -1.
         -5    1    4    4    0  501 -0.45061084282E+02 -0.15890810916E+02  0.50433082124E+02  0.69598759764E+02  0.41800000000E+01 0. -1.
</event>
<event>
11    1  0.8551154E-009  0.1739906E+03  0.7561462E-02  0.1074610E+00
         22   -1    0    0    0    0  0.00000000000E+00  0.00000000000E+00  0.54122663081E+03  0.54122663081E+03  0.00000000000E+00 0.  1.
         22   -1    0    0    0    0 -0.00000000000E+00 -0.00000000000E+00 -0.88249929285E+02  0.88249929285E+02  0.00000000000E+00 0.  1.
        -24    2    1    2    0    0 -0.74591082204E+01  0.44312902230E+02  0.62239908079E+02  0.11068492100E+03  0.79737531816E+02 0.  0.
         25    2    1    2    0    0 -0.92871096325E+02  0.39532575394E+02  0.98323315597E+02  0.18841698335E+03  0.12508245350E+03 0.  0.
         24    2    1    2    0    0  0.10033020455E+03 -0.83845477624E+02  0.29241347785E+03  0.33037465575E+03  0.80904617108E+02 0.  0.
        -13    1    5    5    0    0  0.10879208196E+03 -0.89160603513E+02  0.28535761733E+03  0.31814194958E+03  0.00000000000E+00 0.  1.
         14    1    5    5    0    0 -0.84618774095E+01  0.53151258887E+01  0.70558605248E+01  0.12232706170E+02  0.00000000000E+00 0. -1.
         11    1    3    3    0    0  0.29298551824E+02 -0.42480403842E+01  0.28335201422E+02  0.40979685525E+02  0.00000000000E+00 0. -1.
        -12    1    3    3    0    0 -0.36757660044E+02  0.48560942614E+02  0.33904706657E+02  0.69705235478E+02  0.00000000000E+00 0.  1.
          5    1    4    4  501    0 -0.73782315301E+02 -0.24418704881E+01 -0.60972566456E+01  0.74191924906E+02  0.41800000000E+01 0.  1.
         -5    1    4    4    0  501 -0.19088781025E+02  0.41974445882E+02  0.10442057224E+03  0.11422505844E+03  0.41800000000E+01 0.  1.
</event>
<event>
11    1  0.8551154E-009  0.1397292E+03  0.7561462E-02  0.1107861E+00
         22   -1    0    0    0    0  0.00000000000E+00  0.00000000000E+00  0.88037647469E+03  0.88037647469E+03  0.00000000000E+00 0.  1.
         22   -1    0    0    0    0 -0.00000000000E+00 -0.00000000000E+00 -0.97933747090E+02  0.97933747090E+02  0.00000000000E+00 0. -1.
         24    2    1    2    0    0  0.25382178785E+02  0.55687222621E+02 -0.43808110338E+02  0.11162399086E+03  0.82434477258E+02 0.  0.
         25    2    1    2    0    0 -0.29336547426E+02 -0.65663767333E+02  0.28777604195E+03  0.32192214909E+03  0.12508579616E+03 0.  0.
        -24    2    1    2    0    0  0.39543686411E+01  0.99765447122E+01  0.53847479600E+03  0.54476408184E+03  0.81839052173E+02 0.  0.
        -13    1    3    3    0    0  0.35267450763E+02 -0.72232740936E+01 -0.33016158021E+01  0.36150649218E+02  0.00000000000E+00 0.  1.
         14    1    3    3    0    0 -0.98852719781E+01  0.62910496715E+02 -0.40506494536E+02  0.75473341642E+02  0.00000000000E+00 0. -1.
         13    1    5    5    0    0 -0.15492558968E+02 -0.31511460613E+02  0.18197612622E+03  0.18533294917E+03  0.00000000000E+00 0. -1.
        -14    1    5    5    0    0  0.19446927609E+02  0.41488005325E+02  0.35649866977E+03  0.35943113267E+03  0.00000000000E+00 0.  1.
          5    1    4    4  501    0  0.46930247217E+02 -0.14545779413E+02  0.70763127455E+02  0.86249176285E+02  0.41800000000E+01 0. -1.
         -5    1    4    4    0  501 -0.76266794643E+02 -0.51117987920E+02  0.21701291449E+03  0.23567297280E+03  0.41800000000E+01 0. -1.
</event>
<event>
11    1  0.8551154E-009  0.1300645E+03  0.7561462E-02  0.1119190E+00
         22   -1    0    0    0    0  0.00000000000E+00  0.00000000000E+00  0.29781149093E+03  0.29781149093E+03  0.00000000000E+00 0. -1.
         22   -1    0    0    0    0 -0.00000000000E+00 -0.00000000000E+00 -0.12668995728E+04  0.12668995728E+04  0.00000000000E+00 0.  1.
         24    2    1    2    0    0  0.33263882311E+02 -0.10608500955E+02 -0.98692840288E+03  0.99089743480E+03  0.81431122556E+02 0.  0.
         25    2    1    2    0    0 -0.44212527733E+02 -0.45293415276E+01 -0.25561435599E+03  0.28803322201E+03  0.12509666442E+03 0.  0.
        -24    2    1    2    0    0  0.10948645422E+02  0.15137842482E+02  0.27345467697E+03  0.28578040695E+03  0.80894706434E+02 0.  0.
        -11    1    3    3    0    0  0.16744142677E+02 -0.15232632452E+02 -0.94900014201E+03  0.94927007166E+03  0.00000000000E+00 0.  1.
         12    1    3    3    0    0  0.16519739634E+02  0.46241314969E+01 -0.37928260871E+02  0.41627363145E+02  0.00000000000E+00 0. -1.
         13    1    5    5    0    0 -0.14942197997E+02  0.35534004918E+02  0.21709411795E+03  0.22048988828E+03  0.00000000000E+00 0. -1.
        -14    1    5    5    0    0  0.25890843419E+02 -0.20396162435E+02  0.56360559023E+02  0.65290518672E+02  0.00000000000E+00 0.  1.
          5    1    4    4  501    0  0.37221153599E+02  0.46152564583E+01 -0.30794777432E+02  0.48708372837E+02  0.41800000000E+01 0. -1.
         -5    1    4    4    0  501 -0.81433681332E+02 -0.91445979859E+01 -0.22481957856E+03  0.23932484917E+03  0.41800000000E+01 0. -1.
</event>
<event>
11    1  0.8551154E-009  0.1931275E+03  0.7561462E-02  0.1059493E+00
         22   -1    0    0    0    0  0.00000000000E+00  0.00000000000E+00  0.69997541465E+03  0.69997541465E+03  0.00000000000E+00 0. -1.
         22   -1    0    0    0    0 -0.00000000000E+00 -0.00000000000E+00 -0.38657717580E+03  0.38657717580E+03  0.00000000000E+00 0.  1.
        -24    2    1    2    0    0 -0.88928740683E+02 -0.10893177923E+03 -0.26749505168E+03  0.30630460709E+03  0.49944531280E+02 0.  0.
         25    2    1    2    0    0  0.18317995242E+03  0.10948762105E+03  0.72159604062E+02  0.25767663534E+03  0.12509118997E+03 0.  0.
         24    2    1    2    0    0 -0.94251211738E+02 -0.55584182387E+00  0.50873368647E+03  0.52257134802E+03  0.73397889197E+02 0.  0.
        -11    1    5    5    0    0 -0.30155491768E+02  0.91507577983E+01  0.48794322121E+02  0.58085935675E+02  0.00000000000E+00 0.  1.
         12    1    5    5    0    0 -0.64095719971E+02 -0.97065996222E+01  0.45993936435E+03  0.46448541234E+03  0.00000000000E+00 0. -1.
         13    1    3    3    0    0 -0.78337832226E+02 -0.11276730913E+03 -0.25390033758E+03  0.28864972439E+03  0.00000000000E+00 0. -1.
        -14    1    3    3    0    0 -0.10590908458E+02  0.38355299060E+01 -0.13594714099E+02  0.17654882697E+02  0.00000000000E+00 0.  1.
          5    1    4    4  501    0  0.13524529501E+03  0.13507054649E+03  0.68389317426E+02  0.20305150452E+03  0.41800000000E+01 0.  1.
         -5    1    4    4    0  501  0.47934657411E+02 -0.25582925438E+02  0.37702866362E+01  0.54625130814E+02  0.41800000000E+01 0.  1.
</event>
<event>
11    1  0.8551154E-009  0.1759661E+03  0.7561462E-02  0.1072953E+00
         22   -1    0    0    0    0  0.00000000000E+00  0.00000000000E+00  0.60546372849E+03  0.60546372849E+03  0.00000000000E+00 0.  1.
         22   -1    0    0    0    0 -0.00000000000E+00 -0.00000000000E+00 -0.10346869000E+03  0.10346869000E+03  0.00000000000E+00 0.  1.
         24    2    1    2    0    0  0.26691898554E+02  0.22636061114E+02 -0.22105399580E+02  0.91082183002E+02  0.81132402027E+02 0.  0.
         25    2    1    2    0    0 -0.45249980216E+02 -0.13364408010E+03  0.29182375826E+03  0.34744305983E+03  0.12508906062E+03 0.  0.
        -24    2    1    2    0    0  0.18558081662E+02  0.11100801899E+03  0.23227667981E+03  0.27040717565E+03  0.80625070426E+02 0.  0.
        -11    1    3    3    0    0  0.49876688318E+02  0.26329320667E+02  0.32925141842E+01  0.56495644204E+02  0.00000000000E+00 0.  1.
         12    1    3    3    0    0 -0.23184789764E+02 -0.36932595523E+01 -0.25397913764E+02  0.34586538799E+02  0.00000000000E+00 0. -1.
         11    1    5    5    0    0 -0.26716946713E+02  0.31891168152E+02  0.40462761157E+02  0.58035134946E+02  0.00000000000E+00 0. -1.
        -12    1    5    5    0    0  0.45275028375E+02  0.79116850836E+02  0.19181391866E+03  0.21237204070E+03  0.00000000000E+00 0.  1.
          5    1    4    4  501    0  0.20452848085E+02 -0.11730755553E+03  0.20687837413E+03  0.23873733612E+03  0.41800000000E+01 0.  1.
         -5    1    4    4    0  501 -0.65702828301E+02 -0.16336524575E+02  0.84945384133E+02  0.10870572371E+03  0.41800000000E+01 0.  1.
</event>
<event>
11    1  0.8551154E-009  0.1559744E+03  0.7561462E-02  0.1090926E+00
         22   -1    0    0    0    0  0.00000000000E+00  0.00000000000E+00  0.25726636948E+04  0.25726636948E+04  0.00000000000E+00 0. -1.
         22   -1    0    0    0    0 -0.00000000000E+00 -0.00000000000E+00 -0.78944861560E+03  0.78944861560E+03  0.00000000000E+00 0.  1.
        -24    2    1    2    0    0  0.61561242811E+02 -0.68541058092E+02 -0.72198017386E+03  0.73230601648E+03  0.80802642735E+02 0.  0.
         25    2    1    2    0    0 -0.14385127939E+03  0.36578420262E+02  0.94001314583E+02  0.21567129271E+03  0.12508672170E+03 0.  0.
         24    2    1    2    0    0  0.82290036577E+02  0.31962637830E+02  0.24111939385E+04  0.24141350012E+04  0.79989591662E+02 0.  0.
        -13    1    5    5    0    0  0.71751905002E+02 -0.11125238884E+02  0.12639588484E+04  0.12660426838E+04  0.00000000000E+00 0.  1.
         14    1    5    5    0    0  0.10538131575E+02  0.43087876713E+02  0.11472350900E+04  0.11480923173E+04  0.00000000000E+00 0. -1.
         13    1    3    3    0    0  0.73236108196E+02 -0.26981036116E+02 -0.51412335419E+03  0.52001377595E+03  0.00000000000E+00 0. -1.
        -14    1    3    3    0    0 -0.11674865385E+02 -0.41560021977E+02 -0.20785681967E+03  0.21229224054E+03  0.00000000000E+00 0.  1.
          5    1    4    4  501    0 -0.11168107570E+03  0.71340356519E+02  0.10222168020E+03  0.16741819925E+03  0.41800000000E+01 0.  1.
         -5    1    4    4    0  501 -0.32170203684E+02 -0.34761936257E+02 -0.82203656129E+01  0.48253093457E+02  0.41800000000E+01 0.  1.
</event>
<event>
11    1  0.8551154E-009  0.3900415E+03  0.7561462E-02  0.9679607E-01
         22   -1    0    0    0    0  0.00000000000E+00  0.00000000000E+00  0.68367278602E+03  0.68367278602E+03  0.00000000000E+00 0. -1.
         22   -1    0    0    0    0 -0.00000000000E+00 -0.00000000000E+00 -0.62533795143E+03  0.62533795143E+03  0.00000000000E+00 0. -1.
         24    2    1    2    0    0  0.16113067375E+03  0.27340234268E+02 -0.22839427895E+03  0.29200190554E+03  0.79941126752E+02 0.  0.
         25    2    1    2    0    0 -0.61106803615E+02  0.34092629930E+03 -0.17928652115E+03  0.40957959117E+03  0.12508797639E+03 0.  0.
        -24    2    1    2    0    0 -0.10002387014E+03 -0.36826653357E+03  0.46601563469E+03  0.60742924074E+03  0.78579236321E+02 0.  0.
        -13    1    3    3    0    0  0.12642113542E+03  0.50389148675E+02 -0.14551276489E+03  0.19923688045E+03  0.00000000000E+00 0.  1.
         14    1    3    3    0    0  0.34709538334E+02 -0.23048914407E+02 -0.82881514068E+02  0.92765025095E+02  0.00000000000E+00 0. -1.
         11    1    5    5    0    0 -0.59333817394E+02 -0.32165354115E+03  0.37839879916E+03  0.50016712569E+03  0.00000000000E+00 0. -1.
        -12    1    5    5    0    0 -0.40690052744E+02 -0.46612992420E+02  0.87616835533E+02  0.10726211504E+03  0.00000000000E+00 0.  1.
          5    1    4    4  501    0 -0.51754480146E+02  0.24147987585E+03 -0.18627151481E+03  0.30936322710E+03  0.41800000000E+01 0. -1.
         -5    1    4    4    0  501 -0.93523234692E+01  0.99446423448E+02  0.69849936520E+01  0.10021636407E+03  0.41800000000E+01 0. -1.
</event>
<event>
11    1  0.8551154E-009  0.5840298E+03  0.7561462E-02  0.9223165E-01
         22   -1    0    0    0    0  0.00000000000E+00  0.00000000000E+00  0.15071871033E+04  0.15071871033E+04  0.00000000000E+00 0. -1.
         22   -1    0    0    0    0 -0.00000000000E+00 -0.00000000000E+00 -0.26675289859E+03  0.26675289859E+03  0.00000000000E+00 0. -1.
         24    2    1    2    0    0  0.50107002210E+02  0.29565472875E+02  0.77823510243E+02  0.12595879379E+03  0.80151669545E+02 0.  0.
         25    2    1    2    0    0  0.49563654921E+03 -0.25161245292E+03  0.62699960555E+03  0.84719472659E+03  0.12508390793E+03 0.  0.
        -24    2    1    2    0    0 -0.54574355142E+03  0.22204698004E+03  0.53561108890E+03  0.80078648149E+03  0.85081520399E+02 0.  0.
        -13    1    3    3    0    0 -0.16008840954E+02 -0.96733656508E+01  0.30193311526E+02  0.35517503468E+02  0.00000000000E+00 0.  1.
         14    1    3    3    0    0  0.66115843163E+02  0.39238838526E+02  0.47630198716E+02  0.90441290326E+02  0.00000000000E+00 0. -1.
         11    1    5    5    0    0 -0.51901746020E+03  0.19473374952E+03  0.47981871848E+03  0.73316189194E+03  0.00000000000E+00 0. -1.
        -12    1    5    5    0    0 -0.26726091220E+02  0.27313230524E+02  0.55792370421E+02  0.67624589542E+02  0.00000000000E+00 0.  1.
          5    1    4    4  501    0  0.43712062310E+03 -0.18748828023E+03  0.47568177540E+03  0.67269377744E+03  0.41800000000E+01 0.  1.
         -5    1    4    4    0  501  0.58515926114E+02 -0.64124172684E+02  0.15131783016E+03  0.17450094915E+03  0.41800000000E+01 0.  1.
</event>
<event>
11    1  0.8551154E-009  0.1484035E+03  0.7561462E-02  0.1098521E+00
         22   -1    0    0    0    0  0.00000000000E+00  0.00000000000E+00  0.71652693339E+02  0.71652693339E+02  0.00000000000E+00 0. -1.
         22   -1    0    0    0    0 -0.00000000000E+00 -0.00000000000E+00 -0.96467143064E+03  0.96467143064E+03  0.00000000000E+00 0. -1.
         24    2    1    2    0    0  0.45656849928E+02  0.42761974205E+01 -0.67091388222E+03  0.67732020245E+03  0.80835545864E+02 0.  0.
         25    2    1    2    0    0 -0.77694190001E+02  0.63270343311E+02 -0.18182315934E+03  0.24237701496E+03  0.12508969825E+03 0.  0.
        -24    2    1    2    0    0  0.32037340074E+02 -0.67546540732E+02 -0.40281695737E+02  0.11662690656E+03  0.79939314479E+02 0.  0.
        -11    1    3    3    0    0  0.46302045006E+02  0.36085328742E+02 -0.35651435062E+03  0.36131497688E+03  0.00000000000E+00 0.  1.
         12    1    3    3    0    0 -0.64519507836E+00 -0.31809131321E+02 -0.31439953160E+03  0.31600522556E+03  0.00000000000E+00 0. -1.
         11    1    5    5    0    0  0.48076040343E+02 -0.23105417963E+02  0.17802643703E+01  0.53369797972E+02  0.00000000000E+00 0. -1.
        -12    1    5    5    0    0 -0.16038700270E+02 -0.44441122769E+02 -0.42061960107E+02  0.63257108591E+02  0.00000000000E+00 0.  1.
          5    1    4    4  501    0  0.27894863379E+01  0.12453364635E+02  0.17142368952E+02  0.21776150671E+02  0.41800000000E+01 0. -1.
         -5    1    4    4    0  501 -0.80483676339E+02  0.50816978676E+02 -0.19896552829E+03  0.22060086429E+03  0.41800000000E+01 0. -1.
</event>
<event>
11    1  0.9441772E-009  0.1579657E+03  0.7561462E-02  0.1089006E+00
         22   -1    0    0    0    0  0.00000000000E+00  0.00000000000E+00  0.20914171646E+03  0.20914171646E+03  0.00000000000E+00 0.  1.
         22   -1    0    0    0    0 -0.00000000000E+00 -0.00000000000E+00 -0.16472527756E+04  0.16472527756E+04  0.00000000000E+00 0. -1.
        -24    2    1    2    0    0  0.28051474336E+02 -0.57294761738E+02 -0.10965011571E+04  0.11013169248E+04  0.80713111997E+02 0.  0.
         25    2    1    2    0    0 -0.36139033051E+02  0.15122114152E+03 -0.50932520698E+03  0.54702240370E+03  0.12508988901E+03 0.  0.
         24    2    1    2    0    0  0.80875587147E+01 -0.93926379785E+02  0.16771530493E+03  0.20805516353E+03  0.79189356227E+02 0.  0.
        -11    1    5    5    0    0  0.32331704159E+02 -0.93310428191E+02  0.13813067577E+03  0.16980064397E+03  0.00000000000E+00 0.  1.
         12    1    5    5    0    0 -0.24244145444E+02 -0.61595159447E+00  0.29584629157E+02  0.38254519564E+02  0.00000000000E+00 0. -1.
         11    1    3    3    0    0  0.80565842057E+01 -0.30176675148E+02 -0.96701023210E+03  0.96751451113E+03  0.00000000000E+00 0. -1.
        -12    1    3    3    0    0  0.19994890130E+02 -0.27118086589E+02 -0.12949092500E+03  0.13380241369E+03  0.00000000000E+00 0.  1.
          5    1    4    4  501    0  0.16852575669E+02  0.13594597222E+03 -0.42161506763E+03  0.44333063770E+03  0.41800000000E+01 0. -1.
         -5    1    4    4    0  501 -0.52991608719E+02  0.15275169301E+02 -0.87710139347E+02  0.10369176600E+03  0.41800000000E+01 0. -1.
</event>
<event>
11    1  0.8551154E-009  0.1306623E+03  0.7561462E-02  0.1118458E+00
         22   -1    0    0    0    0  0.00000000000E+00  0.00000000000E+00  0.49817966333E+03  0.49817966333E+03  0.00000000000E+00 0.  1.
         22   -1    0    0    0    0 -0.00000000000E+00 -0.00000000000E+00 -0.69083454281E+03  0.69083454281E+03  0.00000000000E+00 0.  1.
        -24    2    1    2    0    0  0.12449078548E+02 -0.75477670351E+01 -0.65041568951E+03  0.65547668309E+03  0.79982276584E+02 0.  0.
         25    2    1    2    0    0  0.20179415204E+01 -0.29216177572E+02  0.96778648910E+02  0.16084731684E+03  0.12509234721E+03 0.  0.
         24    2    1    2    0    0 -0.14467020068E+02  0.36763944607E+02  0.36098216112E+03  0.37269020621E+03  0.83839053340E+02 0.  0.
        -13    1    5    5    0    0 -0.45843880362E+02  0.38354976991E+02  0.26652486877E+03  0.27314514695E+03  0.00000000000E+00 0.  1.
         14    1    5    5    0    0  0.31376860294E+02 -0.15910323836E+01  0.94457292351E+02  0.99545059266E+02  0.00000000000E+00 0. -1.
         13    1    3    3    0    0  0.29341398430E+02  0.82090500407E+01 -0.99116109070E+02  0.10369334232E+03  0.00000000000E+00 0. -1.
        -14    1    3    3    0    0 -0.16892319882E+02 -0.15756817076E+02 -0.55129958044E+03  0.55178334077E+03  0.00000000000E+00 0.  1.
          5    1    4    4  501    0 -0.15539865834E+02  0.44837822998E+02  0.58836533494E+02  0.75704213059E+02  0.41800000000E+01 0.  1.
         -5    1    4    4    0  501  0.17557807354E+02 -0.74054000570E+02  0.37942115416E+02  0.85143103783E+02  0.41800000000E+01 0.  1.
</event>
<event>
11    1  0.8551154E-009  0.1890927E+03  0.7561462E-02  0.1062516E+00
         22   -1    0    0    0    0  0.00000000000E+00  0.00000000000E+00  0.16329129028E+04  0.16329129028E+04  0.00000000000E+00 0.  1.
         22   -1    0    0    0    0 -0.00000000000E+00 -0.00000000000E+00 -0.49833200788E+03  0.49833200788E+03  0.00000000000E+00 0.  1.
         24    2    1    2    0    0 -0.75905427425E+00  0.95601015832E+01 -0.45808317610E+03  0.46515052746E+03  0.80205020158E+02 0.  0.
         25    2    1    2    0    0 -0.96914157723E+02 -0.11115601529E+03  0.26279896107E+03  0.32628339117E+03  0.12509813633E+03 0.  0.
        -24    2    1    2    0    0  0.97673211998E+02  0.10159591371E+03  0.13298651100E+04  0.13398109921E+04  0.81795462562E+02 0.  0.
        -13    1    3    3    0    0  0.57526910341E+01  0.38654052033E-01 -0.45213578564E+03  0.45217238262E+03  0.00000000000E+00 0.  1.
         14    1    3    3    0    0 -0.65117453084E+01  0.95214475311E+01 -0.59473904622E+01  0.12978144835E+02  0.00000000000E+00 0. -1.
         11    1    5    5    0    0  0.10383718971E+02  0.30841413812E+02  0.10816025250E+03  0.11294978816E+03  0.00000000000E+00 0. -1.
        -12    1    5    5    0    0  0.87289493026E+02  0.70754499896E+02  0.12217048575E+04  0.12268612039E+04  0.00000000000E+00 0.  1.
          5    1    4    4  501    0 -0.28137170296E+02 -0.97390710512E+02  0.22425862093E+03  0.24614234156E+03  0.41800000000E+01 0. -1.
         -5    1    4    4    0  501 -0.68776987427E+02 -0.13765304779E+02  0.38540340139E+02  0.80141049614E+02  0.41800000000E+01 0. -1.
</event>
<event>
11    1  0.8551154E-009  0.1431106E+03  0.7561462E-02  0.1104134E+00
         22   -1    0    0    0    0  0.00000000000E+00  0.00000000000E+00  0.35162158763E+03  0.35162158763E+03  0.00000000000E+00 0. -1.
         22   -1    0    0    0    0 -0.00000000000E+00 -0.00000000000E+00 -0.36141684082E+03  0.36141684082E+03  0.00000000000E+00 0. -1.
         24    2    1    2    0    0 -0.22719621163E+02  0.16066819653E+02 -0.27840197766E+03  0.29101936953E+03  0.80064276678E+02 0.  0.
         25    2    1    2    0    0  0.63910630993E+02  0.39707441698E+02  0.14702439770E+02  0.14671208544E+03  0.12508806737E+03 0.  0.
        -24    2    1    2    0    0 -0.41191009831E+02 -0.55774261352E+02  0.25390428470E+03  0.27530697348E+03  0.80740797255E+02 0.  0.
        -13    1    3    3    0    0  0.18274990967E+02 -0.21477379375E+02 -0.73933501255E+02  0.79129107966E+02  0.00000000000E+00 0.  1.
         14    1    3    3    0    0 -0.40994612130E+02  0.37544199028E+02 -0.20446847640E+03  0.21189026156E+03  0.00000000000E+00 0. -1.
         11    1    5    5    0    0 -0.54393739990E+02 -0.35077110191E+02  0.23654494134E+03  0.24523986601E+03  0.00000000000E+00 0. -1.
        -12    1    5    5    0    0  0.13202730159E+02 -0.20697151161E+02  0.17359343359E+02  0.30067107471E+02  0.00000000000E+00 0.  1.
          5    1    4    4  501    0  0.62543942409E+02  0.12135266836E+02  0.63781282409E+02  0.90247070972E+02  0.41800000000E+01 0. -1.
         -5    1    4    4    0  501  0.13666885840E+01  0.27572174862E+02 -0.49078842639E+02  0.56465014470E+02  0.41800000000E+01 0. -1.
</event>
<event>
11    1  0.8551154E-009  0.1377913E+03  0.7561462E-02  0.1110050E+00
         22   -1    0    0    0    0  0.00000000000E+00  0.00000000000E+00  0.15187481448E+04  0.15187481448E+04  0.00000000000E+00 0. -1.
         22   -1    0    0    0    0 -0.00000000000E+00 -0.00000000000E+00 -0.55194866780E+03  0.55194866780E+03  0.00000000000E+00 0. -1.
        -24    2    1    2    0    0 -0.75932382230E+01 -0.15239816138E+02 -0.43414695150E+03  0.44313319399E+03  0.87140936764E+02 0.  0.
         25    2    1    2    0    0  0.34453296961E+02 -0.36099922921E+02 -0.71037829627E+02  0.15225869675E+03  0.12508438509E+03 0.  0.
         24    2    1    2    0    0 -0.26860058738E+02  0.51339739059E+02  0.14719842582E+04  0.14753049219E+04  0.80185564460E+02 0.  0.
        -13    1    5    5    0    0 -0.99685128756E+01  0.30410027806E+02  0.16672363099E+03  0.16976722349E+03  0.00000000000E+00 0.  1.
         14    1    5    5    0    0 -0.16891545862E+02  0.20929711252E+02  0.13052606272E+04  0.13055376984E+04  0.00000000000E+00 0. -1.
         11    1    3    3    0    0 -0.37181740616E+02 -0.21748677521E+02 -0.11941668676E+03  0.12694814645E+03  0.00000000000E+00 0. -1.
        -12    1    3    3    0    0  0.29588502393E+02  0.65088613828E+01 -0.31473026474E+03  0.31618504755E+03  0.00000000000E+00 0.  1.
          5    1    4    4  501    0  0.30221831483E+00 -0.79302990583E+02 -0.43430974572E+02  0.90513963583E+02  0.41800000000E+01 0. -1.
         -5    1    4    4    0  501  0.34151078646E+02  0.43203067662E+02 -0.27606855055E+02  0.61744733169E+02  0.41800000000E+01 0. -1.
</event>
<event>
11    1  0.8551154E-009  0.1717494E+03  0.7561462E-02  0.1076519E+00
         22   -1    0    0    0    0  0.00000000000E+00  0.00000000000E+00  0.74953757308E+03  0.74953757308E+03  0.00000000000E+00 0.  1.
         22   -1    0    0    0    0 -0.00000000000E+00 -0.00000000000E+00 -0.21196856873E+03  0.21196856873E+03  0.00000000000E+00 0.  1.
        -24    2    1    2    0    0 -0.11348322724E+03  0.18138311200E+02 -0.13684129247E+03  0.19695746404E+03  0.82820662387E+02 0.  0.
         25    2    1    2    0    0  0.12921179359E+03 -0.60743074139E+02  0.17986358028E+03  0.26150312864E+03  0.12509024790E+03 0.  0.
         24    2    1    2    0    0 -0.15728566347E+02  0.42604762939E+02  0.49454671654E+03  0.50304554913E+03  0.80098789232E+02 0.  0.
        -13    1    5    5    0    0 -0.69127229218E+01  0.54222622614E+02  0.47747028276E+03  0.48058896103E+03  0.00000000000E+00 0.  1.
         14    1    5    5    0    0 -0.88158434253E+01 -0.11617859674E+02  0.17076433781E+02  0.22456588106E+02  0.00000000000E+00 0. -1.
         11    1    3    3    0    0 -0.11085867095E+02  0.33116633256E+02 -0.17718090228E+02  0.39160420948E+02  0.00000000000E+00 0. -1.
        -12    1    3    3    0    0 -0.10239736014E+03 -0.14978322056E+02 -0.11912320225E+03  0.15779704309E+03  0.00000000000E+00 0.  1.
          5    1    4    4  501    0  0.32441054362E+02 -0.28115469960E+02 -0.11426123599E+02  0.44619842667E+02  0.41800000000E+01 0.  1.
         -5    1    4    4    0  501  0.96770739223E+02 -0.32627604179E+02  0.19128970388E+03  0.21688328597E+03  0.41800000000E+01 0.  1.
</event>
<event>
11    1  0.8551154E-009  0.2003630E+03  0.7561462E-02  0.1054267E+00
         22   -1    0    0    0    0  0.00000000000E+00  0.00000000000E+00  0.12250910417E+04  0.12250910417E+04  0.00000000000E+00 0.  1.
         22   -1    0    0    0    0 -0.00000000000E+00 -0.00000000000E+00 -0.13952769805E+04  0.13952769805E+04  0.00000000000E+00 0.  1.
        -24    2    1    2    0    0  0.30143746648E+02 -0.23192886520E+01 -0.13645266159E+04  0.13671379825E+04  0.78862875432E+02 0.  0.
         25    2    1    2    0    0  0.54443131305E+02 -0.13744882554E+03  0.52031440555E+03  0.55518540319E+03  0.12509003596E+03 0.  0.
         24    2    1    2    0    0 -0.84586877953E+02  0.13976811419E+03  0.67402627143E+03  0.69804463655E+03  0.79150706704E+02 0.  0.
        -11    1    5    5    0    0 -0.30393362634E+02  0.95267943974E+02  0.50913233449E+03  0.51885978035E+03  0.00000000000E+00 0.  1.
         12    1    5    5    0    0 -0.54193515319E+02  0.44500170213E+02  0.16489393694E+03  0.17918485620E+03  0.00000000000E+00 0. -1.
         13    1    3    3    0    0  0.57308661804E+01  0.11108027884E+02 -0.32510422597E+02  0.34830427619E+02  0.00000000000E+00 0. -1.
        -14    1    3    3    0    0  0.24412880468E+02 -0.13427316536E+02 -0.13320161933E+04  0.13323075548E+04  0.00000000000E+00 0.  1.
          5    1    4    4  501    0 -0.29323370339E+02 -0.13893922217E+02  0.37308515003E+02  0.49621555944E+02  0.41800000000E+01 0. -1.
         -5    1    4    4    0  501  0.83766501644E+02 -0.12355490332E+03  0.48300589055E+03  0.50556384724E+03  0.41800000000E+01 0. -1.
</event>
<event>
11    1  0.8551154E-009  0.1701550E+03  0.7561462E-02  0.1077897E+00
         22   -1    0    0    0    0  0.00000000000E+00  0.00000000000E+00  0.97094355350E+03  0.97094355350E+03  0.00000000000E+00 0. -1.
         22   -1    0    0    0    0 -0.00000000000E+00 -0.00000000000E+00 -0.83162397907E+02  0.83162397907E+02  0.00000000000E+00 0. -1.
         24    2    1    2    0    0 -0.90177722910E+02  0.68738969237E+02  0.34766809024E+02  0.14364719299E+03  0.81047624535E+02 0.  0.
         25    2    1    2    0    0  0.10445505162E+03 -0.63638697878E+02  0.26837427500E+03  0.32036375128E+03  0.12508972770E+03 0.  0.
        -24    2    1    2    0    0 -0.14277328715E+02 -0.51002713592E+01  0.58464007157E+03  0.59009500714E+03  0.78601840191E+02 0.  0.
        -13    1    3    3    0    0 -0.60031408230E+02  0.28296606486E+02  0.57974920361E+02  0.88122410904E+02  0.00000000000E+00 0.  1.
         14    1    3    3    0    0 -0.30146314680E+02  0.40442362751E+02 -0.23208111337E+02  0.55524782084E+02  0.00000000000E+00 0. -1.
         13    1    5    5    0    0  0.13069855342E+02  0.31642841383E+02  0.25508126118E+03  0.25736849134E+03  0.00000000000E+00 0. -1.
        -14    1    5    5    0    0 -0.27347184057E+02 -0.36743112742E+02  0.32955881039E+03  0.33272651580E+03  0.00000000000E+00 0.  1.
          5    1    4    4  501    0  0.77547722632E+02  0.25496921593E+02  0.12719758603E+03  0.15119669503E+03  0.41800000000E+01 0. -1.
         -5    1    4    4    0  501  0.26907328992E+02 -0.89135619471E+02  0.14117668897E+03  0.16916705625E+03  0.41800000000E+01 0. -1.
</event>
<event>
11    1  0.8551154E-009  0.1310751E+03  0.7561462E-02  0.1117955E+00
         22   -1    0    0    0    0  0.00000000000E+00  0.00000000000E+00  0.87951545590E+02  0.87951545590E+02  0.00000000000E+00 0.  1.
         22   -1    0    0    0    0 -0.00000000000E+00 -0.00000000000E+00 -0.13484336828E+04  0.13484336828E+04  0.00000000000E+00 0.  1.
         24    2    1    2    0    0 -0.33908706604E+02  0.12849694683E+02 -0.11692349036E+04  0.11724779391E+04  0.79242305436E+02 0.  0.
         25    2    1    2    0    0  0.14594689228E+02  0.27116703837E+02 -0.11027149777E+03  0.16957265902E+03  0.12508702126E+03 0.  0.
        -24    2    1    2    0    0  0.19314017376E+02 -0.39966398520E+02  0.19024264118E+02  0.94334630255E+02  0.81035520374E+02 0.  0.
        -11    1    3    3    0    0 -0.22611637676E+02  0.34614537454E+02 -0.10465461397E+04  0.10473625327E+04  0.00000000000E+00 0.  1.
         12    1    3    3    0    0 -0.11297068928E+02 -0.21764842771E+02 -0.12268876383E+03  0.12511540639E+03  0.00000000000E+00 0. -1.
         13    1    5    5    0    0  0.16184065731E+02  0.16364540710E+02 -0.15907483414E+02  0.27978030753E+02  0.00000000000E+00 0. -1.
        -14    1    5    5    0    0  0.31299516449E+01 -0.56330939230E+02  0.34931747532E+02  0.66356599502E+02  0.00000000000E+00 0.  1.
          5    1    4    4  501    0 -0.14542932190E+02 -0.36346967499E+02 -0.46410713005E+00  0.39373680530E+02  0.41800000000E+01 0.  1.
         -5    1    4    4    0  501  0.29137621418E+02  0.63463671337E+02 -0.10980739064E+03  0.13019897849E+03  0.41800000000E+01 0.  1.
</event>
<event>
11    1  0.8551154E-009  0.1354192E+03  0.7561462E-02  0.1112784E+00
         22   -1    0    0    0    0  0.00000000000E+00  0.00000000000E+00  0.27001876900E+04  0.27001876900E+04  0.00000000000E+00 0.  1.
         22   -1    0    0    0    0 -0.00000000000E+00 -0.00000000000E+00 -0.12818262806E+03  0.12818262806E+03  0.00000000000E+00 0. -1.
         24    2    1    2    0    0  0.45648202260E+02  0.25449270376E+02 -0.93653615059E+02  0.13710403317E+03  0.85411314037E+02 0.  0.
         25    2    1    2    0    0 -0.19272144656E+02 -0.55679414844E+02  0.39054911177E+03  0.41430357862E+03  0.12508890339E+03 0.  0.
        -24    2    1    2    0    0 -0.26376057604E+02  0.30230144468E+02  0.22751095652E+04  0.22769627062E+04  0.82620057382E+02 0.  0.
        -13    1    3    3    0    0 -0.97150287952E+01 -0.22684463626E+02 -0.36720965087E+02  0.44242467736E+02  0.00000000000E+00 0.  1.
         14    1    3    3    0    0  0.55363231055E+02  0.48133734002E+02 -0.56932649973E+02  0.92861565433E+02  0.00000000000E+00 0. -1.
         11    1    5    5    0    0 -0.31667573915E+02 -0.10038083911E+02  0.38900649662E+03  0.39042240302E+03  0.00000000000E+00 0. -1.
        -12    1    5    5    0    0  0.52915163113E+01  0.40268228379E+02  0.18861030686E+04  0.18865403032E+04  0.00000000000E+00 0.  1.
          5    1    4    4  501    0  0.35207898204E+01  0.34092494274E+02  0.19319649869E+03  0.19625762057E+03  0.41800000000E+01 0.  1.
         -5    1    4    4    0  501 -0.22792934477E+02 -0.89771909118E+02  0.19735261308E+03  0.21804595804E+03  0.41800000000E+01 0.  1.
</event>
<event>
11    1  0.8551154E-009  0.1744520E+03  0.7561462E-02  0.1074221E+00
         22   -1    0    0    0    0  0.00000000000E+00  0.00000000000E+00  0.57616657467E+03  0.57616657467E+03  0.00000000000E+00 0.  1.
         22   -1    0    0    0    0 -0.00000000000E+00 -0.00000000000E+00 -0.58622973305E+03  0.58622973305E+03  0.00000000000E+00 0.  1.
         24    2    1    2    0    0 -0.79678222989E+02 -0.90086846194E+02 -0.49095098754E+03  0.51033198921E+03  0.70296571513E+02 0.  0.
         25    2    1    2    0    0  0.11230236319E+03  0.82289217602E+02  0.26253415953E+02  0.18899935400E+03  0.12509267704E+03 0.  0.
        -24    2    1    2    0    0 -0.32624140206E+02  0.77976285919E+01  0.45463441321E+03  0.46306496452E+03  0.81311586833E+02 0.  0.
        -11    1    3    3    0    0 -0.30272945365E+02  0.36796592894E+01 -0.72191311762E+02  0.78368211715E+02  0.00000000000E+00 0.  1.
         12    1    3    3    0    0 -0.49405277623E+02 -0.93766505484E+02 -0.41875967578E+03  0.43196377749E+03  0.00000000000E+00 0. -1.
         11    1    5    5    0    0  0.64852721568E+01 -0.30839357396E+02  0.12708766768E+03  0.13093662588E+03  0.00000000000E+00 0. -1.
        -12    1    5    5    0    0 -0.39109412363E+02  0.38636985988E+02  0.32754674552E+03  0.33212833863E+03  0.00000000000E+00 0.  1.
          5    1    4    4  501    0 -0.27642331142E+02  0.11793889101E+02  0.23405446286E+01  0.30432627890E+02  0.41800000000E+01 0.  1.
         -5    1    4    4    0  501  0.13994469434E+03  0.70495328501E+02  0.23912871324E+02  0.15856672611E+03  0.41800000000E+01 0.  1.
</event>
<event>
11    1  0.8551154E-009  0.1344941E+03  0.7561462E-02  0.1113867E+00
         22   -1    0    0    0    0  0.00000000000E+00  0.00000000000E+00  0.88198215302E+03  0.88198215302E+03  0.00000000000E+00 0. -1.
         22   -1    0    0    0    0 -0.00000000000E+00 -0.00000000000E+00 -0.57914405214E+03  0.57914405214E+03  0.00000000000E+00 0.  1.
         24    2    1    2    0    0 -0.30867164847E+02  0.38634989923E+02 -0.55950224467E+03  0.56613324819E+03  0.70842420968E+02 0.  0.
         25    2    1    2    0    0  0.52635975057E+02 -0.14504660775E+02  0.35347994418E+03  0.37891530183E+03  0.12509118261E+03 0.  0.
        -24    2    1    2    0    0 -0.21768810210E+02 -0.24130329148E+02  0.50886040136E+03  0.51607765514E+03  0.79630924782E+02 0.  0.
        -13    1    3    3    0    0 -0.17849930838E+02  0.44156032737E+01 -0.45557146543E+03  0.45594240612E+03  0.00000000000E+00 0.  1.
         14    1    3    3    0    0 -0.13017234009E+02  0.34219386650E+02 -0.10393077923E+03  0.11019084207E+03  0.00000000000E+00 0. -1.
         13    1    5    5    0    0 -0.12711934790E+02 -0.16242979173E+02  0.50164110886E+03  0.50206496567E+03  0.00000000000E+00 0. -1.
        -14    1    5    5    0    0 -0.90568754198E+01 -0.78873499755E+01  0.72192925053E+01  0.14012689474E+02  0.00000000000E+00 0.  1.
          5    1    4    4  501    0 -0.26768465591E+01  0.42234271873E+02  0.52032618961E+02  0.67199442438E+02  0.41800000000E+01 0. -1.
         -5    1    4    4    0  501  0.55312821616E+02 -0.56738932648E+02  0.30144732522E+03  0.31171585939E+03  0.41800000000E+01 0. -1.
</event>
<event>
11    1  0.1200579E-008  0.1717601E+03  0.7561462E-02  0.1076510E+00
         22   -1    0    0    0    0  0.00000000000E+00  0.00000000000E+00  0.81746039873E+03  0.81746039873E+03  0.00000000000E+00 0.  1.
         22   -1    0    0    0    0 -0.00000000000E+00 -0.00000000000E+00 -0.22910207533E+04  0.22910207533E+04  0.00000000000E+00 0.  1.
        -24    2    1    2    0    0 -0.39597455664E+02  0.40116769000E+02 -0.18088042127E+04  0.18116231533E+04  0.83835887035E+02 0.  0.
         25    2    1    2    0    0  0.15606393209E+03 -0.26661481617E+02 -0.45302489295E+03  0.49593005358E+03  0.12509308097E+03 0.  0.
         24    2    1    2    0    0 -0.11646647642E+03 -0.13455287383E+02  0.78826875109E+03  0.80092794516E+03  0.79827717685E+02 0.  0.
        -11    1    5    5    0    0 -0.81006054137E+02  0.18719744826E+02  0.63320100016E+03  0.63863598103E+03  0.00000000000E+00 0.  1.
         12    1    5    5    0    0 -0.35460422286E+02 -0.32175032209E+02  0.15506775093E+03  0.16229196414E+03  0.00000000000E+00 0. -1.
         11    1    3    3    0    0 -0.50242707231E+02  0.18071466160E+01 -0.57970834020E+03  0.58188431420E+03  0.00000000000E+00 0. -1.
        -12    1    3    3    0    0  0.10645251567E+02  0.38309622384E+02 -0.12290958725E+04  0.12297388391E+04  0.00000000000E+00 0.  1.
          5    1    4    4  501    0  0.63098751386E+02 -0.40261202143E+02 -0.34341730494E+03  0.35150438767E+03  0.41800000000E+01 0.  1.
         -5    1    4    4    0  501  0.92965180702E+02  0.13599720526E+02 -0.10960758801E+03  0.14442566590E+03  0.41800000000E+01 0.  1.
</event>
<event>
11    1  0.8551154E-009  0.1354591E+03  0.7561462E-02  0.1112738E+00
         22   -1    0    0    0    0  0.00000000000E+00  0.00000000000E+00  0.17833176713E+03  0.17833176713E+03  0.00000000000E+00 0.  1.
         22   -1    0    0    0    0 -0.00000000000E+00 -0.00000000000E+00 -0.84724225620E+03  0.84724225620E+03  0.00000000000E+00 0.  1.
         24    2    1    2    0    0 -0.42497903875E+02  0.30664739502E+02 -0.75985866774E+03  0.76574548398E+03  0.78959186934E+02 0.  0.
         25    2    1    2    0    0  0.24180414387E+02 -0.39796881767E+02 -0.72649676601E+01  0.13366955929E+03  0.12508511937E+03 0.  0.
        -24    2    1    2    0    0  0.18317489488E+02  0.91321422648E+01  0.98213146330E+02  0.12615898006E+03  0.76494050061E+02 0.  0.
        -13    1    3    3    0    0 -0.63476460178E+02  0.34651477983E+02 -0.63082092233E+03  0.63495277145E+03  0.00000000000E+00 0.  1.
         14    1    3    3    0    0  0.20978556303E+02 -0.39867384814E+01 -0.12903774541E+03  0.13079271252E+03  0.00000000000E+00 0. -1.
         11    1    5    5    0    0  0.32481050139E+02  0.31957482841E+02  0.34942377968E+02  0.57421852162E+02  0.00000000000E+00 0. -1.
        -12    1    5    5    0    0 -0.14163560651E+02 -0.22825340577E+02  0.63270768362E+02  0.68737127900E+02  0.00000000000E+00 0.  1.
          5    1    4    4  501    0 -0.31002237456E+02  0.30523220284E+02  0.16791145488E+01  0.43738970374E+02  0.41800000000E+01 0.  1.
         -5    1    4    4    0  501  0.55182651842E+02 -0.70320102051E+02 -0.89440822089E+01  0.89930588919E+02  0.41800000000E+01 0.  1.
</event>
<event>
11    1  0.8551154E-009  0.1414558E+03  0.7561462E-02  0.1105944E+00
         22   -1    0    0    0    0  0.00000000000E+00  0.00000000000E+00  0.41961877887E+03  0.41961877887E+03  0.00000000000E+00 0.  1.
         22   -1    0    0    0    0 -0.00000000000E+00 -0.00000000000E+00 -0.27637510900E+03  0.27637510900E+03  0.00000000000E+00 0.  1.
         24    2    1    2    0    0  0.16054782573E+02 -0.18422597190E+02 -0.22170791859E+03  0.23698969279E+03  0.80078493953E+02 0.  0.
         25    2    1    2    0    0 -0.63810877320E+02 -0.27257723339E+02  0.10075674715E+03  0.17496895204E+03  0.12508957006E+03 0.  0.
        -24    2    1    2    0    0  0.47756094747E+02  0.45680320529E+02  0.26419484131E+03  0.28403524304E+03  0.80683138530E+02 0.  0.
        -13    1    3    3    0    0 -0.50498676786E+01 -0.13365567947E+02 -0.21320205101E+03  0.21368026143E+03  0.00000000000E+00 0.  1.
         14    1    3    3    0    0  0.21104650252E+02 -0.50570292429E+01 -0.85058675755E+01  0.23309431358E+02  0.00000000000E+00 0. -1.
         13    1    5    5    0    0 -0.20827874261E+02 -0.13328508896E+01  0.45191740045E+02  0.49778210153E+02  0.00000000000E+00 0. -1.
        -14    1    5    5    0    0  0.68583969008E+02  0.47013171419E+02  0.21900310127E+03  0.23425703289E+03  0.00000000000E+00 0.  1.
          5    1    4    4  501    0 -0.93573349269E+02  0.19494050130E+01  0.93640345866E+02  0.13246040407E+03  0.41800000000E+01 0. -1.
         -5    1    4    4    0  501  0.29762471949E+02 -0.29207128352E+02  0.71164012793E+01  0.42508547967E+02  0.41800000000E+01 0. -1.
</event>
<event>
11    1  0.8551154E-009  0.1349135E+03  0.7561462E-02  0.1113375E+00
         22   -1    0    0    0    0  0.00000000000E+00  0.00000000000E+00  0.26855086972E+03  0.26855086972E+03  0.00000000000E+00 0. -1.
         22   -1    0    0    0    0 -0.00000000000E+00 -0.00000000000E+00 -0.13050916056E+04  0.13050916056E+04  0.00000000000E+00 0. -1.
         24    2    1    2    0    0 -0.30120421476E+02  0.39549305917E+02 -0.10174684291E+04  0.10217387636E+04  0.78972840123E+02 0.  0.
         25    2    1    2    0    0  0.52091079081E+02 -0.31598356027E+02 -0.26105056474E+03  0.29581596022E+03  0.12509096028E+03 0.  0.
        -24    2    1    2    0    0 -0.21970657606E+02 -0.79509498907E+01  0.24197825801E+03  0.25608775144E+03  0.80507960389E+02 0.  0.
        -11    1    3    3    0    0 -0.24614794753E+02  0.18723777276E+02 -0.11717466480E+03  0.12118733443E+03  0.00000000000E+00 0.  1.
         12    1    3    3    0    0 -0.55056267228E+01  0.20825528642E+02 -0.90029376433E+03  0.90055142922E+03  0.00000000000E+00 0. -1.
         13    1    5    5    0    0 -0.36646577740E+02  0.23494684144E+02  0.87135611154E+02  0.97404243102E+02  0.00000000000E+00 0. -1.
        -14    1    5    5    0    0  0.14675920134E+02 -0.31445634035E+02  0.15484264686E+03  0.15868350834E+03  0.00000000000E+00 0.  1.
          5    1    4    4  501    0  0.51446231279E+02  0.40816690436E+02 -0.10845953680E+03  0.12686079163E+03  0.41800000000E+01 0.  1.
         -5    1    4    4    0  501  0.64484780224E+00 -0.72415046463E+02 -0.15259102795E+03  0.16895516859E+03  0.41800000000E+01 0.  1.
</event>
<event>
11    1  0.8551154E-009  0.1606571E+03  0.7561462E-02  0.1086461E+00
         22   -1    0    0    0    0  0.00000000000E+00  0.00000000000E+00  0.75745803050E+03  0.75745803050E+03  0.00000000000E+00 0.  1.
         22   -1    0    0    0    0 -0.00000000000E+00 -0.00000000000E+00 -0.17028414508E+04  0.17028414508E+04  0.00000000000E+00 0. -1.
         24    2    1    2    0    0 -0.12727013276E+02  0.99900909373E+02 -0.16590740729E+04  0.16640611948E+04  0.80191720355E+02 0.  0.
         25    2    1    2    0    0  0.92525020990E+02 -0.10280763478E+03  0.21698083100E+03  0.28610009310E+03  0.12506915276E+03 0.  0.
        -24    2    1    2    0    0 -0.79798007714E+02  0.29067254106E+01  0.49670982161E+03  0.51013819342E+03  0.84523123572E+02 0.  0.
        -13    1    3    3    0    0  0.31371964267E+02  0.22888127123E+02 -0.61339787595E+03  0.61462591934E+03  0.00000000000E+00 0.  1.
         14    1    3    3    0    0 -0.44098977544E+02  0.77012782250E+02 -0.10456761970E+04  0.10494352754E+04  0.00000000000E+00 0. -1.
         13    1    5    5    0    0 -0.24892191012E+01 -0.20343112551E+02  0.28992549658E+02  0.35505019021E+02  0.00000000000E+00 0. -1.
        -14    1    5    5    0    0 -0.77308788613E+02  0.23249837961E+02  0.46771727195E+03  0.47463317440E+03  0.00000000000E+00 0.  1.
          5    1    4    4  501    0  0.73785301467E+02 -0.51864449742E+01  0.42943218102E+02  0.85631549706E+02  0.41800000000E+01 0. -1.
         -5    1    4    4    0  501  0.18739719524E+02 -0.97621189809E+02  0.17403761290E+03  0.20046854340E+03  0.41800000000E+01 0. -1.
</event>
<event>
11    1  0.8551154E-009  0.1712569E+03  0.7561462E-02  0.1076943E+00
         22   -1    0    0    0    0  0.00000000000E+00  0.00000000000E+00  0.90398458253E+03  0.90398458253E+03  0.00000000000E+00 0.  1.
         22   -1    0    0    0    0 -0.00000000000E+00 -0.00000000000E+00 -0.17413308232E+03  0.17413308232E+03  0.00000000000E+00 0.  1.
         24    2    1    2    0    0  0.38139104479E+02  0.10272422229E+03 -0.22788886747E+02  0.13790604104E+03  0.80572238777E+02 0.  0.
         25    2    1    2    0    0 -0.54912577721E+02 -0.11617462148E+03 -0.35291637840E+01  0.17937271150E+03  0.12510068251E+03 0.  0.
        -24    2    1    2    0    0  0.16773473242E+02  0.13450399194E+02  0.75616955074E+03  0.76083891231E+03  0.81370746439E+02 0.  0.
        -11    1    3    3    0    0  0.57560991128E+02  0.78028219253E+02 -0.36528852119E+02  0.10361480462E+03  0.00000000000E+00 0.  1.
         12    1    3    3    0    0 -0.19421886649E+02  0.24696003034E+02  0.13739965371E+02  0.34291236421E+02  0.00000000000E+00 0. -1.
         11    1    5    5    0    0 -0.23319524133E+02  0.22788689853E+02  0.16221308345E+03  0.16545757472E+03  0.00000000000E+00 0. -1.
        -12    1    5    5    0    0  0.40092997375E+02 -0.93382906594E+01  0.59395646729E+03  0.59538133759E+03  0.00000000000E+00 0.  1.
          5    1    4    4  501    0 -0.32896465839E+02 -0.13981131824E+03  0.10144687698E+02  0.14404780200E+03  0.41800000000E+01 0. -1.
         -5    1    4    4    0  501 -0.22016111882E+02  0.23636696764E+02 -0.13673851482E+02  0.35324909493E+02  0.41800000000E+01 0. -1.
</event>
<event>
11    1  0.1029139E-008  0.1755230E+03  0.7561462E-02  0.1073323E+00
         22   -1    0    0    0    0  0.00000000000E+00  0.00000000000E+00  0.93762809009E+03  0.93762809009E+03  0.00000000000E+00 0. -1.
         22   -1    0    0    0    0 -0.00000000000E+00 -0.00000000000E+00 -0.17356706323E+04  0.17356706323E+04  0.00000000000E+00 0. -1.
         24    2    1    2    0    0 -0.51028312743E+02  0.62207499311E+02 -0.16372192937E+04  0.16411431208E+04  0.79937886671E+02 0.  0.
         25    2    1    2    0    0  0.53331305171E+02  0.65006707501E+02 -0.26806674661E+02  0.15308729240E+03  0.12508805361E+03 0.  0.
        -24    2    1    2    0    0 -0.23029924281E+01 -0.12721420681E+03  0.86598342611E+03  0.87906830921E+03  0.81517113285E+02 0.  0.
        -11    1    3    3    0    0  0.10911310532E+02  0.19725350885E+02 -0.12210700559E+03  0.12417031441E+03  0.00000000000E+00 0.  1.
         12    1    3    3    0    0 -0.61939623275E+02  0.42482148426E+02 -0.15151122881E+04  0.15169728064E+04  0.00000000000E+00 0. -1.
         11    1    5    5    0    0  0.61982901257E+01 -0.13173032350E+03  0.85166550312E+03  0.86181519257E+03  0.00000000000E+00 0. -1.
        -12    1    5    5    0    0 -0.85012825537E+01  0.45161166871E+01  0.14317922989E+02  0.17253116637E+02  0.00000000000E+00 0.  1.
          5    1    4    4  501    0  0.75981679300E+02 -0.25212704472E+01  0.19469989588E+01  0.76163216837E+02  0.41800000000E+01 0.  1.
         -5    1    4    4    0  501 -0.22650374129E+02  0.67527977948E+02 -0.28753673620E+02  0.76924075559E+02  0.41800000000E+01 0.  1.
</event>
<event>
11    1  0.8551154E-009  0.1682274E+03  0.7561462E-02  0.1079585E+00
         22   -1    0    0    0    0  0.00000000000E+00  0.00000000000E+00  0.18434215656E+04  0.18434215656E+04  0.00000000000E+00 0.  1.
         22   -1    0    0    0    0 -0.00000000000E+00 -0.00000000000E+00 -0.40909251673E+03  0.40909251673E+03  0.00000000000E+00 0. -1.
        -24    2    1    2    0    0 -0.27805156469E+02  0.16950766041E+02 -0.33677348827E+03  0.34818887882E+03  0.82211056015E+02 0.  0.
         25    2    1    2    0    0  0.13394282519E+03  0.17567135748E+02  0.68760900847E+02  0.19653443930E+03  0.12509372354E+03 0.  0.
         24    2    1    2    0    0 -0.10613766872E+03 -0.34517901789E+02  0.17023416363E+04  0.17077907642E+04  0.78265940031E+02 0.  0.
        -11    1    5    5    0    0 -0.10053341950E+03 -0.38841188346E+02  0.16909373776E+04  0.16943685613E+04  0.00000000000E+00 0.  1.
         12    1    5    5    0    0 -0.56042492202E+01  0.43232865575E+01  0.11404258679E+02  0.13422202949E+02  0.00000000000E+00 0. -1.
         13    1    3    3    0    0 -0.52078020743E+02 -0.70654965785E+01 -0.23622475890E+03  0.24200036819E+03  0.00000000000E+00 0. -1.
        -14    1    3    3    0    0  0.24272864274E+02  0.24016262620E+02 -0.10054872937E+03  0.10618851062E+03  0.00000000000E+00 0.  1.
          5    1    4    4  501    0  0.13474327700E+03 -0.12958642497E+02  0.86765691197E+02  0.16083977953E+03  0.41800000000E+01 0. -1.
         -5    1    4    4    0  501 -0.80045180670E+00  0.30525778245E+02 -0.18004790350E+02  0.35694659770E+02  0.41800000000E+01 0. -1.
</event>
<event>
11    1  0.8551154E-009  0.1624215E+03  0.7561462E-02  0.1084822E+00
         22   -1    0    0    0    0  0.00000000000E+00  0.00000000000E+00  0.11283363256E+04  0.11283363256E+04  0.00000000000E+00 0. -1.
         22   -1    0    0    0    0 -0.00000000000E+00 -0.00000000000E+00 -0.32287630997E+03  0.32287630997E+03  0.00000000000E+00 0. -1.
         24    2    1    2    0    0 -0.95403181276E+02  0.33361624265E+02 -0.24185408612E+03  0.27403992593E+03  0.79935705781E+02 0.  0.
         25    2    1    2    0    0  0.14365406581E+03  0.33174417893E+02  0.90347027163E+02  0.21341715628E+03  0.12508902690E+03 0.  0.
        -24    2    1    2    0    0 -0.48250884533E+02 -0.66536042158E+02  0.95696707462E+03  0.96375555341E+03  0.79269111574E+02 0.  0.
        -11    1    3    3    0    0 -0.14863104442E+02 -0.21262138600E+02 -0.90122541140E+02  0.93781996316E+02  0.00000000000E+00 0.  1.
         12    1    3    3    0    0 -0.80540076834E+02  0.54623762866E+02 -0.15173154498E+03  0.18025792961E+03  0.00000000000E+00 0. -1.
         13    1    5    5    0    0 -0.61180149234E+02 -0.25851757664E+02  0.71252390029E+03  0.71561276716E+03  0.00000000000E+00 0. -1.
        -14    1    5    5    0    0  0.12929264701E+02 -0.40684284494E+02  0.24444317433E+03  0.24814278625E+03  0.00000000000E+00 0.  1.
          5    1    4    4  501    0  0.10923447907E+02  0.46387736253E+02 -0.68412118237E+01  0.48326166495E+02  0.41800000000E+01 0. -1.
         -5    1    4    4    0  501  0.13273061790E+03 -0.13213318360E+02  0.97188238987E+02  0.16509098978E+03  0.41800000000E+01 0. -1.
</event>
<event>
11    1  0.8551154E-009  0.1404164E+03  0.7561462E-02  0.1107094E+00
         22   -1    0    0    0    0  0.00000000000E+00  0.00000000000E+00  0.30172249756E+03  0.30172249756E+03  0.00000000000E+00 0.  1.
         22   -1    0    0    0    0 -0.00000000000E+00 -0.00000000000E+00 -0.10088548006E+04  0.10088548006E+04  0.00000000000E+00 0. -1.
        -24    2    1    2    0    0 -0.43229802665E+02  0.16373640199E+02 -0.93913814281E+03  0.94368633468E+03  0.80165672582E+02 0.  0.
         25    2    1    2    0    0  0.33505466292E+02 -0.76946649319E+02  0.50291526621E+02  0.15881030215E+03  0.12509225119E+03 0.  0.
         24    2    1    2    0    0  0.97243363729E+01  0.60573009120E+02  0.18171431316E+03  0.20808066131E+03  0.80708226657E+02 0.  0.
        -13    1    5    5    0    0  0.10272147107E+02  0.80602526230E+02  0.14909813891E+03  0.16980147015E+03  0.00000000000E+00 0.  1.
         14    1    5    5    0    0 -0.54781073389E+00 -0.20029517110E+02  0.32616174256E+02  0.38279191153E+02  0.00000000000E+00 0. -1.
         13    1    3    3    0    0 -0.35051418874E+02  0.41575062679E+02 -0.81189007061E+03  0.81370914617E+03  0.00000000000E+00 0. -1.
        -14    1    3    3    0    0 -0.81783837909E+01 -0.25201422480E+02 -0.12724807219E+03  0.12997718851E+03  0.00000000000E+00 0.  1.
          5    1    4    4  501    0  0.12971458089E+02 -0.88472336211E+02  0.80426095012E+02  0.12033886387E+03  0.41800000000E+01 0.  1.
         -5    1    4    4    0  501  0.20534008203E+02  0.11525686892E+02 -0.30134568390E+02  0.38471438280E+02  0.41800000000E+01 0.  1.
</event>
<event>
11    1  0.8551154E-009  0.1283468E+03  0.7561462E-02  0.1121317E+00
         22   -1    0    0    0    0  0.00000000000E+00  0.00000000000E+00  0.67008178758E+03  0.67008178758E+03  0.00000000000E+00 0. -1.
         22   -1    0    0    0    0 -0.00000000000E+00 -0.00000000000E+00 -0.89614065948E+03  0.89614065948E+03  0.00000000000E+00 0. -1.
         24    2    1    2    0    0 -0.23562406230E+02  0.16314127882E+02 -0.85413788310E+03  0.85846185330E+03  0.81141188580E+02 0.  0.
         25    2    1    2    0    0  0.32640488467E+02 -0.10255322117E+02  0.77094810404E+02  0.15086891855E+03  0.12508895904E+03 0.  0.
        -24    2    1    2    0    0 -0.90780822376E+01 -0.60588057650E+01  0.55098420079E+03  0.55689167520E+03  0.80160013002E+02 0.  0.
        -13    1    3    3    0    0 -0.50510286368E+02 -0.62345555849E+01 -0.49554707286E+03  0.49815365113E+03  0.00000000000E+00 0.  1.
         14    1    3    3    0    0  0.26947880139E+02  0.22548683467E+02 -0.35859081024E+03  0.36030820218E+03  0.00000000000E+00 0. -1.
         11    1    5    5    0    0 -0.15270251580E+02 -0.28724791428E+02  0.49640269638E+03  0.49746751773E+03  0.00000000000E+00 0. -1.
        -12    1    5    5    0    0  0.61921693427E+01  0.22665985663E+02  0.54581504410E+02  0.59424157469E+02  0.00000000000E+00 0.  1.
          5    1    4    4  501    0  0.42119689481E+02 -0.62961716861E+02  0.42176694232E+02  0.86802027444E+02  0.41800000000E+01 0.  1.
         -5    1    4    4    0  501 -0.94792010143E+01  0.52706394744E+02  0.34918116172E+02  0.64066891104E+02  0.41800000000E+01 0.  1.
</event>
<event>
11    1  0.8551154E-009  0.1345912E+03  0.7561462E-02  0.1113753E+00
         22   -1    0    0    0    0  0.00000000000E+00  0.00000000000E+00  0.34500818660E+03  0.34500818660E+03  0.00000000000E+00 0. -1.
         22   -1    0    0    0    0 -0.00000000000E+00 -0.00000000000E+00 -0.46964826244E+03  0.46964826244E+03  0.00000000000E+00 0. -1.
        -24    2    1    2    0    0  0.53034799631E+02 -0.33521425038E+01 -0.41721667176E+03  0.42781475421E+03  0.78305720692E+02 0.  0.
         25    2    1    2    0    0 -0.42208653474E+02 -0.47102754354E+02  0.10399063382E+03  0.17453205376E+03  0.12508855252E+03 0.  0.
         24    2    1    2    0    0 -0.10826146157E+02  0.50454896858E+02  0.18858596211E+03  0.21230964106E+03  0.82751534881E+02 0.  0.
        -11    1    5    5    0    0  0.34480803886E+01  0.35975853619E+01 -0.81580741926E+01  0.95596052918E+01  0.00000000000E+00 0.  1.
         12    1    5    5    0    0 -0.14274226546E+02  0.46857311496E+02  0.19674403630E+03  0.20275003577E+03  0.00000000000E+00 0. -1.
         13    1    3    3    0    0  0.53930192979E+02 -0.77615645419E+01 -0.41932205092E+03  0.42284712366E+03  0.00000000000E+00 0. -1.
        -14    1    3    3    0    0 -0.89539334828E+00  0.44094220380E+01  0.21053791540E+01  0.49676305559E+01  0.00000000000E+00 0.  1.
          5    1    4    4  501    0 -0.18544664571E+02  0.29854651953E+02  0.84463136791E+02  0.91578920630E+02  0.41800000000E+01 0. -1.
         -5    1    4    4    0  501 -0.23663988903E+02 -0.76957406307E+02  0.19527497034E+02  0.82953133134E+02  0.41800000000E+01 0. -1.
</event>
<event>
11    1  0.8551154E-009  0.1434715E+03  0.7561462E-02  0.1103743E+00
         22   -1    0    0    0    0  0.00000000000E+00  0.00000000000E+00  0.22993684732E+03  0.22993684732E+03  0.00000000000E+00 0. -1.
         22   -1    0    0    0    0 -0.00000000000E+00 -0.00000000000E+00 -0.49528066229E+03  0.49528066229E+03  0.00000000000E+00 0. -1.
        -24    2    1    2    0    0 -0.12216417115E+02  0.70429977141E+02 -0.41831951646E+03  0.43199413133E+03  0.80734683551E+02 0.  0.
         25    2    1    2    0    0 -0.14005125939E+02 -0.57898960309E+02  0.29835256344E+02  0.14172513246E+03  0.12508971777E+03 0.  0.
         24    2    1    2    0    0  0.26221543054E+02 -0.12531016832E+02  0.12314044514E+03  0.15149824582E+03  0.83327987808E+02 0.  0.
        -11    1    5    5    0    0 -0.21681587533E+02  0.17969422850E+02  0.61758798527E+02  0.67875920554E+02  0.00000000000E+00 0.  1.
         12    1    5    5    0    0  0.47903130587E+02 -0.30500439683E+02  0.61381646616E+02  0.83622325261E+02  0.00000000000E+00 0. -1.
         13    1    3    3    0    0  0.25577893648E+02  0.59728561114E+02 -0.31092778651E+03  0.31764416897E+03  0.00000000000E+00 0. -1.
        -14    1    3    3    0    0 -0.37794310763E+02  0.10701416026E+02 -0.10739172995E+03  0.11434996236E+03  0.00000000000E+00 0.  1.
          5    1    4    4  501    0 -0.52110733252E+02 -0.71164790183E+02 -0.47321466966E+01  0.88429754575E+02  0.41800000000E+01 0.  1.
         -5    1    4    4    0  501  0.38105607313E+02  0.13265829874E+02  0.34567403040E+02  0.53295377885E+02  0.41800000000E+01 0.  1.
</event>
<event>
11    1  0.8551154E-009  0.1302939E+03  0.7561462E-02  0.1118908E+00
         22   -1    0    0    0    0  0.00000000000E+00  0.00000000000E+00  0.63611492271E+03  0.63611492271E+03  0.00000000000E+00 0. -1.
         22   -1    0    0    0    0 -0.00000000000E+00 -0.00000000000E+00 -0.28506490273E+03  0.28506490273E+03  0.00000000000E+00 0.  1.
        -24    2    1    2    0    0  0.36042054316E+02  0.35915019716E+01 -0.21986831249E+03  0.23662305762E+03  0.79601934601E+02 0.  0.
         25    2    1    2    0    0 -0.39275810780E+02  0.56275218962E+01  0.25387470515E+02  0.13366597007E+03  0.12509120505E+03 0.  0.
         24    2    1    2    0    0  0.32337564646E+01 -0.92190238679E+01  0.54553086196E+03  0.55089079775E+03  0.76034874341E+02 0.  0.
        -11    1    5    5    0    0  0.25295467718E+02  0.24638541286E+02  0.21200011591E+03  0.21492084019E+03  0.00000000000E+00 0.  1.
         12    1    5    5    0    0 -0.22061711254E+02 -0.33857565154E+02  0.33353074605E+03  0.33596995756E+03  0.00000000000E+00 0. -1.
         11    1    3    3    0    0 -0.12418702481E+02  0.29839810319E+02 -0.78760488699E+02  0.85134323462E+02  0.00000000000E+00 0. -1.
        -12    1    3    3    0    0  0.48460756797E+02 -0.26248308347E+02 -0.14110782380E+03  0.15148873416E+03  0.00000000000E+00 0.  1.
          5    1    4    4  501    0 -0.41681599689E+02 -0.52019138387E+02  0.34387429862E+02  0.75121995738E+02  0.41800000000E+01 0.  1.
         -5    1    4    4    0  501  0.24057889086E+01  0.57646660283E+02 -0.89999593465E+01  0.58543974329E+02  0.41800000000E+01 0.  1.
</event>
<event>
11    1  0.8551154E-009  0.1400403E+03  0.7561462E-02  0.1107513E+00
         22   -1    0    0    0    0  0.00000000000E+00  0.00000000000E+00  0.26639850010E+03  0.26639850010E+03  0.00000000000E+00 0. -1.
         22   -1    0    0    0    0 -0.00000000000E+00 -0.00000000000E+00 -0.10075032996E+04  0.10075032996E+04  0.00000000000E+00 0.  1.
         24    2    1    2    0    0  0.47660898644E+02 -0.39690833335E+02 -0.91463594366E+03  0.92021027088E+03  0.79881848337E+02 0.  0.
         25    2    1    2    0    0 -0.42052852662E+02  0.89280323592E+02  0.56130838645E+00  0.15933197141E+03  0.12508774301E+03 0.  0.
        -24    2    1    2    0    0 -0.56080459819E+01 -0.49589490257E+02  0.17296983579E+03  0.19435955738E+03  0.73256438127E+02 0.  0.
        -11    1    3    3    0    0  0.52375953015E+01 -0.18384245583E+02 -0.70529267751E+03  0.70555168048E+03  0.00000000000E+00 0.  1.
         12    1    3    3    0    0  0.42423303343E+02 -0.21306587752E+02 -0.20934326615E+03  0.21465859040E+03  0.00000000000E+00 0. -1.
         11    1    5    5    0    0  0.13194901996E+02  0.34274697900E-01  0.11505423257E+03  0.11580838936E+03  0.00000000000E+00 0. -1.
        -12    1    5    5    0    0 -0.18802947978E+02 -0.49623764955E+02  0.57915603223E+02  0.78551168022E+02  0.00000000000E+00 0.  1.
          5    1    4    4  501    0 -0.41909614677E+02  0.10205105303E+03  0.40188707458E+02  0.11748803273E+03  0.41800000000E+01 0. -1.
         -5    1    4    4    0  501 -0.14323798470E+00 -0.12770729440E+02 -0.39627399072E+02  0.41843938686E+02  0.41800000000E+01 0. -1.
</event>
<event>
11    1  0.8551154E-009  0.5424813E+03  0.7561462E-02  0.9303304E-01
         22   -1    0    0    0    0  0.00000000000E+00  0.00000000000E+00  0.88308869294E+03  0.88308869294E+03  0.00000000000E+00 0.  1.
         22   -1    0    0    0    0 -0.00000000000E+00 -0.00000000000E+00 -0.66289755077E+03  0.66289755077E+03  0.00000000000E+00 0.  1.
        -24    2    1    2    0    0 -0.15982915332E+03  0.11083070176E+03 -0.23070024183E+03  0.31137773176E+03  0.76841964792E+02 0.  0.
         25    2    1    2    0    0  0.60394092562E+03  0.10041034885E+03  0.11929914273E+03  0.63616574334E+03  0.12509071805E+03 0.  0.
         24    2    1    2    0    0 -0.44411177230E+03 -0.21124105060E+03  0.33159224127E+03  0.59844276861E+03  0.79512798235E+02 0.  0.
        -13    1    5    5    0    0 -0.42406907929E+03 -0.20739258318E+03  0.33343771769E+03  0.57795067190E+03  0.00000000000E+00 0.  1.
         14    1    5    5    0    0 -0.20042693004E+02 -0.38484674278E+01 -0.18454764284E+01  0.20492096711E+02  0.00000000000E+00 0. -1.
         13    1    3    3    0    0 -0.85933863871E+02  0.33496717754E+02 -0.15490043370E+03  0.18027979205E+03  0.00000000000E+00 0. -1.
        -14    1    3    3    0    0 -0.73895289452E+02  0.77333984002E+02 -0.75799808128E+02  0.13109793971E+03  0.00000000000E+00 0.  1.
          5    1    4    4  501    0  0.20441078876E+03 -0.39183999336E+01 -0.61479482197E+01  0.20458346484E+03  0.41800000000E+01 0. -1.
         -5    1    4    4    0  501  0.39953013686E+03  0.10432874878E+03  0.12544709095E+03  0.43158227849E+03  0.41800000000E+01 0. -1.
</event>
<event>
11    1  0.8551154E-009  0.1430664E+03  0.7561462E-02  0.1104182E+00
         22   -1    0    0    0    0  0.00000000000E+00  0.00000000000E+00  0.80253091855E+03  0.80253091855E+03  0.00000000000E+00 0.  1.
         22   -1    0    0    0    0 -0.00000000000E+00 -0.00000000000E+00 -0.23009022476E+03  0.23009022476E+03  0.00000000000E+00 0. -1.
        -24    2    1    2    0    0  0.65731514967E+02 -0.24904260172E+02 -0.19825699498E+03  0.22641712017E+03  0.83773635538E+02 0.  0.
         25    2    1    2    0    0 -0.49257081601E+02  0.96049287700E+01  0.31201306658E+03  0.33987964498E+03  0.12508998606E+03 0.  0.
         24    2    1    2    0    0 -0.16474433366E+02  0.15299331402E+02  0.45868462219E+03  0.46632437816E+03  0.81002262553E+02 0.  0.
        -13    1    5    5    0    0 -0.25862491090E+02  0.38359773104E+02  0.39873580877E+03  0.40141074454E+03  0.00000000000E+00 0.  1.
         14    1    5    5    0    0  0.93880577242E+01 -0.23060441702E+02  0.59948813418E+02  0.64913633618E+02  0.00000000000E+00 0. -1.
         11    1    3    3    0    0  0.23475459920E+02 -0.44134876775E+02 -0.15536840084E+03  0.16321251345E+03  0.00000000000E+00 0. -1.
        -12    1    3    3    0    0  0.42256055047E+02  0.19230616603E+02 -0.42888594140E+02  0.63204606718E+02  0.00000000000E+00 0.  1.
          5    1    4    4  501    0 -0.46617466534E+02  0.63999763418E+02  0.16537932967E+03  0.18340379763E+03  0.41800000000E+01 0. -1.
         -5    1    4    4    0  501 -0.26396150670E+01 -0.54394834648E+02  0.14663373691E+03  0.15647584735E+03  0.41800000000E+01 0. -1.
</event>
<event>
11    1  0.8551154E-009  0.1435231E+03  0.7561462E-02  0.1103687E+00
         22   -1    0    0    0    0  0.00000000000E+00  0.00000000000E+00  0.41967274529E+03  0.41967274529E+03  0.00000000000E+00 0. -1.
         22   -1    0    0    0    0 -0.00000000000E+00 -0.00000000000E+00 -0.97587586171E+03  0.97587586171E+03  0.00000000000E+00 0. -1.
        -24    2    1    2    0    0 -0.71483867607E+01  0.56404005044E+01 -0.89898269872E+03  0.90248564788E+03  0.78914754456E+02 0.  0.
         25    2    1    2    0    0 -0.32234826977E+02  0.53827541695E+02  0.64641642235E+01  0.14009078528E+03  0.12508858616E+03 0.  0.
         24    2    1    2    0    0  0.39383213737E+02 -0.59467942199E+02  0.33631541807E+03  0.35297217384E+03  0.79961374405E+02 0.  0.
        -13    1    5    5    0    0  0.45801727994E+02 -0.38192735944E+02  0.10630104883E+03  0.12188681778E+03  0.00000000000E+00 0.  1.
         14    1    5    5    0    0 -0.64185142562E+01 -0.21275206255E+02  0.23001436924E+03  0.23108535606E+03  0.00000000000E+00 0. -1.
         11    1    3    3    0    0 -0.38113527261E+02  0.87382753878E+01 -0.27952292068E+03  0.28224468392E+03  0.00000000000E+00 0. -1.
        -12    1    3    3    0    0  0.30965140501E+02 -0.30978748833E+01 -0.61945977804E+03  0.62024096395E+03  0.00000000000E+00 0.  1.
          5    1    4    4  501    0 -0.78659957794E+02  0.17353286702E+02  0.11843802729E+01  0.80668461472E+02  0.41800000000E+01 0. -1.
         -5    1    4    4    0  501  0.46425130818E+02  0.36474254993E+02  0.52797839505E+01  0.59422323813E+02  0.41800000000E+01 0. -1.
</event>
<event>
11    1  0.8551154E-009  0.1582911E+03  0.7561462E-02  0.1088696E+00
         22   -1    0    0    0    0  0.00000000000E+00  0.00000000000E+00  0.12983257051E+04  0.12983257051E+04  0.00000000000E+00 0.  1.
         22   -1    0    0    0    0 -0.00000000000E+00 -0.00000000000E+00 -0.17395686830E+03  0.17395686830E+03  0.00000000000E+00 0.  1.
        -24    2    1    2    0    0 -0.20790440531E+01  0.97083757092E+01 -0.10594925642E+03  0.13458176528E+03  0.82391939092E+02 0.  0.
         25    2    1    2    0    0 -0.30214796659E+02 -0.10059621943E+03  0.82435359780E+02  0.18296514225E+03  0.12509245155E+03 0.  0.
         24    2    1    2    0    0  0.32293840712E+02  0.90887843722E+02  0.11478827334E+04  0.11547356658E+04  0.80474815990E+02 0.  0.
        -13    1    5    5    0    0  0.24747966319E+02  0.96268907639E+02  0.72842862477E+03  0.73517917938E+03  0.00000000000E+00 0.  1.
         14    1    5    5    0    0  0.75458743937E+01 -0.53810639176E+01  0.41945410864E+03  0.41955648646E+03  0.00000000000E+00 0. -1.
         13    1    3    3    0    0  0.38987746925E+02  0.12163715356E+02 -0.42336720301E+02  0.58825149956E+02  0.00000000000E+00 0. -1.
        -14    1    3    3    0    0 -0.41066790978E+02 -0.24553396471E+01 -0.63612536121E+02  0.75756615327E+02  0.00000000000E+00 0.  1.
          5    1    4    4  501    0 -0.75989424797E+02 -0.74778328825E+02  0.35687744225E+02  0.11250457160E+03  0.41800000000E+01 0. -1.
         -5    1    4    4    0  501  0.45774628138E+02 -0.25817890606E+02  0.46747615555E+02  0.70460570652E+02  0.41800000000E+01 0. -1.
</event>
<event>
11    1  0.8551154E-009  0.1578213E+03  0.7561462E-02  0.1089145E+00
         22   -1    0    0    0    0  0.00000000000E+00  0.00000000000E+00  0.11555947991E+03  0.11555947991E+03  0.00000000000E+00 0. -1.
         22   -1    0    0    0    0 -0.00000000000E+00 -0.00000000000E+00 -0.22416713817E+04  0.22416713817E+04  0.00000000000E+00 0. -1.
         24    2    1    2    0    0 -0.44635854562E+00  0.13808809705E+02 -0.17207846231E+04  0.17226831648E+04  0.79666084326E+02 0.  0.
         25    2    1    2    0    0 -0.47420039140E+02 -0.96291321746E+02 -0.46757610067E+03  0.49577774461E+03  0.12508990117E+03 0.  0.
        -24    2    1    2    0    0  0.47866397685E+02  0.82482512040E+02  0.62248821964E+02  0.13876995214E+03  0.79294558201E+02 0.  0.
        -13    1    3    3    0    0  0.21149922225E+02  0.12656536501E+02 -0.17295221470E+03  0.17469967285E+03  0.00000000000E+00 0.  1.
         14    1    3    3    0    0 -0.21596280771E+02  0.11522732049E+01 -0.15478324084E+04  0.15479834920E+04  0.00000000000E+00 0. -1.
         13    1    5    5    0    0  0.11967363562E+02  0.79343581370E+02  0.64078880720E+02  0.10268750971E+03  0.00000000000E+00 0. -1.
        -14    1    5    5    0    0  0.35899034123E+02  0.31389306703E+01 -0.18300587560E+01  0.36082442431E+02  0.00000000000E+00 0.  1.
          5    1    4    4  501    0 -0.77385969105E+02 -0.92986119946E+02 -0.43352380610E+03  0.45010595372E+03  0.41800000000E+01 0.  1.
         -5    1    4    4    0  501  0.29965929965E+02 -0.33052018004E+01 -0.34052294575E+02  0.45671790894E+02  0.41800000000E+01 0.  1.
</event>
<event>
11    1  0.8551154E-009  0.2268174E+03  0.7561462E-02  0.1037029E+00
         22   -1    0    0    0    0  0.00000000000E+00  0.00000000000E+00  0.10398538374E+03  0.10398538374E+03  0.00000000000E+00 0.  1.
         22   -1    0    0    0    0 -0.00000000000E+00 -0.00000000000E+00 -0.16456900254E+04  0.16456900254E+04  0.00000000000E+00 0.  1.
         24    2    1    2    0    0  0.13126612905E+03  0.83049582892E+02 -0.68787347631E+03  0.70981383144E+03  0.80856205957E+02 0.  0.
         25    2    1    2    0    0  0.16801751475E+02 -0.20987154868E+03 -0.77862972663E+03  0.81623531182E+03  0.12508983678E+03 0.  0.
        -24    2    1    2    0    0 -0.14806788052E+03  0.12682196579E+03 -0.75201438672E+02  0.22362626584E+03  0.79658911263E+02 0.  0.
        -11    1    3    3    0    0  0.12302512745E+03  0.98100293531E+02 -0.60061734540E+03  0.62088649942E+03  0.00000000000E+00 0.  1.
         12    1    3    3    0    0  0.82410016025E+01 -0.15050710639E+02 -0.87256130911E+02  0.88927332017E+02  0.00000000000E+00 0. -1.
         13    1    5    5    0    0 -0.23184818750E+02 -0.10059610356E+02 -0.10445762236E+02  0.27346764519E+02  0.00000000000E+00 0. -1.
        -14    1    5    5    0    0 -0.12488306177E+03  0.13688157615E+03 -0.64755676435E+02  0.19627950132E+03  0.00000000000E+00 0.  1.
          5    1    4    4  501    0  0.39152056681E+02 -0.13968493690E+03 -0.31566190601E+03  0.34742578552E+03  0.41800000000E+01 0. -1.
         -5    1    4    4    0  501 -0.22350305206E+02 -0.70186611785E+02 -0.46296782063E+03  0.46880952630E+03  0.41800000000E+01 0. -1.
</event>
<event>
11    1  0.8551154E-009  0.1550239E+03  0.7561462E-02  0.1091853E+00
         22   -1    0    0    0    0  0.00000000000E+00  0.00000000000E+00  0.23582578366E+03  0.23582578366E+03  0.00000000000E+00 0. -1.
         22   -1    0    0    0    0 -0.00000000000E+00 -0.00000000000E+00 -0.30830434302E+03  0.30830434302E+03  0.00000000000E+00 0.  1.
         24    2    1    2    0    0  0.27240659609E+02 -0.25282638607E+02 -0.11933731242E+03  0.14892156591E+03  0.80962789645E+02 0.  0.
         25    2    1    2    0    0  0.15812451780E+02  0.10461954455E+03 -0.10768580145E+03  0.19606127074E+03  0.12509399393E+03 0.  0.
        -24    2    1    2    0    0 -0.43053111389E+02 -0.79336905945E+02  0.15454455452E+03  0.19914729003E+03  0.87336754862E+02 0.  0.
        -11    1    3    3    0    0  0.45647677185E+02 -0.88643788854E+01 -0.27927243006E+02  0.54242221077E+02  0.00000000000E+00 0.  1.
         12    1    3    3    0    0 -0.18407017576E+02 -0.16418259722E+02 -0.91410069410E+02  0.94679344833E+02  0.00000000000E+00 0. -1.
         11    1    5    5    0    0  0.24520827459E+02 -0.34784418693E+02  0.71333373155E+02  0.83064293706E+02  0.00000000000E+00 0. -1.
        -12    1    5    5    0    0 -0.67573938848E+02 -0.44552487252E+02  0.83211181361E+02  0.11608299632E+03  0.00000000000E+00 0.  1.
          5    1    4    4  501    0 -0.46877329144E+02  0.13257527120E+02 -0.13889260318E+02  0.50829420272E+02  0.41800000000E+01 0. -1.
         -5    1    4    4    0  501  0.62689780925E+02  0.91362017432E+02 -0.93796541136E+02  0.14523185047E+03  0.41800000000E+01 0. -1.
</event>
<event>
11    1  0.8551154E-009  0.1308167E+03  0.7561462E-02  0.1118270E+00
         22   -1    0    0    0    0  0.00000000000E+00  0.00000000000E+00  0.53182601043E+03  0.53182601043E+03  0.00000000000E+00 0.  1.
         22   -1    0    0    0    0 -0.00000000000E+00 -0.00000000000E+00 -0.85013043735E+03  0.85013043735E+03  0.00000000000E+00 0.  1.
        -24    2    1    2    0    0  0.63418419840E+01  0.37562979031E+02 -0.82036868208E+03  0.82510798364E+03  0.79669402985E+02 0.  0.
         25    2    1    2    0    0 -0.43496477628E+01 -0.53082794084E+02  0.18505231322E+03  0.22963001083E+03  0.12509548666E+03 0.  0.
         24    2    1    2    0    0 -0.19921942212E+01  0.15519815053E+02  0.31701194194E+03  0.32721845330E+03  0.79564510628E+02 0.  0.
        -11    1    5    5    0    0  0.21999786301E+02  0.40722397979E+02  0.18310843221E+03  0.18886768448E+03  0.00000000000E+00 0.  1.
         12    1    5    5    0    0 -0.23991980522E+02 -0.25202582926E+02  0.13390350973E+03  0.13835076882E+03  0.00000000000E+00 0. -1.
         13    1    3    3    0    0 -0.21671343518E+02 -0.15257218015E+02 -0.17791598056E+03  0.17987919827E+03  0.00000000000E+00 0. -1.
        -14    1    3    3    0    0  0.28013185502E+02  0.52820197046E+02 -0.64245270152E+03  0.64522878537E+03  0.00000000000E+00 0.  1.
          5    1    4    4  501    0 -0.25194493520E+02 -0.82546705889E+02  0.16920559419E+03  0.18999138576E+03  0.41800000000E+01 0. -1.
         -5    1    4    4    0  501  0.20844845757E+02  0.29463911805E+02  0.15846719027E+02  0.39638625070E+02  0.41800000000E+01 0. -1.
</event>
<event>
11    1  0.8551154E-009  0.3453712E+03  0.7561462E-02  0.9826297E-01
         22   -1    0    0    0    0  0.00000000000E+00  0.00000000000E+00  0.73525869053E+03  0.73525869053E+03  0.00000000000E+00 0. -1.
         22   -1    0    0    0    0 -0.00000000000E+00 -0.00000000000E+00 -0.37158786079E+03  0.37158786079E+03  0.00000000000E+00 0.  1.
        -24    2    1    2    0    0 -0.21426442030E+03  0.24043208744E+03 -0.20696637046E+03  0.39145092372E+03  0.81742991771E+02 0.  0.
         25    2    1    2    0    0  0.24034772143E+03 -0.21564504300E+03  0.43893903027E+03  0.55909383438E+03  0.12509449063E+03 0.  0.
         24    2    1    2    0    0 -0.26083301131E+02 -0.24787044442E+02  0.13169816993E+03  0.15630179322E+03  0.76099319520E+02 0.  0.
        -11    1    5    5    0    0 -0.68517496390E+01 -0.48421609815E+02  0.10483575596E+03  0.11568117607E+03  0.00000000000E+00 0.  1.
         12    1    5    5    0    0 -0.19231551492E+02  0.23634565373E+02  0.26862413969E+02  0.40620617147E+02  0.00000000000E+00 0. -1.
         13    1    3    3    0    0 -0.13043797383E+03  0.14635329593E+03 -0.77555668852E+02  0.21082749824E+03  0.00000000000E+00 0. -1.
        -14    1    3    3    0    0 -0.83826446475E+02  0.94078791514E+02 -0.12941070160E+03  0.18062342548E+03  0.00000000000E+00 0.  1.
          5    1    4    4  501    0  0.59929210335E+02  0.37111664028E+01  0.55252935747E+02  0.81704604008E+02  0.41800000000E+01 0. -1.
         -5    1    4    4    0  501  0.18041851110E+03 -0.21935620940E+03  0.38368609452E+03  0.47738923037E+03  0.41800000000E+01 0. -1.
</event>
<event>
11    1  0.2157890E-008  0.1924842E+03  0.7561462E-02  0.1059969E+00
         22   -1    0    0    0    0  0.00000000000E+00  0.00000000000E+00  0.19142876030E+04  0.19142876030E+04  0.00000000000E+00 0.  1.
         22   -1    0    0    0    0 -0.00000000000E+00 -0.00000000000E+00 -0.28306343551E+03  0.28306343551E+03  0.00000000000E+00 0.  1.
         24    2    1    2    0    0 -0.59073228188E+02  0.78844924799E+01 -0.18290872709E+03  0.20976922103E+03  0.83640373837E+02 0.  0.
         25    2    1    2    0    0  0.20235771909E+03 -0.17435786074E+02  0.89011598525E+02  0.25460431189E+03  0.12509051863E+03 0.  0.
        -24    2    1    2    0    0 -0.14328449090E+03  0.95512935942E+01  0.17251212960E+04  0.17329775056E+04  0.80906589786E+02 0.  0.
        -13    1    3    3    0    0  0.74139114050E+01 -0.29510545109E+01 -0.11081081787E+03  0.11109775948E+03  0.00000000000E+00 0.  1.
         14    1    3    3    0    0 -0.66487139593E+02  0.10835546991E+02 -0.72097909215E+02  0.98671461543E+02  0.00000000000E+00 0. -1.
         11    1    5    5    0    0 -0.59049032792E+02  0.48192780637E+01  0.32775499102E+03  0.33306658171E+03  0.00000000000E+00 0. -1.
        -12    1    5    5    0    0 -0.84235458107E+02  0.47320155305E+01  0.13973663050E+04  0.13999109238E+04  0.00000000000E+00 0.  1.
          5    1    4    4  501    0  0.75392033519E+02  0.16080579769E+02 -0.24482055702E+02  0.80990043926E+02  0.41800000000E+01 0. -1.
         -5    1    4    4    0  501  0.12696568557E+03 -0.33516365843E+02  0.11349365423E+03  0.17361426797E+03  0.41800000000E+01 0. -1.
</event>
<event>
11    1  0.8551154E-009  0.1317753E+03  0.7561462E-02  0.1117107E+00
         22   -1    0    0    0    0  0.00000000000E+00  0.00000000000E+00  0.16422814123E+04  0.16422814123E+04  0.00000000000E+00 0. -1.
         22   -1    0    0    0    0 -0.00000000000E+00 -0.00000000000E+00 -0.65746268638E+03  0.65746268638E+03  0.00000000000E+00 0.  1.
        -24    2    1    2    0    0  0.27146711004E+02 -0.31121333966E+02 -0.53292041900E+03  0.54057129414E+03  0.80670129070E+02 0.  0.
         25    2    1    2    0    0 -0.52672123670E+02 -0.16244794353E+01 -0.80842836206E+02  0.15798823253E+03  0.12509087060E+03 0.  0.
         24    2    1    2    0    0  0.25525412666E+02  0.32745813402E+02  0.15985819811E+04  0.16011845720E+04  0.81264065019E+02 0.  0.
        -13    1    5    5    0    0  0.55687277322E+01 -0.20921198652E+01  0.12885518790E+04  0.12885656105E+04  0.00000000000E+00 0.  1.
         14    1    5    5    0    0  0.19956684934E+02  0.34837933267E+02  0.31003010213E+03  0.31261896151E+03  0.00000000000E+00 0. -1.
         13    1    3    3    0    0  0.33376135663E+02  0.76696914261E+01 -0.41216750529E+03  0.41358776942E+03  0.00000000000E+00 0. -1.
        -14    1    3    3    0    0 -0.62294246586E+01 -0.38791025392E+02 -0.12075291371E+03  0.12698352473E+03  0.00000000000E+00 0.  1.
          5    1    4    4  501    0  0.91239291717E+01 -0.40832572230E+02 -0.73028827812E+02  0.84268779094E+02  0.41800000000E+01 0. -1.
         -5    1    4    4    0  501 -0.61796052842E+02  0.39208092795E+02 -0.78140083939E+01  0.73719453434E+02  0.41800000000E+01 0. -1.
</event>
<event>
11    1  0.8551154E-009  0.1812180E+03  0.7561462E-02  0.1068662E+00
         22   -1    0    0    0    0  0.00000000000E+00  0.00000000000E+00  0.11809552959E+04  0.11809552959E+04  0.00000000000E+00 0.  1.
         22   -1    0    0    0    0 -0.00000000000E+00 -0.00000000000E+00 -0.61711684843E+03  0.61711684843E+03  0.00000000000E+00 0. -1.
         24    2    1    2    0    0  0.43492347721E+00 -0.47259372251E+02 -0.32805814158E+03  0.34152017372E+03  0.82342257534E+02 0.  0.
         25    2    1    2    0    0 -0.12184163945E+03 -0.30868355110E+01 -0.24965018115E+03  0.30468032305E+03  0.12509985072E+03 0.  0.
        -24    2    1    2    0    0  0.12140671597E+03  0.50346207762E+02  0.11415467702E+04  0.11518716475E+04  0.80030822584E+02 0.  0.
        -13    1    3    3    0    0 -0.16731202466E+02 -0.21560269194E+01 -0.95670673445E+01  0.19393565057E+02  0.00000000000E+00 0.  1.
         14    1    3    3    0    0  0.17166125944E+02 -0.45103345332E+02 -0.31849107424E+03  0.32212660867E+03  0.00000000000E+00 0. -1.
         13    1    5    5    0    0 -0.84555243131E+01 -0.43344578723E+01  0.31051691179E+02  0.32472926285E+02  0.00000000000E+00 0. -1.
        -14    1    5    5    0    0  0.12986224029E+03  0.54680665634E+02  0.11104950790E+04  0.11193987212E+04  0.00000000000E+00 0.  1.
          5    1    4    4  501    0 -0.26456670293E+02 -0.66742192638E+01  0.89306892328E+01  0.29012587199E+02  0.41800000000E+01 0.  1.
         -5    1    4    4    0  501 -0.95384969157E+02  0.35873837528E+01 -0.25858087038E+03  0.27566773585E+03  0.41800000000E+01 0.  1.
</event>
<event>
11    1  0.8551154E-009  0.1436681E+03  0.7561462E-02  0.1103530E+00
         22   -1    0    0    0    0  0.00000000000E+00  0.00000000000E+00  0.51812348314E+02  0.51812348314E+02  0.00000000000E+00 0. -1.
         22   -1    0    0    0    0 -0.00000000000E+00 -0.00000000000E+00 -0.19437017087E+04  0.19437017087E+04  0.00000000000E+00 0. -1.
        -24    2    1    2    0    0 -0.41358275007E+02  0.61229948128E+02 -0.16151767820E+04  0.16188957534E+04  0.81042024295E+02 0.  0.
         25    2    1    2    0    0  0.41943283364E+02 -0.21309662955E+02 -0.24923936031E+03  0.28280979142E+03  0.12509108137E+03 0.  0.
         24    2    1    2    0    0 -0.58500835670E+00 -0.39920285173E+02 -0.27473218115E+02  0.93808512270E+02  0.80319909472E+02 0.  0.
        -11    1    5    5    0    0  0.29948513562E+02 -0.31475453616E+02 -0.40649403333E+02  0.59497828836E+02  0.00000000000E+00 0.  1.
         12    1    5    5    0    0 -0.30533521919E+02 -0.84448315578E+01  0.13176185218E+02  0.34310683434E+02  0.00000000000E+00 0. -1.
         11    1    3    3    0    0  0.61199099700E+01  0.55116454653E+02 -0.11308798402E+04  0.11322387071E+04  0.00000000000E+00 0. -1.
        -12    1    3    3    0    0 -0.47478184977E+02  0.61134934754E+01 -0.48429694180E+03  0.48665704628E+03  0.00000000000E+00 0.  1.
          5    1    4    4  501    0 -0.28309865710E+02 -0.46782099999E+02 -0.14029924929E+03  0.15063653318E+03  0.41800000000E+01 0.  1.
         -5    1    4    4    0  501  0.70253149074E+02  0.25472437044E+02 -0.10894011102E+03  0.13217325823E+03  0.41800000000E+01 0.  1.
</event>
<event>
11    1  0.8551154E-009  0.1971633E+03  0.7561462E-02  0.1056548E+00
         22   -1    0    0    0    0  0.00000000000E+00  0.00000000000E+00  0.19517082996E+04  0.19517082996E+04  0.00000000000E+00 0.  1.
         22   -1    0    0    0    0 -0.00000000000E+00 -0.00000000000E+00 -0.65873137911E+02  0.65873137911E+02  0.00000000000E+00 0. -1.
         24    2    1    2    0    0  0.10650233973E+03  0.63108233407E+02  0.23874869744E+03  0.28026931565E+03  0.78895825464E+02 0.  0.
         25    2    1    2    0    0 -0.10162761273E+03 -0.20772382204E+03  0.39567183965E+03  0.47505809999E+03  0.12508651311E+03 0.  0.
        -24    2    1    2    0    0 -0.48747270072E+01  0.14461558864E+03  0.12514146246E+04  0.12622540219E+04  0.79430608800E+02 0.  0.
        -13    1    3    3    0    0 -0.79780966014E+01  0.19519296246E+01  0.53205880109E+02  0.53836100646E+02  0.00000000000E+00 0.  1.
         14    1    3    3    0    0  0.11448043633E+03  0.61156303782E+02  0.18554281733E+03  0.22643321501E+03  0.00000000000E+00 0. -1.
         11    1    5    5    0    0  0.62796806922E+01  0.15826383716E+02  0.34299766547E+02  0.38293377969E+02  0.00000000000E+00 0. -1.
        -12    1    5    5    0    0 -0.11154407699E+02  0.12878920492E+03  0.12171148580E+04  0.12239606439E+04  0.00000000000E+00 0.  1.
          5    1    4    4  501    0  0.87958547409E+01  0.44108020324E+01 -0.21132097268E+01  0.10897719511E+02  0.41800000000E+01 0.  1.
         -5    1    4    4    0  501 -0.11042346747E+03 -0.21213462408E+03  0.39778504937E+03  0.46416038048E+03  0.41800000000E+01 0.  1.
</event>
<event>
11    1  0.8551154E-009  0.1335191E+03  0.7561462E-02  0.1115019E+00
         22   -1    0    0    0    0  0.00000000000E+00  0.00000000000E+00  0.12749159836E+03  0.12749159836E+03  0.00000000000E+00 0. -1.
         22   -1    0    0    0    0 -0.00000000000E+00 -0.00000000000E+00 -0.60395544045E+03  0.60395544045E+03  0.00000000000E+00 0. -1.
         24    2    1    2    0    0  0.20875669557E+02  0.58488128060E+01 -0.34490242221E+03  0.35460206565E+03  0.79466608863E+02 0.  0.
         25    2    1    2    0    0 -0.87767027486E+01  0.40190422453E+02 -0.21399123627E+03  0.25125907728E+03  0.12508626682E+03 0.  0.
        -24    2    1    2    0    0 -0.12098966808E+02 -0.46039235259E+02  0.82429816388E+02  0.12558589588E+03  0.81921587108E+02 0.  0.
        -13    1    3    3    0    0  0.32310942445E+02  0.25739990343E+02 -0.94301165504E+02  0.10295267806E+03  0.00000000000E+00 0.  1.
         14    1    3    3    0    0 -0.11435272888E+02 -0.19891177537E+02 -0.25060125671E+03  0.25164938759E+03  0.00000000000E+00 0. -1.
         11    1    5    5    0    0  0.11328641764E+02 -0.45207640013E+02  0.89663774001E+02  0.10105276447E+03  0.00000000000E+00 0. -1.
        -12    1    5    5    0    0 -0.23427608572E+02 -0.83159524542E+00 -0.72339576123E+01  0.24533131410E+02  0.00000000000E+00 0.  1.
          5    1    4    4  501    0  0.38314041157E+02 -0.92952443534E+01 -0.15781106163E+03  0.16271499897E+03  0.41800000000E+01 0. -1.
         -5    1    4    4    0  501 -0.47090743905E+02  0.49485666806E+02 -0.56180174643E+02  0.88544078310E+02  0.41800000000E+01 0. -1.
</event>
<event>
11    1  0.8551154E-009  0.1454595E+03  0.7561462E-02  0.1101611E+00
         22   -1    0    0    0    0  0.00000000000E+00  0.00000000000E+00  0.27686243030E+03  0.27686243030E+03  0.00000000000E+00 0. -1.
         22   -1    0    0    0    0 -0.00000000000E+00 -0.00000000000E+00 -0.47584920365E+03  0.47584920365E+03  0.00000000000E+00 0.  1.
         24    2    1    2    0    0 -0.11088359370E+01 -0.70045122700E+02 -0.31872462552E+03  0.33610991204E+03  0.80479421745E+02 0.  0.
         25    2    1    2    0    0 -0.84417460810E+01  0.95529050493E+02 -0.95982591300E+02  0.18454909276E+03  0.12509455319E+03 0.  0.
        -24    2    1    2    0    0  0.95505820180E+01 -0.25483927792E+02  0.21572044348E+03  0.23205262915E+03  0.81070763971E+02 0.  0.
        -11    1    3    3    0    0  0.32431946630E+02 -0.65119690055E+02 -0.22208695630E+03  0.23369856943E+03  0.00000000000E+00 0.  1.
         12    1    3    3    0    0 -0.33540782567E+02 -0.49254326450E+01 -0.96637669218E+02  0.10241134260E+03  0.00000000000E+00 0. -1.
         13    1    5    5    0    0 -0.11499120830E+02 -0.39802641776E+02  0.19463736879E+03  0.19899795326E+03  0.00000000000E+00 0. -1.
        -14    1    5    5    0    0  0.21049702848E+02  0.14318713983E+02  0.21083074683E+02  0.33054675890E+02  0.00000000000E+00 0.  1.
          5    1    4    4  501    0 -0.26036882916E+02  0.60259762473E+02 -0.12096845406E+03  0.13769530683E+03  0.41800000000E+01 0.  1.
         -5    1    4    4    0  501  0.17595136835E+02  0.35269288020E+02  0.24985862760E+02  0.46853785925E+02  0.41800000000E+01 0.  1.
</event>
<event>
11    1  0.8551154E-009  0.1334146E+03  0.7561462E-02  0.1115143E+00
         22   -1    0    0    0    0  0.00000000000E+00  0.00000000000E+00  0.29292898207E+04  0.29292898207E+04  0.00000000000E+00 0.  1.
         22   -1    0    0    0    0 -0.00000000000E+00 -0.00000000000E+00 -0.39877472448E+02  0.39877472448E+02  0.00000000000E+00 0. -1.
         24    2    1    2    0    0  0.55560043529E+01 -0.20954541785E+01  0.14262278448E+02  0.81799516332E+02  0.80327381216E+02 0.  0.
         25    2    1    2    0    0  0.37517830096E+02 -0.17848070610E+02  0.86273196778E+03  0.87274244369E+03  0.12508710397E+03 0.  0.
        -24    2    1    2    0    0 -0.43073834448E+02  0.19943524788E+02  0.20124181021E+04  0.20146253332E+04  0.81458677532E+02 0.  0.
        -13    1    3    3    0    0 -0.17994510491E+01 -0.20851016002E+02  0.42346899501E+02  0.47236244450E+02  0.00000000000E+00 0.  1.
         14    1    3    3    0    0  0.73554554020E+01  0.18755561824E+02 -0.28084621053E+02  0.34563271882E+02  0.00000000000E+00 0. -1.
         13    1    5    5    0    0 -0.52367647463E+02  0.50081909733E+01  0.66013058441E+03  0.66222340713E+03  0.00000000000E+00 0. -1.
        -14    1    5    5    0    0  0.92938130149E+01  0.14935333815E+02  0.13522875177E+04  0.13524019260E+04  0.00000000000E+00 0.  1.
          5    1    4    4  501    0  0.13470070192E+02 -0.16097784227E+01  0.82421795405E+03  0.82434018606E+03  0.41800000000E+01 0.  1.
         -5    1    4    4    0  501  0.24047759903E+02 -0.16238292187E+02  0.38514013737E+02  0.48402257630E+02  0.41800000000E+01 0.  1.
</event>
<event>
11    1  0.8551154E-009  0.1504912E+03  0.7561462E-02  0.1096378E+00
         22   -1    0    0    0    0  0.00000000000E+00  0.00000000000E+00  0.85048704076E+03  0.85048704076E+03  0.00000000000E+00 0. -1.
         22   -1    0    0    0    0 -0.00000000000E+00 -0.00000000000E+00 -0.81486157373E+02  0.81486157373E+02  0.00000000000E+00 0. -1.
        -24    2    1    2    0    0  0.24708520959E+02 -0.35611812465E+01 -0.19113481687E+02  0.86430357690E+02  0.80508934463E+02 0.  0.
         25    2    1    2    0    0 -0.95992637641E+02  0.36358359368E+02  0.26858157878E+03  0.31355929538E+03  0.12508737140E+03 0.  0.
         24    2    1    2    0    0  0.71284116682E+02 -0.32797178122E+02  0.51953278630E+03  0.53198354506E+03  0.83277223740E+02 0.  0.
        -11    1    5    5    0    0  0.17908386794E+02  0.22865669577E+02  0.68464662852E+02  0.74370419000E+02  0.00000000000E+00 0.  1.
         12    1    5    5    0    0  0.53375729889E+02 -0.55662847699E+02  0.45106812345E+03  0.45761312606E+03  0.00000000000E+00 0. -1.
         11    1    3    3    0    0  0.37923379560E+02 -0.32200095702E+02 -0.22704782337E+02  0.54685793598E+02  0.00000000000E+00 0. -1.
        -12    1    3    3    0    0 -0.13214858601E+02  0.28638914455E+02  0.35913006505E+01  0.31744564092E+02  0.00000000000E+00 0.  1.
          5    1    4    4  501    0 -0.12333840174E+03  0.33969747772E+02  0.24769998162E+03  0.27881724911E+03  0.41800000000E+01 0.  1.
         -5    1    4    4    0  501  0.27345764095E+02  0.23886115968E+01  0.20881597154E+02  0.34742046270E+02  0.41800000000E+01 0.  1.
</event>
<event>
11    1  0.8551154E-009  0.1590785E+03  0.7561462E-02  0.1087947E+00
         22   -1    0    0    0    0  0.00000000000E+00  0.00000000000E+00  0.12729938188E+04  0.12729938188E+04  0.00000000000E+00 0.  1.
         22   -1    0    0    0    0 -0.00000000000E+00 -0.00000000000E+00 -0.25212218919E+03  0.25212218919E+03  0.00000000000E+00 0.  1.
        -24    2    1    2    0    0  0.96933730028E+02  0.44812837190E+02 -0.19903433327E+03  0.23847663202E+03  0.76499018332E+02 0.  0.
         25    2    1    2    0    0 -0.12936078939E+02 -0.49181357106E+02  0.12026299765E+03  0.18082278000E+03  0.12509013206E+03 0.  0.
         24    2    1    2    0    0 -0.83997651089E+02  0.43685199151E+01  0.10996429653E+04  0.11058165960E+04  0.80876471259E+02 0.  0.
        -11    1    5    5    0    0 -0.87818408661E+02  0.16671477137E+02  0.66474965819E+03  0.67073252427E+03  0.00000000000E+00 0.  1.
         12    1    5    5    0    0  0.38207575714E+01 -0.12302957222E+02  0.43489330708E+03  0.43508407175E+03  0.00000000000E+00 0. -1.
         11    1    3    3    0    0  0.46197070913E+02  0.31173378888E+02 -0.34005008156E+02  0.65286212111E+02  0.00000000000E+00 0. -1.
        -12    1    3    3    0    0  0.50736659115E+02  0.13639458303E+02 -0.16502932511E+03  0.17319041991E+03  0.00000000000E+00 0.  1.
          5    1    4    4  501    0 -0.27819097000E+01 -0.39978201512E+02 -0.16333439112E+02  0.43476996803E+02  0.41800000000E+01 0. -1.
         -5    1    4    4    0  501 -0.10154169239E+02 -0.92031555930E+01  0.13659643676E+03  0.13734578320E+03  0.41800000000E+01 0. -1.
</event>
<event>
11    1  0.8551154E-009  0.1403676E+03  0.7561462E-02  0.1107149E+00
         22   -1    0    0    0    0  0.00000000000E+00  0.00000000000E+00  0.67242467652E+03  0.67242467652E+03  0.00000000000E+00 0.  1.
         22   -1    0    0    0    0 -0.00000000000E+00 -0.00000000000E+00 -0.14482485621E+03  0.14482485621E+03  0.00000000000E+00 0. -1.
         24    2    1    2    0    0  0.62326930756E+01  0.68366894186E+02 -0.82391856535E+02  0.13419183097E+03  0.80660714049E+02 0.  0.
         25    2    1    2    0    0 -0.13783465814E+01 -0.38760453202E+02  0.96923857465E+02  0.16293166672E+03  0.12509285072E+03 0.  0.
        -24    2    1    2    0    0 -0.48543464941E+01 -0.29606440984E+02  0.51306781937E+03  0.52012603504E+03  0.79952479792E+02 0.  0.
        -13    1    3    3    0    0  0.30144753450E+02 -0.28941258058E+01 -0.18094488582E+02  0.35277367274E+02  0.00000000000E+00 0.  1.
         14    1    3    3    0    0 -0.23912060375E+02  0.71261019992E+02 -0.64297367953E+02  0.98914463691E+02  0.00000000000E+00 0. -1.
         13    1    5    5    0    0  0.10775877830E+02 -0.35921907894E+02  0.10140004902E+03  0.10811324134E+03  0.00000000000E+00 0. -1.
        -14    1    5    5    0    0 -0.15630224325E+02  0.63154669104E+01  0.41166777035E+03  0.41201279371E+03  0.00000000000E+00 0.  1.
          5    1    4    4  501    0 -0.23905805706E+02 -0.44976213322E+02  0.11962504011E+03  0.13008447229E+03  0.41800000000E+01 0. -1.
         -5    1    4    4    0  501  0.22527459124E+02  0.62157601195E+01 -0.22701182640E+02  0.32847194427E+02  0.41800000000E+01 0. -1.
</event>
<event>
11    1  0.8551154E-009  0.1414369E+03  0.7561462E-02  0.1105964E+00
         22   -1    0    0    0    0  0.00000000000E+00  0.00000000000E+00  0.12870856012E+04  0.12870856012E+04  0.00000000000E+00 0. -1.
         22   -1    0    0    0    0 -0.00000000000E+00 -0.00000000000E+00 -0.28778316069E+03  0.28778316069E+03  0.00000000000E+00 0. -1.
         24    2    1    2    0    0  0.57611835051E+02 -0.33139743893E+02 -0.26204373492E+03  0.28195238508E+03  0.80080348889E+02 0.  0.
         25    2    1    2    0    0 -0.61978454649E+02 -0.91047936346E+01  0.34782332457E+03  0.37490346839E+03  0.12508924568E+03 0.  0.
        -24    2    1    2    0    0  0.43666195979E+01  0.42244537528E+02  0.91352285083E+03  0.91801290838E+03  0.80125106292E+02 0.  0.
        -11    1    3    3    0    0  0.21321497019E+02 -0.24647160883E+02 -0.22681078925E+02  0.39705416708E+02  0.00000000000E+00 0.  1.
         12    1    3    3    0    0  0.36290338033E+02 -0.84925830099E+01 -0.23936265600E+03  0.24224696838E+03  0.00000000000E+00 0. -1.
         11    1    5    5    0    0 -0.31912184244E+02  0.43597261198E+02  0.50607676060E+03  0.50895264642E+03  0.00000000000E+00 0. -1.
        -12    1    5    5    0    0  0.36278803842E+02 -0.13527236707E+01  0.40744609023E+03  0.40906026196E+03  0.00000000000E+00 0.  1.
          5    1    4    4  501    0 -0.58973695783E+02  0.20854992422E+02  0.64476477780E+02  0.89930618202E+02  0.41800000000E+01 0. -1.
         -5    1    4    4    0  501 -0.30047588667E+01 -0.29959786057E+02  0.28334684679E+03  0.28497285019E+03  0.41800000000E+01 0. -1.
</event>
<event>
11    1  0.8551154E-009  0.1557971E+03  0.7561462E-02  0.1091098E+00
         22   -1    0    0    0    0  0.00000000000E+00  0.00000000000E+00  0.28288215701E+03  0.28288215701E+03  0.00000000000E+00 0.  1.
         22   -1    0    0    0    0 -0.00000000000E+00 -0.00000000000E+00 -0.52329721717E+03  0.52329721717E+03  0.00000000000E+00 0. -1.
        -24    2    1    2    0    0 -0.53254673185E+02  0.65545507331E+02 -0.25021754452E+03  0.27616283436E+03  0.80776343991E+02 0.  0.
         25    2    1    2    0    0  0.57991373578E+02 -0.95140736432E+02 -0.22424175320E+03  0.27992009894E+03  0.12512449312E+03 0.  0.
         24    2    1    2    0    0 -0.47367003930E+01  0.29595229101E+02  0.23404423756E+03  0.25009644087E+03  0.82904829091E+02 0.  0.
        -11    1    5    5    0    0 -0.12349908118E+02  0.16068276805E+02  0.23369315794E+03  0.23457024922E+03  0.00000000000E+00 0.  1.
         12    1    5    5    0    0  0.76132077250E+01  0.13526952296E+02  0.35107961475E+00  0.15526191651E+02  0.00000000000E+00 0. -1.
         11    1    3    3    0    0 -0.42021644207E+02  0.75947695215E+02 -0.24510850246E+03  0.26002317007E+03  0.00000000000E+00 0. -1.
        -12    1    3    3    0    0 -0.11233028978E+02 -0.10402187884E+02 -0.51090420549E+01  0.16139664294E+02  0.00000000000E+00 0.  1.
          5    1    4    4  501    0  0.45956980021E+02 -0.11299217104E+03 -0.22708368609E+03  0.25780563923E+03  0.41800000000E+01 0. -1.
         -5    1    4    4    0  501  0.12034393557E+02  0.17851434608E+02  0.28419328966E+01  0.22114459714E+02  0.41800000000E+01 0. -1.
</event>
<event>
11    1  0.8551154E-009  0.2214004E+03  0.7561462E-02  0.1040344E+00
         22   -1    0    0    0    0  0.00000000000E+00  0.00000000000E+00  0.11845313941E+04  0.11845313941E+04  0.00000000000E+00 0. -1.
         22   -1    0    0    0    0 -0.00000000000E+00 -0.00000000000E+00 -0.71919776896E+03  0.71919776896E+03  0.00000000000E+00 0.  1.
        -24    2    1    2    0    0  0.69606307056E+01 -0.35876341287E+02 -0.56691657877E+03  0.57383045594E+03  0.80940858861E+02 0.  0.
         25    2    1    2    0    0  0.15330763858E+03 -0.54779542903E+02 -0.64305539132E+02  0.21513350319E+03  0.12507274469E+03 0.  0.
         24    2    1    2    0    0 -0.16026826929E+03  0.90655884190E+02  0.10965557430E+04  0.11147652039E+04  0.79765624326E+02 0.  0.
        -11    1    5    5    0    0 -0.74159502556E+02  0.59006493076E+02  0.76157933420E+03  0.76745324308E+03  0.00000000000E+00 0.  1.
         12    1    5    5    0    0 -0.86108766731E+02  0.31649391114E+02  0.33497640880E+03  0.34731196081E+03  0.00000000000E+00 0. -1.
         11    1    3    3    0    0 -0.30361982485E+02  0.71779065941E+01 -0.23441364596E+03  0.23648071747E+03  0.00000000000E+00 0. -1.
        -12    1    3    3    0    0  0.37322613190E+02 -0.43054247881E+02 -0.33250293281E+03  0.33734973846E+03  0.00000000000E+00 0.  1.
          5    1    4    4  501    0  0.14569553012E+03 -0.96812597977E+01 -0.80062967508E+02  0.16657870649E+03  0.41800000000E+01 0. -1.
         -5    1    4    4    0  501  0.76121084597E+01 -0.45098283105E+02  0.15757428376E+02  0.48554796707E+02  0.41800000000E+01 0. -1.
</event>
<event>
11    1  0.8551154E-009  0.1284906E+03  0.7561462E-02  0.1121138E+00
         22   -1    0    0    0    0  0.00000000000E+00  0.00000000000E+00  0.13626782349E+04  0.13626782349E+04  0.00000000000E+00 0. -1.
         22   -1    0    0    0    0 -0.00000000000E+00 -0.00000000000E+00 -0.11709169351E+04  0.11709169351E+04  0.00000000000E+00 0.  1.
         24    2    1    2    0    0 -0.16975174433E+02 -0.61739294817E+01 -0.62597616064E+03  0.63147698460E+03  0.81183461674E+02 0.  0.
         25    2    1    2    0    0  0.34016728327E+02 -0.17698530762E+02 -0.53291620389E+03  0.54874299404E+03  0.12509523308E+03 0.  0.
        -24    2    1    2    0    0 -0.17041553894E+02  0.23872460244E+02  0.13506536643E+04  0.13533751914E+04  0.80615002564E+02 0.  0.
        -13    1    3    3    0    0  0.31227578731E+02 -0.11724137077E+02 -0.31130055856E+03  0.31308250482E+03  0.00000000000E+00 0.  1.
         14    1    3    3    0    0 -0.48202753164E+02  0.55502075955E+01 -0.31467560208E+03  0.31839447979E+03  0.00000000000E+00 0. -1.
         13    1    5    5    0    0  0.12400334287E+02  0.21655936827E+02  0.11744420444E+04  0.11747071395E+04  0.00000000000E+00 0. -1.
        -14    1    5    5    0    0 -0.29441888181E+02  0.22165234167E+01  0.17621161993E+03  0.17866805185E+03  0.00000000000E+00 0.  1.
          5    1    4    4  501    0 -0.21891779155E+02  0.36257007954E+02 -0.96842157588E+02  0.10578136181E+03  0.41800000000E+01 0. -1.
         -5    1    4    4    0  501  0.55908507482E+02 -0.53955538716E+02 -0.43607404630E+03  0.44296163223E+03  0.41800000000E+01 0. -1.
</event>
<event>
11    1  0.8551154E-009  0.1315410E+03  0.7561462E-02  0.1117390E+00
         22   -1    0    0    0    0  0.00000000000E+00  0.00000000000E+00  0.75961479957E+03  0.75961479957E+03  0.00000000000E+00 0. -1.
         22   -1    0    0    0    0 -0.00000000000E+00 -0.00000000000E+00 -0.68880736559E+03  0.68880736559E+03  0.00000000000E+00 0. -1.
        -24    2    1    2    0    0  0.38976353286E+02 -0.11384461916E+02 -0.66230905635E+03  0.66849054647E+03  0.81102173239E+02 0.  0.
         25    2    1    2    0    0 -0.44456334550E+02  0.85556670325E+01  0.19625248234E+03  0.23709444781E+03  0.12509666357E+03 0.  0.
         24    2    1    2    0    0  0.54799812634E+01  0.28287948832E+01  0.53686400799E+03  0.54283717088E+03  0.80069961512E+02 0.  0.
        -13    1    5    5    0    0 -0.18431198289E+02 -0.19312314931E+02  0.71297157860E+02  0.76131197924E+02  0.00000000000E+00 0.  1.
         14    1    5    5    0    0  0.23911179552E+02  0.22141109814E+02  0.46556685013E+03  0.46670597295E+03  0.00000000000E+00 0. -1.
         11    1    3    3    0    0  0.24369835481E+01 -0.26267224302E+02 -0.52401591052E+03  0.52467950259E+03  0.00000000000E+00 0. -1.
        -12    1    3    3    0    0  0.36539369738E+02  0.14882762386E+02 -0.13829314583E+03  0.14381104388E+03  0.00000000000E+00 0.  1.
          5    1    4    4  501    0 -0.25166412412E+01 -0.37042669686E+02  0.16185189098E+03  0.16610839797E+03  0.41800000000E+01 0. -1.
         -5    1    4    4    0  501 -0.41939693308E+02  0.45598336718E+02  0.34400591355E+02  0.70986049840E+02  0.41800000000E+01 0. -1.
</event>
<event>
11    1  0.8551154E-009  0.1563933E+03  0.7561462E-02  0.1090519E+00
         22   -1    0    0    0    0  0.00000000000E+00  0.00000000000E+00  0.10415324504E+04  0.10415324504E+04  0.00000000000E+00 0. -1.
         22   -1    0    0    0    0 -0.00000000000E+00 -0.00000000000E+00 -0.17126249063E+03  0.17126249063E+03  0.00000000000E+00 0.  1.
        -24    2    1    2    0    0 -0.17941874228E+01 -0.97161213228E+02 -0.12746143851E+03  0.17822498236E+03  0.77937189866E+02 0.  0.
         25    2    1    2    0    0 -0.39877494955E+01  0.53173174979E+02  0.29478592590E+03  0.32464611705E+03  0.12511223171E+03 0.  0.
         24    2    1    2    0    0  0.57819369183E+01  0.43988038249E+02  0.70294547239E+03  0.70992384162E+03  0.88832119456E+02 0.  0.
        -11    1    5    5    0    0 -0.12457450511E+01  0.53207912310E+02  0.20352587322E+03  0.21036970999E+03  0.00000000000E+00 0.  1.
         12    1    5    5    0    0  0.70276819694E+01 -0.92198740616E+01  0.49941959917E+03  0.49955413163E+03  0.00000000000E+00 0. -1.
         11    1    3    3    0    0 -0.16093005208E+02 -0.69185901889E+02 -0.32338231841E+02  0.78047646188E+02  0.00000000000E+00 0. -1.
        -12    1    3    3    0    0  0.14298817785E+02 -0.27975311339E+02 -0.95123206672E+02  0.10017733617E+03  0.00000000000E+00 0.  1.
          5    1    4    4  501    0  0.52512181746E+02 -0.54008760128E+00  0.16482423025E+03  0.17303849342E+03  0.41800000000E+01 0.  1.
         -5    1    4    4    0  501 -0.56499931241E+02  0.53713262580E+02  0.12996169565E+03  0.15160762363E+03  0.41800000000E+01 0.  1.
</event>
<event>
11    1  0.8551154E-009  0.1301896E+03  0.7561462E-02  0.1119036E+00
         22   -1    0    0    0    0  0.00000000000E+00  0.00000000000E+00  0.12381718643E+04  0.12381718643E+04  0.00000000000E+00 0.  1.
         22   -1    0    0    0    0 -0.00000000000E+00 -0.00000000000E+00 -0.12519681399E+04  0.12519681399E+04  0.00000000000E+00 0.  1.
        -24    2    1    2    0    0  0.33880070202E+02 -0.13202913239E+02 -0.12310996468E+04  0.12346419844E+04  0.86094791661E+02 0.  0.
         25    2    1    2    0    0  0.50113378563E+01  0.14092798708E+02  0.21351736141E+03  0.24791199107E+03  0.12508785396E+03 0.  0.
         24    2    1    2    0    0 -0.38891408058E+02 -0.88988546923E+00  0.10037860098E+04  0.10075860288E+04  0.78293795622E+02 0.  0.
        -13    1    5    5    0    0 -0.30511635760E+02 -0.50178482372E+01  0.99229700857E+03  0.99277867218E+03  0.00000000000E+00 0.  1.
         14    1    5    5    0    0 -0.83797722983E+01  0.41279627679E+01  0.11489001192E+02  0.14807356576E+02  0.00000000000E+00 0. -1.
         13    1    3    3    0    0  0.45454769148E+02 -0.64587465412E+01 -0.30415821718E+03  0.30760375895E+03  0.00000000000E+00 0. -1.
        -14    1    3    3    0    0 -0.11574698947E+02 -0.67441666973E+01 -0.92694142965E+03  0.92703822545E+03  0.00000000000E+00 0.  1.
          5    1    4    4  501    0  0.20722746447E+02  0.43477396796E+02  0.20840969102E+03  0.21394342234E+03  0.41800000000E+01 0. -1.
         -5    1    4    4    0  501 -0.15711408590E+02 -0.29384598088E+02  0.51076703968E+01  0.33968568730E+02  0.41800000000E+01 0. -1.
</event>
<event>
11    1  0.1071405E-008  0.1481405E+03  0.7561462E-02  0.1098794E+00
         22   -1    0    0    0    0  0.00000000000E+00  0.00000000000E+00  0.99738646363E+03  0.99738646363E+03  0.00000000000E+00 0. -1.
         22   -1    0    0    0    0 -0.00000000000E+00 -0.00000000000E+00 -0.23253805763E+04  0.23253805763E+04  0.00000000000E+00 0.  1.
        -24    2    1    2    0    0  0.62695464688E+02 -0.29512971503E+02 -0.14926527166E+04  0.14964782739E+04  0.81445410848E+02 0.  0.
         25    2    1    2    0    0 -0.26041436884E+02  0.99895527309E+02 -0.81968248383E+03  0.83557564942E+03  0.12510003518E+03 0.  0.
         24    2    1    2    0    0 -0.36654027804E+02 -0.70382555805E+02  0.98434108776E+03  0.99071311667E+03  0.79296157333E+02 0.  0.
        -13    1    5    5    0    0  0.10234668138E+02 -0.22636185137E+02  0.77014758636E+02  0.80922298269E+02  0.00000000000E+00 0.  1.
         14    1    5    5    0    0 -0.46888695942E+02 -0.47746370669E+02  0.90732632912E+03  0.90979081840E+03  0.00000000000E+00 0. -1.
         11    1    3    3    0    0 -0.50863854152E+01  0.94362387846E+01 -0.67765757987E+03  0.67774236217E+03  0.00000000000E+00 0. -1.
        -12    1    3    3    0    0  0.67781850103E+02 -0.38949210288E+02 -0.81499513676E+03  0.81873591172E+03  0.00000000000E+00 0.  1.
          5    1    4    4  501    0  0.34272460169E+02  0.93900936585E+02 -0.45526527272E+03  0.46612866073E+03  0.41800000000E+01 0. -1.
         -5    1    4    4    0  501 -0.60313897052E+02  0.59945907242E+01 -0.36441721111E+03  0.36944698869E+03  0.41800000000E+01 0. -1.
</event>
<event>
11    1  0.8551154E-009  0.1305778E+03  0.7561462E-02  0.1118561E+00
         22   -1    0    0    0    0  0.00000000000E+00  0.00000000000E+00  0.67151802513E+03  0.67151802513E+03  0.00000000000E+00 0.  1.
         22   -1    0    0    0    0 -0.00000000000E+00 -0.00000000000E+00 -0.18445195233E+04  0.18445195233E+04  0.00000000000E+00 0. -1.
         24    2    1    2    0    0 -0.37334938399E+02  0.45469736522E+01 -0.17799353225E+04  0.17821479633E+04  0.80417899007E+02 0.  0.
         25    2    1    2    0    0  0.32327062624E+02  0.12730076460E+02  0.87898973514E+01  0.13010992356E+03  0.12507692069E+03 0.  0.
        -24    2    1    2    0    0  0.50078757744E+01 -0.17277050112E+02  0.59814392695E+03  0.60377966152E+03  0.80312807423E+02 0.  0.
        -13    1    3    3    0    0  0.65880628894E+01  0.22351289528E+02 -0.17888404235E+03  0.18039535283E+03  0.00000000000E+00 0.  1.
         14    1    3    3    0    0 -0.43923001288E+02 -0.17804315876E+02 -0.16010512801E+04  0.16017526105E+04  0.00000000000E+00 0. -1.
         11    1    5    5    0    0  0.49730282904E+01  0.28035563006E+02  0.11330315796E+03  0.11682606476E+03  0.00000000000E+00 0. -1.
        -12    1    5    5    0    0  0.34847483984E-01 -0.45312613118E+02  0.48484076899E+03  0.48695359676E+03  0.00000000000E+00 0.  1.
          5    1    4    4  501    0  0.43815226026E+02  0.60670309832E+02 -0.12958869966E+02  0.76066189845E+02  0.41800000000E+01 0. -1.
         -5    1    4    4    0  501 -0.11488163402E+02 -0.47940233372E+02  0.21748767317E+02  0.54043733715E+02  0.41800000000E+01 0. -1.
</event>
<event>
11    1  0.8551154E-009  0.1567312E+03  0.7561462E-02  0.1090193E+00
         22   -1    0    0    0    0  0.00000000000E+00  0.00000000000E+00  0.12933043380E+03  0.12933043380E+03  0.00000000000E+00 0. -1.
         22   -1    0    0    0    0 -0.00000000000E+00 -0.00000000000E+00 -0.17456044356E+04  0.17456044356E+04  0.00000000000E+00 0. -1.
         24    2    1    2    0    0 -0.47213332353E+01  0.12812982152E+02 -0.14334930420E+04  0.14358212378E+04  0.80584502246E+02 0.  0.
         25    2    1    2    0    0  0.81500846395E+02  0.42872063382E+02 -0.25298481969E+03  0.29686579168E+03  0.12509027738E+03 0.  0.
        -24    2    1    2    0    0 -0.76779513160E+02 -0.55685045534E+02  0.70203859912E+02  0.14224783989E+03  0.79435181558E+02 0.  0.
        -13    1    3    3    0    0 -0.38942571509E+02 -0.10332800776E+02 -0.66739159725E+03  0.66860663676E+03  0.00000000000E+00 0.  1.
         14    1    3    3    0    0  0.34221238274E+02  0.23145782928E+02 -0.76610144473E+03  0.76721460103E+03  0.00000000000E+00 0. -1.
         11    1    5    5    0    0 -0.36586881970E+01 -0.35738621443E+02  0.53813332982E+02  0.64703244652E+02  0.00000000000E+00 0. -1.
        -12    1    5    5    0    0 -0.73120824963E+02 -0.19946424091E+02  0.16390526930E+02  0.77544595236E+02  0.00000000000E+00 0.  1.
          5    1    4    4  501    0  0.24439329440E+02  0.49738083068E+01 -0.21868802433E+03  0.22014527926E+03  0.41800000000E+01 0.  1.
         -5    1    4    4    0  501  0.57061516955E+02  0.37898255075E+02 -0.34296795360E+02  0.76720512426E+02  0.41800000000E+01 0.  1.
</event>
<event>
11    1  0.8551154E-009  0.1406079E+03  0.7561462E-02  0.1106881E+00
         22   -1    0    0    0    0  0.00000000000E+00  0.00000000000E+00  0.37467636786E+03  0.37467636786E+03  0.00000000000E+00 0. -1.
         22   -1    0    0    0    0 -0.00000000000E+00 -0.00000000000E+00 -0.54076771686E+03  0.54076771686E+03  0.00000000000E+00 0. -1.
        -24    2    1    2    0    0 -0.29243077540E+02 -0.69570753712E+01 -0.44204100886E+03  0.45006923991E+03  0.79110737087E+02 0.  0.
         25    2    1    2    0    0 -0.37048536796E+02 -0.12772547836E+01 -0.37301884579E+02  0.13569544564E+03  0.12509035901E+03 0.  0.
         24    2    1    2    0    0  0.66291614336E+02  0.82343301548E+01  0.31325154443E+03  0.32967939917E+03  0.78099896417E+02 0.  0.
        -11    1    5    5    0    0  0.34232321513E+02 -0.12540817515E+02  0.41430761456E+02  0.55187244314E+02  0.00000000000E+00 0.  1.
         12    1    5    5    0    0  0.32059292823E+02  0.20775147670E+02  0.27182078298E+03  0.27449215485E+03  0.00000000000E+00 0. -1.
         13    1    3    3    0    0 -0.41661762917E+02 -0.13876147663E+02 -0.42744357256E+03  0.42969321345E+03  0.00000000000E+00 0. -1.
        -14    1    3    3    0    0  0.12418685377E+02  0.69190722917E+01 -0.14597436295E+02  0.20376026459E+02  0.00000000000E+00 0.  1.
          5    1    4    4  501    0  0.44126333898E+01 -0.12887585330E+02 -0.76199614063E+02  0.77520415197E+02  0.41800000000E+01 0. -1.
         -5    1    4    4    0  501 -0.41461170186E+02  0.11610330547E+02  0.38897729484E+02  0.58175030448E+02  0.41800000000E+01 0. -1.
</event>
<event>
11    1  0.8551154E-009  0.1353772E+03  0.7561462E-02  0.1112833E+00
         22   -1    0    0    0    0  0.00000000000E+00  0.00000000000E+00  0.83898677635E+03  0.83898677635E+03  0.00000000000E+00 0.  1.
         22   -1    0    0    0    0 -0.00000000000E+00 -0.00000000000E+00 -0.43103494336E+03  0.43103494336E+03  0.00000000000E+00 0.  1.
        -24    2    1    2    0    0 -0.34107195636E+02 -0.23399516162E+02 -0.38079873724E+03  0.39136787740E+03  0.80313753627E+02 0.  0.
         25    2    1    2    0    0  0.83448650369E+02  0.21341780471E+02  0.96423037768E+02  0.17989462259E+03  0.12508206979E+03 0.  0.
         24    2    1    2    0    0 -0.49341454732E+02  0.20577356907E+01  0.69232753247E+03  0.69875921972E+03  0.80673548905E+02 0.  0.
        -11    1    5    5    0    0 -0.71661351486E+02  0.13263984710E+01  0.49257362393E+03  0.49776086992E+03  0.00000000000E+00 0.  1.
         12    1    5    5    0    0  0.22319896754E+02  0.73133721975E+00  0.19975390855E+03  0.20099834981E+03  0.00000000000E+00 0. -1.
         11    1    3    3    0    0 -0.14518544555E+02  0.64781326727E+01 -0.98492513495E+01  0.18701927469E+02  0.00000000000E+00 0. -1.
        -12    1    3    3    0    0 -0.19588651082E+02 -0.29877648834E+02 -0.37094948589E+03  0.37266594993E+03  0.00000000000E+00 0.  1.
          5    1    4    4  501    0 -0.21416026315E+02  0.36663267673E+02  0.45051152456E+02  0.62047724512E+02  0.41800000000E+01 0. -1.
         -5    1    4    4    0  501  0.10486467668E+03 -0.15321487202E+02  0.51371885312E+02  0.11784689808E+03  0.41800000000E+01 0. -1.
</event>
<event>
11    1  0.8551154E-009  0.1575872E+03  0.7561462E-02  0.1089369E+00
         22   -1    0    0    0    0  0.00000000000E+00  0.00000000000E+00  0.67028006827E+03  0.67028006827E+03  0.00000000000E+00 0.  1.
         22   -1    0    0    0    0 -0.00000000000E+00 -0.00000000000E+00 -0.16232353608E+04  0.16232353608E+04  0.00000000000E+00 0.  1.
        -24    2    1    2    0    0 -0.46330485517E+02  0.83368491209E+02 -0.15778671214E+04  0.15832706063E+04  0.89355137088E+02 0.  0.
         25    2    1    2    0    0  0.54538394103E+02 -0.12332116119E+03  0.18699920658E+03  0.26229703016E+03  0.12509389890E+03 0.  0.
         24    2    1    2    0    0 -0.82079085859E+01  0.39952669978E+02  0.43791262232E+03  0.44794779267E+03  0.85006908915E+02 0.  0.
        -13    1    5    5    0    0  0.50151890632E+01 -0.13648958676E+02  0.28505556322E+03  0.28542620819E+03  0.00000000000E+00 0.  1.
         14    1    5    5    0    0 -0.13223097649E+02  0.53601628654E+02  0.15285705910E+03  0.16252158448E+03  0.00000000000E+00 0. -1.
         11    1    3    3    0    0 -0.91936025663E+01  0.43858103882E+02 -0.23065053364E+03  0.23496324026E+03  0.00000000000E+00 0. -1.
        -12    1    3    3    0    0 -0.37136882950E+02  0.39510387326E+02 -0.13472165878E+04  0.13483073660E+04  0.00000000000E+00 0.  1.
          5    1    4    4  501    0  0.77312802553E+02 -0.10717940162E+03  0.86721817575E+02  0.15812286240E+03  0.41800000000E+01 0. -1.
         -5    1    4    4    0  501 -0.22774408450E+02 -0.16141759563E+02  0.10027738900E+03  0.10417416775E+03  0.41800000000E+01 0. -1.
</event>
<event>
11    1  0.8551154E-009  0.1324832E+03  0.7561462E-02  0.1116255E+00
         22   -1    0    0    0    0  0.00000000000E+00  0.00000000000E+00  0.14242800980E+04  0.14242800980E+04  0.00000000000E+00 0.  1.
         22   -1    0    0    0    0 -0.00000000000E+00 -0.00000000000E+00 -0.37133845638E+03  0.37133845638E+03  0.00000000000E+00 0.  1.
        -24    2    1    2    0    0 -0.30911096374E+02  0.31995272184E+02 -0.28948719323E+03  0.30432272613E+03  0.82645588336E+02 0.  0.
         25    2    1    2    0    0  0.50880875529E+02  0.84968458776E+00 -0.10673737023E+02  0.13546795076E+03  0.12509217227E+03 0.  0.
         24    2    1    2    0    0 -0.19969779155E+02 -0.32844956772E+02  0.13531025719E+04  0.13558278775E+04  0.76844518942E+02 0.  0.
        -13    1    5    5    0    0 -0.34877661994E+02 -0.50913965129E+02  0.89356022102E+03  0.89568886994E+03  0.00000000000E+00 0.  1.
         14    1    5    5    0    0  0.14907882840E+02  0.18069008358E+02  0.45954235090E+03  0.46013900759E+03  0.00000000000E+00 0. -1.
         13    1    3    3    0    0  0.30612501155E+01 -0.26242673523E+02 -0.79008001447E+02  0.83308543730E+02  0.00000000000E+00 0. -1.
        -14    1    3    3    0    0 -0.33972346490E+02  0.58237945707E+02 -0.21047919178E+03  0.22101418240E+03  0.00000000000E+00 0.  1.
          5    1    4    4  501    0  0.67793712221E+02  0.47196734012E+02 -0.19976090069E+02  0.85088399283E+02  0.41800000000E+01 0. -1.
         -5    1    4    4    0  501 -0.16912836692E+02 -0.46347049424E+02  0.93023530463E+01  0.50379551481E+02  0.41800000000E+01 0. -1.
</event>
<event>
11    1  0.8551154E-009  0.1578091E+03  0.7561462E-02  0.1089156E+00
         22   -1    0    0    0    0  0.00000000000E+00  0.00000000000E+00  0.30503857485E+03  0.30503857485E+03  0.00000000000E+00 0. -1.
         22   -1    0    0    0    0 -0.00000000000E+00 -0.00000000000E+00 -0.50864560626E+03  0.50864560626E+03  0.00000000000E+00 0. -1.
         24    2    1    2    0    0 -0.10207915831E+03  0.15038960307E+02 -0.41399787471E+03  0.43420321778E+03  0.80572136483E+02 0.  0.
         25    2    1    2    0    0  0.54495772845E+02  0.72471405380E+01 -0.12076792139E+02  0.13717235857E+03  0.12509235286E+03 0.  0.
        -24    2    1    2    0    0  0.47583385462E+02 -0.22286100845E+02  0.22246763544E+03  0.24230860477E+03  0.80378867002E+02 0.  0.
        -11    1    3    3    0    0 -0.21910409700E+01  0.15201029226E+02 -0.10696492697E+02  0.18715953251E+02  0.00000000000E+00 0.  1.
         12    1    3    3    0    0 -0.99888117337E+02 -0.16206891957E+00 -0.40330138201E+03  0.41548726453E+03  0.00000000000E+00 0. -1.
         13    1    5    5    0    0  0.13676565542E+02 -0.31904572989E+02  0.19377990996E+03  0.19686442981E+03  0.00000000000E+00 0. -1.
        -14    1    5    5    0    0  0.33906819920E+02  0.96184721440E+01  0.28687725485E+02  0.45444174951E+02  0.00000000000E+00 0.  1.
          5    1    4    4  501    0  0.90970366783E+02  0.25095419328E+02  0.48245466607E+00  0.94462123978E+02  0.41800000000E+01 0.  1.
         -5    1    4    4    0  501 -0.36474593938E+02 -0.17848278790E+02 -0.12559246805E+02  0.42710234593E+02  0.41800000000E+01 0.  1.
</event>
<event>
11    1  0.8551154E-009  0.4494991E+03  0.7561462E-02  0.9514035E-01
         22   -1    0    0    0    0  0.00000000000E+00  0.00000000000E+00  0.17262050101E+04  0.17262050101E+04  0.00000000000E+00 0.  1.
         22   -1    0    0    0    0 -0.00000000000E+00 -0.00000000000E+00 -0.24216896760E+03  0.24216896760E+03  0.00000000000E+00 0.  1.
         24    2    1    2    0    0 -0.35975451059E+02 -0.39231439313E+03  0.47246234976E+03  0.62038948963E+03  0.80359385013E+02 0.  0.
         25    2    1    2    0    0 -0.27806447530E+03  0.44122125742E+03  0.46162749244E+03  0.70763111933E+03  0.12508320769E+03 0.  0.
        -24    2    1    2    0    0  0.31403992636E+03 -0.48906864287E+02  0.54994620030E+03  0.64035336875E+03  0.81232117521E+02 0.  0.
        -13    1    3    3    0    0 -0.58888913405E+02 -0.20379256234E+03  0.24531375009E+03  0.32431180763E+03  0.00000000000E+00 0.  1.
         14    1    3    3    0    0  0.22913462346E+02 -0.18852183080E+03  0.22714859968E+03  0.29607768200E+03  0.00000000000E+00 0. -1.
         11    1    5    5    0    0  0.43770043057E+02 -0.29109794957E+02  0.13373563930E+03  0.14369557422E+03  0.00000000000E+00 0. -1.
        -12    1    5    5    0    0  0.27026988330E+03 -0.19797069331E+02  0.41621056100E+03  0.49665779453E+03  0.00000000000E+00 0.  1.
          5    1    4    4  501    0 -0.22311779180E+03  0.25614483795E+03  0.33230299867E+03  0.47522045657E+03  0.41800000000E+01 0. -1.
         -5    1    4    4    0  501 -0.54946683500E+02  0.18507641948E+03  0.12932449378E+03  0.23241066276E+03  0.41800000000E+01 0. -1.
</event>
<event>
11    1  0.8551154E-009  0.1567127E+03  0.7561462E-02  0.1090210E+00
         22   -1    0    0    0    0  0.00000000000E+00  0.00000000000E+00  0.21538631191E+04  0.21538631191E+04  0.00000000000E+00 0.  1.
         22   -1    0    0    0    0 -0.00000000000E+00 -0.00000000000E+00 -0.26831428770E+03  0.26831428770E+03  0.00000000000E+00 0. -1.
        -24    2    1    2    0    0  0.88659496078E+02  0.32071403150E+02 -0.23236345915E+03  0.26275108320E+03  0.78461923461E+02 0.  0.
         25    2    1    2    0    0 -0.77290429171E+02 -0.70630529486E+02  0.32005149071E+03  0.35922513387E+03  0.12508900017E+03 0.  0.
         24    2    1    2    0    0 -0.11369066907E+02  0.38559126335E+02  0.17978607998E+04  0.18002011897E+04  0.82491248074E+02 0.  0.
        -13    1    5    5    0    0  0.34331614240E+02  0.27338564710E+02  0.98816554347E+03  0.98913962521E+03  0.00000000000E+00 0.  1.
         14    1    5    5    0    0 -0.45700681147E+02  0.11220561626E+02  0.80969525633E+03  0.81106156448E+03  0.00000000000E+00 0. -1.
         13    1    3    3    0    0  0.94818061969E+02  0.75170430008E+01 -0.20159606131E+03  0.22290792437E+03  0.00000000000E+00 0. -1.
        -14    1    3    3    0    0 -0.61585658913E+01  0.24554360150E+02 -0.30767397834E+02  0.39843158831E+02  0.00000000000E+00 0.  1.
          5    1    4    4  501    0 -0.87129447315E+02 -0.67293831580E+02  0.13686742123E+03  0.17569907158E+03  0.41800000000E+01 0. -1.
         -5    1    4    4    0  501  0.98390181442E+01 -0.33366979057E+01  0.18318406948E+03  0.18352606230E+03  0.41800000000E+01 0. -1.
</event>
<event>
11    1  0.8551154E-009  0.1308216E+03  0.7561462E-02  0.1118264E+00
         22   -1    0    0    0    0  0.00000000000E+00  0.00000000000E+00  0.22095909295E+03  0.22095909295E+03  0.00000000000E+00 0.  1.
         22   -1    0    0    0    0 -0.00000000000E+00 -0.00000000000E+00 -0.10407542432E+04  0.10407542432E+04  0.00000000000E+00 0.  1.
        -24    2    1    2    0    0  0.37301320942E+02  0.77813893725E+01 -0.97386515121E+03  0.97775688537E+03  0.78378923160E+02 0.  0.
         25    2    1    2    0    0 -0.43717715969E+02 -0.18380086923E+02  0.27533032792E+02  0.13658142055E+03  0.12508936909E+03 0.  0.
         24    2    1    2    0    0  0.64163950263E+01  0.10598697550E+02  0.12653696821E+03  0.14737503019E+03  0.74527127187E+02 0.  0.
        -13    1    5    5    0    0  0.30048292550E+02  0.96404753345E+01  0.11813255692E+03  0.12227485291E+03  0.00000000000E+00 0.  1.
         14    1    5    5    0    0 -0.23631897524E+02  0.95822221577E+00  0.84044112817E+01  0.25100177278E+02  0.00000000000E+00 0. -1.
         13    1    3    3    0    0 -0.17135964567E+02  0.74998749373E+01 -0.56180817868E+03  0.56211948823E+03  0.00000000000E+00 0. -1.
        -14    1    3    3    0    0  0.54437285510E+02  0.28151443527E+00 -0.41205697252E+03  0.41563739715E+03  0.00000000000E+00 0.  1.
          5    1    4    4  501    0  0.14873613224E+02  0.30073326454E+02  0.47084392797E+02  0.57965867365E+02  0.41800000000E+01 0. -1.
         -5    1    4    4    0  501 -0.58591329193E+02 -0.48453413376E+02 -0.19551360005E+02  0.78615553184E+02  0.41800000000E+01 0. -1.
</event>
<event>
11    1  0.8551154E-009  0.6863913E+03  0.7561462E-02  0.9052603E-01
         22   -1    0    0    0    0  0.00000000000E+00  0.00000000000E+00  0.22367203460E+04  0.22367203460E+04  0.00000000000E+00 0.  1.
         22   -1    0    0    0    0 -0.00000000000E+00 -0.00000000000E+00 -0.73677238904E+03  0.73677238904E+03  0.00000000000E+00 0. -1.
         24    2    1    2    0    0 -0.41723970221E+02  0.29632584319E+02 -0.27252842221E+03  0.28895920463E+03  0.81281617131E+02 0.  0.
         25    2    1    2    0    0 -0.77435542735E+02 -0.69099760339E+03 -0.81175197998E+02  0.71113130906E+03  0.12507747511E+03 0.  0.
        -24    2    1    2    0    0  0.11915951296E+03  0.66136501907E+03  0.18536515771E+04  0.19734022213E+04  0.81789239629E+02 0.  0.
        -11    1    3    3    0    0 -0.57955598298E+02 -0.19529579161E+00 -0.20945427510E+03  0.21732460254E+03  0.00000000000E+00 0.  1.
         12    1    3    3    0    0  0.16231628077E+02  0.29827880111E+02 -0.63074147113E+02  0.71634602086E+02  0.00000000000E+00 0. -1.
         13    1    5    5    0    0  0.51434629016E+02  0.11010673513E+03  0.34130054559E+03  0.36229142496E+03  0.00000000000E+00 0. -1.
        -14    1    5    5    0    0  0.67724883940E+02  0.55125828395E+03  0.15123510315E+04  0.16111107963E+04  0.00000000000E+00 0.  1.
          5    1    4    4  501    0 -0.76536263892E+02 -0.59397314613E+03 -0.11191196580E+03  0.60926485086E+03  0.41800000000E+01 0.  1.
         -5    1    4    4    0  501 -0.89927884276E+00 -0.97024457265E+02  0.30736767801E+02  0.10186645819E+03  0.41800000000E+01 0.  1.
</event>
<event>
11    1  0.8551154E-009  0.1454628E+03  0.7561462E-02  0.1101607E+00
         22   -1    0    0    0    0  0.00000000000E+00  0.00000000000E+00  0.10885314769E+04  0.10885314769E+04  0.00000000000E+00 0. -1.
         22   -1    0    0    0    0 -0.00000000000E+00 -0.00000000000E+00 -0.89790184555E+03  0.89790184555E+03  0.00000000000E+00 0.  1.
         24    2    1    2    0    0 -0.61076149952E+01 -0.44346258034E+02 -0.79015279944E+03  0.79537284447E+03  0.79199884421E+02 0.  0.
         25    2    1    2    0    0 -0.66727230464E+02  0.27899774152E+02 -0.51144898585E+02  0.15327939935E+03  0.12509137833E+03 0.  0.
        -24    2    1    2    0    0  0.72834845459E+02  0.16446483882E+02  0.10319273294E+04  0.10377810787E+04  0.80871209246E+02 0.  0.
        -13    1    3    3    0    0  0.17800542823E+02 -0.37666848890E+02 -0.71527990077E+03  0.71649214042E+03  0.00000000000E+00 0.  1.
         14    1    3    3    0    0 -0.23908157819E+02 -0.66794091433E+01 -0.74872898670E+02  0.78880704054E+02  0.00000000000E+00 0. -1.
         13    1    5    5    0    0  0.12563522096E+02  0.47772236252E+00  0.69616692580E+03  0.69628044557E+03  0.00000000000E+00 0. -1.
        -14    1    5    5    0    0  0.60271323363E+02  0.15968761519E+02  0.33576040361E+03  0.34150063308E+03  0.00000000000E+00 0.  1.
          5    1    4    4  501    0 -0.75245310078E+02  0.58113728470E+02 -0.24561740458E+01  0.95197517385E+02  0.41800000000E+01 0.  1.
         -5    1    4    4    0  501  0.85180796140E+01 -0.30213954318E+02 -0.48688724539E+02  0.58081881969E+02  0.41800000000E+01 0.  1.
</event>
<event>
11    1  0.8551154E-009  0.1279850E+03  0.7561462E-02  0.1121770E+00
         22   -1    0    0    0    0  0.00000000000E+00  0.00000000000E+00  0.21971522630E+03  0.21971522630E+03  0.00000000000E+00 0. -1.
         22   -1    0    0    0    0 -0.00000000000E+00 -0.00000000000E+00 -0.40715846040E+03  0.40715846040E+03  0.00000000000E+00 0. -1.
        -24    2    1    2    0    0  0.16648902148E+02 -0.17606812546E+02 -0.34155524265E+03  0.35175266197E+03  0.80515623498E+02 0.  0.
         25    2    1    2    0    0  0.13094575599E+02  0.31998143939E+01  0.45156586218E+02  0.13367331416E+03  0.12509089062E+03 0.  0.
         24    2    1    2    0    0 -0.29743477747E+02  0.14406998152E+02  0.10895542234E+03  0.14144771058E+03  0.83928152048E+02 0.  0.
        -13    1    5    5    0    0  0.22265399799E+01  0.25879669538E+02 -0.13706199347E+01  0.26011408549E+02  0.00000000000E+00 0.  1.
         14    1    5    5    0    0 -0.31970017727E+02 -0.11472671386E+02  0.11032604227E+03  0.11543630203E+03  0.00000000000E+00 0. -1.
         13    1    3    3    0    0  0.17533571554E+01  0.40706926975E+01 -0.31261348141E+03  0.31264490011E+03  0.00000000000E+00 0. -1.
        -14    1    3    3    0    0  0.14895544993E+02 -0.21677505244E+02 -0.28941761236E+02  0.39107761859E+02  0.00000000000E+00 0.  1.
          5    1    4    4  501    0  0.49593036839E+02  0.46735038376E+02  0.30974635205E+02  0.74970217693E+02  0.41800000000E+01 0.  1.
         -5    1    4    4    0  501 -0.36498461240E+02 -0.43535223982E+02  0.14181951013E+02  0.58703096465E+02  0.41800000000E+01 0.  1.
</event>
<event>
11    1  0.8551154E-009  0.1333416E+03  0.7561462E-02  0.1115230E+00
         22   -1    0    0    0    0  0.00000000000E+00  0.00000000000E+00  0.12244579634E+04  0.12244579634E+04  0.00000000000E+00 0.  1.
         22   -1    0    0    0    0 -0.00000000000E+00 -0.00000000000E+00 -0.76126029217E+02  0.76126029217E+02  0.00000000000E+00 0. -1.
         24    2    1    2    0    0 -0.58371958991E+02 -0.22658102936E+02  0.24587843321E+02  0.12947131434E+03  0.11062361399E+03 0.  0.
         25    2    1    2    0    0 -0.13144684204E+02  0.31385444581E+02  0.18365764825E+03  0.22480264133E+03  0.12509303311E+03 0.  0.
        -24    2    1    2    0    0  0.71516643195E+02 -0.87273416450E+01  0.94008644260E+03  0.94631003694E+03  0.80928176212E+02 0.  0.
        -11    1    3    3    0    0 -0.66027500508E+02  0.18793959575E+02  0.45556634077E+02  0.82390840804E+02  0.00000000000E+00 0.  1.
         12    1    3    3    0    0  0.76555415175E+01 -0.41452062511E+02 -0.20968790756E+02  0.47080473533E+02  0.00000000000E+00 0. -1.
         13    1    5    5    0    0  0.28308756892E+02  0.18700910496E+02  0.12215865044E+03  0.12678267093E+03  0.00000000000E+00 0. -1.
        -14    1    5    5    0    0  0.43207886303E+02 -0.27428252141E+02  0.81792779216E+03  0.81952736601E+03  0.00000000000E+00 0.  1.
          5    1    4    4  501    0  0.56093567533E+02  0.11432505025E+02  0.84822373942E+02  0.10241825038E+03  0.41800000000E+01 0.  1.
         -5    1    4    4    0  501 -0.69238251737E+02  0.19952939556E+02  0.98835274312E+02  0.12238439095E+03  0.41800000000E+01 0.  1.
</event>
<event>
11    1  0.8551154E-009  0.1263224E+03  0.7561462E-02  0.1123872E+00
         22   -1    0    0    0    0  0.00000000000E+00  0.00000000000E+00  0.57428402981E+03  0.57428402981E+03  0.00000000000E+00 0.  1.
         22   -1    0    0    0    0 -0.00000000000E+00 -0.00000000000E+00 -0.31544190996E+03  0.31544190996E+03  0.00000000000E+00 0. -1.
         24    2    1    2    0    0 -0.20268875645E+01 -0.22099238560E+01 -0.16771820269E+03  0.18573594773E+03  0.79746189422E+02 0.  0.
         25    2    1    2    0    0 -0.14940936541E+02  0.71896668732E+01 -0.10611912901E+03  0.16486939562E+03  0.12508287324E+03 0.  0.
        -24    2    1    2    0    0  0.16967824105E+02 -0.49797430172E+01  0.53267945155E+03  0.53912059643E+03  0.81184447373E+02 0.  0.
        -11    1    3    3    0    0  0.36088333033E+02  0.13381340188E+02 -0.86380473982E+02  0.94567512031E+02  0.00000000000E+00 0.  1.
         12    1    3    3    0    0 -0.38115220597E+02 -0.15591264044E+02 -0.81337728711E+02  0.91168435698E+02  0.00000000000E+00 0. -1.
         11    1    5    5    0    0  0.39188910289E+02 -0.97242507829E+01  0.13795044958E+03  0.14373815875E+03  0.00000000000E+00 0. -1.
        -12    1    5    5    0    0 -0.22221086183E+02  0.47445077657E+01  0.39472900197E+03  0.39538243768E+03  0.00000000000E+00 0.  1.
          5    1    4    4  501    0 -0.48969388425E+02  0.17829874867E+02  0.58896185457E+00  0.52285033390E+02  0.41800000000E+01 0.  1.
         -5    1    4    4    0  501  0.34028451884E+02 -0.10640207993E+02 -0.10670809086E+03  0.11258436223E+03  0.41800000000E+01 0.  1.
</event>
<event>
11    1  0.8551154E-009  0.1528141E+03  0.7561462E-02  0.1094038E+00
         22   -1    0    0    0    0  0.00000000000E+00  0.00000000000E+00  0.76863529145E+03  0.76863529145E+03  0.00000000000E+00 0.  1.
         22   -1    0    0    0    0 -0.00000000000E+00 -0.00000000000E+00 -0.42791955397E+03  0.42791955397E+03  0.00000000000E+00 0.  1.
        -24    2    1    2    0    0 -0.49752641588E+02  0.70382754415E+02 -0.38579043569E+03  0.40636889319E+03  0.94193203691E+02 0.  0.
         25    2    1    2    0    0  0.11127886675E+03 -0.10768986972E+03  0.39691993746E+03  0.44404277850E+03  0.12509379747E+03 0.  0.
         24    2    1    2    0    0 -0.61526225158E+02  0.37307115303E+02  0.32958623570E+03  0.34614317372E+03  0.77528786363E+02 0.  0.
        -11    1    5    5    0    0 -0.63977226819E+02  0.53687270471E+02  0.22013746285E+03  0.23544831941E+03  0.00000000000E+00 0.  1.
         12    1    5    5    0    0  0.24510016613E+01 -0.16380155168E+02  0.10944877285E+03  0.11069485431E+03  0.00000000000E+00 0. -1.
         13    1    3    3    0    0  0.22075837719E+02 -0.13878821386E+01 -0.37086559391E+02  0.43181960531E+02  0.00000000000E+00 0. -1.
        -14    1    3    3    0    0 -0.71828479307E+02  0.71770636554E+02 -0.34870387630E+03  0.36318693266E+03  0.00000000000E+00 0.  1.
          5    1    4    4  501    0 -0.27533534089E+02 -0.12406007343E+02  0.67511522374E+02  0.74076194360E+02  0.41800000000E+01 0.  1.
         -5    1    4    4    0  501  0.13881240084E+03 -0.95283862375E+02  0.32940841508E+03  0.36996658414E+03  0.41800000000E+01 0.  1.
</event>
<event>
11    1  0.8551154E-009  0.1330923E+03  0.7561462E-02  0.1115527E+00
         22   -1    0    0    0    0  0.00000000000E+00  0.00000000000E+00  0.11213764187E+03  0.11213764187E+03  0.00000000000E+00 0.  1.
         22   -1    0    0    0    0 -0.00000000000E+00 -0.00000000000E+00 -0.11668831236E+04  0.11668831236E+04  0.00000000000E+00 0. -1.
        -24    2    1    2    0    0  0.38211370844E+02  0.28671294440E+02 -0.91152177216E+03  0.91623201538E+03  0.79542522610E+02 0.  0.
         25    2    1    2    0    0 -0.12192682926E+02 -0.29605018040E+02 -0.21494330586E+03  0.25074482427E+03  0.12508886262E+03 0.  0.
         24    2    1    2    0    0 -0.26018687919E+02  0.93372360066E+00  0.71719596279E+02  0.11204392582E+03  0.82050575031E+02 0.  0.
        -13    1    5    5    0    0  0.25737010807E+02  0.17799631727E+02  0.21362306922E+02  0.37888900379E+02  0.00000000000E+00 0.  1.
         14    1    5    5    0    0 -0.51755698725E+02 -0.16865908126E+02  0.50357289357E+02  0.74155025446E+02  0.00000000000E+00 0. -1.
         13    1    3    3    0    0  0.69921752499E+01  0.11625746512E+02 -0.77604764262E+03  0.77616621423E+03  0.00000000000E+00 0. -1.
        -14    1    3    3    0    0  0.31219195594E+02  0.17045547928E+02 -0.13547412954E+03  0.14006580116E+03  0.00000000000E+00 0.  1.
          5    1    4    4  501    0 -0.22610083236E+02  0.46051924029E+02 -0.10331454360E+03  0.11542687248E+03  0.41800000000E+01 0.  1.
         -5    1    4    4    0  501  0.10417400310E+02 -0.75656942069E+02 -0.11162876226E+03  0.13531795179E+03  0.41800000000E+01 0.  1.
</event>
<event>
11    1  0.8551154E-009  0.1444786E+03  0.7561462E-02  0.1102658E+00
         22   -1    0    0    0    0  0.00000000000E+00  0.00000000000E+00  0.58590876565E+03  0.58590876565E+03  0.00000000000E+00 0.  1.
         22   -1    0    0    0    0 -0.00000000000E+00 -0.00000000000E+00 -0.62678301805E+02  0.62678301805E+02  0.00000000000E+00 0.  1.
        -24    2    1    2    0    0  0.42011553168E+02  0.56869629493E+02  0.69065975126E+02  0.12745361335E+03  0.80468560797E+02 0.  0.
         25    2    1    2    0    0 -0.31101672905E+02 -0.69897301245E+02  0.16597221747E+03  0.22147639305E+03  0.12510822885E+03 0.  0.
         24    2    1    2    0    0 -0.10909880264E+02  0.13027671752E+02  0.28819227125E+03  0.29965706107E+03  0.80317017619E+02 0.  0.
        -11    1    5    5    0    0 -0.29595328365E+02  0.31764028395E+02  0.24637494592E+03  0.25017084350E+03  0.00000000000E+00 0.  1.
         12    1    5    5    0    0  0.18685448101E+02 -0.18736356643E+02  0.41817325328E+02  0.49486217562E+02  0.00000000000E+00 0. -1.
         11    1    3    3    0    0 -0.67795026438E+01 -0.13709975013E+02 -0.27778197990E+01  0.15544817586E+02  0.00000000000E+00 0. -1.
        -12    1    3    3    0    0  0.48791055812E+02  0.70579604506E+02  0.71843794925E+02  0.11190879576E+03  0.00000000000E+00 0.  1.
          5    1    4    4  501    0  0.13854332235E+02 -0.92862099096E+02  0.89720722445E+02  0.12993303047E+03  0.41800000000E+01 0.  1.
         -5    1    4    4    0  501 -0.44956005140E+02  0.22964797851E+02  0.76251495029E+02  0.91543362581E+02  0.41800000000E+01 0.  1.
</event>
<event>
11    1  0.8551154E-009  0.1984932E+03  0.7561462E-02  0.1055594E+00
         22   -1    0    0    0    0  0.00000000000E+00  0.00000000000E+00  0.31004851912E+03  0.31004851912E+03  0.00000000000E+00 0.  1.
         22   -1    0    0    0    0 -0.00000000000E+00 -0.00000000000E+00 -0.28928738671E+03  0.28928738671E+03  0.00000000000E+00 0.  1.
        -24    2    1    2    0    0  0.39729455271E+02 -0.42244129955E+02 -0.15011280913E+03  0.18149338751E+03  0.83922572123E+02 0.  0.
         25    2    1    2    0    0 -0.17819053159E+03  0.33975512664E+02  0.85331342179E+02  0.23629158128E+03  0.12508426127E+03 0.  0.
         24    2    1    2    0    0  0.13846107632E+03  0.82686172905E+01  0.85542599368E+02  0.18155093704E+03  0.80021039393E+02 0.  0.
        -11    1    5    5    0    0  0.12771316963E+03 -0.20391031515E+02  0.65576781137E+02  0.14500607604E+03  0.00000000000E+00 0.  1.
         12    1    5    5    0    0  0.10747906685E+02  0.28659648806E+02  0.19965818231E+02  0.36544860998E+02  0.00000000000E+00 0. -1.
         11    1    3    3    0    0 -0.25027094662E+02 -0.46651925883E+01 -0.53652799845E+02  0.59386382449E+02  0.00000000000E+00 0. -1.
        -12    1    3    3    0    0  0.64756549934E+02 -0.37578937366E+02 -0.96460009289E+02  0.12210700506E+03  0.00000000000E+00 0.  1.
          5    1    4    4  501    0 -0.22205311443E+02  0.40852557230E+02  0.63148390480E+02  0.78531515385E+02  0.41800000000E+01 0. -1.
         -5    1    4    4    0  501 -0.15598522015E+03 -0.68770445662E+01  0.22182951699E+02  0.15776006590E+03  0.41800000000E+01 0. -1.
</event>
<event>
11    1  0.8551154E-009  0.2394836E+03  0.7561462E-02  0.1029655E+00
         22   -1    0    0    0    0  0.00000000000E+00  0.00000000000E+00  0.40780828961E+03  0.40780828961E+03  0.00000000000E+00 0. -1.
         22   -1    0    0    0    0 -0.00000000000E+00 -0.00000000000E+00 -0.19474148351E+04  0.19474148351E+04  0.00000000000E+00 0.  1.
         24    2    1    2    0    0 -0.21124632805E+03  0.12573928692E+02 -0.16674657802E+04  0.16827737006E+04  0.80635504338E+02 0.  0.
         25    2    1    2    0    0  0.16537129452E+03  0.36145903362E+02 -0.22275886393E+03  0.30646979588E+03  0.12509209786E+03 0.  0.
        -24    2    1    2    0    0  0.45875033529E+02 -0.48719832054E+02  0.35061809866E+03  0.36597962819E+03  0.80807774430E+02 0.  0.
        -11    1    3    3    0    0 -0.20260152241E+03  0.32038264661E+02 -0.15202032636E+04  0.15339790709E+04  0.00000000000E+00 0.  1.
         12    1    3    3    0    0 -0.86448056429E+01 -0.19464335969E+02 -0.14726251657E+03  0.14879462970E+03  0.00000000000E+00 0. -1.
         13    1    5    5    0    0  0.40334182323E+02 -0.17553721088E+00  0.25924109937E+03  0.26236010497E+03  0.00000000000E+00 0. -1.
        -14    1    5    5    0    0  0.55408512054E+01 -0.48544294843E+02  0.91376999284E+02  0.10361952322E+03  0.00000000000E+00 0.  1.
          5    1    4    4  501    0  0.17861883294E+03  0.55108475694E+02 -0.19757680994E+03  0.27202150614E+03  0.41800000000E+01 0.  1.
         -5    1    4    4    0  501 -0.13247538415E+02 -0.18962572331E+02 -0.25182053981E+02  0.34448289743E+02  0.41800000000E+01 0.  1.
</event>
<event>
11    1  0.8551154E-009  0.1937543E+03  0.7561462E-02  0.1059030E+00
         22   -1    0    0    0    0  0.00000000000E+00  0.00000000000E+00  0.31282524626E+03  0.31282524626E+03  0.00000000000E+00 0. -1.
         22   -1    0    0    0    0 -0.00000000000E+00 -0.00000000000E+00 -0.52477842709E+03  0.52477842709E+03  0.00000000000E+00 0.  1.
        -24    2    1    2    0    0  0.68633353547E+02 -0.91318430522E+01 -0.36539052217E+03  0.38032536070E+03  0.79644325143E+02 0.  0.
         25    2    1    2    0    0 -0.17904361269E+03  0.86789780497E+02 -0.52711288498E+01  0.23508305357E+03  0.12508867269E+03 0.  0.
         24    2    1    2    0    0  0.11041025914E+03 -0.77657937445E+02  0.15870847019E+03  0.22219525907E+03  0.77208639870E+02 0.  0.
        -11    1    5    5    0    0  0.16515072077E+02 -0.22923786135E+01  0.71785779617E+02  0.73696680798E+02  0.00000000000E+00 0.  1.
         12    1    5    5    0    0  0.93895187065E+02 -0.75365558832E+02  0.86922690570E+02  0.14849857827E+03  0.00000000000E+00 0. -1.
         11    1    3    3    0    0 -0.15891361472E+02  0.10068984166E+02 -0.69352799991E+02  0.71859102959E+02  0.00000000000E+00 0. -1.
        -12    1    3    3    0    0  0.84524715019E+02 -0.19200827218E+02 -0.29603772218E+03  0.30846625774E+03  0.00000000000E+00 0.  1.
          5    1    4    4  501    0 -0.15618905731E+03  0.11730535627E+03 -0.13541144089E+02  0.19584790838E+03  0.41800000000E+01 0. -1.
         -5    1    4    4    0  501 -0.22854555376E+02 -0.30515575773E+02  0.82700152388E+01  0.39235145192E+02  0.41800000000E+01 0. -1.
</event>
<event>
11    1  0.8551154E-009  0.1913008E+03  0.7561462E-02  0.1060852E+00
         22   -1    0    0    0    0  0.00000000000E+00  0.00000000000E+00  0.55465443741E+03  0.55465443741E+03  0.00000000000E+00 0. -1.
         22   -1    0    0    0    0 -0.00000000000E+00 -0.00000000000E+00 -0.11005751757E+04  0.11005751757E+04  0.00000000000E+00 0.  1.
        -24    2    1    2    0    0  0.76468623205E+02 -0.49985227289E+02 -0.92226832062E+03  0.93030076658E+03  0.80837415874E+02 0.  0.
         25    2    1    2    0    0  0.38580481020E+02  0.14135508747E+03 -0.10202790952E+03  0.21800813168E+03  0.12509251332E+03 0.  0.
         24    2    1    2    0    0 -0.11504910422E+03 -0.91369860178E+02  0.47837549183E+03  0.50692071487E+03  0.80874917263E+02 0.  0.
        -11    1    5    5    0    0 -0.36038442754E+02 -0.47809155250E+01  0.22279536541E+03  0.22574189101E+03  0.00000000000E+00 0.  1.
         12    1    5    5    0    0 -0.79010661470E+02 -0.86588944653E+02  0.25558012643E+03  0.28117882386E+03  0.00000000000E+00 0. -1.
         13    1    3    3    0    0 -0.16010923387E+02 -0.98095312528E+01 -0.89351508557E+02  0.91303168908E+02  0.00000000000E+00 0. -1.
        -14    1    3    3    0    0  0.92479546591E+02 -0.40175696036E+02 -0.83291681206E+03  0.83899759768E+03  0.00000000000E+00 0.  1.
          5    1    4    4  501    0  0.62066583268E+01  0.28756682970E+02  0.29462268614E+02  0.41844558726E+02  0.41800000000E+01 0. -1.
         -5    1    4    4    0  501  0.32373822693E+02  0.11259840450E+03 -0.13149017813E+03  0.17616357295E+03  0.41800000000E+01 0. -1.
</event>
<event>
11    1  0.8551154E-009  0.1894159E+03  0.7561462E-02  0.1062271E+00
         22   -1    0    0    0    0  0.00000000000E+00  0.00000000000E+00  0.26584441144E+03  0.26584441144E+03  0.00000000000E+00 0. -1.
         22   -1    0    0    0    0 -0.00000000000E+00 -0.00000000000E+00 -0.49562771251E+03  0.49562771251E+03  0.00000000000E+00 0. -1.
        -24    2    1    2    0    0 -0.13049368401E+03 -0.16239788314E+02 -0.31277520182E+03  0.34685944007E+03  0.72047290027E+02 0.  0.
         25    2    1    2    0    0  0.20187196674E+03  0.33998405737E+02 -0.46411901019E+02  0.24435698767E+03  0.12509232716E+03 0.  0.
         24    2    1    2    0    0 -0.71378282730E+02 -0.17758617423E+02  0.12940380176E+03  0.17025569622E+03  0.82652467888E+02 0.  0.
        -13    1    5    5    0    0 -0.41342160875E+02 -0.32156829090E+02  0.20285953153E+02  0.56167213018E+02  0.00000000000E+00 0.  1.
         14    1    5    5    0    0 -0.30036121856E+02  0.14398211666E+02  0.10911784861E+03  0.11408848320E+03  0.00000000000E+00 0. -1.
         11    1    3    3    0    0 -0.12353461214E+03 -0.35162174649E+02 -0.25230188263E+03  0.28311379143E+03  0.00000000000E+00 0. -1.
        -12    1    3    3    0    0 -0.69590718748E+01  0.18922386335E+02 -0.60473319190E+02  0.63745648634E+02  0.00000000000E+00 0.  1.
          5    1    4    4  501    0  0.18051031224E+03 -0.14219977016E+02 -0.58040498888E+02  0.19019030596E+03  0.41800000000E+01 0. -1.
         -5    1    4    4    0  501  0.21361654505E+02  0.48218382753E+02  0.11628597869E+02  0.54166681705E+02  0.41800000000E+01 0. -1.
</event>
<event>
11    1  0.8551154E-009  0.2464462E+03  0.7561462E-02  0.1025810E+00
         22   -1    0    0    0    0  0.00000000000E+00  0.00000000000E+00  0.12228595319E+04  0.12228595319E+04  0.00000000000E+00 0.  1.
         22   -1    0    0    0    0 -0.00000000000E+00 -0.00000000000E+00 -0.70325608605E+03  0.70325608605E+03  0.00000000000E+00 0.  1.
         24    2    1    2    0    0 -0.37705076925E+02  0.59121725659E+02 -0.63424295229E+03  0.64311462174E+03  0.80095211408E+02 0.  0.
         25    2    1    2    0    0  0.23329935213E+03  0.13025579585E+02  0.29965065709E+03  0.40004161076E+03  0.12507805812E+03 0.  0.
        -24    2    1    2    0    0 -0.19559427521E+03 -0.72147305244E+02  0.85419574111E+03  0.88295938549E+03  0.80650841021E+02 0.  0.
        -13    1    3    3    0    0 -0.16063394770E+02 -0.12255756802E+02 -0.29866892060E+03  0.29935156649E+03  0.00000000000E+00 0.  1.
         14    1    3    3    0    0 -0.21641682155E+02  0.71377482461E+02 -0.33557403169E+03  0.34376305525E+03  0.00000000000E+00 0. -1.
         11    1    5    5    0    0 -0.35679548040E+02  0.17511235944E+02  0.17484831850E+03  0.17930869476E+03  0.00000000000E+00 0. -1.
        -12    1    5    5    0    0 -0.15991472717E+03 -0.89658541188E+02  0.67934742260E+03  0.70365069073E+03  0.00000000000E+00 0.  1.
          5    1    4    4  501    0  0.33664069202E+02  0.48284378248E+02  0.43297173855E+02  0.73189947410E+02  0.41800000000E+01 0. -1.
         -5    1    4    4    0  501  0.19963528293E+03 -0.35258798663E+02  0.25635348323E+03  0.32685166335E+03  0.41800000000E+01 0. -1.
</event>
<event>
11    1  0.8551154E-009  0.1591165E+03  0.7561462E-02  0.1087911E+00
         22   -1    0    0    0    0  0.00000000000E+00  0.00000000000E+00  0.17935956099E+04  0.17935956099E+04  0.00000000000E+00 0.  1.
         22   -1    0    0    0    0 -0.00000000000E+00 -0.00000000000E+00 -0.47019297129E+02  0.47019297129E+02  0.00000000000E+00 0. -1.
        -24    2    1    2    0    0  0.91029036757E+02 -0.35665869939E+02  0.72630318409E+02  0.14634290970E+03  0.81134112783E+02 0.  0.
         25    2    1    2    0    0 -0.10235169035E+03  0.19377110763E+02  0.80584183488E+03  0.82211918698E+03  0.12509018273E+03 0.  0.
         24    2    1    2    0    0  0.11322653593E+02  0.16288759176E+02  0.86810415952E+03  0.87215281039E+03  0.81560816123E+02 0.  0.
        -11    1    5    5    0    0  0.43006473134E+02  0.20937126563E+02  0.64377861124E+03  0.64555311190E+03  0.00000000000E+00 0.  1.
         12    1    5    5    0    0 -0.31683819541E+02 -0.46483673870E+01  0.22432554828E+03  0.22659969848E+03  0.00000000000E+00 0. -1.
         11    1    3    3    0    0  0.55533305983E+02 -0.60560025604E+02  0.36512637306E+02  0.89914612036E+02  0.00000000000E+00 0. -1.
        -12    1    3    3    0    0  0.35495730774E+02  0.24894155665E+02  0.36117681103E+02  0.56428297668E+02  0.00000000000E+00 0.  1.
          5    1    4    4  501    0 -0.10223881275E+02  0.25236551475E+02  0.53948362056E+03  0.54018650532E+03  0.41800000000E+01 0. -1.
         -5    1    4    4    0  501 -0.92127809076E+02 -0.58594407122E+01  0.26635821432E+03  0.28193268165E+03  0.41800000000E+01 0. -1.
</event>
<event>
11    1  0.8551154E-009  0.1375372E+03  0.7561462E-02  0.1110340E+00
         22   -1    0    0    0    0  0.00000000000E+00  0.00000000000E+00  0.54013951551E+03  0.54013951551E+03  0.00000000000E+00 0. -1.
         22   -1    0    0    0    0 -0.00000000000E+00 -0.00000000000E+00 -0.65413435116E+03  0.65413435116E+03  0.00000000000E+00 0.  1.
        -24    2    1    2    0    0 -0.56385797730E+02 -0.92730467331E+01 -0.62737992843E+03  0.63511378260E+03  0.80613861525E+02 0.  0.
         25    2    1    2    0    0  0.59549716894E+02  0.24948937182E+02  0.25567522709E+03  0.29185697886E+03  0.12506820585E+03 0.  0.
         24    2    1    2    0    0 -0.31639191636E+01 -0.15675890449E+02  0.25770986570E+03  0.26730310521E+03  0.69143555376E+02 0.  0.
        -11    1    5    5    0    0  0.30974358354E+02 -0.88476418915E+01  0.80504843841E+02  0.86710561780E+02  0.00000000000E+00 0.  1.
         12    1    5    5    0    0 -0.34138277518E+02 -0.68282485577E+01  0.17720502186E+03  0.18059254343E+03  0.00000000000E+00 0. -1.
         13    1    3    3    0    0 -0.60246843697E+02  0.17689710169E+02 -0.29439235513E+03  0.30101406409E+03  0.00000000000E+00 0. -1.
        -14    1    3    3    0    0  0.38610459665E+01 -0.26962756902E+02 -0.33298757330E+03  0.33409971851E+03  0.00000000000E+00 0.  1.
          5    1    4    4  501    0  0.29442038424E+02  0.55990580286E+02  0.23563037940E+03  0.24401009570E+03  0.41800000000E+01 0.  1.
         -5    1    4    4    0  501  0.30107678470E+02 -0.31041643103E+02  0.20044847690E+02  0.47846883162E+02  0.41800000000E+01 0.  1.
</event>
<event>
11    1  0.8551154E-009  0.1715811E+03  0.7561462E-02  0.1076664E+00
         22   -1    0    0    0    0  0.00000000000E+00  0.00000000000E+00  0.65796938650E+03  0.65796938650E+03  0.00000000000E+00 0.  1.
         22   -1    0    0    0    0 -0.00000000000E+00 -0.00000000000E+00 -0.17565865776E+03  0.17565865776E+03  0.00000000000E+00 0.  1.
         24    2    1    2    0    0  0.11440644381E+03  0.31294898702E+01 -0.90126998123E+02  0.16583102169E+03  0.79236505922E+02 0.  0.
         25    2    1    2    0    0 -0.13645314391E+03  0.73917446774E+02  0.21705380013E+03  0.29469041514E+03  0.12508732632E+03 0.  0.
        -24    2    1    2    0    0  0.22046700100E+02 -0.77046936645E+02  0.35538392674E+03  0.37310660743E+03  0.80551335725E+02 0.  0.
        -13    1    3    3    0    0  0.90148156456E+02 -0.24101899029E+02 -0.89586926937E+02  0.12935767904E+03  0.00000000000E+00 0.  1.
         14    1    3    3    0    0  0.24258287357E+02  0.27231388899E+02 -0.54007118595E+00  0.36473342646E+02  0.00000000000E+00 0. -1.
         11    1    5    5    0    0  0.31783588557E+02 -0.53016887604E+02  0.10856321694E+03  0.12492781493E+03  0.00000000000E+00 0. -1.
        -12    1    5    5    0    0 -0.97368884571E+01 -0.24030049041E+02  0.24682070981E+03  0.24817879249E+03  0.00000000000E+00 0.  1.
          5    1    4    4  501    0 -0.15469573946E+03  0.44195197106E+02  0.15532175280E+03  0.22366561324E+03  0.41800000000E+01 0. -1.
         -5    1    4    4    0  501  0.18242595548E+02  0.29722249668E+02  0.61732047327E+02  0.71024801899E+02  0.41800000000E+01 0. -1.
</event>
<event>
11    1  0.8551154E-009  0.1263646E+03  0.7561462E-02  0.1123818E+00
         22   -1    0    0    0    0  0.00000000000E+00  0.00000000000E+00  0.35269102901E+02  0.35269102901E+02  0.00000000000E+00 0.  1.
         22   -1    0    0    0    0 -0.00000000000E+00 -0.00000000000E+00 -0.78273711428E+03  0.78273711428E+03  0.00000000000E+00 0.  1.
         24    2    1    2    0    0 -0.84143443868E+01  0.17390236769E+02 -0.39941109295E+03  0.40780540924E+03  0.80017554997E+02 0.  0.
         25    2    1    2    0    0  0.99626813807E+01 -0.97009794344E+01 -0.27459742249E+03  0.30206790892E+03  0.12509161898E+03 0.  0.
        -24    2    1    2    0    0 -0.15483369938E+01 -0.76892573345E+01 -0.73459495936E+02  0.10813289902E+03  0.78961410073E+02 0.  0.
        -13    1    3    3    0    0 -0.20083280704E+02 -0.16053311692E+02 -0.31780947661E+03  0.31884778564E+03  0.00000000000E+00 0.  1.
         14    1    3    3    0    0  0.11668936317E+02  0.33443548461E+02 -0.81601616336E+02  0.88957623603E+02  0.00000000000E+00 0. -1.
         13    1    5    5    0    0 -0.28991374233E+01  0.13512993526E+02 -0.83498968569E+02  0.84635003066E+02  0.00000000000E+00 0. -1.
        -14    1    5    5    0    0  0.13508004295E+01 -0.21202250861E+02  0.10039472633E+02  0.23497895951E+02  0.00000000000E+00 0.  1.
          5    1    4    4  501    0  0.64279775838E+02  0.54468155498E+01 -0.10512255264E+03  0.12340899828E+03  0.41800000000E+01 0. -1.
         -5    1    4    4    0  501 -0.54317094457E+02 -0.15147794984E+02 -0.16947486985E+03  0.17865891065E+03  0.41800000000E+01 0. -1.
</event>
<event>
11    1  0.8551154E-009  0.1380821E+03  0.7561462E-02  0.1109719E+00
         22   -1    0    0    0    0  0.00000000000E+00  0.00000000000E+00  0.22880993768E+04  0.22880993768E+04  0.00000000000E+00 0. -1.
         22   -1    0    0    0    0 -0.00000000000E+00 -0.00000000000E+00 -0.48824997113E+03  0.48824997113E+03  0.00000000000E+00 0.  1.
        -24    2    1    2    0    0 -0.40728725231E+02  0.41523074833E+02 -0.41818411743E+03  0.42976866655E+03  0.80250581776E+02 0.  0.
         25    2    1    2    0    0  0.97483572136E+01 -0.77007229634E+02  0.22376557611E+02  0.14890869778E+03  0.12509175057E+03 0.  0.
         24    2    1    2    0    0  0.30980368017E+02  0.35484154800E+02  0.21956569655E+04  0.21976719836E+04  0.81447706355E+02 0.  0.
        -13    1    5    5    0    0 -0.11919907142E+02  0.33249517468E+02  0.41606940178E+03  0.41756599681E+03  0.00000000000E+00 0.  1.
         14    1    5    5    0    0  0.42900275159E+02  0.22346373321E+01  0.17795875637E+04  0.17801059868E+04  0.00000000000E+00 0. -1.
         11    1    3    3    0    0  0.73866274711E+01 -0.17852740558E+02 -0.47322659661E+02  0.51114740811E+02  0.00000000000E+00 0. -1.
        -12    1    3    3    0    0 -0.48115352702E+02  0.59375815391E+02 -0.37086145777E+03  0.37865392574E+03  0.00000000000E+00 0.  1.
          5    1    4    4  501    0 -0.10791525570E+02  0.26899812176E+02  0.30893589882E+02  0.42566926305E+02  0.41800000000E+01 0. -1.
         -5    1    4    4    0  501  0.20539882783E+02 -0.10390704181E+03 -0.85170322711E+01  0.10634177148E+03  0.41800000000E+01 0. -1.
</event>
<event>
11    1  0.8551154E-009  0.1566860E+03  0.7561462E-02  0.1090236E+00
         22   -1    0    0    0    0  0.00000000000E+00  0.00000000000E+00  0.70479797012E+03  0.70479797012E+03  0.00000000000E+00 0. -1.
         22   -1    0    0    0    0 -0.00000000000E+00 -0.00000000000E+00 -0.44409170050E+03  0.44409170050E+03  0.00000000000E+00 0.  1.
         24    2    1    2    0    0 -0.24185176073E+02 -0.77883313685E+02 -0.39354674505E+03  0.40977975290E+03  0.79935424270E+02 0.  0.
         25    2    1    2    0    0 -0.66278346211E+02  0.24079190498E+02  0.11542957480E+03  0.18423727840E+03  0.12508701541E+03 0.  0.
        -24    2    1    2    0    0  0.90463522284E+02  0.53804123187E+02  0.53882343987E+03  0.55487263932E+03  0.80463743220E+02 0.  0.
        -11    1    3    3    0    0 -0.53725489314E+02 -0.46803522334E+02 -0.23905677697E+03  0.24944967533E+03  0.00000000000E+00 0.  1.
         12    1    3    3    0    0  0.29540313242E+02 -0.31079791350E+02 -0.15448996808E+03  0.16033007757E+03  0.00000000000E+00 0. -1.
         13    1    5    5    0    0  0.39170910026E+02  0.45761795585E+02  0.43112410413E+03  0.43531195169E+03  0.00000000000E+00 0. -1.
        -14    1    5    5    0    0  0.51292612258E+02  0.80423276017E+01  0.10769933574E+03  0.11956068762E+03  0.00000000000E+00 0.  1.
          5    1    4    4  501    0  0.97640735102E+01  0.43776808121E+02  0.60391971252E+00  0.45050895438E+02  0.41800000000E+01 0.  1.
         -5    1    4    4    0  501 -0.76042419721E+02 -0.19697617623E+02  0.11482565509E+03  0.13918638297E+03  0.41800000000E+01 0.  1.
</event>
<event>
11    1  0.8551154E-009  0.4618005E+03  0.7561462E-02  0.9483179E-01
         22   -1    0    0    0    0  0.00000000000E+00  0.00000000000E+00  0.38455898495E+04  0.38455898495E+04  0.00000000000E+00 0.  1.
         22   -1    0    0    0    0 -0.00000000000E+00 -0.00000000000E+00 -0.10007690235E+04  0.10007690235E+04  0.00000000000E+00 0. -1.
         24    2    1    2    0    0  0.47768123709E+02  0.43513000928E+03 -0.83878247478E+03  0.94986538061E+03  0.84073079319E+02 0.  0.
         25    2    1    2    0    0 -0.14504391192E+03 -0.52129342447E+03  0.63187979608E+03  0.84125143051E+03  0.12508925560E+03 0.  0.
        -24    2    1    2    0    0  0.97275788206E+02  0.86163415188E+02  0.30517235046E+04  0.30552420619E+04  0.67830635022E+02 0.  0.
        -13    1    3    3    0    0  0.86747477149E+01  0.11092776093E+03 -0.14235530363E+03  0.18067997084E+03  0.00000000000E+00 0.  1.
         14    1    3    3    0    0  0.39093375995E+02  0.32420224836E+03 -0.69642717115E+03  0.76918540977E+03  0.00000000000E+00 0. -1.
         11    1    5    5    0    0  0.11352317466E+02  0.18969251459E+02  0.16697142254E+03  0.16842851172E+03  0.00000000000E+00 0. -1.
        -12    1    5    5    0    0  0.85923470741E+02  0.67194163729E+02  0.28847520821E+04  0.28868135502E+04  0.00000000000E+00 0.  1.
          5    1    4    4  501    0  0.19583613769E+02 -0.98994936792E+02  0.13633538499E+03  0.16967122632E+03  0.41800000000E+01 0. -1.
         -5    1    4    4    0  501 -0.16462752568E+03 -0.42229848768E+03  0.49554441108E+03  0.67158020419E+03  0.41800000000E+01 0. -1.
</event>
<event>
11    1  0.8551154E-009  0.1597168E+03  0.7561462E-02  0.1087344E+00
         22   -1    0    0    0    0  0.00000000000E+00  0.00000000000E+00  0.51394521147E+03  0.51394521147E+03  0.00000000000E+00 0.  1.
         22   -1    0    0    0    0 -0.00000000000E+00 -0.00000000000E+00 -0.54628474754E+03  0.54628474754E+03  0.00000000000E+00 0. -1.
         24    2    1    2    0    0 -0.72148665719E+02 -0.68087861854E+02 -0.39150614052E+03  0.41181914504E+03  0.80477097770E+02 0.  0.
         25    2    1    2    0    0  0.33005635299E+02  0.10675674594E+03 -0.88872884443E+02  0.18982080134E+03  0.12508865762E+03 0.  0.
        -24    2    1    2    0    0  0.39143030420E+02 -0.38668884085E+02  0.44803948889E+03  0.45859001263E+03  0.80857631984E+02 0.  0.
        -13    1    3    3    0    0 -0.32811490413E+02  0.12451934632E+02 -0.15435853121E+03  0.15829782291E+03  0.00000000000E+00 0.  1.
         14    1    3    3    0    0 -0.39337175307E+02 -0.80539796486E+02 -0.23714760930E+03  0.25352132214E+03  0.00000000000E+00 0. -1.
         13    1    5    5    0    0 -0.11322328153E+02  0.18010319000E+02  0.12145193929E+03  0.12330101484E+03  0.00000000000E+00 0. -1.
        -14    1    5    5    0    0  0.50465358573E+02 -0.56679203085E+02  0.32658754961E+03  0.33528899779E+03  0.00000000000E+00 0.  1.
          5    1    4    4  501    0  0.26082887581E+02  0.85664984486E+02 -0.12097378362E+03  0.15056870629E+03  0.41800000000E+01 0. -1.
         -5    1    4    4    0  501  0.69227477181E+01  0.21091761454E+02  0.32100899179E+02  0.39252095043E+02  0.41800000000E+01 0. -1.
</event>
<event>
11    1  0.8551154E-009  0.1494672E+03  0.7561462E-02  0.1097424E+00
         22   -1    0    0    0    0  0.00000000000E+00  0.00000000000E+00  0.16086672658E+04  0.16086672658E+04  0.00000000000E+00 0.  1.
         22   -1    0    0    0    0 -0.00000000000E+00 -0.00000000000E+00 -0.15369696221E+03  0.15369696221E+03  0.00000000000E+00 0.  1.
         24    2    1    2    0    0  0.20810623783E+02  0.38641695888E+02 -0.12694929737E+03  0.15709122668E+03  0.81457146251E+02 0.  0.
         25    2    1    2    0    0  0.32091659531E+02  0.41919912570E+02  0.58427376262E+03  0.59984178943E+03  0.12508872442E+03 0.  0.
        -24    2    1    2    0    0 -0.52902283314E+02 -0.80561608458E+02  0.99764583829E+03  0.10054312119E+04  0.79409563504E+02 0.  0.
        -11    1    3    3    0    0 -0.90498523736E+01  0.34947987806E+02 -0.12119551012E+03  0.12645795093E+03  0.00000000000E+00 0.  1.
         12    1    3    3    0    0  0.29860476157E+02  0.36937080820E+01 -0.57537872457E+01  0.30633275753E+02  0.00000000000E+00 0. -1.
         11    1    5    5    0    0 -0.54470307477E+02 -0.62978864565E+02  0.45869986675E+03  0.46619622428E+03  0.00000000000E+00 0. -1.
        -12    1    5    5    0    0  0.15680241626E+01 -0.17582743894E+02  0.53894597154E+03  0.53923498757E+03  0.00000000000E+00 0.  1.
          5    1    4    4  501    0  0.15924899818E+02  0.52815946324E+02  0.57533870942E+03  0.57799241308E+03  0.41800000000E+01 0.  1.
         -5    1    4    4    0  501  0.16166759713E+02 -0.10896033753E+02  0.89350532023E+01  0.21849376350E+02  0.41800000000E+01 0.  1.
</event>
<event>
11    1  0.8551154E-009  0.1298653E+03  0.7561462E-02  0.1119435E+00
         22   -1    0    0    0    0  0.00000000000E+00  0.00000000000E+00  0.62180219330E+03  0.62180219330E+03  0.00000000000E+00 0. -1.
         22   -1    0    0    0    0 -0.00000000000E+00 -0.00000000000E+00 -0.36472159348E+03  0.36472159348E+03  0.00000000000E+00 0.  1.
         24    2    1    2    0    0  0.28220531251E+01  0.74253692523E+00 -0.31209071214E+03  0.32281059584E+03  0.82447273066E+02 0.  0.
         25    2    1    2    0    0  0.85304525152E+01 -0.33755826291E+02  0.53462054768E+02  0.14042008186E+03  0.12508950260E+03 0.  0.
        -24    2    1    2    0    0 -0.11352505640E+02  0.33013289366E+02  0.51570925720E+03  0.52329310908E+03  0.81614235224E+02 0.  0.
        -11    1    3    3    0    0  0.35739151247E+02 -0.45179762754E+01 -0.24767109331E+03  0.25027718534E+03  0.00000000000E+00 0.  1.
         12    1    3    3    0    0 -0.32917098122E+02  0.52605132006E+01 -0.64419618832E+02  0.72533410497E+02  0.00000000000E+00 0. -1.
         11    1    5    5    0    0  0.13199017571E+02  0.10892012690E+02  0.44406114601E+03  0.44439076431E+03  0.00000000000E+00 0. -1.
        -12    1    5    5    0    0 -0.24551523211E+02  0.22121276676E+02  0.71648111184E+02  0.78902344769E+02  0.00000000000E+00 0.  1.
          5    1    4    4  501    0  0.98228628412E+01 -0.25510830144E+01  0.90858141074E+02  0.91518691306E+02  0.41800000000E+01 0.  1.
         -5    1    4    4    0  501 -0.12924103260E+01 -0.31204743277E+02 -0.37396086306E+02  0.48901390557E+02  0.41800000000E+01 0.  1.
</event>
<event>
11    1  0.8551154E-009  0.2492853E+03  0.7561462E-02  0.1024281E+00
         22   -1    0    0    0    0  0.00000000000E+00  0.00000000000E+00  0.66586388114E+03  0.66586388114E+03  0.00000000000E+00 0. -1.
         22   -1    0    0    0    0 -0.00000000000E+00 -0.00000000000E+00 -0.16143523664E+03  0.16143523664E+03  0.00000000000E+00 0. -1.
         24    2    1    2    0    0  0.66929242087E+00  0.17090432963E+01  0.43885444044E+02  0.90775665376E+02  0.79441301879E+02 0.  0.
         25    2    1    2    0    0 -0.52372163205E+02  0.20795584521E+03  0.32608172716E+02  0.25039715429E+03  0.12508782880E+03 0.  0.
        -24    2    1    2    0    0  0.51702870784E+02 -0.20966488851E+03  0.42793502774E+03  0.48612629812E+03  0.80980475671E+02 0.  0.
        -11    1    3    3    0    0  0.37152961795E+02 -0.55690906473E+01  0.37402836157E+02  0.53012540906E+02  0.00000000000E+00 0.  1.
         12    1    3    3    0    0 -0.36483669374E+02  0.72781339435E+01  0.64826078868E+01  0.37763124470E+02  0.00000000000E+00 0. -1.
         11    1    5    5    0    0  0.64885921716E+02 -0.19140293317E+03  0.34165733047E+03  0.39695717291E+03  0.00000000000E+00 0. -1.
        -12    1    5    5    0    0 -0.13183050932E+02 -0.18261955339E+02  0.86277697270E+02  0.89169125211E+02  0.00000000000E+00 0.  1.
          5    1    4    4  501    0 -0.72624061337E+02  0.17399064733E+03 -0.14031604417E+02  0.18910673696E+03  0.41800000000E+01 0. -1.
         -5    1    4    4    0  501  0.20251898132E+02  0.33965197884E+02  0.46639777133E+02  0.61290417328E+02  0.41800000000E+01 0. -1.
</event>
<event>
11    1  0.8551154E-009  0.1535910E+03  0.7561462E-02  0.1093265E+00
         22   -1    0    0    0    0  0.00000000000E+00  0.00000000000E+00  0.68682698633E+03  0.68682698633E+03  0.00000000000E+00 0.  1.
         22   -1    0    0    0    0 -0.00000000000E+00 -0.00000000000E+00 -0.32584478231E+03  0.32584478231E+03  0.00000000000E+00 0.  1.
         24    2    1    2    0    0 -0.21448644509E+00 -0.11625208453E+02 -0.27660550050E+03  0.28863269001E+03  0.81627417946E+02 0.  0.
         25    2    1    2    0    0 -0.89871742701E+01 -0.78907755488E+02  0.11534816278E+03  0.18777704026E+03  0.12509122677E+03 0.  0.
        -24    2    1    2    0    0  0.92016607152E+01  0.90532963941E+02  0.52223954175E+03  0.53626203836E+03  0.81005843621E+02 0.  0.
        -11    1    3    3    0    0  0.51308302444E+01  0.20259369105E+02 -0.23507457442E+03  0.23600174362E+03  0.00000000000E+00 0.  1.
         12    1    3    3    0    0 -0.53453166895E+01 -0.31884577558E+02 -0.41530926086E+02  0.52630946392E+02  0.00000000000E+00 0. -1.
         13    1    5    5    0    0 -0.31579908340E+02  0.68613545862E+02  0.32374049414E+03  0.33243498136E+03  0.00000000000E+00 0. -1.
        -14    1    5    5    0    0  0.40781569055E+02  0.21919418079E+02  0.19849904760E+03  0.20382705699E+03  0.00000000000E+00 0.  1.
          5    1    4    4  501    0 -0.66660120008E+02 -0.33938159177E+02  0.58669231899E+02  0.95157350843E+02  0.41800000000E+01 0. -1.
         -5    1    4    4    0  501  0.57672945738E+02 -0.44969596311E+02  0.56678930878E+02  0.92619689419E+02  0.41800000000E+01 0. -1.
</event>
<event>
11    1  0.8551154E-009  0.2104779E+03  0.7561462E-02  0.1047352E+00
         22   -1    0    0    0    0  0.00000000000E+00  0.00000000000E+00  0.97554559493E+03  0.97554559493E+03  0.00000000000E+00 0.  1.
         22   -1    0    0    0    0 -0.00000000000E+00 -0.00000000000E+00 -0.27545230162E+03  0.27545230162E+03  0.00000000000E+00 0.  1.
         24    2    1    2    0    0  0.10655284015E+03  0.45122955509E+02 -0.99169219389E+02  0.17119396965E+03  0.77995206967E+02 0.  0.
         25    2    1    2    0    0 -0.25839262403E+03  0.14087126375E+02  0.29297559551E+02  0.28891948462E+03  0.12510366226E+03 0.  0.
        -24    2    1    2    0    0  0.15183978388E+03 -0.59210081885E+02  0.76996495314E+03  0.79088444229E+03  0.78044975650E+02 0.  0.
        -13    1    3    3    0    0  0.95036466293E+02  0.55620256073E+02 -0.10718626018E+03  0.15366989680E+03  0.00000000000E+00 0.  1.
         14    1    3    3    0    0  0.11516373861E+02 -0.10497300564E+02  0.80170407913E+01  0.17524072845E+02  0.00000000000E+00 0. -1.
         11    1    5    5    0    0 -0.13096991945E+01 -0.16437234925E+02  0.14797289106E+03  0.14888879908E+03  0.00000000000E+00 0. -1.
        -12    1    5    5    0    0  0.15314948307E+03 -0.42772846960E+02  0.62199206208E+03  0.64199564321E+03  0.00000000000E+00 0.  1.
          5    1    4    4  501    0 -0.23320598348E+03 -0.13466999414E+02 -0.10920673862E+02  0.23388699050E+03  0.41800000000E+01 0. -1.
         -5    1    4    4    0  501 -0.25186640550E+02  0.27554125789E+02  0.40218233413E+02  0.55032494119E+02  0.41800000000E+01 0. -1.
</event>
<event>
11    1  0.8551154E-009  0.2277709E+03  0.7561462E-02  0.1036456E+00
         22   -1    0    0    0    0  0.00000000000E+00  0.00000000000E+00  0.36216774317E+03  0.36216774317E+03  0.00000000000E+00 0. -1.
         22   -1    0    0    0    0 -0.00000000000E+00 -0.00000000000E+00 -0.66858298002E+03  0.66858298002E+03  0.00000000000E+00 0.  1.
        -24    2    1    2    0    0  0.13317546689E+03 -0.10808308430E+03 -0.40708166728E+03  0.44913512946E+03  0.81174026539E+02 0.  0.
         25    2    1    2    0    0 -0.25609282649E+03  0.18989696949E+03 -0.61644566844E+02  0.34798206006E+03  0.12508823567E+03 0.  0.
         24    2    1    2    0    0  0.12291735960E+03 -0.81813885188E+02  0.16231099727E+03  0.23363353367E+03  0.80234525742E+02 0.  0.
        -13    1    5    5    0    0 -0.50663789252E+01  0.41505833726E+01  0.29266226489E+02  0.29990124219E+02  0.00000000000E+00 0.  1.
         14    1    5    5    0    0  0.12798373853E+03 -0.85964468561E+02  0.13304477078E+03  0.20364340945E+03  0.00000000000E+00 0. -1.
         13    1    3    3    0    0  0.52010551808E+02 -0.30542622146E+02 -0.63050403824E+02  0.87254241669E+02  0.00000000000E+00 0. -1.
        -14    1    3    3    0    0  0.81164915077E+02 -0.77540462155E+02 -0.34403126345E+03  0.36188088779E+03  0.00000000000E+00 0.  1.
          5    1    4    4  501    0 -0.23994589119E+03  0.18155250171E+03 -0.89957737700E+02  0.31407834779E+03  0.41800000000E+01 0. -1.
         -5    1    4    4    0  501 -0.16146935296E+02  0.83444677758E+01  0.28313170856E+02  0.33903712272E+02  0.41800000000E+01 0. -1.
</event>
<event>
11    1  0.8551154E-009  0.1449257E+03  0.7561462E-02  0.1102179E+00
         22   -1    0    0    0    0  0.00000000000E+00  0.00000000000E+00  0.21153497566E+03  0.21153497566E+03  0.00000000000E+00 0. -1.
         22   -1    0    0    0    0 -0.00000000000E+00 -0.00000000000E+00 -0.52886357468E+03  0.52886357468E+03  0.00000000000E+00 0. -1.
        -24    2    1    2    0    0 -0.22290976766E+01 -0.42861645829E+02 -0.33264463054E+03  0.34583982683E+03  0.84324646666E+02 0.  0.
         25    2    1    2    0    0 -0.43648567210E+02 -0.18177786202E+02 -0.14659656759E+03  0.19843034188E+03  0.12509363540E+03 0.  0.
         24    2    1    2    0    0  0.45877664886E+02  0.61039432031E+02  0.16191259911E+03  0.19612838162E+03  0.80125401262E+02 0.  0.
        -11    1    5    5    0    0 -0.17386938356E+02 -0.42065464392E+00  0.54132321091E+02  0.56857635920E+02  0.00000000000E+00 0.  1.
         12    1    5    5    0    0  0.63264603242E+02  0.61460086675E+02  0.10778027802E+03  0.13927074570E+03  0.00000000000E+00 0. -1.
         13    1    3    3    0    0  0.10490677626E+01 -0.68303204352E+02 -0.25893001948E+03  0.26778943828E+03  0.00000000000E+00 0. -1.
        -14    1    3    3    0    0 -0.32781654392E+01  0.25441558523E+02 -0.73714611066E+02  0.78050388554E+02  0.00000000000E+00 0.  1.
          5    1    4    4  501    0 -0.32691750052E+02 -0.11829686161E+02 -0.16887431165E+03  0.17246651134E+03  0.41800000000E+01 0.  1.
         -5    1    4    4    0  501 -0.10956817158E+02 -0.63481000414E+01  0.22277744057E+02  0.25963830547E+02  0.41800000000E+01 0.  1.
</event>
<event>
11    1  0.8551154E-009  0.1272680E+03  0.7561462E-02  0.1122672E+00
         22   -1    0    0    0    0  0.00000000000E+00  0.00000000000E+00  0.15817515310E+03  0.15817515310E+03  0.00000000000E+00 0.  1.
         22   -1    0    0    0    0 -0.00000000000E+00 -0.00000000000E+00 -0.49014878289E+03  0.49014878289E+03  0.00000000000E+00 0.  1.
        -24    2    1    2    0    0  0.15052733675E+02 -0.17028589423E+02 -0.40825787810E+03  0.41669316249E+03  0.80262936579E+02 0.  0.
         25    2    1    2    0    0 -0.17105275060E+02  0.35531392485E+02  0.22503063508E+02  0.13306220079E+03  0.12507634119E+03 0.  0.
         24    2    1    2    0    0  0.20525413858E+01 -0.18502803062E+02  0.53781184801E+02  0.98568572706E+02  0.80478450776E+02 0.  0.
        -13    1    5    5    0    0 -0.26458357232E+01  0.25585070401E+02  0.47188792187E+02  0.53743635736E+02  0.00000000000E+00 0.  1.
         14    1    5    5    0    0  0.46983771090E+01 -0.44087873463E+02  0.65923926146E+01  0.44824936970E+02  0.00000000000E+00 0. -1.
         11    1    3    3    0    0  0.17137257162E+02  0.60578339647E+01 -0.17445104878E+02  0.25193543212E+02  0.00000000000E+00 0. -1.
        -12    1    3    3    0    0 -0.20845234874E+01 -0.23086423388E+02 -0.39081277322E+03  0.39149961928E+03  0.00000000000E+00 0.  1.
          5    1    4    4  501    0 -0.19824757272E+02  0.16177785000E+02 -0.50826763432E+02  0.57057637607E+02  0.41800000000E+01 0.  1.
         -5    1    4    4    0  501  0.27194822112E+01  0.19353607485E+02  0.73329826940E+02  0.76004563187E+02  0.41800000000E+01 0.  1.
</event>
<event>
11    1  0.8551154E-009  0.1595682E+03  0.7561462E-02  0.1087484E+00
         22   -1    0    0    0    0  0.00000000000E+00  0.00000000000E+00  0.37941419561E+03  0.37941419561E+03  0.00000000000E+00 0. -1.
         22   -1    0    0    0    0 -0.00000000000E+00 -0.00000000000E+00 -0.58404445792E+03  0.58404445792E+03  0.00000000000E+00 0. -1.
         24    2    1    2    0    0  0.74937580821E+02 -0.62569870885E+02 -0.52001899538E+03  0.53514002681E+03  0.80152747813E+02 0.  0.
         25    2    1    2    0    0 -0.91340497745E+02  0.98970720154E+02  0.13866272187E+03  0.23025722407E+03  0.12511094606E+03 0.  0.
        -24    2    1    2    0    0  0.16402916924E+02 -0.36400849270E+02  0.17672601119E+03  0.19806140264E+03  0.80013490570E+02 0.  0.
        -11    1    3    3    0    0 -0.12788705107E+02  0.34701839552E+00 -0.21104725097E+02  0.24679562830E+02  0.00000000000E+00 0.  1.
         12    1    3    3    0    0  0.87726285928E+02 -0.62916889280E+02 -0.49891427028E+03  0.51046046398E+03  0.00000000000E+00 0. -1.
         11    1    5    5    0    0 -0.30650563783E+01 -0.38466024953E+02  0.17408074032E+03  0.17830629209E+03  0.00000000000E+00 0. -1.
        -12    1    5    5    0    0  0.19467973302E+02  0.20651756838E+01  0.26452708709E+01  0.19755110556E+02  0.00000000000E+00 0.  1.
          5    1    4    4  501    0 -0.82098628819E+02  0.24714754915E+02  0.17219033461E+02  0.87549822831E+02  0.41800000000E+01 0. -1.
         -5    1    4    4    0  501 -0.92418689261E+01  0.74255965239E+02  0.12144368841E+03  0.14270740124E+03  0.41800000000E+01 0. -1.
</event>
<event>
11    1  0.8551154E-009  0.1691730E+03  0.7561462E-02  0.1078754E+00
         22   -1    0    0    0    0  0.00000000000E+00  0.00000000000E+00  0.24430960791E+03  0.24430960791E+03  0.00000000000E+00 0.  1.
         22   -1    0    0    0    0 -0.00000000000E+00 -0.00000000000E+00 -0.78031515350E+03  0.78031515350E+03  0.00000000000E+00 0. -1.
         24    2    1    2    0    0  0.18462977331E+01 -0.18142148030E+02 -0.30453495199E+03  0.31555429309E+03  0.80625235216E+02 0.  0.
         25    2    1    2    0    0  0.11193341230E+03  0.10485846433E+02 -0.43200543829E+03  0.46358969883E+03  0.12509064068E+03 0.  0.
        -24    2    1    2    0    0 -0.11377971004E+03  0.76563015967E+01  0.20053484468E+03  0.24548076949E+03  0.83917476648E+02 0.  0.
        -11    1    3    3    0    0  0.32637248213E+02 -0.34715634049E+02 -0.17044407965E+03  0.17697895216E+03  0.00000000000E+00 0.  1.
         12    1    3    3    0    0 -0.30790950480E+02  0.16573486019E+02 -0.13409087233E+03  0.13857534093E+03  0.00000000000E+00 0. -1.
         11    1    5    5    0    0 -0.18456083302E+02 -0.32995348097E+02  0.48705735776E+02  0.61656862589E+02  0.00000000000E+00 0. -1.
        -12    1    5    5    0    0 -0.95323626733E+02  0.40651649693E+02  0.15182910891E+03  0.18382390690E+03  0.00000000000E+00 0.  1.
          5    1    4    4  501    0  0.10267821983E+03  0.18933309262E+02 -0.43711152174E+03  0.44942768258E+03  0.41800000000E+01 0.  1.
         -5    1    4    4    0  501  0.92551924767E+01 -0.84474628290E+01  0.51060834559E+01  0.14162016251E+02  0.41800000000E+01 0.  1.
</event>
<event>
11    1  0.8551154E-009  0.1377700E+03  0.7561462E-02  0.1110074E+00
         22   -1    0    0    0    0  0.00000000000E+00  0.00000000000E+00  0.50932799974E+03  0.50932799974E+03  0.00000000000E+00 0. -1.
         22   -1    0    0    0    0 -0.00000000000E+00 -0.00000000000E+00 -0.39801856751E+03  0.39801856751E+03  0.00000000000E+00 0.  1.
         24    2    1    2    0    0 -0.21063300448E-01  0.29130521380E+02 -0.18101751984E+03  0.19804209692E+03  0.74864824478E+02 0.  0.
         25    2    1    2    0    0  0.94135058116E+01 -0.85377475500E+02 -0.17513650917E+03  0.23173128992E+03  0.12509463006E+03 0.  0.
        -24    2    1    2    0    0 -0.93924425111E+01  0.56246954120E+02  0.46746346123E+03  0.47757318041E+03  0.79385875582E+02 0.  0.
        -11    1    3    3    0    0 -0.13405828957E+02 -0.13050853717E+02 -0.12625452430E+03  0.12763324778E+03  0.00000000000E+00 0.  1.
         12    1    3    3    0    0  0.13384765657E+02  0.42181375097E+02 -0.54762995542E+02  0.70408849142E+02  0.00000000000E+00 0. -1.
         13    1    5    5    0    0 -0.97520709340E+01  0.66807953503E+02  0.45925817196E+03  0.46419443561E+03  0.00000000000E+00 0. -1.
        -14    1    5    5    0    0  0.35962842285E+00 -0.10560999383E+02  0.82052892708E+01  0.13378744806E+02  0.00000000000E+00 0.  1.
          5    1    4    4  501    0  0.46165472691E+02 -0.63470044585E+02 -0.36639708630E+02  0.86715846747E+02  0.41800000000E+01 0.  1.
         -5    1    4    4    0  501 -0.36751966880E+02 -0.21907430915E+02 -0.13849680054E+03  0.14501544317E+03  0.41800000000E+01 0.  1.
</event>
<event>
11    1  0.8551154E-009  0.1310319E+03  0.7561462E-02  0.1118008E+00
         22   -1    0    0    0    0  0.00000000000E+00  0.00000000000E+00  0.36137962724E+03  0.36137962724E+03  0.00000000000E+00 0. -1.
         22   -1    0    0    0    0 -0.00000000000E+00 -0.00000000000E+00 -0.27323041063E+03  0.27323041063E+03  0.00000000000E+00 0. -1.
         24    2    1    2    0    0 -0.49658436871E+02 -0.81875966356E+01 -0.22030862743E+03  0.23713298132E+03  0.71855148835E+02 0.  0.
         25    2    1    2    0    0  0.14777202208E+02 -0.23717078076E+02  0.80882212803E+02  0.15156296989E+03  0.12509410857E+03 0.  0.
        -24    2    1    2    0    0  0.34881234664E+02  0.31904674712E+02  0.22757563124E+03  0.24591408665E+03  0.80302311783E+02 0.  0.
        -11    1    3    3    0    0 -0.86235917055E+00 -0.25501331834E+02 -0.27589677567E+02  0.37579940087E+02  0.00000000000E+00 0.  1.
         12    1    3    3    0    0 -0.48796077701E+02  0.17313735199E+02 -0.19271894987E+03  0.19955304123E+03  0.00000000000E+00 0. -1.
         13    1    5    5    0    0  0.20764983437E+02 -0.10190676895E+02  0.17745492311E+03  0.17895609565E+03  0.00000000000E+00 0. -1.
        -14    1    5    5    0    0  0.14116251226E+02  0.42095351607E+02  0.50120708129E+02  0.66957991002E+02  0.00000000000E+00 0.  1.
          5    1    4    4  501    0  0.39532325189E+02  0.35039652208E+02  0.68290230013E+02  0.86438474518E+02  0.41800000000E+01 0.  1.
         -5    1    4    4    0  501 -0.24755122981E+02 -0.58756730285E+02  0.12591982790E+02  0.65124495377E+02  0.41800000000E+01 0.  1.
</event>
<event>
11    1  0.8551154E-009  0.2422203E+03  0.7561462E-02  0.1028127E+00
         22   -1    0    0    0    0  0.00000000000E+00  0.00000000000E+00  0.14911070381E+04  0.14911070381E+04  0.00000000000E+00 0.  1.
         22   -1    0    0    0    0 -0.00000000000E+00 -0.00000000000E+00 -0.14025831742E+04  0.14025831742E+04  0.00000000000E+00 0. -1.
         24    2    1    2    0    0 -0.89147164755E+02  0.19051009378E+03 -0.11155156669E+04  0.11379734523E+04  0.79793873787E+02 0.  0.
         25    2    1    2    0    0  0.97636246819E+02 -0.16912463861E+03 -0.22554600787E+03  0.32350473354E+03  0.12509328871E+03 0.  0.
        -24    2    1    2    0    0 -0.84890820638E+01 -0.21385455176E+02  0.14295855386E+04  0.14322120264E+04  0.83588720985E+02 0.  0.
        -11    1    3    3    0    0 -0.22502346745E+02  0.17453651883E+02 -0.61566240201E+02  0.67833527887E+02  0.00000000000E+00 0.  1.
         12    1    3    3    0    0 -0.66644818010E+02  0.17305644190E+03 -0.10539494267E+04  0.10701399244E+04  0.00000000000E+00 0. -1.
         13    1    5    5    0    0 -0.14341216508E+02 -0.43569075480E+02  0.44470059889E+03  0.44705990368E+03  0.00000000000E+00 0. -1.
        -14    1    5    5    0    0  0.58521344441E+01  0.22183620304E+02  0.98488493970E+03  0.98515212274E+03  0.00000000000E+00 0.  1.
          5    1    4    4  501    0  0.84637625405E+02 -0.10821500769E+03 -0.66581707849E+02  0.15272397239E+03  0.41800000000E+01 0.  1.
         -5    1    4    4    0  501  0.12998621414E+02 -0.60909630920E+02 -0.15896430002E+03  0.17078076115E+03  0.41800000000E+01 0.  1.
</event>
<event>
11    1  0.8551154E-009  0.1339374E+03  0.7561462E-02  0.1114524E+00
         22   -1    0    0    0    0  0.00000000000E+00  0.00000000000E+00  0.33863717269E+03  0.33863717269E+03  0.00000000000E+00 0.  1.
         22   -1    0    0    0    0 -0.00000000000E+00 -0.00000000000E+00 -0.68589594130E+03  0.68589594130E+03  0.00000000000E+00 0.  1.
        -24    2    1    2    0    0  0.37462294165E+02 -0.28513609896E+02 -0.62668618078E+03  0.63339114551E+03  0.78945073267E+02 0.  0.
         25    2    1    2    0    0 -0.63312463665E+02  0.40189756466E+02  0.62259472141E+02  0.15857273534E+03  0.12508151718E+03 0.  0.
         24    2    1    2    0    0  0.25850169500E+02 -0.11676146570E+02  0.21716794004E+03  0.23256923314E+03  0.78243021161E+02 0.  0.
        -11    1    5    5    0    0  0.41628511273E+01 -0.16289118118E+02  0.20783279335E+03  0.20851171356E+03  0.00000000000E+00 0.  1.
         12    1    5    5    0    0  0.21687318373E+02  0.46129715479E+01  0.93351466860E+01  0.24057519580E+02  0.00000000000E+00 0. -1.
         11    1    3    3    0    0  0.48243334443E+02 -0.28790927316E+02 -0.23745868100E+03  0.24401426597E+03  0.00000000000E+00 0. -1.
        -12    1    3    3    0    0 -0.10781040279E+02  0.27731741997E+00 -0.38922749978E+03  0.38937687954E+03  0.00000000000E+00 0.  1.
          5    1    4    4  501    0 -0.68671470487E+02  0.27231346394E+02 -0.18686389579E+02  0.76314943758E+02  0.41800000000E+01 0.  1.
         -5    1    4    4    0  501  0.53590068219E+01  0.12958410072E+02  0.80945861720E+02  0.82257791578E+02  0.41800000000E+01 0.  1.
</event>
<event>
11    1  0.8551154E-009  0.1412037E+03  0.7561462E-02  0.1106222E+00
         22   -1    0    0    0    0  0.00000000000E+00  0.00000000000E+00  0.60000827411E+03  0.60000827411E+03  0.00000000000E+00 0.  1.
         22   -1    0    0    0    0 -0.00000000000E+00 -0.00000000000E+00 -0.36814924501E+03  0.36814924501E+03  0.00000000000E+00 0.  1.
        -24    2    1    2    0    0  0.58068370706E+02  0.29447782107E+02 -0.28416639968E+03  0.30306351976E+03  0.82812117189E+02 0.  0.
         25    2    1    2    0    0 -0.46895899358E+02 -0.57674360942E+02  0.31490348597E+01  0.14554031473E+03  0.12508600843E+03 0.  0.
         24    2    1    2    0    0 -0.11172471348E+02  0.28226578835E+02  0.51287639392E+03  0.51955368463E+03  0.77280475554E+02 0.  0.
        -11    1    5    5    0    0  0.27108107990E+02  0.19437734552E+01  0.32059412091E+03  0.32174402580E+03  0.00000000000E+00 0.  1.
         12    1    5    5    0    0 -0.38280579338E+02  0.26282805380E+02  0.19228227301E+03  0.19780965883E+03  0.00000000000E+00 0. -1.
         13    1    3    3    0    0 -0.14460546738E+01 -0.16132670852E+02 -0.10469809770E+02  0.19286551262E+02  0.00000000000E+00 0. -1.
        -14    1    3    3    0    0  0.59514425379E+02  0.45580452959E+02 -0.27369658991E+03  0.28377696850E+03  0.00000000000E+00 0.  1.
          5    1    4    4  501    0  0.32908820282E+02 -0.21448207782E+02  0.34417817308E+02  0.52393459684E+02  0.41800000000E+01 0.  1.
         -5    1    4    4    0  501 -0.79804719640E+02 -0.36226153160E+02 -0.31268782448E+02  0.93146855048E+02  0.41800000000E+01 0.  1.
</event>
<event>
11    1  0.8551154E-009  0.1341990E+03  0.7561462E-02  0.1114215E+00
         22   -1    0    0    0    0  0.00000000000E+00  0.00000000000E+00  0.38528633602E+03  0.38528633602E+03  0.00000000000E+00 0. -1.
         22   -1    0    0    0    0 -0.00000000000E+00 -0.00000000000E+00 -0.14775809575E+04  0.14775809575E+04  0.00000000000E+00 0. -1.
        -24    2    1    2    0    0 -0.14469295815E+02  0.40780503392E+02 -0.81196620054E+03  0.81710071392E+03  0.80573295214E+02 0.  0.
         25    2    1    2    0    0  0.33336714433E+02 -0.55915424317E+02 -0.65079425664E+03  0.66589684381E+03  0.12509025112E+03 0.  0.
         24    2    1    2    0    0 -0.18867418618E+02  0.15134920925E+02  0.37046583574E+03  0.37986973575E+03  0.80442745928E+02 0.  0.
        -13    1    5    5    0    0  0.28616296931E+02  0.17040173086E+02  0.10410403696E+03  0.10930192340E+03  0.00000000000E+00 0.  1.
         14    1    5    5    0    0 -0.47483715549E+02 -0.19052521601E+01  0.26636179878E+03  0.27056781234E+03  0.00000000000E+00 0. -1.
         13    1    3    3    0    0 -0.62526945519E+01  0.34776551122E+02 -0.80225964541E+03  0.80303738603E+03  0.00000000000E+00 0. -1.
        -14    1    3    3    0    0 -0.82166012629E+01  0.60039522695E+01 -0.97065551226E+01  0.14063327896E+02  0.00000000000E+00 0.  1.
          5    1    4    4  501    0  0.60245426627E+02 -0.81108883859E+02 -0.41142495587E+03  0.42366983511E+03  0.41800000000E+01 0. -1.
         -5    1    4    4    0  501 -0.26908712194E+02  0.25193459541E+02 -0.23936930077E+03  0.24222700871E+03  0.41800000000E+01 0. -1.
</event>
<event>
11    1  0.8551154E-009  0.1755483E+03  0.7561462E-02  0.1073302E+00
         22   -1    0    0    0    0  0.00000000000E+00  0.00000000000E+00  0.27148396381E+03  0.27148396381E+03  0.00000000000E+00 0.  1.
         22   -1    0    0    0    0 -0.00000000000E+00 -0.00000000000E+00 -0.50934592186E+03  0.50934592186E+03  0.00000000000E+00 0.  1.
         24    2    1    2    0    0  0.28418274330E+02 -0.22331478522E+02 -0.37836606959E+03  0.38847053034E+03  0.80263173848E+02 0.  0.
         25    2    1    2    0    0 -0.13600083187E+03  0.63374008974E+02  0.18091300559E+01  0.19535729199E+03  0.12509479326E+03 0.  0.
        -24    2    1    2    0    0  0.10758255754E+03 -0.41042530452E+02  0.13869498148E+03  0.19700206335E+03  0.79467094327E+02 0.  0.
        -13    1    3    3    0    0  0.47936117947E+02 -0.23670245156E+02 -0.34971173064E+03  0.35377457011E+03  0.00000000000E+00 0.  1.
         14    1    3    3    0    0 -0.19517843617E+02  0.13387666343E+01 -0.28654338951E+02  0.34695960230E+02  0.00000000000E+00 0. -1.
         13    1    5    5    0    0  0.14938039738E+02  0.21358274327E+02  0.41126703509E+02  0.48690108389E+02  0.00000000000E+00 0. -1.
        -14    1    5    5    0    0  0.92644517802E+02 -0.62400804779E+02  0.97568277975E+02  0.14831195496E+03  0.00000000000E+00 0.  1.
          5    1    4    4  501    0 -0.10544209482E+03  0.90296144477E+02  0.34339087214E+02  0.14306667808E+03  0.41800000000E+01 0. -1.
         -5    1    4    4    0  501 -0.30558737049E+02 -0.26922135503E+02 -0.32529957158E+02  0.52290613907E+02  0.41800000000E+01 0. -1.
</event>
<event>
11    1  0.8551154E-009  0.1453587E+03  0.7561462E-02  0.1101718E+00
         22   -1    0    0    0    0  0.00000000000E+00  0.00000000000E+00  0.42585001081E+03  0.42585001081E+03  0.00000000000E+00 0. -1.
         22   -1    0    0    0    0 -0.00000000000E+00 -0.00000000000E+00 -0.27264448822E+04  0.27264448822E+04  0.00000000000E+00 0. -1.
        -24    2    1    2    0    0 -0.48123396339E+02  0.81402567654E+01 -0.22242896055E+04  0.22262861003E+04  0.80643824842E+02 0.  0.
         25    2    1    2    0    0  0.66183258692E+02  0.63601542368E+02 -0.48169409914E+03  0.50606512605E+03  0.12508927507E+03 0.  0.
         24    2    1    2    0    0 -0.18059862353E+02 -0.71741799133E+02  0.40538883325E+03  0.41994366660E+03  0.80867376739E+02 0.  0.
        -11    1    5    5    0    0 -0.25101338153E+01 -0.27418456003E+01 -0.34260064075E+01  0.50552951418E+01  0.00000000000E+00 0.  1.
         12    1    5    5    0    0 -0.15549728538E+02 -0.68999953533E+02  0.40881483966E+03  0.41488837146E+03  0.00000000000E+00 0. -1.
         11    1    3    3    0    0 -0.38370701395E+02  0.17188913160E+02 -0.21693943544E+04  0.21698017500E+04  0.00000000000E+00 0. -1.
        -12    1    3    3    0    0 -0.97526949440E+01 -0.90486563946E+01 -0.54895251111E+02  0.56484350361E+02  0.00000000000E+00 0.  1.
          5    1    4    4  501    0  0.67345498145E+02  0.38982939447E+02 -0.47333471253E+03  0.47970648127E+03  0.41800000000E+01 0.  1.
         -5    1    4    4    0  501 -0.11622394529E+01  0.24618602921E+02 -0.83593866122E+01  0.26358644784E+02  0.41800000000E+01 0.  1.
</event>
<event>
11    1  0.8551154E-009  0.1495286E+03  0.7561462E-02  0.1097361E+00
         22   -1    0    0    0    0  0.00000000000E+00  0.00000000000E+00  0.35121729136E+03  0.35121729136E+03  0.00000000000E+00 0. -1.
         22   -1    0    0    0    0 -0.00000000000E+00 -0.00000000000E+00 -0.11682965538E+04  0.11682965538E+04  0.00000000000E+00 0. -1.
        -24    2    1    2    0    0  0.41003082491E+02 -0.99772808791E+01 -0.10524864306E+04  0.10564353378E+04  0.80914382987E+02 0.  0.
         25    2    1    2    0    0 -0.93359720110E+02  0.68338473563E+02 -0.31219469365E+02  0.17319426804E+03  0.12504165268E+03 0.  0.
         24    2    1    2    0    0  0.52356637620E+02 -0.58361192684E+02  0.26662663750E+03  0.28988423938E+03  0.82437019027E+02 0.  0.
        -13    1    5    5    0    0 -0.92524534168E+01 -0.43906218346E+02  0.68423012668E+02  0.81823423090E+02  0.00000000000E+00 0.  1.
         14    1    5    5    0    0  0.61609091036E+02 -0.14454974338E+02  0.19820362483E+03  0.20806081629E+03  0.00000000000E+00 0. -1.
         13    1    3    3    0    0  0.10762499942E+02  0.30678483461E+02 -0.64371797265E+03  0.64453846205E+03  0.00000000000E+00 0. -1.
        -14    1    3    3    0    0  0.30240582548E+02 -0.40655764340E+02 -0.40876845795E+03  0.41189687572E+03  0.00000000000E+00 0.  1.
          5    1    4    4  501    0 -0.94539813977E+02 -0.66789537193E+01 -0.11929106852E+02  0.95614647622E+02  0.41800000000E+01 0.  1.
         -5    1    4    4    0  501  0.11800938673E+01  0.75017427282E+02 -0.19290362514E+02  0.77579620413E+02  0.41800000000E+01 0.  1.
</event>
<event>
11    1  0.8551154E-009  0.1420825E+03  0.7561462E-02  0.1105255E+00
         22   -1    0    0    0    0  0.00000000000E+00  0.00000000000E+00  0.32640578436E+03  0.32640578436E+03  0.00000000000E+00 0.  1.
         22   -1    0    0    0    0 -0.00000000000E+00 -0.00000000000E+00 -0.78680322809E+03  0.78680322809E+03  0.00000000000E+00 0. -1.
        -24    2    1    2    0    0 -0.29777814124E+02  0.58126664245E+02 -0.68303586703E+03  0.69074404422E+03  0.79523026007E+02 0.  0.
         25    2    1    2    0    0  0.36574677905E+02 -0.10408169690E+03 -0.12318257777E+02  0.16723398684E+03  0.12507901577E+03 0.  0.
         24    2    1    2    0    0 -0.67968637810E+01  0.45955032653E+02  0.23495668107E+03  0.25523098139E+03  0.88205155729E+02 0.  0.
        -11    1    5    5    0    0  0.27648445929E+02  0.30674344465E+02  0.19867331836E+03  0.20291978562E+03  0.00000000000E+00 0.  1.
         12    1    5    5    0    0 -0.34445309710E+02  0.15280688188E+02  0.36283362717E+02  0.52311195767E+02  0.00000000000E+00 0. -1.
         13    1    3    3    0    0 -0.10386388907E+02  0.28001871485E+02 -0.59428321149E+03  0.59503320692E+03  0.00000000000E+00 0. -1.
        -14    1    3    3    0    0 -0.19391425217E+02  0.30124792760E+02 -0.88752655540E+02  0.95710837297E+02  0.00000000000E+00 0.  1.
          5    1    4    4  501    0  0.31237577092E+02 -0.13287845757E+03 -0.45203883209E+01  0.13663958803E+03  0.41800000000E+01 0. -1.
         -5    1    4    4    0  501  0.53371008129E+01  0.28796760668E+02 -0.77978694557E+01  0.30594398803E+02  0.41800000000E+01 0. -1.
</event>
<event>
11    1  0.8551154E-009  0.1940795E+03  0.7561462E-02  0.1058791E+00
         22   -1    0    0    0    0  0.00000000000E+00  0.00000000000E+00  0.33561708033E+04  0.33561708033E+04  0.00000000000E+00 0. -1.
         22   -1    0    0    0    0 -0.00000000000E+00 -0.00000000000E+00 -0.32231149289E+02  0.32231149289E+02  0.00000000000E+00 0. -1.
         24    2    1    2    0    0 -0.21094734407E+02 -0.14636062385E+03  0.28403569884E+03  0.33022224637E+03  0.80647589843E+02 0.  0.
         25    2    1    2    0    0 -0.33512346759E+02  0.15502743305E+03  0.13072761687E+04  0.13227903364E+04  0.12508681149E+03 0.  0.
        -24    2    1    2    0    0  0.54607081165E+02 -0.86668091965E+01  0.17326277864E+04  0.17353893698E+04  0.80747579415E+02 0.  0.
        -11    1    3    3    0    0  0.86878973452E+00  0.81155014504E+01  0.38119076432E+02  0.38983075141E+02  0.00000000000E+00 0.  1.
         12    1    3    3    0    0 -0.21963524141E+02 -0.15447612530E+03  0.24591662241E+03  0.29123917123E+03  0.00000000000E+00 0. -1.
         11    1    5    5    0    0  0.66972823835E+02 -0.11834019305E+02  0.16743183023E+04  0.16756990125E+04  0.00000000000E+00 0. -1.
        -12    1    5    5    0    0 -0.12365742669E+02  0.31672101080E+01  0.58309484124E+02  0.59690357265E+02  0.00000000000E+00 0.  1.
          5    1    4    4  501    0 -0.12823427244E+02  0.16716171182E+03  0.12390995516E+04  0.12503969967E+04  0.41800000000E+01 0.  1.
         -5    1    4    4    0  501 -0.20688919515E+02 -0.12134278773E+02  0.68176617143E+02  0.72393339729E+02  0.41800000000E+01 0.  1.
</event>
<event>
11    1  0.8551154E-009  0.1593236E+03  0.7561462E-02  0.1087715E+00
         22   -1    0    0    0    0  0.00000000000E+00  0.00000000000E+00  0.18017321890E+04  0.18017321890E+04  0.00000000000E+00 0. -1.
         22   -1    0    0    0    0 -0.00000000000E+00 -0.00000000000E+00 -0.13656221900E+04  0.13656221900E+04  0.00000000000E+00 0. -1.
        -24    2    1    2    0    0 -0.86580326738E+00 -0.48111073379E+02 -0.12576328602E+04  0.12610816603E+04  0.79819281777E+02 0.  0.
         25    2    1    2    0    0  0.59598104132E+01 -0.51485095099E+02 -0.59836737880E+02  0.14803412237E+03  0.12508969513E+03 0.  0.
         24    2    1    2    0    0 -0.50940071458E+01  0.99596168478E+02  0.17535795971E+04  0.17582385964E+04  0.80101266426E+02 0.  0.
        -13    1    5    5    0    0 -0.23305709059E+02  0.46397794919E+02  0.38268267716E+03  0.38618899887E+03  0.00000000000E+00 0.  1.
         14    1    5    5    0    0  0.18211701913E+02  0.53198373559E+02  0.13708969200E+04  0.13720495976E+04  0.00000000000E+00 0. -1.
         11    1    3    3    0    0  0.33289664572E+01 -0.30547508206E+02 -0.12058349100E+04  0.12062263728E+04  0.00000000000E+00 0. -1.
        -12    1    3    3    0    0 -0.41947697246E+01 -0.17563565173E+02 -0.51797950181E+02  0.54855287417E+02  0.00000000000E+00 0.  1.
          5    1    4    4  501    0 -0.12554666856E+02 -0.70278831359E+02  0.10976098851E+02  0.72351094968E+02  0.41800000000E+01 0.  1.
         -5    1    4    4    0  501  0.18514477269E+02  0.18793736260E+02 -0.70812836731E+02  0.75683027404E+02  0.41800000000E+01 0.  1.
</event>
<event>
11    1  0.8551154E-009  0.2919563E+03  0.7561462E-02  0.1003654E+00
         22   -1    0    0    0    0  0.00000000000E+00  0.00000000000E+00  0.12960451515E+03  0.12960451515E+03  0.00000000000E+00 0. -1.
         22   -1    0    0    0    0 -0.00000000000E+00 -0.00000000000E+00 -0.16193701843E+04  0.16193701843E+04  0.00000000000E+00 0. -1.
         24    2    1    2    0    0 -0.85832102914E+02  0.35584556286E+02 -0.90212560294E+03  0.91059243446E+03  0.81942465710E+02 0.  0.
         25    2    1    2    0    0  0.28121626556E+03  0.11415195458E+03 -0.40732852311E+03  0.52314185180E+03  0.12509042577E+03 0.  0.
        -24    2    1    2    0    0 -0.19538416264E+03 -0.14973651086E+03 -0.18031154306E+03  0.31524041315E+03  0.79172418315E+02 0.  0.
        -11    1    3    3    0    0 -0.31488019477E+02  0.57272764419E+02 -0.46846493616E+03  0.47300217899E+03  0.00000000000E+00 0.  1.
         12    1    3    3    0    0 -0.54344083438E+02 -0.21688208133E+02 -0.43366066677E+03  0.43759025547E+03  0.00000000000E+00 0. -1.
         13    1    5    5    0    0 -0.17580879093E+03 -0.15151463864E+03 -0.14173614607E+03  0.27194586188E+03  0.00000000000E+00 0. -1.
        -14    1    5    5    0    0 -0.19575371709E+02  0.17781277791E+01 -0.38575396993E+02  0.43294551263E+02  0.00000000000E+00 0.  1.
          5    1    4    4  501    0  0.55192739673E+02  0.55955237661E+02 -0.40960919574E+02  0.88727089812E+02  0.41800000000E+01 0. -1.
         -5    1    4    4    0  501  0.22602352588E+03  0.58196716916E+02 -0.36636760354E+03  0.43441476199E+03  0.41800000000E+01 0. -1.
</event>
<event>
11    1  0.8551154E-009  0.1332995E+03  0.7561462E-02  0.1115280E+00
         22   -1    0    0    0    0  0.00000000000E+00  0.00000000000E+00  0.39048335862E+03  0.39048335862E+03  0.00000000000E+00 0. -1.
         22   -1    0    0    0    0 -0.00000000000E+00 -0.00000000000E+00 -0.39666496391E+03  0.39666496391E+03  0.00000000000E+00 0. -1.
        -24    2    1    2    0    0  0.20754983529E+00 -0.23607458504E+02 -0.34278194784E+03  0.35285268323E+03  0.80300667050E+02 0.  0.
         25    2    1    2    0    0  0.45008653228E+02  0.28270373713E+02  0.71051410158E+02  0.15339621911E+03  0.12512835113E+03 0.  0.
         24    2    1    2    0    0 -0.45216203063E+02 -0.46629152089E+01  0.26554893239E+03  0.28089942018E+03  0.79511011609E+02 0.  0.
        -11    1    5    5    0    0 -0.36246456540E+02 -0.15425065600E+01  0.35849163257E+02  0.51003406204E+02  0.00000000000E+00 0.  1.
         12    1    5    5    0    0 -0.89697465226E+01 -0.31204086490E+01  0.22969976913E+03  0.22989601398E+03  0.00000000000E+00 0. -1.
         13    1    3    3    0    0  0.22201052754E+02 -0.44753856146E+02 -0.25689296212E+03  0.26170553752E+03  0.00000000000E+00 0. -1.
        -14    1    3    3    0    0 -0.21993502918E+02  0.21146397642E+02 -0.85888985718E+02  0.91147145713E+02  0.00000000000E+00 0.  1.
          5    1    4    4  501    0 -0.18770377802E+02  0.60529890700E+02  0.24917094559E+02  0.68224106826E+02  0.41800000000E+01 0. -1.
         -5    1    4    4    0  501  0.63779031030E+02 -0.32259516987E+02  0.46134315599E+02  0.85172112285E+02  0.41800000000E+01 0. -1.
</event>
<event>
11    1  0.8551154E-009  0.1285636E+03  0.7561462E-02  0.1121047E+00
         22   -1    0    0    0    0  0.00000000000E+00  0.00000000000E+00  0.17917069105E+04  0.17917069105E+04  0.00000000000E+00 0.  1.
         22   -1    0    0    0    0 -0.00000000000E+00 -0.00000000000E+00 -0.10990749092E+03  0.10990749092E+03  0.00000000000E+00 0. -1.
         24    2    1    2    0    0 -0.45759004606E+01  0.20683687754E+02 -0.56626159615E+02  0.98465985992E+02  0.77719203808E+02 0.  0.
         25    2    1    2    0    0 -0.14603945181E+02  0.27989532923E+01  0.95563547926E+02  0.15811622304E+03  0.12508892414E+03 0.  0.
        -24    2    1    2    0    0  0.19179845642E+02 -0.23482641046E+02  0.16428620312E+04  0.16450321923E+04  0.78841355089E+02 0.  0.
        -11    1    3    3    0    0  0.34568169569E+02  0.98551194116E+01 -0.42039288212E+02  0.55311693875E+02  0.00000000000E+00 0.  1.
         12    1    3    3    0    0 -0.39144070029E+02  0.10828568342E+02 -0.14586871403E+02  0.43154292117E+02  0.00000000000E+00 0. -1.
         11    1    5    5    0    0 -0.17835693611E+02  0.13177798352E+02  0.93195187903E+03  0.93221567846E+03  0.00000000000E+00 0. -1.
        -12    1    5    5    0    0  0.37015539252E+02 -0.36660439399E+02  0.71091015220E+03  0.71281651389E+03  0.00000000000E+00 0.  1.
          5    1    4    4  501    0 -0.23063220147E+02 -0.20502707381E+02  0.11944744190E+03  0.12344001341E+03  0.41800000000E+01 0. -1.
         -5    1    4    4    0  501  0.84592749664E+01  0.23301660673E+02 -0.23883893974E+02  0.34676209632E+02  0.41800000000E+01 0. -1.
</event>
<event>
11    1  0.8551154E-009  0.1296498E+03  0.7561462E-02  0.1119700E+00
         22   -1    0    0    0    0  0.00000000000E+00  0.00000000000E+00  0.76408052986E+03  0.76408052986E+03  0.00000000000E+00 0.  1.
         22   -1    0    0    0    0 -0.00000000000E+00 -0.00000000000E+00 -0.12569342011E+03  0.12569342011E+03  0.00000000000E+00 0.  1.
        -24    2    1    2    0    0 -0.13332235711E+02 -0.70110616583E+01 -0.70906309643E+02  0.10840852632E+03  0.80608934603E+02 0.  0.
         25    2    1    2    0    0 -0.20311758320E+02  0.16696625686E+02  0.90642737187E+02  0.15669333035E+03  0.12508137005E+03 0.  0.
         24    2    1    2    0    0  0.33643994031E+02 -0.96855640282E+01  0.61865068221E+03  0.62467209331E+03  0.79125400962E+02 0.  0.
        -11    1    5    5    0    0  0.53511197281E+02 -0.11444509156E+02  0.56112510057E+03  0.56378701964E+03  0.00000000000E+00 0.  1.
         12    1    5    5    0    0 -0.19867203250E+02  0.17589451278E+01  0.57525581638E+02  0.60885073670E+02  0.00000000000E+00 0. -1.
         11    1    3    3    0    0 -0.24855644266E+02  0.15207128488E+02  0.40179440311E+01  0.29414344850E+02  0.00000000000E+00 0. -1.
        -12    1    3    3    0    0  0.11523408555E+02 -0.22218190146E+02 -0.74924253674E+02  0.78994181474E+02  0.00000000000E+00 0.  1.
          5    1    4    4  501    0  0.48566826920E+02  0.20039710590E+02  0.16213656904E+02  0.55142377060E+02  0.41800000000E+01 0. -1.
         -5    1    4    4    0  501 -0.68878585240E+02 -0.33430849032E+01  0.74429080283E+02  0.10155095329E+03  0.41800000000E+01 0. -1.
</event>
<event>
11    1  0.8551154E-009  0.1645817E+03  0.7561462E-02  0.1082846E+00
         22   -1    0    0    0    0  0.00000000000E+00  0.00000000000E+00  0.13340236807E+03  0.13340236807E+03  0.00000000000E+00 0.  1.
         22   -1    0    0    0    0 -0.00000000000E+00 -0.00000000000E+00 -0.12560697573E+04  0.12560697573E+04  0.00000000000E+00 0. -1.
        -24    2    1    2    0    0 -0.94199412361E+02  0.35501699477E+02 -0.69891186037E+03  0.71063199214E+03  0.79913326389E+02 0.  0.
         25    2    1    2    0    0  0.10615600179E+03 -0.63707670309E+02 -0.52083103146E+03  0.54976465454E+03  0.12509375717E+03 0.  0.
         24    2    1    2    0    0 -0.11956589429E+02  0.28205970832E+02  0.97075502582E+02  0.12907547870E+03  0.79361761445E+02 0.  0.
        -13    1    5    5    0    0  0.43188563986E+01  0.35405507701E+01  0.99284869620E+02  0.99441808893E+02  0.00000000000E+00 0.  1.
         14    1    5    5    0    0 -0.16275445828E+02  0.24665420062E+02 -0.22093670385E+01  0.29633669811E+02  0.00000000000E+00 0. -1.
         13    1    3    3    0    0 -0.78460448125E+02  0.58454999572E+02 -0.47309202513E+03  0.48310360497E+03  0.00000000000E+00 0. -1.
        -14    1    3    3    0    0 -0.15738964236E+02 -0.22953300095E+02 -0.22581983523E+03  0.22752838716E+03  0.00000000000E+00 0.  1.
          5    1    4    4  501    0  0.36165766285E+02  0.37896038325E+02 -0.15426867145E+03  0.16297351859E+03  0.41800000000E+01 0.  1.
         -5    1    4    4    0  501  0.69990235506E+02 -0.10160370863E+03 -0.36656236001E+03  0.38679113595E+03  0.41800000000E+01 0.  1.
</event>
<event>
11    1  0.8551154E-009  0.1464547E+03  0.7561462E-02  0.1100557E+00
         22   -1    0    0    0    0  0.00000000000E+00  0.00000000000E+00  0.20397990230E+04  0.20397990230E+04  0.00000000000E+00 0.  1.
         22   -1    0    0    0    0 -0.00000000000E+00 -0.00000000000E+00 -0.96888747706E+03  0.96888747706E+03  0.00000000000E+00 0.  1.
        -24    2    1    2    0    0  0.95154474101E+01  0.76010199713E+02 -0.94394359337E+03  0.95030054749E+03  0.78571807286E+02 0.  0.
         25    2    1    2    0    0 -0.17866614718E+02 -0.45107184795E+02  0.19618785183E+03  0.23767573783E+03  0.12508480765E+03 0.  0.
         24    2    1    2    0    0  0.83511673082E+01 -0.30903014918E+02  0.18186672874E+04  0.18207102147E+04  0.80064007056E+02 0.  0.
        -11    1    5    5    0    0  0.39288131246E+02 -0.14921967888E+02  0.56560397297E+03  0.56716318342E+03  0.00000000000E+00 0.  1.
         12    1    5    5    0    0 -0.30936963938E+02 -0.15981047030E+02  0.12530633145E+04  0.12535470313E+04  0.00000000000E+00 0. -1.
         13    1    3    3    0    0 -0.65189775637E+01  0.56150742311E+02 -0.26903663357E+03  0.27491110042E+03  0.00000000000E+00 0. -1.
        -14    1    3    3    0    0  0.16034424974E+02  0.19859457403E+02 -0.67490695980E+03  0.67538944707E+03  0.00000000000E+00 0.  1.
          5    1    4    4  501    0 -0.25872496828E+02 -0.77202680864E+02  0.18555968283E+03  0.20268080402E+03  0.41800000000E+01 0.  1.
         -5    1    4    4    0  501  0.80058821096E+01  0.32095496069E+02  0.10628169002E+02  0.34994933814E+02  0.41800000000E+01 0.  1.
</event>
<event>
11    1  0.8551154E-009  0.1536188E+03  0.7561462E-02  0.1093237E+00
         22   -1    0    0    0    0  0.00000000000E+00  0.00000000000E+00  0.96079759581E+03  0.96079759581E+03  0.00000000000E+00 0. -1.
         22   -1    0    0    0    0 -0.00000000000E+00 -0.00000000000E+00 -0.28857425963E+03  0.28857425963E+03  0.00000000000E+00 0. -1.
        -24    2    1    2    0    0  0.50650739270E+02 -0.77127223504E+02 -0.19895028658E+03  0.23365110013E+03  0.80607158901E+02 0.  0.
         25    2    1    2    0    0 -0.14405931476E+02  0.79149874507E+02  0.87659953069E+01  0.14898538408E+03  0.12509024143E+03 0.  0.
         24    2    1    2    0    0 -0.36244807795E+02 -0.20226510031E+01  0.86240762745E+03  0.86673537123E+03  0.78520765742E+02 0.  0.
        -13    1    5    5    0    0 -0.10026221129E+02 -0.21781906436E+02  0.77121022837E+02  0.80762792928E+02  0.00000000000E+00 0.  1.
         14    1    5    5    0    0 -0.26218586666E+02  0.19759255433E+02  0.78528660461E+03  0.78597257831E+03  0.00000000000E+00 0. -1.
         11    1    3    3    0    0  0.27203212660E+02 -0.89525373393E+02 -0.17221038666E+03  0.19598781731E+03  0.00000000000E+00 0. -1.
        -12    1    3    3    0    0  0.23447526610E+02  0.12398149889E+02 -0.26739899918E+02  0.37663282815E+02  0.00000000000E+00 0.  1.
          5    1    4    4  501    0 -0.44907217791E+02  0.39704792980E+02 -0.45350431993E+02  0.75281225264E+02  0.41800000000E+01 0.  1.
         -5    1    4    4    0  501  0.30501286316E+02  0.39445081527E+02  0.54116427300E+02  0.73704158819E+02  0.41800000000E+01 0.  1.
</event>
<event>
11    1  0.8551154E-009  0.1918942E+03  0.7561462E-02  0.1060408E+00
         22   -1    0    0    0    0  0.00000000000E+00  0.00000000000E+00  0.17992097507E+03  0.17992097507E+03  0.00000000000E+00 0.  1.
         22   -1    0    0    0    0 -0.00000000000E+00 -0.00000000000E+00 -0.21725261374E+04  0.21725261374E+04  0.00000000000E+00 0. -1.
        -24    2    1    2    0    0 -0.38455460023E+02 -0.36105993375E+01 -0.12661657505E+04  0.12693718202E+04  0.81469327439E+02 0.  0.
         25    2    1    2    0    0  0.53912574815E+02 -0.14105240258E+03 -0.85118249201E+03  0.87347638618E+03  0.12508803509E+03 0.  0.
         24    2    1    2    0    0 -0.15457114792E+02  0.14466300191E+03  0.12474308018E+03  0.20959890609E+03  0.84879672828E+02 0.  0.
        -13    1    5    5    0    0  0.25011589682E+02  0.50838721847E+02  0.80050233644E+02  0.98072397564E+02  0.00000000000E+00 0.  1.
         14    1    5    5    0    0 -0.40468704474E+02  0.93824280066E+02  0.44692846539E+02  0.11152650852E+03  0.00000000000E+00 0. -1.
         11    1    3    3    0    0  0.14788995469E+02  0.21626699495E+02 -0.22121061814E+03  0.22275674197E+03  0.00000000000E+00 0. -1.
        -12    1    3    3    0    0 -0.53244455492E+02 -0.25237298833E+02 -0.10449551324E+04  0.10466150782E+04  0.00000000000E+00 0.  1.
          5    1    4    4  501    0 -0.37843987786E+01 -0.10745819103E+03 -0.69908272778E+03  0.70731585390E+03  0.41800000000E+01 0.  1.
         -5    1    4    4    0  501  0.57696973594E+02 -0.33594211543E+02 -0.15209976423E+03  0.16616053229E+03  0.41800000000E+01 0.  1.
</event>
<event>
11    1  0.8551154E-009  0.1337298E+03  0.7561462E-02  0.1114769E+00
         22   -1    0    0    0    0  0.00000000000E+00  0.00000000000E+00  0.39612661464E+03  0.39612661464E+03  0.00000000000E+00 0. -1.
         22   -1    0    0    0    0 -0.00000000000E+00 -0.00000000000E+00 -0.33224933587E+03  0.33224933587E+03  0.00000000000E+00 0. -1.
         24    2    1    2    0    0 -0.17505055300E+02  0.49456573156E+01 -0.26768357011E+03  0.28225231609E+03  0.87641255968E+02 0.  0.
         25    2    1    2    0    0 -0.31704869572E+02 -0.89672330619E+01  0.33191345798E+02  0.13355406263E+03  0.12509761063E+03 0.  0.
        -24    2    1    2    0    0  0.49209924873E+02  0.40215757463E+01  0.29836950308E+03  0.31256957179E+03  0.78978396178E+02 0.  0.
        -11    1    3    3    0    0 -0.35958371313E+02 -0.23454156975E+02 -0.73355105714E+02  0.84994549715E+02  0.00000000000E+00 0.  1.
         12    1    3    3    0    0  0.18453316012E+02  0.28399814290E+02 -0.19432846439E+03  0.19725776638E+03  0.00000000000E+00 0. -1.
         13    1    5    5    0    0  0.42842689268E+02 -0.20752238612E+02  0.27083664274E+03  0.27498843336E+03  0.00000000000E+00 0. -1.
        -14    1    5    5    0    0  0.63672356049E+01  0.24773814358E+02  0.27532860337E+02  0.37581138427E+02  0.00000000000E+00 0.  1.
          5    1    4    4  501    0 -0.15256365736E+02 -0.58469925709E+02  0.50049880494E+02  0.78574498696E+02  0.41800000000E+01 0.  1.
         -5    1    4    4    0  501 -0.16448503837E+02  0.49502692647E+02 -0.16858534696E+02  0.54979563930E+02  0.41800000000E+01 0.  1.
</event>
<event>
11    1  0.8551154E-009  0.1342722E+03  0.7561462E-02  0.1114128E+00
         22   -1    0    0    0    0  0.00000000000E+00  0.00000000000E+00  0.60552413474E+03  0.60552413474E+03  0.00000000000E+00 0.  1.
         22   -1    0    0    0    0 -0.00000000000E+00 -0.00000000000E+00 -0.59297455481E+03  0.59297455481E+03  0.00000000000E+00 0. -1.
         24    2    1    2    0    0  0.25125911689E+02  0.41716545770E+02 -0.54343955301E+03  0.55149002515E+03  0.80269037860E+02 0.  0.
         25    2    1    2    0    0  0.62115290023E+01 -0.63880340657E+02  0.78258125741E+02  0.16090542260E+03  0.12508772826E+03 0.  0.
        -24    2    1    2    0    0 -0.31337440691E+02  0.22163794887E+02  0.47773100719E+03  0.48610324180E+03  0.81216854587E+02 0.  0.
        -11    1    3    3    0    0  0.30252891317E+02  0.47568879368E+02 -0.19555645616E+03  0.20351993333E+03  0.00000000000E+00 0.  1.
         12    1    3    3    0    0 -0.51269796281E+01 -0.58523335985E+01 -0.34788309685E+03  0.34797009182E+03  0.00000000000E+00 0. -1.
         13    1    5    5    0    0 -0.14817124926E+02 -0.19522268731E+02  0.46648025531E+02  0.52694444237E+02  0.00000000000E+00 0. -1.
        -14    1    5    5    0    0 -0.16520315765E+02  0.41686063618E+02  0.43108298166E+03  0.43340879757E+03  0.00000000000E+00 0.  1.
          5    1    4    4  501    0 -0.32167309099E+02 -0.86566466577E+02  0.68549824002E+02  0.11508709607E+03  0.41800000000E+01 0. -1.
         -5    1    4    4    0  501  0.38378838101E+02  0.22686125920E+02  0.97083017390E+01  0.45818326529E+02  0.41800000000E+01 0. -1.
</event>
<event>
11    1  0.8551154E-009  0.1365275E+03  0.7561462E-02  0.1111499E+00
         22   -1    0    0    0    0  0.00000000000E+00  0.00000000000E+00  0.23701856465E+04  0.23701856465E+04  0.00000000000E+00 0. -1.
         22   -1    0    0    0    0 -0.00000000000E+00 -0.00000000000E+00 -0.35285158807E+02  0.35285158807E+02  0.00000000000E+00 0. -1.
        -24    2    1    2    0    0 -0.42077590577E+02 -0.15975601435E+01  0.57491203561E+02  0.10834863639E+03  0.81615640010E+02 0.  0.
         25    2    1    2    0    0 -0.63514375922E+01  0.36303760887E+02  0.49968329587E+03  0.51642009415E+03  0.12509202074E+03 0.  0.
         24    2    1    2    0    0  0.48429028170E+02 -0.34706200744E+02  0.17777259883E+04  0.17807020748E+04  0.83906487226E+02 0.  0.
        -13    1    5    5    0    0  0.30456930485E+02 -0.61587567898E+02  0.10394369379E+04  0.10417052371E+04  0.00000000000E+00 0.  1.
         14    1    5    5    0    0  0.17972097684E+02  0.26881367154E+02  0.73828905036E+03  0.73899683766E+03  0.00000000000E+00 0. -1.
         11    1    3    3    0    0  0.24858456725E+02 -0.83320857185E+00  0.16705540623E+02  0.29961845650E+02  0.00000000000E+00 0. -1.
        -12    1    3    3    0    0 -0.66936047302E+02 -0.76435157168E+00  0.40785662937E+02  0.78386790743E+02  0.00000000000E+00 0.  1.
          5    1    4    4  501    0 -0.64986508428E+02  0.24021391559E+02  0.29858593463E+03  0.30654739648E+03  0.41800000000E+01 0.  1.
         -5    1    4    4    0  501  0.58635070836E+02  0.12282369329E+02  0.20109736124E+03  0.20987269767E+03  0.41800000000E+01 0.  1.
</event>
<event>
11    1  0.8551154E-009  0.3519186E+03  0.7561462E-02  0.9803353E-01
         22   -1    0    0    0    0  0.00000000000E+00  0.00000000000E+00  0.68083662670E+03  0.68083662670E+03  0.00000000000E+00 0.  1.
         22   -1    0    0    0    0 -0.00000000000E+00 -0.00000000000E+00 -0.18772830126E+04  0.18772830126E+04  0.00000000000E+00 0.  1.
        -24    2    1    2    0    0  0.29762285371E+02 -0.12169130531E+03 -0.10700973579E+04  0.10803833667E+04  0.80157945306E+02 0.  0.
         25    2    1    2    0    0 -0.34800532113E+03  0.38349315317E+02 -0.71071180207E+03  0.80208310365E+03  0.12509063135E+03 0.  0.
         24    2    1    2    0    0  0.31824303576E+03  0.83341989993E+02  0.58436277408E+03  0.67565316896E+03  0.82479305792E+02 0.  0.
        -11    1    5    5    0    0  0.24407070933E+03  0.48493886968E+02  0.36749862478E+03  0.44382136884E+03  0.00000000000E+00 0.  1.
         12    1    5    5    0    0  0.74172326432E+02  0.34848103024E+02  0.21686414930E+03  0.23183180011E+03  0.00000000000E+00 0. -1.
         11    1    3    3    0    0  0.15372993479E+01  0.11765578814E+02 -0.65339700560E+02  0.66408347392E+02  0.00000000000E+00 0. -1.
        -12    1    3    3    0    0  0.28224986023E+02 -0.13345688412E+03 -0.10047576573E+04  0.10139750193E+04  0.00000000000E+00 0.  1.
          5    1    4    4  501    0 -0.25201743237E+03 -0.25716583925E+02 -0.53290074244E+03  0.59006338863E+03  0.41800000000E+01 0.  1.
         -5    1    4    4    0  501 -0.95987888763E+02  0.64065899242E+02 -0.17781105963E+03  0.21201971503E+03  0.41800000000E+01 0.  1.
</event>
<event>
11    1  0.8551154E-009  0.1357486E+03  0.7561462E-02  0.1112401E+00
         22   -1    0    0    0    0  0.00000000000E+00  0.00000000000E+00  0.20368487529E+04  0.20368487529E+04  0.00000000000E+00 0.  1.
         22   -1    0    0    0    0 -0.00000000000E+00 -0.00000000000E+00 -0.12130363997E+03  0.12130363997E+03  0.00000000000E+00 0. -1.
         24    2    1    2    0    0  0.43005108110E+02  0.29791700140E+02 -0.90088741398E+02  0.13036163075E+03  0.78365736922E+02 0.  0.
         25    2    1    2    0    0 -0.72990727367E+02  0.58365390069E-01  0.53330666297E+03  0.55263318529E+03  0.12513908674E+03 0.  0.
        -24    2    1    2    0    0  0.29985619257E+02 -0.29850065530E+02  0.14723271914E+04  0.14751575768E+04  0.80946613965E+02 0.  0.
        -11    1    3    3    0    0  0.27202880004E+02  0.63000890664E+01  0.73656364719E+01  0.28878026307E+02  0.00000000000E+00 0.  1.
         12    1    3    3    0    0  0.15802228106E+02  0.23491611074E+02 -0.97454377870E+02  0.10148360444E+03  0.00000000000E+00 0. -1.
         13    1    5    5    0    0  0.35147715109E+02  0.12279521660E+02  0.33947084378E+03  0.34150637227E+03  0.00000000000E+00 0. -1.
        -14    1    5    5    0    0 -0.51620958517E+01 -0.42129587190E+02  0.11328563476E+04  0.11336512046E+04  0.00000000000E+00 0.  1.
          5    1    4    4  501    0 -0.55780054549E+02 -0.59776045449E+02  0.32730355664E+03  0.33738654490E+03  0.41800000000E+01 0.  1.
         -5    1    4    4    0  501 -0.17210672818E+02  0.59834410839E+02  0.20600310633E+03  0.21524664038E+03  0.41800000000E+01 0.  1.
</event>
<event>
11    1  0.8551154E-009  0.1835942E+03  0.7561462E-02  0.1066772E+00
         22   -1    0    0    0    0  0.00000000000E+00  0.00000000000E+00  0.31453504789E+04  0.31453504789E+04  0.00000000000E+00 0. -1.
         22   -1    0    0    0    0 -0.00000000000E+00 -0.00000000000E+00 -0.33096283989E+03  0.33096283989E+03  0.00000000000E+00 0. -1.
        -24    2    1    2    0    0  0.11410058213E+03  0.61659929431E+02 -0.22381015731E+03  0.27061086461E+03  0.79488136165E+02 0.  0.
         25    2    1    2    0    0 -0.15859280646E+03 -0.41170161545E+02  0.44850306044E+02  0.21096762008E+03  0.12509646799E+03 0.  0.
         24    2    1    2    0    0  0.44492224335E+02 -0.20489767887E+02  0.29933474902E+04  0.29947348341E+04  0.76864429203E+02 0.  0.
        -11    1    5    5    0    0 -0.22663106317E+01 -0.98548321859E+01  0.50800820916E+02  0.51797464098E+02  0.00000000000E+00 0.  1.
         12    1    5    5    0    0  0.46758534967E+02 -0.10634935701E+02  0.29425466693E+04  0.29429373700E+04  0.00000000000E+00 0. -1.
         11    1    3    3    0    0  0.14022333347E+02 -0.47218038231E+01 -0.88354563171E+02  0.89584876497E+02  0.00000000000E+00 0. -1.
        -12    1    3    3    0    0  0.10007824878E+03  0.66381733254E+02 -0.13545559414E+03  0.18102598811E+03  0.00000000000E+00 0.  1.
          5    1    4    4  501    0 -0.86023253233E+02 -0.70167129645E+02  0.66877321683E+02  0.12966678347E+03  0.41800000000E+01 0.  1.
         -5    1    4    4    0  501 -0.72569553232E+02  0.28996968101E+02 -0.22027015639E+02  0.81300836608E+02  0.41800000000E+01 0.  1.
</event>
<event>
11    1  0.8551154E-009  0.1775803E+03  0.7561462E-02  0.1071617E+00
         22   -1    0    0    0    0  0.00000000000E+00  0.00000000000E+00  0.92147241085E+02  0.92147241085E+02  0.00000000000E+00 0.  1.
         22   -1    0    0    0    0 -0.00000000000E+00 -0.00000000000E+00 -0.21051721507E+04  0.21051721507E+04  0.00000000000E+00 0.  1.
         24    2    1    2    0    0 -0.86214308911E+02  0.11429372227E+03 -0.17745404700E+04  0.17821006004E+04  0.79954413652E+02 0.  0.
         25    2    1    2    0    0 -0.78679612263E+01 -0.58366963345E+02 -0.24281144682E+03  0.27942493126E+03  0.12510909751E+03 0.  0.
        -24    2    1    2    0    0  0.94082270137E+02 -0.55926758924E+02  0.43270071982E+01  0.13579386013E+03  0.80261905911E+02 0.  0.
        -11    1    3    3    0    0 -0.73336584690E+02  0.32226185056E+02 -0.95924983466E+03  0.96258871122E+03  0.00000000000E+00 0.  1.
         12    1    3    3    0    0 -0.12877724220E+02  0.82067537213E+02 -0.81529063530E+03  0.81951188915E+03  0.00000000000E+00 0. -1.
         13    1    5    5    0    0  0.82568524058E+02 -0.22234527860E+02 -0.25623894895E+02  0.89266563639E+02  0.00000000000E+00 0. -1.
        -14    1    5    5    0    0  0.11513746079E+02 -0.33692231064E+02  0.29950902093E+02  0.46527296493E+02  0.00000000000E+00 0.  1.
          5    1    4    4  501    0 -0.10834211677E+02 -0.95299991935E+02 -0.20476190455E+03  0.22615122940E+03  0.41800000000E+01 0. -1.
         -5    1    4    4    0  501  0.29662504506E+01  0.36933028590E+02 -0.38049542269E+02  0.53273701856E+02  0.41800000000E+01 0. -1.
</event>
<event>
11    1  0.8551154E-009  0.1313739E+03  0.7561462E-02  0.1117592E+00
         22   -1    0    0    0    0  0.00000000000E+00  0.00000000000E+00  0.13421031770E+03  0.13421031770E+03  0.00000000000E+00 0. -1.
         22   -1    0    0    0    0 -0.00000000000E+00 -0.00000000000E+00 -0.21862181422E+04  0.21862181422E+04  0.00000000000E+00 0. -1.
         24    2    1    2    0    0 -0.71754918525E+01  0.91482921071E+01 -0.20575928232E+04  0.20591228020E+04  0.78506743768E+02 0.  0.
         25    2    1    2    0    0 -0.56593374356E+01  0.30969742174E+02 -0.64969860177E+02  0.14442661447E+03  0.12508721440E+03 0.  0.
        -24    2    1    2    0    0  0.12834829288E+02 -0.40118034281E+02  0.70554858870E+02  0.11687904340E+03  0.83117586335E+02 0.  0.
        -11    1    3    3    0    0 -0.39777017730E+02  0.20455605664E+02 -0.12189925735E+04  0.12198129107E+04  0.00000000000E+00 0.  1.
         12    1    3    3    0    0  0.32601525878E+02 -0.11307313556E+02 -0.83860024964E+03  0.83930989123E+03  0.00000000000E+00 0. -1.
         11    1    5    5    0    0 -0.31940449514E+02 -0.19701183225E+02  0.52344774015E+02  0.64407331122E+02  0.00000000000E+00 0. -1.
        -12    1    5    5    0    0  0.44775278802E+02 -0.20416851056E+02  0.18210084856E+02  0.52471712277E+02  0.00000000000E+00 0.  1.
          5    1    4    4  501    0 -0.26842736135E+01  0.79761436199E+02 -0.41193015678E+02  0.89907891589E+02  0.41800000000E+01 0. -1.
         -5    1    4    4    0  501 -0.29750638221E+01 -0.48791694024E+02 -0.23776844500E+02  0.54518722884E+02  0.41800000000E+01 0. -1.
</event>
<event>
11    1  0.8551154E-009  0.1420252E+03  0.7561462E-02  0.1105318E+00
         22   -1    0    0    0    0  0.00000000000E+00  0.00000000000E+00  0.66729634016E+02  0.66729634016E+02  0.00000000000E+00 0. -1.
         22   -1    0    0    0    0 -0.00000000000E+00 -0.00000000000E+00 -0.16873522585E+04  0.16873522585E+04  0.00000000000E+00 0. -1.
         24    2    1    2    0    0 -0.60434392431E+02 -0.35894270201E+02 -0.11064861945E+04  0.11117069137E+04  0.81485268929E+02 0.  0.
         25    2    1    2    0    0 -0.68524399003E+01  0.59260532129E+02 -0.51609830246E+03  0.53438206227E+03  0.12509182258E+03 0.  0.
        -24    2    1    2    0    0  0.67286832331E+02 -0.23366261928E+02  0.19618724496E+01  0.10799291651E+03  0.81148758908E+02 0.  0.
        -11    1    3    3    0    0 -0.48363912108E+02 -0.56947490944E+02 -0.59910943252E+03  0.60375011126E+03  0.00000000000E+00 0.  1.
         12    1    3    3    0    0 -0.12070480323E+02  0.21053220743E+02 -0.50737676197E+03  0.50795680248E+03  0.00000000000E+00 0. -1.
         11    1    5    5    0    0  0.72174424431E+02 -0.28567906833E+02  0.26823827984E+02  0.82126674050E+02  0.00000000000E+00 0. -1.
        -12    1    5    5    0    0 -0.48875921000E+01  0.52016449050E+01 -0.24861955535E+02  0.25866242465E+02  0.00000000000E+00 0.  1.
          5    1    4    4  501    0  0.41988499454E+02 -0.97906519991E+01 -0.89146364818E+02  0.99113257001E+02  0.41800000000E+01 0. -1.
         -5    1    4    4    0  501 -0.48840939354E+02  0.69051184128E+02 -0.42695193764E+03  0.43526880527E+03  0.41800000000E+01 0. -1.
</event>
<event>
11    1  0.8551154E-009  0.1291433E+03  0.7561462E-02  0.1120326E+00
         22   -1    0    0    0    0  0.00000000000E+00  0.00000000000E+00  0.23063620910E+03  0.23063620910E+03  0.00000000000E+00 0. -1.
         22   -1    0    0    0    0 -0.00000000000E+00 -0.00000000000E+00 -0.17354334150E+04  0.17354334150E+04  0.00000000000E+00 0.  1.
         24    2    1    2    0    0 -0.22660764345E+02  0.23115764054E+02 -0.16823156544E+04  0.16846256347E+04  0.82034865886E+02 0.  0.
         25    2    1    2    0    0 -0.61827079572E+01 -0.15108771967E+02  0.73302182129E+02  0.14590149594E+03  0.12509011050E+03 0.  0.
        -24    2    1    2    0    0  0.28843472302E+02 -0.80069920875E+01  0.10421626643E+03  0.13554249341E+03  0.81330680034E+02 0.  0.
        -11    1    3    3    0    0 -0.14970994711E+02 -0.18579433759E+02 -0.12517743527E+04  0.12520017396E+04  0.00000000000E+00 0.  1.
         12    1    3    3    0    0 -0.76897696336E+01  0.41695197813E+02 -0.43054130178E+03  0.43262389511E+03  0.00000000000E+00 0. -1.
         11    1    5    5    0    0  0.42029745896E+02  0.20266039333E+02  0.89750155645E+02  0.10115484333E+03  0.00000000000E+00 0. -1.
        -12    1    5    5    0    0 -0.13186273594E+02 -0.28273031420E+02  0.14466110781E+02  0.34387650081E+02  0.00000000000E+00 0.  1.
          5    1    4    4  501    0  0.22354922576E+02  0.43642905410E+02  0.62527023229E+02  0.79571017273E+02  0.41800000000E+01 0.  1.
         -5    1    4    4    0  501 -0.28537630533E+02 -0.58751677376E+02  0.10775158900E+02  0.66330478668E+02  0.41800000000E+01 0.  1.
</event>
<event>
11    1  0.8551154E-009  0.1600467E+03  0.7561462E-02  0.1087033E+00
         22   -1    0    0    0    0  0.00000000000E+00  0.00000000000E+00  0.29396883024E+03  0.29396883024E+03  0.00000000000E+00 0.  1.
         22   -1    0    0    0    0 -0.00000000000E+00 -0.00000000000E+00 -0.11288484620E+04  0.11288484620E+04  0.00000000000E+00 0. -1.
         24    2    1    2    0    0 -0.29293867883E+01  0.54273889145E+01 -0.65894015693E+03  0.66369289380E+03  0.79044854459E+02 0.  0.
         25    2    1    2    0    0  0.98265915001E+02  0.24021793164E+02 -0.43851206969E+03  0.46709435554E+03  0.12510421702E+03 0.  0.
        -24    2    1    2    0    0 -0.95336528213E+02 -0.29449182078E+02  0.26257259486E+03  0.29203004289E+03  0.79880350794E+02 0.  0.
        -13    1    3    3    0    0 -0.24700149431E+02  0.11201732311E+02 -0.83130229639E+02  0.87442617004E+02  0.00000000000E+00 0.  1.
         14    1    3    3    0    0  0.21770762642E+02 -0.57743433962E+01 -0.57580992729E+03  0.57625027680E+03  0.00000000000E+00 0. -1.
         11    1    5    5    0    0  0.10167181903E+02  0.10113262882E+02  0.20498348491E+02  0.25016633763E+02  0.00000000000E+00 0. -1.
        -12    1    5    5    0    0 -0.10550371012E+03 -0.39562444961E+02  0.24207424637E+03  0.26701340913E+03  0.00000000000E+00 0.  1.
          5    1    4    4  501    0 -0.21882174164E+02  0.27810269358E+02 -0.58467586031E+02  0.68470224508E+02  0.41800000000E+01 0.  1.
         -5    1    4    4    0  501  0.12014808917E+03 -0.37884761937E+01 -0.38004448366E+03  0.39862413104E+03  0.41800000000E+01 0.  1.
</event>
<event>
11    1  0.8551154E-009  0.7297381E+03  0.7561462E-02  0.8989593E-01
         22   -1    0    0    0    0  0.00000000000E+00  0.00000000000E+00  0.37618376426E+03  0.37618376426E+03  0.00000000000E+00 0. -1.
         22   -1    0    0    0    0 -0.00000000000E+00 -0.00000000000E+00 -0.16575081534E+04  0.16575081534E+04  0.00000000000E+00 0. -1.
         24    2    1    2    0    0  0.66581153683E+03 -0.31795408687E+03 -0.65163742197E+03  0.98779890207E+03  0.81948381839E+02 0.  0.
         25    2    1    2    0    0 -0.66422680459E+03  0.22728983761E+03 -0.56712964504E+03  0.91112097063E+03  0.12508985021E+03 0.  0.
        -24    2    1    2    0    0 -0.15847322377E+01  0.90664249265E+02 -0.62557322155E+02  0.13477204498E+03  0.77637414195E+02 0.  0.
        -13    1    3    3    0    0  0.41433033483E+03 -0.22459838384E+03 -0.45604433527E+03  0.65581285144E+03  0.00000000000E+00 0.  1.
         14    1    3    3    0    0  0.25148120200E+03 -0.93355703030E+02 -0.19559308671E+03  0.33198605063E+03  0.00000000000E+00 0. -1.
         13    1    5    5    0    0 -0.23418887989E+02  0.34955670041E+00 -0.12548701501E+01  0.23455089077E+02  0.00000000000E+00 0. -1.
        -14    1    5    5    0    0  0.21834155751E+02  0.90314692565E+02 -0.61302452005E+02  0.11131695591E+03  0.00000000000E+00 0.  1.
          5    1    4    4  501    0 -0.55009194871E+03  0.15883995921E+03 -0.50792368555E+03  0.76539873753E+03  0.41800000000E+01 0. -1.
         -5    1    4    4    0  501 -0.11413485589E+03  0.68449878401E+02 -0.59205959491E+02  0.14572223310E+03  0.41800000000E+01 0. -1.
</event>
<event>
11    1  0.8551154E-009  0.1360337E+03  0.7561462E-02  0.1112070E+00
         22   -1    0    0    0    0  0.00000000000E+00  0.00000000000E+00  0.18906848276E+04  0.18906848276E+04  0.00000000000E+00 0.  1.
         22   -1    0    0    0    0 -0.00000000000E+00 -0.00000000000E+00 -0.10531139495E+03  0.10531139495E+03  0.00000000000E+00 0.  1.
        -24    2    1    2    0    0 -0.63186619827E+01 -0.29696792502E+02 -0.74251512564E+02  0.11369882803E+03  0.80574880726E+02 0.  0.
         25    2    1    2    0    0  0.21224580226E+02 -0.25506799433E+02  0.41950271555E+03  0.43901281952E+03  0.12509455514E+03 0.  0.
         24    2    1    2    0    0 -0.14905918244E+02  0.55203591935E+02  0.14401222297E+04  0.14432845750E+04  0.76476827269E+02 0.  0.
        -13    1    5    5    0    0 -0.19427313361E+02  0.51925923015E+02  0.14337096828E+04  0.14347812295E+04  0.00000000000E+00 0.  1.
         14    1    5    5    0    0  0.45213951175E+01  0.32776689200E+01  0.64125468581E+01  0.85033454925E+01  0.00000000000E+00 0. -1.
         13    1    3    3    0    0  0.25891001340E+02 -0.58613343156E+01  0.29584315197E+01  0.26710513050E+02  0.00000000000E+00 0. -1.
        -14    1    3    3    0    0 -0.32209663322E+02 -0.23835458187E+02 -0.77209944084E+02  0.86988314984E+02  0.00000000000E+00 0.  1.
          5    1    4    4  501    0 -0.51371125481E+02 -0.23242690608E+02  0.17373357789E+03  0.18270206262E+03  0.41800000000E+01 0.  1.
         -5    1    4    4    0  501  0.72595705707E+02 -0.22641088252E+01  0.24576913766E+03  0.25631075690E+03  0.41800000000E+01 0.  1.
</event>
<event>
11    1  0.8551154E-009  0.1532060E+03  0.7561462E-02  0.1093647E+00
         22   -1    0    0    0    0  0.00000000000E+00  0.00000000000E+00  0.71579620500E+03  0.71579620500E+03  0.00000000000E+00 0. -1.
         22   -1    0    0    0    0 -0.00000000000E+00 -0.00000000000E+00 -0.14171918115E+03  0.14171918115E+03  0.00000000000E+00 0.  1.
        -24    2    1    2    0    0  0.53169305489E+02 -0.84816382883E+02 -0.64578973596E+02  0.14638776042E+03  0.85077251482E+02 0.  0.
         25    2    1    2    0    0 -0.42353418128E+02  0.28660316391E+02  0.11280541719E+03  0.17603586229E+03  0.12509331278E+03 0.  0.
         24    2    1    2    0    0 -0.10815887360E+02  0.56156066491E+02  0.52585058025E+03  0.53509176344E+03  0.80832390304E+02 0.  0.
        -13    1    5    5    0    0 -0.35519160622E+02  0.79435007992E+01  0.11337405472E+03  0.11907302910E+03  0.00000000000E+00 0.  1.
         14    1    5    5    0    0  0.24703273261E+02  0.48212565692E+02  0.41247652553E+03  0.41601873433E+03  0.00000000000E+00 0. -1.
         13    1    3    3    0    0 -0.12549147546E+01  0.75316398918E+01  0.12299619936E+02  0.14476914763E+02  0.00000000000E+00 0. -1.
        -14    1    3    3    0    0  0.54424220244E+02 -0.92348022775E+02 -0.76878593532E+02  0.13191084566E+03  0.00000000000E+00 0.  1.
          5    1    4    4  501    0  0.14417540394E+02 -0.92952679882E+01  0.10579648025E+03  0.10725966208E+03  0.41800000000E+01 0.  1.
         -5    1    4    4    0  501 -0.56770958522E+02  0.37955584380E+02  0.70089369399E+01  0.68776200201E+02  0.41800000000E+01 0.  1.
</event>
<event>
11    1  0.8551154E-009  0.1367841E+03  0.7561462E-02  0.1111204E+00
         22   -1    0    0    0    0  0.00000000000E+00  0.00000000000E+00  0.58722640349E+02  0.58722640349E+02  0.00000000000E+00 0.  1.
         22   -1    0    0    0    0 -0.00000000000E+00 -0.00000000000E+00 -0.22867454063E+04  0.22867454063E+04  0.00000000000E+00 0.  1.
         24    2    1    2    0    0 -0.55783710238E+01 -0.25187666276E+02 -0.15052495111E+04  0.15075639955E+04  0.79420229482E+02 0.  0.
         25    2    1    2    0    0  0.21557554170E+02  0.76570975414E+02 -0.72617048013E+03  0.74114629196E+03  0.12508564050E+03 0.  0.
        -24    2    1    2    0    0 -0.15979183146E+02 -0.51383309138E+02  0.33972253364E+01  0.96757759213E+02  0.80342666597E+02 0.  0.
        -13    1    3    3    0    0 -0.35734855999E+01 -0.36428993587E+02 -0.14711132028E+04  0.14715685159E+04  0.00000000000E+00 0.  1.
         14    1    3    3    0    0 -0.20048854239E+01  0.11241327311E+02 -0.34136308324E+02  0.35995479595E+02  0.00000000000E+00 0. -1.
         11    1    5    5    0    0  0.49201132498E+01  0.13826806911E+02 -0.19632412318E+02  0.24511624123E+02  0.00000000000E+00 0. -1.
        -12    1    5    5    0    0 -0.20899296396E+02 -0.65210116049E+02  0.23029637654E+02  0.72246135090E+02  0.00000000000E+00 0.  1.
          5    1    4    4  501    0  0.21599000104E+02 -0.35381005492E+01 -0.51137711738E+03  0.51186234823E+03  0.41800000000E+01 0.  1.
         -5    1    4    4    0  501 -0.41445934074E-01  0.80109075963E+02 -0.21479336275E+03  0.22928394373E+03  0.41800000000E+01 0.  1.
</event>
<event>
11    1  0.8551154E-009  0.3356113E+03  0.7561462E-02  0.9861531E-01
         22   -1    0    0    0    0  0.00000000000E+00  0.00000000000E+00  0.34079139721E+03  0.34079139721E+03  0.00000000000E+00 0. -1.
         22   -1    0    0    0    0 -0.00000000000E+00 -0.00000000000E+00 -0.28081604242E+04  0.28081604242E+04  0.00000000000E+00 0. -1.
        -24    2    1    2    0    0 -0.99946449166E+01 -0.27588756795E+03 -0.14521458730E+04  0.14803025146E+04  0.79712326546E+02 0.  0.
         25    2    1    2    0    0  0.76341205551E+02  0.38921307167E+03 -0.12890595427E+04  0.13544877603E+04  0.12509114003E+03 0.  0.
         24    2    1    2    0    0 -0.66346560634E+02 -0.11332550372E+03  0.27383638877E+03  0.31416154653E+03  0.80415008594E+02 0.  0.
        -13    1    5    5    0    0 -0.12342724134E+02 -0.14752975334E+02  0.12080003549E+01  0.19273100039E+02  0.00000000000E+00 0.  1.
         14    1    5    5    0    0 -0.54003836500E+02 -0.98572528387E+02  0.27262838841E+03  0.29488844650E+03  0.00000000000E+00 0. -1.
         11    1    3    3    0    0  0.16001216235E+02 -0.17812810377E+03 -0.10774373450E+04  0.10921798811E+04  0.00000000000E+00 0. -1.
        -12    1    3    3    0    0 -0.25995861151E+02 -0.97759464179E+02 -0.37470852801E+03  0.38812263345E+03  0.00000000000E+00 0.  1.
          5    1    4    4  501    0  0.99817763287E+02  0.36664918976E+03 -0.12236675671E+04  0.12813176817E+04  0.41800000000E+01 0.  1.
         -5    1    4    4    0  501 -0.23476557736E+02  0.22563881918E+02 -0.65391975607E+02  0.73170078612E+02  0.41800000000E+01 0.  1.
</event>
<event>
11    1  0.8551154E-009  0.1577400E+03  0.7561462E-02  0.1089222E+00
         22   -1    0    0    0    0  0.00000000000E+00  0.00000000000E+00  0.34680074328E+03  0.34680074328E+03  0.00000000000E+00 0.  1.
         22   -1    0    0    0    0 -0.00000000000E+00 -0.00000000000E+00 -0.23207562067E+03  0.23207562067E+03  0.00000000000E+00 0.  1.
        -24    2    1    2    0    0  0.95394370996E+02 -0.49045383819E+01 -0.13839571412E+03  0.18569930682E+03  0.78782728771E+02 0.  0.
         25    2    1    2    0    0 -0.92052808958E+02  0.93266156925E+02  0.16090194697E+03  0.24229986998E+03  0.12508994679E+03 0.  0.
         24    2    1    2    0    0 -0.33415620383E+01 -0.88361618543E+02  0.92218889758E+02  0.15087718715E+03  0.80253724566E+02 0.  0.
        -13    1    5    5    0    0  0.30513015563E+02 -0.76893888126E+02  0.55410227259E+02  0.99569108838E+02  0.00000000000E+00 0.  1.
         14    1    5    5    0    0 -0.33854577601E+02 -0.11467730417E+02  0.36808662499E+02  0.51308078316E+02  0.00000000000E+00 0. -1.
         13    1    3    3    0    0  0.90416955392E+02  0.21952466431E+02 -0.12337656573E+03  0.15452803492E+03  0.00000000000E+00 0. -1.
        -14    1    3    3    0    0  0.49774156048E+01 -0.26857004812E+02 -0.15019148388E+02  0.31171271901E+02  0.00000000000E+00 0.  1.
          5    1    4    4  501    0 -0.11976031186E+03  0.60416918164E+02  0.98734586878E+02  0.16660950556E+03  0.41800000000E+01 0. -1.
         -5    1    4    4    0  501  0.27707502904E+02  0.32849238761E+02  0.62167360094E+02  0.75690364416E+02  0.41800000000E+01 0. -1.
</event>
<event>
11    1  0.8551154E-009  0.1625767E+03  0.7561462E-02  0.1084679E+00
         22   -1    0    0    0    0  0.00000000000E+00  0.00000000000E+00  0.31393836387E+04  0.31393836387E+04  0.00000000000E+00 0.  1.
         22   -1    0    0    0    0 -0.00000000000E+00 -0.00000000000E+00 -0.13872567832E+03  0.13872567832E+03  0.00000000000E+00 0.  1.
         24    2    1    2    0    0 -0.11551557762E+02  0.94433206752E+02 -0.55613599993E+02  0.13645166915E+03  0.80468108501E+02 0.  0.
         25    2    1    2    0    0  0.55215664173E+02 -0.15093372037E+03  0.20702718673E+03  0.29040961709E+03  0.12509089552E+03 0.  0.
        -24    2    1    2    0    0 -0.43664106410E+02  0.56500513619E+02  0.28492443736E+04  0.28512480308E+04  0.79517104856E+02 0.  0.
        -11    1    3    3    0    0 -0.43091277503E+01  0.10854985321E+03 -0.50341014062E+02  0.11973243884E+03  0.00000000000E+00 0.  1.
         12    1    3    3    0    0 -0.72424300122E+01 -0.14116646459E+02 -0.52725859319E+01  0.16719230310E+02  0.00000000000E+00 0. -1.
         13    1    5    5    0    0  0.20302943393E+02  0.16231148058E+02  0.40379934441E+03  0.40463510750E+03  0.00000000000E+00 0. -1.
        -14    1    5    5    0    0 -0.63967049804E+02  0.40269365561E+02  0.24454450292E+04  0.24466129233E+04  0.00000000000E+00 0.  1.
          5    1    4    4  501    0 -0.22060322730E+02 -0.16579439080E+02  0.95290427925E+02  0.99293875407E+02  0.41800000000E+01 0. -1.
         -5    1    4    4    0  501  0.77275986902E+02 -0.13435428129E+03  0.11173675880E+03  0.19111574169E+03  0.41800000000E+01 0. -1.
</event>
<event>
11    1  0.8551154E-009  0.2270338E+03  0.7561462E-02  0.1036899E+00
         22   -1    0    0    0    0  0.00000000000E+00  0.00000000000E+00  0.66562957562E+03  0.66562957562E+03  0.00000000000E+00 0. -1.
         22   -1    0    0    0    0 -0.00000000000E+00 -0.00000000000E+00 -0.33674027755E+03  0.33674027755E+03  0.00000000000E+00 0.  1.
        -24    2    1    2    0    0 -0.13116485194E+03 -0.13193052196E+03 -0.24642778768E+03  0.31918952669E+03  0.80903760118E+02 0.  0.
         25    2    1    2    0    0  0.15248145032E+03  0.16183471582E+03  0.30158716842E+03  0.39502302710E+03  0.12508918356E+03 0.  0.
         24    2    1    2    0    0 -0.21316598383E+02 -0.29904193861E+02  0.27372991732E+03  0.28815729938E+03  0.82206467931E+02 0.  0.
        -11    1    5    5    0    0  0.29465130505E+02 -0.25107865550E+02  0.10627363005E+03  0.11310474469E+03  0.00000000000E+00 0.  1.
         12    1    5    5    0    0 -0.50781728888E+02 -0.47963283104E+01  0.16745628727E+03  0.17505255468E+03  0.00000000000E+00 0. -1.
         11    1    3    3    0    0 -0.12270236012E+02  0.94375941467E+01 -0.36006889834E+02  0.39193404938E+02  0.00000000000E+00 0. -1.
        -12    1    3    3    0    0 -0.11889461593E+03 -0.14136811611E+03 -0.21042089784E+03  0.27999612175E+03  0.00000000000E+00 0.  1.
          5    1    4    4  501    0  0.76566089865E+02  0.79657714129E+00  0.81372342069E+02  0.11181203471E+03  0.41800000000E+01 0. -1.
         -5    1    4    4    0  501  0.75915360458E+02  0.16103813868E+03  0.22021482635E+03  0.28321099239E+03  0.41800000000E+01 0. -1.
</event>
<event>
11    1  0.8551154E-009  0.1668267E+03  0.7561462E-02  0.1080827E+00
         22   -1    0    0    0    0  0.00000000000E+00  0.00000000000E+00  0.65120673707E+03  0.65120673707E+03  0.00000000000E+00 0.  1.
         22   -1    0    0    0    0 -0.00000000000E+00 -0.00000000000E+00 -0.13463460761E+03  0.13463460761E+03  0.00000000000E+00 0. -1.
         24    2    1    2    0    0  0.60354266083E+02 -0.91511752918E+02 -0.35496379282E+02  0.14081439520E+03  0.80942341187E+02 0.  0.
         25    2    1    2    0    0 -0.67111661045E+02  0.90771758444E+02  0.12376963924E+03  0.20907020738E+03  0.12509172969E+03 0.  0.
        -24    2    1    2    0    0  0.67573949627E+01  0.73999447366E+00  0.42829886951E+03  0.43595674210E+03  0.81068794112E+02 0.  0.
        -13    1    3    3    0    0  0.41014155595E+02 -0.24446475008E+01 -0.27244132199E+02  0.49298884367E+02  0.00000000000E+00 0.  1.
         14    1    3    3    0    0  0.19340110488E+02 -0.89067105417E+02 -0.82522470828E+01  0.91515510832E+02  0.00000000000E+00 0. -1.
         11    1    5    5    0    0 -0.33799249105E+02 -0.16032338367E+02  0.20519962190E+03  0.20858166253E+03  0.00000000000E+00 0. -1.
        -12    1    5    5    0    0  0.40556644068E+02  0.16772332841E+02  0.22309924761E+03  0.22737507957E+03  0.00000000000E+00 0.  1.
          5    1    4    4  501    0  0.28058565356E+02  0.35584512131E+02  0.29347089823E+01  0.45602911204E+02  0.41800000000E+01 0.  1.
         -5    1    4    4    0  501 -0.95170226402E+02  0.55187246313E+02  0.12083493026E+03  0.16346729618E+03  0.41800000000E+01 0.  1.
</event>
<event>
11    1  0.8551154E-009  0.1434438E+03  0.7561462E-02  0.1103773E+00
         22   -1    0    0    0    0  0.00000000000E+00  0.00000000000E+00  0.34699921720E+03  0.34699921720E+03  0.00000000000E+00 0.  1.
         22   -1    0    0    0    0 -0.00000000000E+00 -0.00000000000E+00 -0.70075158260E+03  0.70075158260E+03  0.00000000000E+00 0.  1.
        -24    2    1    2    0    0  0.42809567719E+02 -0.41841446039E+02 -0.42021472649E+03  0.43258643923E+03  0.83470026686E+02 0.  0.
         25    2    1    2    0    0 -0.77465422003E+02  0.86545255318E+02 -0.23962524583E+03  0.29420249990E+03  0.12507549594E+03 0.  0.
         24    2    1    2    0    0  0.34655854284E+02 -0.44703809279E+02  0.30608760691E+03  0.32096186067E+03  0.78277928552E+02 0.  0.
        -11    1    5    5    0    0  0.57109138979E+02 -0.26735296798E+02  0.25123853385E+03  0.25903094553E+03  0.00000000000E+00 0.  1.
         12    1    5    5    0    0 -0.22453284695E+02 -0.17968512480E+02  0.54849073056E+02  0.61930915135E+02  0.00000000000E+00 0. -1.
         13    1    3    3    0    0 -0.22355134941E+02 -0.28327127980E+02 -0.13972949790E+03  0.14431393148E+03  0.00000000000E+00 0. -1.
        -14    1    3    3    0    0  0.65164702660E+02 -0.13514318059E+02 -0.28048522859E+03  0.28827250775E+03  0.00000000000E+00 0.  1.
          5    1    4    4  501    0 -0.36342315132E+02 -0.26383380681E+02 -0.10145602123E+03  0.11102992069E+03  0.41800000000E+01 0.  1.
         -5    1    4    4    0  501 -0.41123106870E+02  0.11292863600E+03 -0.13816922460E+03  0.18317257921E+03  0.41800000000E+01 0.  1.
</event>
<event>
11    1  0.8551154E-009  0.1702099E+03  0.7561462E-02  0.1077849E+00
         22   -1    0    0    0    0  0.00000000000E+00  0.00000000000E+00  0.12442404799E+04  0.12442404799E+04  0.00000000000E+00 0. -1.
         22   -1    0    0    0    0 -0.00000000000E+00 -0.00000000000E+00 -0.12783311160E+03  0.12783311160E+03  0.00000000000E+00 0. -1.
        -24    2    1    2    0    0  0.12398840359E+03 -0.34845214070E+02 -0.50386921649E+02  0.15977788338E+03  0.80017604161E+02 0.  0.
         25    2    1    2    0    0 -0.45161516479E+02  0.39624888167E+02  0.22896158959E+03  0.26773486859E+03  0.12509538768E+03 0.  0.
         24    2    1    2    0    0 -0.78826887106E+02 -0.47796740964E+01  0.93783270037E+03  0.94456083954E+03  0.80177816655E+02 0.  0.
        -13    1    5    5    0    0 -0.72359632666E+02  0.16259833010E+02  0.43729585613E+03  0.44354026243E+03  0.00000000000E+00 0.  1.
         14    1    5    5    0    0 -0.64672544405E+01 -0.21039507106E+02  0.50053684424E+03  0.50102057710E+03  0.00000000000E+00 0. -1.
         13    1    3    3    0    0  0.13096053738E+03 -0.43378834359E+02 -0.37787695169E+02  0.14303948940E+03  0.00000000000E+00 0. -1.
        -14    1    3    3    0    0 -0.69721337982E+01  0.85336202886E+01 -0.12599226481E+02  0.16738393974E+02  0.00000000000E+00 0.  1.
          5    1    4    4  501    0  0.24020611421E+02 -0.94630442944E+01  0.29829563255E+01  0.26323172468E+02  0.41800000000E+01 0.  1.
         -5    1    4    4    0  501 -0.69182127900E+02  0.49087932461E+02  0.22597863326E+03  0.24141169612E+03  0.41800000000E+01 0.  1.
</event>
<event>
11    1  0.8551154E-009  0.1351029E+03  0.7561462E-02  0.1113153E+00
         22   -1    0    0    0    0  0.00000000000E+00  0.00000000000E+00  0.11705516904E+03  0.11705516904E+03  0.00000000000E+00 0. -1.
         22   -1    0    0    0    0 -0.00000000000E+00 -0.00000000000E+00 -0.81479526187E+03  0.81479526187E+03  0.00000000000E+00 0. -1.
        -24    2    1    2    0    0  0.35539618572E+02  0.35657840077E+02 -0.46255648027E+03  0.47227990752E+03  0.80964606814E+02 0.  0.
         25    2    1    2    0    0 -0.32365210285E+02 -0.42435377506E+02 -0.31679401446E+03  0.34475316207E+03  0.12509207434E+03 0.  0.
         24    2    1    2    0    0 -0.31744082864E+01  0.67775374288E+01  0.81610401903E+02  0.11481736132E+03  0.80416148127E+02 0.  0.
        -11    1    5    5    0    0  0.22901211524E+02  0.35234113146E+02  0.39107918023E+02  0.57405030011E+02  0.00000000000E+00 0.  1.
         12    1    5    5    0    0 -0.26075619810E+02 -0.28456575718E+02  0.42502483880E+02  0.57412331306E+02  0.00000000000E+00 0. -1.
         11    1    3    3    0    0 -0.51653611454E+00 -0.17658382016E+02 -0.23873768380E+03  0.23939040693E+03  0.00000000000E+00 0. -1.
        -12    1    3    3    0    0  0.36056154686E+02  0.53316222093E+02 -0.22381879647E+03  0.23288950059E+03  0.00000000000E+00 0.  1.
          5    1    4    4  501    0 -0.56506123659E+02 -0.67904656214E+02 -0.14893269284E+03  0.17321201962E+03  0.41800000000E+01 0. -1.
         -5    1    4    4    0  501  0.24140913373E+02  0.25469278709E+02 -0.16786132162E+03  0.17154114245E+03  0.41800000000E+01 0. -1.
</event>
<event>
11    1  0.8551154E-009  0.1668361E+03  0.7561462E-02  0.1080818E+00
         22   -1    0    0    0    0  0.00000000000E+00  0.00000000000E+00  0.61679440341E+03  0.61679440341E+03  0.00000000000E+00 0.  1.
         22   -1    0    0    0    0 -0.00000000000E+00 -0.00000000000E+00 -0.12704734985E+03  0.12704734985E+03  0.00000000000E+00 0.  1.
        -24    2    1    2    0    0  0.10900757396E+03  0.17287937986E+02 -0.48091471080E+02  0.14548049696E+03  0.81671668432E+02 0.  0.
         25    2    1    2    0    0 -0.11161204286E+03  0.43659666511E-01  0.26721056372E+03  0.31545158665E+03  0.12510382943E+03 0.  0.
         24    2    1    2    0    0  0.26044688990E+01 -0.17331597653E+02  0.27062796092E+03  0.28290966964E+03  0.80568110389E+02 0.  0.
        -13    1    5    5    0    0  0.21186081458E+01 -0.19505162536E+02  0.27620676206E+03  0.27690271807E+03  0.00000000000E+00 0.  1.
         14    1    5    5    0    0  0.48586075320E+00  0.21735648835E+01 -0.55788011449E+01  0.60069515720E+01  0.00000000000E+00 0. -1.
         13    1    3    3    0    0  0.69868941845E+02 -0.17524263646E+02  0.32874055819E+01  0.72108084750E+02  0.00000000000E+00 0. -1.
        -14    1    3    3    0    0  0.39138632116E+02  0.34812201633E+02 -0.51378876662E+02  0.73372412210E+02  0.00000000000E+00 0.  1.
          5    1    4    4  501    0  0.23619451093E+02 -0.95460793223E+01  0.17209011468E+02  0.31026256236E+02  0.41800000000E+01 0. -1.
         -5    1    4    4    0  501 -0.13523149395E+03  0.95897389888E+01  0.25000155226E+03  0.28442533041E+03  0.41800000000E+01 0. -1.
</event>
<event>
11    1  0.8551154E-009  0.1879430E+03  0.7561462E-02  0.1063393E+00
         22   -1    0    0    0    0  0.00000000000E+00  0.00000000000E+00  0.29583348998E+04  0.29583348998E+04  0.00000000000E+00 0.  1.
         22   -1    0    0    0    0 -0.00000000000E+00 -0.00000000000E+00 -0.43174911423E+03  0.43174911423E+03  0.00000000000E+00 0. -1.
        -24    2    1    2    0    0 -0.17599131660E+02  0.10970248812E+03 -0.34850259598E+03  0.37385723026E+03  0.77270976907E+02 0.  0.
         25    2    1    2    0    0  0.13574123751E+03 -0.18073439409E+03  0.17637238142E+03  0.31280156886E+03  0.12508796818E+03 0.  0.
         24    2    1    2    0    0 -0.11814210585E+03  0.71031905973E+02  0.26987160002E+04  0.27034252149E+04  0.80229385987E+02 0.  0.
        -13    1    5    5    0    0 -0.96103675679E+02  0.79179947187E+02  0.25321819135E+04  0.25352417289E+04  0.00000000000E+00 0.  1.
         14    1    5    5    0    0 -0.22038430167E+02 -0.81480412147E+01  0.16653408662E+03  0.16818348607E+03  0.00000000000E+00 0. -1.
         11    1    3    3    0    0  0.97693904896E+01  0.75641610951E+02 -0.29540888732E+03  0.30509589477E+03  0.00000000000E+00 0. -1.
        -12    1    3    3    0    0 -0.27368522150E+02  0.34060877169E+02 -0.53093708667E+02  0.68761335489E+02  0.00000000000E+00 0.  1.
          5    1    4    4  501    0  0.91581472416E+01 -0.10559930369E+03  0.44179951243E+02  0.11491050906E+03  0.41800000000E+01 0. -1.
         -5    1    4    4    0  501  0.12658309026E+03 -0.75135090400E+02  0.13219243018E+03  0.19789105980E+03  0.41800000000E+01 0. -1.
</event>
<event>
11    1  0.8551154E-009  0.1397005E+03  0.7561462E-02  0.1107893E+00
         22   -1    0    0    0    0  0.00000000000E+00  0.00000000000E+00  0.83166267134E+03  0.83166267134E+03  0.00000000000E+00 0. -1.
         22   -1    0    0    0    0 -0.00000000000E+00 -0.00000000000E+00 -0.29433079825E+04  0.29433079825E+04  0.00000000000E+00 0.  1.
        -24    2    1    2    0    0  0.69533201042E+01 -0.36825153381E+02 -0.29116580501E+04  0.29130640528E+04  0.82371924910E+02 0.  0.
         25    2    1    2    0    0 -0.66261043644E+02  0.16417551818E+02  0.16212062599E+03  0.21584845524E+03  0.12508955331E+03 0.  0.
         24    2    1    2    0    0  0.59307723539E+02  0.20407601564E+02  0.63789211300E+03  0.64605814582E+03  0.80937653092E+02 0.  0.
        -13    1    5    5    0    0  0.14407320070E+02 -0.30467102281E+02  0.17454300469E+03  0.17776691391E+03  0.00000000000E+00 0.  1.
         14    1    5    5    0    0  0.44900403470E+02  0.50874703845E+02  0.46334910830E+03  0.46829123191E+03  0.00000000000E+00 0. -1.
         11    1    3    3    0    0  0.74204668472E+01  0.86166637983E+01 -0.61423518330E+02  0.62467262044E+02  0.00000000000E+00 0. -1.
        -12    1    3    3    0    0 -0.46714674300E+00 -0.45441817180E+02 -0.28502345318E+04  0.28505967907E+04  0.00000000000E+00 0.  1.
          5    1    4    4  501    0  0.36117483783E+02  0.15720501252E+02  0.52901527343E+02  0.66088204618E+02  0.41800000000E+01 0. -1.
         -5    1    4    4    0  501 -0.10237852743E+03  0.69705056575E+00  0.10921909865E+03  0.14976025062E+03  0.41800000000E+01 0. -1.
</event>
<event>
11    1  0.8551154E-009  0.1296853E+03  0.7561462E-02  0.1119656E+00
         22   -1    0    0    0    0  0.00000000000E+00  0.00000000000E+00  0.28536095777E+03  0.28536095777E+03  0.00000000000E+00 0. -1.
         22   -1    0    0    0    0 -0.00000000000E+00 -0.00000000000E+00 -0.75543474332E+03  0.75543474332E+03  0.00000000000E+00 0. -1.
        -24    2    1    2    0    0  0.20365327537E+02 -0.26781744600E+02 -0.67053714996E+03  0.67625824816E+03  0.81074905625E+02 0.  0.
         25    2    1    2    0    0 -0.13479739164E+02  0.47763148757E+02 -0.13227911802E+02  0.13522393843E+03  0.12509002409E+03 0.  0.
         24    2    1    2    0    0 -0.68855883726E+01 -0.20981404157E+02  0.21369127621E+03  0.22931351449E+03  0.80206581745E+02 0.  0.
        -13    1    5    5    0    0 -0.21388320057E+01 -0.31421881664E+02  0.24832669829E+02  0.40106991167E+02  0.00000000000E+00 0.  1.
         14    1    5    5    0    0 -0.47467563670E+01  0.10440477507E+02  0.18885860638E+03  0.18920652333E+03  0.00000000000E+00 0. -1.
         13    1    3    3    0    0  0.24703064129E+02 -0.32661657922E+02 -0.66679053431E+03  0.66804688602E+03  0.00000000000E+00 0. -1.
        -14    1    3    3    0    0 -0.43377365921E+01  0.58799133212E+01 -0.37466156496E+01  0.82113621424E+01  0.00000000000E+00 0.  1.
          5    1    4    4  501    0  0.36351666777E+02  0.55266272968E+02  0.26027493683E+02  0.71208899954E+02  0.41800000000E+01 0.  1.
         -5    1    4    4    0  501 -0.49831405942E+02 -0.75031242115E+01 -0.39255405485E+02  0.64015038474E+02  0.41800000000E+01 0.  1.
</event>
<event>
11    1  0.8551154E-009  0.1463587E+03  0.7561462E-02  0.1100659E+00
         22   -1    0    0    0    0  0.00000000000E+00  0.00000000000E+00  0.12909746419E+03  0.12909746419E+03  0.00000000000E+00 0. -1.
         22   -1    0    0    0    0 -0.00000000000E+00 -0.00000000000E+00 -0.53002275245E+03  0.53002275245E+03  0.00000000000E+00 0.  1.
        -24    2    1    2    0    0  0.23215593640E+02 -0.49308400020E+01 -0.32309175220E+03  0.33383146369E+03  0.80572258478E+02 0.  0.
         25    2    1    2    0    0  0.52413447594E+02 -0.21746911447E+02 -0.13695524295E+03  0.19396962752E+03  0.12508948869E+03 0.  0.
         24    2    1    2    0    0 -0.75629041234E+02  0.26677751449E+02  0.59121706888E+02  0.13131912543E+03  0.85544620983E+02 0.  0.
        -11    1    5    5    0    0 -0.63707998873E+02  0.22265328707E+02 -0.33475843120E+01  0.67569669998E+02  0.00000000000E+00 0.  1.
         12    1    5    5    0    0 -0.11921042361E+02  0.44124227420E+01  0.62469291200E+02  0.63749455437E+02  0.00000000000E+00 0. -1.
         13    1    3    3    0    0  0.20919214925E+02 -0.35017875492E+02 -0.90217392358E+02  0.99010317850E+02  0.00000000000E+00 0. -1.
        -14    1    3    3    0    0  0.22963787145E+01  0.30087035490E+02 -0.23287435984E+03  0.23482114584E+03  0.00000000000E+00 0.  1.
          5    1    4    4  501    0  0.76981913969E+01 -0.37195834798E+02  0.10025169982E+02  0.39506565407E+02  0.41800000000E+01 0.  1.
         -5    1    4    4    0  501  0.44715256198E+02  0.15448923351E+02 -0.14698041294E+03  0.15446306211E+03  0.41800000000E+01 0.  1.
</event>
<event>
11    1  0.8551154E-009  0.1311798E+03  0.7561462E-02  0.1117828E+00
         22   -1    0    0    0    0  0.00000000000E+00  0.00000000000E+00  0.71294874763E+03  0.71294874763E+03  0.00000000000E+00 0. -1.
         22   -1    0    0    0    0 -0.00000000000E+00 -0.00000000000E+00 -0.34833767861E+03  0.34833767861E+03  0.00000000000E+00 0. -1.
        -24    2    1    2    0    0 -0.38886192688E+02 -0.76877132644E+01 -0.27313933339E+03  0.28671549207E+03  0.77649475415E+02 0.  0.
         25    2    1    2    0    0  0.63922165907E+02  0.36326694827E+02  0.15424196741E+02  0.14591403585E+03  0.12508927996E+03 0.  0.
         24    2    1    2    0    0 -0.25035973218E+02 -0.28638981562E+02  0.62232620567E+03  0.62865689832E+03  0.80452460042E+02 0.  0.
        -11    1    5    5    0    0 -0.80684735653E+01 -0.25520979577E+02  0.55998764868E+02  0.62066757053E+02  0.00000000000E+00 0.  1.
         12    1    5    5    0    0 -0.16967499653E+02 -0.31180019849E+01  0.56632744080E+03  0.56659014127E+03  0.00000000000E+00 0. -1.
         13    1    3    3    0    0 -0.47213563934E+02 -0.33368829598E+02 -0.15248328422E+03  0.16307590679E+03  0.00000000000E+00 0. -1.
        -14    1    3    3    0    0  0.83273712456E+01  0.25681116333E+02 -0.12065604917E+03  0.12363958529E+03  0.00000000000E+00 0.  1.
          5    1    4    4  501    0  0.61646949134E+01 -0.44550800670E+02  0.10194213743E+02  0.46305201625E+02  0.41800000000E+01 0. -1.
         -5    1    4    4    0  501  0.57757470993E+02  0.80877495496E+02  0.52299829984E+01  0.99608834224E+02  0.41800000000E+01 0. -1.
</event>
<event>
11    1  0.8551154E-009  0.1414082E+03  0.7561462E-02  0.1105996E+00
         22   -1    0    0    0    0  0.00000000000E+00  0.00000000000E+00  0.26849541082E+02  0.26849541082E+02  0.00000000000E+00 0.  1.
         22   -1    0    0    0    0 -0.00000000000E+00 -0.00000000000E+00 -0.24512410519E+04  0.24512410519E+04  0.00000000000E+00 0.  1.
        -24    2    1    2    0    0 -0.14818890207E+01  0.80655118755E+02 -0.17199227775E+04  0.17237173220E+04  0.80991364918E+02 0.  0.
         25    2    1    2    0    0 -0.20476204584E+02 -0.89315832621E+01 -0.54485629508E+03  0.55947722291E+03  0.12508929825E+03 0.  0.
         24    2    1    2    0    0  0.21958093605E+02 -0.71723535492E+02 -0.15961243821E+03  0.19489604811E+03  0.82957312627E+02 0.  0.
        -13    1    5    5    0    0  0.53130121415E+02 -0.42876735159E+02 -0.11127879730E+03  0.13055341798E+03  0.00000000000E+00 0.  1.
         14    1    5    5    0    0 -0.31172027810E+02 -0.28846800333E+02 -0.48333640912E+02  0.64342630122E+02  0.00000000000E+00 0. -1.
         13    1    3    3    0    0 -0.30026793357E+02  0.26280672246E+02 -0.32455832955E+03  0.32700212742E+03  0.00000000000E+00 0. -1.
        -14    1    3    3    0    0  0.28544904336E+02  0.54374446508E+02 -0.13953644480E+04  0.13967151946E+04  0.00000000000E+00 0.  1.
          5    1    4    4  501    0 -0.14485348080E+02 -0.25196664440E+02 -0.22952944374E+02  0.37269387750E+02  0.41800000000E+01 0. -1.
         -5    1    4    4    0  501 -0.59908565041E+01  0.16265081177E+02 -0.52190335070E+03  0.52220783516E+03  0.41800000000E+01 0. -1.
</event>
<event>
11    1  0.8551154E-009  0.1615165E+03  0.7561462E-02  0.1085660E+00
         22   -1    0    0    0    0  0.00000000000E+00  0.00000000000E+00  0.35959924113E+03  0.35959924113E+03  0.00000000000E+00 0.  1.
         22   -1    0    0    0    0 -0.00000000000E+00 -0.00000000000E+00 -0.82535203432E+03  0.82535203432E+03  0.00000000000E+00 0.  1.
        -24    2    1    2    0    0  0.58506310590E+02  0.13374495065E+02 -0.68295165105E+03  0.69028419665E+03  0.80420451211E+02 0.  0.
         25    2    1    2    0    0 -0.93758854627E+02  0.81483168554E+02 -0.62213968336E+02  0.18694431653E+03  0.12508944819E+03 0.  0.
         24    2    1    2    0    0  0.35252544037E+02 -0.94857663619E+02  0.27941282619E+03  0.30772276228E+03  0.79881492049E+02 0.  0.
        -13    1    5    5    0    0 -0.11150361635E+01 -0.40950284967E+02  0.20432454238E+03  0.20839070940E+03  0.00000000000E+00 0.  1.
         14    1    5    5    0    0  0.36367580201E+02 -0.53907378651E+02  0.75088283817E+02  0.99332052880E+02  0.00000000000E+00 0. -1.
         13    1    3    3    0    0 -0.18409715952E+01  0.31345621747E+01  0.86239504075E+00  0.37360917612E+01  0.00000000000E+00 0. -1.
        -14    1    3    3    0    0  0.60347282185E+02  0.10239932890E+02 -0.68381404609E+03  0.68654810489E+03  0.00000000000E+00 0.  1.
          5    1    4    4  501    0 -0.93691938820E+02  0.10573209317E+02 -0.67011091919E+02  0.11574943194E+03  0.41800000000E+01 0.  1.
         -5    1    4    4    0  501 -0.66915807022E-01  0.70909959237E+02  0.47971235833E+01  0.71194884587E+02  0.41800000000E+01 0.  1.
</event>
<event>
11    1  0.8551154E-009  0.2003532E+03  0.7561462E-02  0.1054274E+00
         22   -1    0    0    0    0  0.00000000000E+00  0.00000000000E+00  0.34372576737E+03  0.34372576737E+03  0.00000000000E+00 0. -1.
         22   -1    0    0    0    0 -0.00000000000E+00 -0.00000000000E+00 -0.17071844561E+04  0.17071844561E+04  0.00000000000E+00 0.  1.
         24    2    1    2    0    0 -0.34857723453E+01 -0.14549709161E+03 -0.12212276450E+04  0.12328928315E+04  0.86291475990E+02 0.  0.
         25    2    1    2    0    0  0.28985128214E+02  0.22097542574E+03 -0.43498560157E+03  0.50450997709E+03  0.12509023531E+03 0.  0.
        -24    2    1    2    0    0 -0.25499355869E+02 -0.75478334125E+02  0.29275455783E+03  0.31350741487E+03  0.78958672575E+02 0.  0.
        -13    1    3    3    0    0  0.16320620600E+02 -0.14470843899E+03 -0.11408639098E+04  0.11501205831E+04  0.00000000000E+00 0.  1.
         14    1    3    3    0    0 -0.19806392946E+02 -0.78865262426E+00 -0.80363735182E+02  0.82772248410E+02  0.00000000000E+00 0. -1.
         13    1    5    5    0    0 -0.21794720218E+02 -0.81584144986E+02  0.29432108957E+03  0.30619583000E+03  0.00000000000E+00 0. -1.
        -14    1    5    5    0    0 -0.37046356509E+01  0.61058108611E+01 -0.15665317423E+01  0.73115848676E+01  0.00000000000E+00 0.  1.
          5    1    4    4  501    0  0.30529960189E+02  0.23259961108E+03 -0.43215687559E+03  0.49174352569E+03  0.41800000000E+01 0.  1.
         -5    1    4    4    0  501 -0.15448319749E+01 -0.11624185339E+02 -0.28287259860E+01  0.12766451399E+02  0.41800000000E+01 0.  1.
</event>
<event>
11    1  0.8551154E-009  0.1410126E+03  0.7561462E-02  0.1106433E+00
         22   -1    0    0    0    0  0.00000000000E+00  0.00000000000E+00  0.62737249582E+03  0.62737249582E+03  0.00000000000E+00 0. -1.
         22   -1    0    0    0    0 -0.00000000000E+00 -0.00000000000E+00 -0.20530662531E+03  0.20530662531E+03  0.00000000000E+00 0.  1.
         24    2    1    2    0    0  0.21028681792E+02  0.59411847797E+02 -0.15905000720E+03  0.18986853445E+03  0.82347935413E+02 0.  0.
         25    2    1    2    0    0 -0.23859464764E+02 -0.95222334804E+02  0.21741432252E+03  0.26935685420E+03  0.12509020811E+03 0.  0.
        -24    2    1    2    0    0  0.28307829716E+01  0.35810487007E+02  0.36370155519E+03  0.37345373248E+03  0.76801463173E+02 0.  0.
        -11    1    3    3    0    0 -0.92706713196E+01  0.69510366404E+02 -0.12395490785E+03  0.14241648628E+03  0.00000000000E+00 0.  1.
         12    1    3    3    0    0  0.30299353112E+02 -0.10098518607E+02 -0.35095099358E+02  0.47452048175E+02  0.00000000000E+00 0. -1.
         11    1    5    5    0    0  0.54968253951E+01  0.59933565239E+02  0.24362244546E+03  0.25094649482E+03  0.00000000000E+00 0. -1.
        -12    1    5    5    0    0 -0.26660424235E+01 -0.24123078231E+02  0.12007910973E+03  0.12250723766E+03  0.00000000000E+00 0.  1.
          5    1    4    4  501    0 -0.33106936392E+02 -0.27528965067E+02  0.19746319551E+01  0.43304557800E+02  0.41800000000E+01 0. -1.
         -5    1    4    4    0  501  0.92474716286E+01 -0.67693369737E+02  0.21543969057E+03  0.22605229640E+03  0.41800000000E+01 0. -1.
</event>
<event>
11    1  0.8551154E-009  0.1512456E+03  0.7561462E-02  0.1095613E+00
         22   -1    0    0    0    0  0.00000000000E+00  0.00000000000E+00  0.17982006009E+04  0.17982006009E+04  0.00000000000E+00 0.  1.
         22   -1    0    0    0    0 -0.00000000000E+00 -0.00000000000E+00 -0.19179049741E+03  0.19179049741E+03  0.00000000000E+00 0.  1.
         24    2    1    2    0    0  0.14513362749E+02  0.80399399001E+02 -0.12859340746E+03  0.17162550201E+03  0.79021183483E+02 0.  0.
         25    2    1    2    0    0  0.35957791536E+01 -0.11436663771E+03  0.13724661417E+03  0.21812697476E+03  0.12510030604E+03 0.  0.
        -24    2    1    2    0    0 -0.18109141902E+02  0.33967238705E+02  0.15977568968E+04  0.16002386215E+04  0.80341958630E+02 0.  0.
        -13    1    3    3    0    0 -0.26612344129E+01  0.59810016060E+02 -0.13166555546E+03  0.14463795727E+03  0.00000000000E+00 0.  1.
         14    1    3    3    0    0  0.17174597162E+02  0.20589382941E+02  0.30721479970E+01  0.26987544736E+02  0.00000000000E+00 0. -1.
         13    1    5    5    0    0  0.29826261366E+02 -0.79489787810E+00  0.51373714866E+03  0.51460285234E+03  0.00000000000E+00 0. -1.
        -14    1    5    5    0    0 -0.47935403268E+02  0.34762136583E+02  0.10840197481E+04  0.10856357692E+04  0.00000000000E+00 0.  1.
          5    1    4    4  501    0 -0.36266216420E+02 -0.92339020534E+02  0.14076017854E+03  0.17225746262E+03  0.41800000000E+01 0. -1.
         -5    1    4    4    0  501  0.39861995574E+02 -0.22027617171E+02 -0.35135643745E+01  0.45869512140E+02  0.41800000000E+01 0. -1.
</event>
<event>
11    1  0.8551154E-009  0.1730863E+03  0.7561462E-02  0.1075377E+00
         22   -1    0    0    0    0  0.00000000000E+00  0.00000000000E+00  0.71604634401E+03  0.71604634401E+03  0.00000000000E+00 0.  1.
         22   -1    0    0    0    0 -0.00000000000E+00 -0.00000000000E+00 -0.15526024380E+03  0.15526024380E+03  0.00000000000E+00 0. -1.
         24    2    1    2    0    0  0.70470958050E+01 -0.17282572075E+00 -0.64123742979E+02  0.10312044363E+03  0.80450481997E+02 0.  0.
         25    2    1    2    0    0  0.13007625223E+02 -0.11793044237E+03  0.55867920537E+02  0.18123453587E+03  0.12509174591E+03 0.  0.
        -24    2    1    2    0    0 -0.20054721028E+02  0.11810326809E+03  0.56904192265E+03  0.58695160832E+03  0.79705125331E+02 0.  0.
        -11    1    3    3    0    0 -0.23432663351E+02 -0.74010173597E+01  0.68759282540E+01  0.25517506912E+02  0.00000000000E+00 0.  1.
         12    1    3    3    0    0  0.30479759156E+02  0.72281916390E+01 -0.70999671233E+02  0.77602936721E+02  0.00000000000E+00 0. -1.
         11    1    5    5    0    0 -0.48083814955E+01 -0.92073792777E+01  0.14863588838E+02  0.18133467371E+02  0.00000000000E+00 0. -1.
        -12    1    5    5    0    0 -0.15246339533E+02  0.12731064737E+03  0.55417833381E+03  0.56881814095E+03  0.00000000000E+00 0.  1.
          5    1    4    4  501    0  0.69150341412E+02 -0.60630468757E+02  0.31146534572E+02  0.97187460482E+02  0.41800000000E+01 0. -1.
         -5    1    4    4    0  501 -0.56142716189E+02 -0.57299973610E+02  0.24721385966E+02  0.84047075386E+02  0.41800000000E+01 0. -1.
</event>
<event>
11    1  0.8551154E-009  0.1359474E+03  0.7561462E-02  0.1112170E+00
         22   -1    0    0    0    0  0.00000000000E+00  0.00000000000E+00  0.16444480082E+04  0.16444480082E+04  0.00000000000E+00 0. -1.
         22   -1    0    0    0    0 -0.00000000000E+00 -0.00000000000E+00 -0.15140836251E+03  0.15140836251E+03  0.00000000000E+00 0. -1.
         24    2    1    2    0    0 -0.82337604815E+01  0.45657384457E+02 -0.17236503342E+02  0.94506906624E+02  0.80511283589E+02 0.  0.
         25    2    1    2    0    0 -0.21201851675E+02 -0.63286222100E+02 -0.41526324239E+02  0.14773566752E+03  0.12508687954E+03 0.  0.
        -24    2    1    2    0    0  0.29435612156E+02  0.17628837643E+02  0.15518024732E+04  0.15536137965E+04  0.66690941389E+02 0.  0.
        -13    1    3    3    0    0  0.10490638855E+02 -0.43244802009E+01  0.24337020710E+02  0.26852284999E+02  0.00000000000E+00 0.  1.
         14    1    3    3    0    0 -0.18724399336E+02  0.49981864658E+02 -0.41573524053E+02  0.67654621626E+02  0.00000000000E+00 0. -1.
         13    1    5    5    0    0  0.35846787873E+02  0.36906258465E+02  0.12894025922E+04  0.12904286532E+04  0.00000000000E+00 0. -1.
        -14    1    5    5    0    0 -0.64111757169E+01 -0.19277420821E+02  0.26239988100E+03  0.26318514334E+03  0.00000000000E+00 0.  1.
          5    1    4    4  501    0  0.35778577394E+00 -0.98725131555E+02 -0.20012850921E+02  0.10082046525E+03  0.41800000000E+01 0. -1.
         -5    1    4    4    0  501 -0.21559637449E+02  0.35438909455E+02 -0.21513473318E+02  0.46915202275E+02  0.41800000000E+01 0. -1.
</event>
<event>
11    1  0.8551154E-009  0.1473026E+03  0.7561462E-02  0.1099667E+00
         22   -1    0    0    0    0  0.00000000000E+00  0.00000000000E+00  0.16441869727E+03  0.16441869727E+03  0.00000000000E+00 0.  1.
         22   -1    0    0    0    0 -0.00000000000E+00 -0.00000000000E+00 -0.42835366388E+03  0.42835366388E+03  0.00000000000E+00 0.  1.
        -24    2    1    2    0    0  0.73590406289E+01  0.19213241981E+02 -0.25640481088E+03  0.27016601259E+03  0.82601108751E+02 0.  0.
         25    2    1    2    0    0  0.71288798200E+02 -0.91928015599E+01 -0.10120854822E+03  0.17623106462E+03  0.12509043750E+03 0.  0.
         24    2    1    2    0    0 -0.78647838829E+02 -0.10020440421E+02  0.93678392501E+02  0.14637528394E+03  0.79775878243E+02 0.  0.
        -11    1    5    5    0    0 -0.53563634430E+02 -0.41953511085E+02  0.76232867859E+02  0.10217930401E+03  0.00000000000E+00 0.  1.
         12    1    5    5    0    0 -0.25084204399E+02  0.31933070665E+02  0.17445524642E+02  0.44195979936E+02  0.00000000000E+00 0. -1.
         13    1    3    3    0    0  0.25857267483E+02 -0.24946121143E+02 -0.87038732427E+02  0.94162881138E+02  0.00000000000E+00 0. -1.
        -14    1    3    3    0    0 -0.18498226854E+02  0.44159363124E+02 -0.16936607846E+03  0.17600313145E+03  0.00000000000E+00 0.  1.
          5    1    4    4  501    0  0.96631416406E+02 -0.39543216027E+02 -0.74560643418E+02  0.12836689027E+03  0.41800000000E+01 0. -1.
         -5    1    4    4    0  501 -0.25342618206E+02  0.30350414467E+02 -0.26647904801E+02  0.47864174349E+02  0.41800000000E+01 0. -1.
</event>
<event>
11    1  0.8551154E-009  0.1700831E+03  0.7561462E-02  0.1077959E+00
         22   -1    0    0    0    0  0.00000000000E+00  0.00000000000E+00  0.23624448407E+04  0.23624448407E+04  0.00000000000E+00 0.  1.
         22   -1    0    0    0    0 -0.00000000000E+00 -0.00000000000E+00 -0.13950880620E+03  0.13950880620E+03  0.00000000000E+00 0. -1.
        -24    2    1    2    0    0 -0.54648158256E+02  0.62366941788E+02 -0.74243682424E+02  0.14769718436E+03  0.97089017195E+02 0.  0.
         25    2    1    2    0    0  0.15727814433E+03 -0.98604474502E+02  0.45515655883E+03  0.50722210531E+03  0.12509002359E+03 0.  0.
         24    2    1    2    0    0 -0.10262998607E+03  0.36237532715E+02  0.18420231581E+04  0.18470343572E+04  0.81489440786E+02 0.  0.
        -13    1    5    5    0    0 -0.10026251744E+03  0.50950033313E+02  0.17652096071E+04  0.17687886916E+04  0.00000000000E+00 0.  1.
         14    1    5    5    0    0 -0.23674686334E+01 -0.14712500598E+02  0.76813550960E+02  0.78245665648E+02  0.00000000000E+00 0. -1.
         11    1    3    3    0    0 -0.62125872539E+02  0.39857778002E+02 -0.92085571365E+02  0.11801702826E+03  0.00000000000E+00 0. -1.
        -12    1    3    3    0    0  0.74777142824E+01  0.22509163786E+02  0.17841888941E+02  0.29680156101E+02  0.00000000000E+00 0.  1.
          5    1    4    4  501    0  0.12085955311E+03 -0.11834165680E+03  0.41974740745E+03  0.45256727431E+03  0.41800000000E+01 0. -1.
         -5    1    4    4    0  501  0.36418591214E+02  0.19737182298E+02  0.35409151371E+02  0.54654831002E+02  0.41800000000E+01 0. -1.
</event>
<event>
11    1  0.8551154E-009  0.1428593E+03  0.7561462E-02  0.1104407E+00
         22   -1    0    0    0    0  0.00000000000E+00  0.00000000000E+00  0.17191750515E+03  0.17191750515E+03  0.00000000000E+00 0.  1.
         22   -1    0    0    0    0 -0.00000000000E+00 -0.00000000000E+00 -0.11224648347E+04  0.11224648347E+04  0.00000000000E+00 0. -1.
         24    2    1    2    0    0  0.68000468881E+02 -0.93884877518E+01 -0.91860531727E+03  0.92482967306E+03  0.82231306541E+02 0.  0.
         25    2    1    2    0    0 -0.75602486102E+02 -0.24702892620E+02 -0.15749568999E+03  0.21628351510E+03  0.12509075798E+03 0.  0.
        -24    2    1    2    0    0  0.76020172213E+01  0.34091380372E+02  0.12555367766E+03  0.15326915173E+03  0.80670279641E+02 0.  0.
        -13    1    3    3    0    0  0.24987749482E+01  0.16250453739E+02 -0.37809493392E+02  0.41229587841E+02  0.00000000000E+00 0.  1.
         14    1    3    3    0    0  0.65501693933E+02 -0.25638941491E+02 -0.88079582388E+03  0.88360008522E+03  0.00000000000E+00 0. -1.
         13    1    5    5    0    0  0.24213863331E+02 -0.15953464871E+02  0.19841050136E+02  0.35135331069E+02  0.00000000000E+00 0. -1.
        -14    1    5    5    0    0 -0.16611846110E+02  0.50044845243E+02  0.10571262753E+03  0.11813382067E+03  0.00000000000E+00 0.  1.
          5    1    4    4  501    0 -0.26627385185E+02 -0.66389326921E+02 -0.12505956837E+03  0.14413163571E+03  0.41800000000E+01 0.  1.
         -5    1    4    4    0  501 -0.48975100917E+02  0.41686434301E+02 -0.32436121615E+02  0.72151879394E+02  0.41800000000E+01 0.  1.
</event>
<event>
11    1  0.8551154E-009  0.1315771E+03  0.7561462E-02  0.1117346E+00
         22   -1    0    0    0    0  0.00000000000E+00  0.00000000000E+00  0.22898448935E+03  0.22898448935E+03  0.00000000000E+00 0.  1.
         22   -1    0    0    0    0 -0.00000000000E+00 -0.00000000000E+00 -0.33545765401E+03  0.33545765401E+03  0.00000000000E+00 0.  1.
        -24    2    1    2    0    0  0.33586713011E+02  0.16893418113E+02 -0.24094990095E+03  0.25692894172E+03  0.80883690923E+02 0.  0.
         25    2    1    2    0    0 -0.12682492297E+02 -0.51964155603E+02 -0.11102147386E+02  0.13649784163E+03  0.12508910430E+03 0.  0.
         24    2    1    2    0    0 -0.20904220715E+02  0.35070737490E+02  0.14557888368E+03  0.17101536001E+03  0.79913070971E+02 0.  0.
        -11    1    5    5    0    0 -0.25188977725E+02  0.41975163216E+02  0.15261039059E+03  0.16026955494E+03  0.00000000000E+00 0.  1.
         12    1    5    5    0    0  0.42847570106E+01 -0.69044257256E+01 -0.70315069019E+01  0.10745805068E+02  0.00000000000E+00 0. -1.
         11    1    3    3    0    0 -0.98169502741E+01 -0.24782559415E+02 -0.49169297863E+02  0.55930024282E+02  0.00000000000E+00 0. -1.
        -12    1    3    3    0    0  0.43403663285E+02  0.41675977528E+02 -0.19178060309E+03  0.20099891744E+03  0.00000000000E+00 0.  1.
          5    1    4    4  501    0  0.18270110948E+02 -0.79874421553E+02 -0.33942995161E+02  0.88788059405E+02  0.41800000000E+01 0.  1.
         -5    1    4    4    0  501 -0.30952603245E+02  0.27910265950E+02  0.22840847776E+02  0.47709782227E+02  0.41800000000E+01 0.  1.
</event>
<event>
11    1  0.8551154E-009  0.1670720E+03  0.7561462E-02  0.1080608E+00
         22   -1    0    0    0    0  0.00000000000E+00  0.00000000000E+00  0.60297415259E+03  0.60297415259E+03  0.00000000000E+00 0.  1.
         22   -1    0    0    0    0 -0.00000000000E+00 -0.00000000000E+00 -0.18690916126E+03  0.18690916126E+03  0.00000000000E+00 0.  1.
         24    2    1    2    0    0  0.19228177329E+02 -0.10276517853E+03 -0.10830815060E+03  0.17111181534E+03  0.81352278039E+02 0.  0.
         25    2    1    2    0    0 -0.51822651918E+02  0.16626722423E+03  0.27913310242E+03  0.35198277920E+03  0.12508481477E+03 0.  0.
        -24    2    1    2    0    0  0.32594474589E+02 -0.63502045704E+02  0.24524003951E+03  0.26678871931E+03  0.77062534273E+02 0.  0.
        -11    1    3    3    0    0  0.24114423956E+02 -0.11076566743E+03 -0.11348414843E+03  0.16040321215E+03  0.00000000000E+00 0.  1.
         12    1    3    3    0    0 -0.48862466270E+01  0.80004888958E+01  0.51759978367E+01  0.10708603190E+02  0.00000000000E+00 0. -1.
         13    1    5    5    0    0 -0.23106514563E+02 -0.12418637030E+02  0.95763596285E+02  0.99291489737E+02  0.00000000000E+00 0. -1.
        -14    1    5    5    0    0  0.55700989152E+02 -0.51083408674E+02  0.14947644322E+03  0.16749722957E+03  0.00000000000E+00 0.  1.
          5    1    4    4  501    0 -0.16899320803E+02  0.16704746584E+03  0.17718988810E+03  0.24413965621E+03  0.41800000000E+01 0.  1.
         -5    1    4    4    0  501 -0.34923331115E+02 -0.78024160579E+00  0.10194321432E+03  0.10784312300E+03  0.41800000000E+01 0.  1.
</event>
<event>
11    1  0.8551154E-009  0.1805215E+03  0.7561462E-02  0.1069222E+00
         22   -1    0    0    0    0  0.00000000000E+00  0.00000000000E+00  0.95805478366E+03  0.95805478366E+03  0.00000000000E+00 0. -1.
         22   -1    0    0    0    0 -0.00000000000E+00 -0.00000000000E+00 -0.59612600277E+03  0.59612600277E+03  0.00000000000E+00 0.  1.
        -24    2    1    2    0    0 -0.96698478042E+02 -0.13421679334E+02 -0.54354466067E+03  0.55846616608E+03  0.83143991893E+02 0.  0.
         25    2    1    2    0    0  0.35938122929E+02 -0.11229144951E+03  0.16621844134E+03  0.23911663323E+03  0.12508907119E+03 0.  0.
         24    2    1    2    0    0  0.60760355113E+02  0.12571312885E+03  0.73925500022E+03  0.75659798712E+03  0.80292884174E+02 0.  0.
        -11    1    5    5    0    0  0.19858004437E+02 -0.75727118177E+00  0.38268138855E+02  0.43120346141E+02  0.00000000000E+00 0.  1.
         12    1    5    5    0    0  0.40902350676E+02  0.12647040003E+03  0.70098686136E+03  0.71347764098E+03  0.00000000000E+00 0. -1.
         13    1    3    3    0    0 -0.67733898126E+02  0.31333741074E+02 -0.33543040287E+03  0.34363241909E+03  0.00000000000E+00 0. -1.
        -14    1    3    3    0    0 -0.28964579916E+02 -0.44755420408E+02 -0.20811425780E+03  0.21483374699E+03  0.00000000000E+00 0.  1.
          5    1    4    4  501    0 -0.71266493886E+01  0.21735555592E+02  0.28589738879E+01  0.23427967050E+02  0.41800000000E+01 0.  1.
         -5    1    4    4    0  501  0.43064772318E+02 -0.13402700510E+03  0.16335946745E+03  0.21568866618E+03  0.41800000000E+01 0.  1.
</event>
<event>
11    1  0.8551154E-009  0.1861563E+03  0.7561462E-02  0.1064769E+00
         22   -1    0    0    0    0  0.00000000000E+00  0.00000000000E+00  0.10060062317E+04  0.10060062317E+04  0.00000000000E+00 0.  1.
         22   -1    0    0    0    0 -0.00000000000E+00 -0.00000000000E+00 -0.22344196930E+04  0.22344196930E+04  0.00000000000E+00 0.  1.
         24    2    1    2    0    0 -0.13079728531E+03 -0.44751098236E+02 -0.21352193294E+04  0.21412051986E+04  0.80545187132E+02 0.  0.
         25    2    1    2    0    0  0.81388613294E+02  0.14013962798E+03  0.24108848557E+02  0.20613542234E+03  0.12508938428E+03 0.  0.
        -24    2    1    2    0    0  0.49408672012E+02 -0.95388529745E+02  0.88269701964E+03  0.89308530376E+03  0.83109222271E+02 0.  0.
        -11    1    3    3    0    0 -0.39256539835E+02 -0.25932892019E+02 -0.12857582067E+04  0.12866187302E+04  0.00000000000E+00 0.  1.
         12    1    3    3    0    0 -0.91540745472E+02 -0.18818206217E+02 -0.84946112268E+03  0.85458646836E+03  0.00000000000E+00 0. -1.
         11    1    5    5    0    0 -0.18843803515E+02 -0.48879543095E+02  0.29538338889E+03  0.29999274174E+03  0.00000000000E+00 0. -1.
        -12    1    5    5    0    0  0.68252475527E+02 -0.46508986650E+02  0.58731363076E+03  0.59309256202E+03  0.00000000000E+00 0.  1.
          5    1    4    4  501    0  0.36282134708E+01  0.11141772258E+03 -0.18108049641E+02  0.11301524985E+03  0.41800000000E+01 0. -1.
         -5    1    4    4    0  501  0.77760399824E+02  0.28721905405E+02  0.42216898197E+02  0.93120172488E+02  0.41800000000E+01 0. -1.
</event>
<event>
11    1  0.8551154E-009  0.1415409E+03  0.7561462E-02  0.1105850E+00
         22   -1    0    0    0    0  0.00000000000E+00  0.00000000000E+00  0.45552869129E+03  0.45552869129E+03  0.00000000000E+00 0.  1.
         22   -1    0    0    0    0 -0.00000000000E+00 -0.00000000000E+00 -0.26801635619E+03  0.26801635619E+03  0.00000000000E+00 0.  1.
         24    2    1    2    0    0 -0.43813867097E+02  0.19747975392E+02 -0.22036221342E+03  0.23968426022E+03  0.81113513103E+02 0.  0.
         25    2    1    2    0    0 -0.31178729554E+02  0.10941383322E+02  0.13292267262E+03  0.18549287279E+03  0.12508933574E+03 0.  0.
        -24    2    1    2    0    0  0.74992596652E+02 -0.30689358714E+02  0.27495187591E+03  0.29836791447E+03  0.82819997770E+02 0.  0.
        -11    1    3    3    0    0 -0.59229580511E+02  0.36333529128E+02 -0.14157589077E+03  0.15770859645E+03  0.00000000000E+00 0.  1.
         12    1    3    3    0    0  0.15415713414E+02 -0.16585553736E+02 -0.78786322650E+02  0.81975663763E+02  0.00000000000E+00 0. -1.
         11    1    5    5    0    0  0.38738554666E+02 -0.23256403618E+02  0.39468338880E+02  0.59994047211E+02  0.00000000000E+00 0. -1.
        -12    1    5    5    0    0  0.36254041986E+02 -0.74329550953E+01  0.23548353703E+03  0.23837386726E+03  0.00000000000E+00 0.  1.
          5    1    4    4  501    0 -0.76309732672E+02  0.59026334663E+01  0.52066182984E+02  0.92662701195E+02  0.41800000000E+01 0. -1.
         -5    1    4    4    0  501  0.45131003118E+02  0.50387498554E+01  0.80856489635E+02  0.92830171596E+02  0.41800000000E+01 0. -1.
</event>
<event>
11    1  0.8551154E-009  0.1879227E+03  0.7561462E-02  0.1063409E+00
         22   -1    0    0    0    0  0.00000000000E+00  0.00000000000E+00  0.72545288577E+03  0.72545288577E+03  0.00000000000E+00 0.  1.
         22   -1    0    0    0    0 -0.00000000000E+00 -0.00000000000E+00 -0.38873144033E+04  0.38873144033E+04  0.00000000000E+00 0.  1.
         24    2    1    2    0    0 -0.94126862456E+02  0.90948508174E+02 -0.25626764059E+04  0.25672192889E+04  0.78568560971E+02 0.  0.
         25    2    1    2    0    0  0.15531554964E+03 -0.93900638578E+02 -0.13092988098E+04  0.13277258317E+04  0.12510899544E+03 0.  0.
        -24    2    1    2    0    0 -0.61188687186E+02  0.29521304041E+01  0.71011369816E+03  0.71782216852E+03  0.85172946386E+02 0.  0.
        -13    1    3    3    0    0 -0.27377608684E+02  0.15211640930E+02 -0.13451945292E+04  0.13455590841E+04  0.00000000000E+00 0.  1.
         14    1    3    3    0    0 -0.66749253772E+02  0.75736867244E+02 -0.12174818766E+04  0.12216602048E+04  0.00000000000E+00 0. -1.
         11    1    5    5    0    0 -0.39717981968E+02  0.34432520443E+02  0.21850340911E+03  0.22473730520E+03  0.00000000000E+00 0. -1.
        -12    1    5    5    0    0 -0.21470705218E+02 -0.31480390039E+02  0.49161028904E+03  0.49308486332E+03  0.00000000000E+00 0.  1.
          5    1    4    4  501    0  0.15018806011E+03 -0.10314837463E+03 -0.13008654769E+04  0.13135693746E+04  0.41800000000E+01 0.  1.
         -5    1    4    4    0  501  0.51274895306E+01  0.92477360557E+01 -0.84333329253E+01  0.14156457017E+02  0.41800000000E+01 0.  1.
</event>
<event>
11    1  0.8551154E-009  0.1593746E+03  0.7561462E-02  0.1087667E+00
         22   -1    0    0    0    0  0.00000000000E+00  0.00000000000E+00  0.48715866605E+03  0.48715866605E+03  0.00000000000E+00 0. -1.
         22   -1    0    0    0    0 -0.00000000000E+00 -0.00000000000E+00 -0.21108540437E+04  0.21108540437E+04  0.00000000000E+00 0.  1.
         24    2    1    2    0    0 -0.61511011630E+02 -0.48436968763E+02 -0.19580279285E+04  0.19612647855E+04  0.80971879793E+02 0.  0.
         25    2    1    2    0    0  0.15270077294E+03  0.71896953580E+02 -0.63579089543E+02  0.21948828025E+03  0.12508439770E+03 0.  0.
        -24    2    1    2    0    0 -0.91189761312E+02 -0.23459984817E+02  0.39791164041E+03  0.41725964404E+03  0.83102307505E+02 0.  0.
        -11    1    3    3    0    0 -0.44670150585E+01 -0.12714289940E+02 -0.12436892362E+04  0.12437622456E+04  0.00000000000E+00 0.  1.
         12    1    3    3    0    0 -0.57043996571E+02 -0.35722678823E+02 -0.71433869238E+03  0.71750253990E+03  0.00000000000E+00 0. -1.
         11    1    5    5    0    0 -0.61144851003E+02  0.20209664106E+02  0.28959063512E+03  0.29666455683E+03  0.00000000000E+00 0. -1.
        -12    1    5    5    0    0 -0.30044910309E+02 -0.43669648923E+02  0.10832100529E+03  0.12059508721E+03  0.00000000000E+00 0.  1.
          5    1    4    4  501    0  0.10715049843E+03  0.10408800108E+03 -0.24946890049E+02  0.15151026700E+03  0.41800000000E+01 0. -1.
         -5    1    4    4    0  501  0.45550274516E+02 -0.32191047501E+02 -0.38632199494E+02  0.67978013250E+02  0.41800000000E+01 0. -1.
</event>
<event>
11    1  0.8551154E-009  0.1307153E+03  0.7561462E-02  0.1118393E+00
         22   -1    0    0    0    0  0.00000000000E+00  0.00000000000E+00  0.42990160170E+03  0.42990160170E+03  0.00000000000E+00 0.  1.
         22   -1    0    0    0    0 -0.00000000000E+00 -0.00000000000E+00 -0.73347546342E+03  0.73347546342E+03  0.00000000000E+00 0. -1.
         24    2    1    2    0    0 -0.10607987977E+02 -0.43039413638E+01 -0.62085412400E+03  0.62544784941E+03  0.74793821442E+02 0.  0.
         25    2    1    2    0    0  0.45083696273E+02 -0.10623702206E+02 -0.62800508296E+02  0.14743010269E+03  0.12508528538E+03 0.  0.
        -24    2    1    2    0    0 -0.34475708296E+02  0.14927643570E+02  0.38008077057E+03  0.39049911303E+03  0.81343445431E+02 0.  0.
        -11    1    3    3    0    0  0.97706974491E+01  0.26570265765E+01 -0.10057220341E+02  0.14271440007E+02  0.00000000000E+00 0.  1.
         12    1    3    3    0    0 -0.20378685426E+02 -0.69609679403E+01 -0.61079690365E+03  0.61117640940E+03  0.00000000000E+00 0. -1.
         11    1    5    5    0    0  0.12009261153E+02  0.18994814479E+02  0.30864478371E+02  0.38179069602E+02  0.00000000000E+00 0. -1.
        -12    1    5    5    0    0 -0.46484969449E+02 -0.40671709089E+01  0.34921629220E+03  0.35232004343E+03  0.00000000000E+00 0.  1.
          5    1    4    4  501    0  0.50787579334E+02 -0.27107278244E+02  0.21234293509E+02  0.61502441978E+02  0.41800000000E+01 0. -1.
         -5    1    4    4    0  501 -0.57038830612E+01  0.16483576038E+02 -0.84034801805E+02  0.85927660712E+02  0.41800000000E+01 0. -1.
</event>
<event>
11    1  0.8551154E-009  0.1409618E+03  0.7561462E-02  0.1106489E+00
         22   -1    0    0    0    0  0.00000000000E+00  0.00000000000E+00  0.49287362318E+03  0.49287362318E+03  0.00000000000E+00 0.  1.
         22   -1    0    0    0    0 -0.00000000000E+00 -0.00000000000E+00 -0.18501181679E+03  0.18501181679E+03  0.00000000000E+00 0.  1.
         24    2    1    2    0    0 -0.72016178533E+01  0.50417940864E+02 -0.10895121590E+03  0.14664809275E+03  0.83913429195E+02 0.  0.
         25    2    1    2    0    0 -0.54173804602E+02 -0.19551577038E+02  0.46611200751E+02  0.14538975745E+03  0.12509401371E+03 0.  0.
        -24    2    1    2    0    0  0.61375422455E+02 -0.30866363826E+02  0.37020182154E+03  0.38584758977E+03  0.84316658857E+02 0.  0.
        -13    1    3    3    0    0  0.27221538678E+02  0.41896767454E+02 -0.97200243959E+02  0.10928970087E+03  0.00000000000E+00 0.  1.
         14    1    3    3    0    0 -0.34423156532E+02  0.85211734100E+01 -0.11750971943E+02  0.37358391875E+02  0.00000000000E+00 0. -1.
         11    1    5    5    0    0  0.31507716625E+02 -0.31377226032E+02  0.62527291025E+02  0.76726323014E+02  0.00000000000E+00 0. -1.
        -12    1    5    5    0    0  0.29867705831E+02  0.51086220561E+00  0.30767453052E+03  0.30912126676E+03  0.00000000000E+00 0.  1.
          5    1    4    4  501    0 -0.15941615546E+01  0.20206230773E+02  0.71781322785E+02  0.74705179298E+02  0.41800000000E+01 0. -1.
         -5    1    4    4    0  501 -0.52579643047E+02 -0.39757807810E+02 -0.25170122035E+02  0.70684578149E+02  0.41800000000E+01 0. -1.
</event>
<event>
11    1  0.8551154E-009  0.1855124E+03  0.7561462E-02  0.1065269E+00
         22   -1    0    0    0    0  0.00000000000E+00  0.00000000000E+00  0.49705314507E+03  0.49705314507E+03  0.00000000000E+00 0. -1.
         22   -1    0    0    0    0 -0.00000000000E+00 -0.00000000000E+00 -0.20888154920E+03  0.20888154920E+03  0.00000000000E+00 0.  1.
         24    2    1    2    0    0 -0.12237382173E+03  0.28423273612E+02 -0.73629899135E+02  0.16653419070E+03  0.80802474571E+02 0.  0.
         25    2    1    2    0    0  0.16755262781E+03 -0.31756899885E+02  0.54912099530E+02  0.21850619779E+03  0.12508891247E+03 0.  0.
        -24    2    1    2    0    0 -0.45178806074E+02  0.33336262729E+01  0.30688939547E+03  0.32089430579E+03  0.82096387574E+02 0.  0.
        -11    1    3    3    0    0 -0.56965253636E+02 -0.11280397125E+02  0.31248832409E+01  0.58155415710E+02  0.00000000000E+00 0.  1.
         12    1    3    3    0    0 -0.65408568097E+02  0.39703670738E+02 -0.76754782376E+02  0.10837877499E+03  0.00000000000E+00 0. -1.
         11    1    5    5    0    0 -0.58757765393E+02  0.38993521166E+01  0.29987118499E+03  0.30559844163E+03  0.00000000000E+00 0. -1.
        -12    1    5    5    0    0  0.13578959319E+02 -0.56572584368E+00  0.70182104805E+01  0.15295864156E+02  0.00000000000E+00 0.  1.
          5    1    4    4  501    0 -0.12932308145E+02 -0.11793154490E+02  0.30261495410E+02  0.35207294575E+02  0.41800000000E+01 0.  1.
         -5    1    4    4    0  501  0.18048493595E+03 -0.19963745395E+02  0.24650604119E+02  0.18329890321E+03  0.41800000000E+01 0.  1.
</event>
<event>
11    1  0.8551154E-009  0.1509734E+03  0.7561462E-02  0.1095888E+00
         22   -1    0    0    0    0  0.00000000000E+00  0.00000000000E+00  0.96208195326E+02  0.96208195326E+02  0.00000000000E+00 0. -1.
         22   -1    0    0    0    0 -0.00000000000E+00 -0.00000000000E+00 -0.13383942756E+04  0.13383942756E+04  0.00000000000E+00 0. -1.
         24    2    1    2    0    0 -0.59337558846E+02 -0.56259579629E+02 -0.11025663151E+04  0.11084884286E+04  0.80050178257E+02 0.  0.
         25    2    1    2    0    0  0.11866990693E+03  0.60580992743E+02 -0.13123950440E+03  0.22499680865E+03  0.12508858021E+03 0.  0.
        -24    2    1    2    0    0 -0.59332348079E+02 -0.43214131144E+01 -0.83802607646E+01  0.10111723363E+03  0.81335502861E+02 0.  0.
        -13    1    3    3    0    0 -0.15478506136E+02  0.50191479339E+01 -0.39035373665E+02  0.42291091206E+02  0.00000000000E+00 0.  1.
         14    1    3    3    0    0 -0.43859052711E+02 -0.61278727563E+02 -0.10635309414E+04  0.10661973374E+04  0.00000000000E+00 0. -1.
         13    1    5    5    0    0 -0.27637536455E+02 -0.29292559665E+02  0.26142834062E+02  0.48013906796E+02  0.00000000000E+00 0. -1.
        -14    1    5    5    0    0 -0.31694811624E+02  0.24971146550E+02 -0.34523094827E+02  0.53103326829E+02  0.00000000000E+00 0.  1.
          5    1    4    4  501    0 -0.19515303982E+02  0.32786856943E+02 -0.47207776845E+02  0.60843008410E+02  0.41800000000E+01 0. -1.
         -5    1    4    4    0  501  0.13818521091E+03  0.27794135800E+02 -0.84031727552E+02  0.16415380024E+03  0.41800000000E+01 0. -1.
</event>
<event>
11    1  0.8551154E-009  0.1421380E+03  0.7561462E-02  0.1105194E+00
         22   -1    0    0    0    0  0.00000000000E+00  0.00000000000E+00  0.11072670070E+04  0.11072670070E+04  0.00000000000E+00 0. -1.
         22   -1    0    0    0    0 -0.00000000000E+00 -0.00000000000E+00 -0.75917238987E+02  0.75917238987E+02  0.00000000000E+00 0.  1.
         24    2    1    2    0    0 -0.27528877248E+02 -0.29365107764E+02 -0.22830016552E+02  0.92535152478E+02  0.80133614369E+02 0.  0.
         25    2    1    2    0    0 -0.44731986748E+02  0.10628710049E+02  0.29601152792E+03  0.32463116867E+03  0.12509456780E+03 0.  0.
        -24    2    1    2    0    0  0.72260863996E+02  0.18736397715E+02  0.75816825663E+03  0.76601792483E+03  0.79947925128E+02 0.  0.
        -13    1    3    3    0    0  0.24459719510E+02 -0.24010180909E+02  0.26771895626E+01  0.34379267150E+02  0.00000000000E+00 0.  1.
         14    1    3    3    0    0 -0.51988596758E+02 -0.53549268546E+01 -0.25507206115E+02  0.58155885328E+02  0.00000000000E+00 0. -1.
         11    1    5    5    0    0  0.22446399112E+02 -0.90965971773E+01  0.53897285410E+03  0.53951675263E+03  0.00000000000E+00 0. -1.
        -12    1    5    5    0    0  0.49814464884E+02  0.27832994892E+02  0.21919540254E+03  0.22650117220E+03  0.00000000000E+00 0.  1.
          5    1    4    4  501    0  0.37852397426E+01  0.38387345579E+02  0.21304283891E+02  0.44263543155E+02  0.41800000000E+01 0.  1.
         -5    1    4    4    0  501 -0.48517226490E+02 -0.27758635530E+02  0.27470724403E+03  0.28036762551E+03  0.41800000000E+01 0.  1.
</event>
<event>
11    1  0.8551154E-009  0.2568685E+03  0.7561462E-02  0.1020303E+00
         22   -1    0    0    0    0  0.00000000000E+00  0.00000000000E+00  0.11059477069E+04  0.11059477069E+04  0.00000000000E+00 0. -1.
         22   -1    0    0    0    0 -0.00000000000E+00 -0.00000000000E+00 -0.65777298053E+03  0.65777298053E+03  0.00000000000E+00 0. -1.
        -24    2    1    2    0    0 -0.42772927972E+01  0.85208919598E+00 -0.53598100746E+03  0.54233535802E+03  0.82661834690E+02 0.  0.
         25    2    1    2    0    0  0.18804610125E+03 -0.12866167176E+03  0.59593129513E+02  0.26667187996E+03  0.12508952196E+03 0.  0.
         24    2    1    2    0    0 -0.18376880845E+03  0.12780958256E+03  0.92456260431E+03  0.95471344943E+03  0.80966023072E+02 0.  0.
        -11    1    5    5    0    0  0.36259860863E+00  0.19849782118E+02  0.38657514142E+02  0.43457435814E+02  0.00000000000E+00 0.  1.
         12    1    5    5    0    0 -0.18413140706E+03  0.10795980044E+03  0.88590509017E+03  0.91125601362E+03  0.00000000000E+00 0. -1.
         13    1    3    3    0    0 -0.35454274594E+02  0.14210199440E+02 -0.41300757948E+03  0.41477005203E+03  0.00000000000E+00 0. -1.
        -14    1    3    3    0    0  0.31176981797E+02 -0.13358110244E+02 -0.12297342798E+03  0.12756530599E+03  0.00000000000E+00 0.  1.
          5    1    4    4  501    0  0.13485036514E+03 -0.25306159811E+02  0.29583030068E+01  0.13729984217E+03  0.41800000000E+01 0.  1.
         -5    1    4    4    0  501  0.53195736104E+02 -0.10335551194E+03  0.56634826506E+02  0.12937203779E+03  0.41800000000E+01 0.  1.
</event>
<event>
11    1  0.8551154E-009  0.1939679E+03  0.7561462E-02  0.1058873E+00
         22   -1    0    0    0    0  0.00000000000E+00  0.00000000000E+00  0.15452501011E+04  0.15452501011E+04  0.00000000000E+00 0.  1.
         22   -1    0    0    0    0 -0.00000000000E+00 -0.00000000000E+00 -0.28029157826E+03  0.28029157826E+03  0.00000000000E+00 0.  1.
        -24    2    1    2    0    0 -0.52543265934E+01 -0.59934695331E+02 -0.24371978511E+03  0.26399126080E+03  0.81684003754E+02 0.  0.
         25    2    1    2    0    0  0.81383256528E+02 -0.82408662392E+02  0.35545131927E+03  0.39421753540E+03  0.12508957896E+03 0.  0.
         24    2    1    2    0    0 -0.76128929934E+02  0.14234335772E+03  0.11532269887E+04  0.11673328832E+04  0.81708795367E+02 0.  0.
        -11    1    5    5    0    0 -0.81407370589E+02  0.13038231289E+03  0.84748681651E+03  0.86131330633E+03  0.00000000000E+00 0.  1.
         12    1    5    5    0    0  0.52784406548E+01  0.11961044835E+02  0.30574017219E+03  0.30601957686E+03  0.00000000000E+00 0. -1.
         11    1    3    3    0    0  0.29696088320E+02 -0.23421780283E+02 -0.44219019130E+02  0.58187276152E+02  0.00000000000E+00 0. -1.
        -12    1    3    3    0    0 -0.34950414914E+02 -0.36512915047E+02 -0.19950076598E+03  0.20580398464E+03  0.00000000000E+00 0.  1.
          5    1    4    4  501    0  0.16334178308E+02  0.20790017217E+02  0.17070094444E+03  0.17278690642E+03  0.41800000000E+01 0. -1.
         -5    1    4    4    0  501  0.65049078220E+02 -0.10319867961E+03  0.18475037483E+03  0.22143062898E+03  0.41800000000E+01 0. -1.
</event>
<event>
11    1  0.8551154E-009  0.1614658E+03  0.7561462E-02  0.1085707E+00
         22   -1    0    0    0    0  0.00000000000E+00  0.00000000000E+00  0.12442850553E+03  0.12442850553E+03  0.00000000000E+00 0. -1.
         22   -1    0    0    0    0 -0.00000000000E+00 -0.00000000000E+00 -0.38165275089E+03  0.38165275089E+03  0.00000000000E+00 0.  1.
        -24    2    1    2    0    0 -0.11064438707E+03  0.26160440078E+02 -0.19271968954E+03  0.23796379021E+03  0.80989738255E+02 0.  0.
         25    2    1    2    0    0  0.65066714316E+02 -0.55713615942E+02 -0.79974147617E+02  0.17141076706E+03  0.12509237573E+03 0.  0.
         24    2    1    2    0    0  0.45577672755E+02  0.29553175864E+02  0.15469591788E+02  0.96706699144E+02  0.78499445423E+02 0.  0.
        -11    1    5    5    0    0 -0.22213738187E+02  0.79153835634E+01 -0.12253944334E+01  0.23613662416E+02  0.00000000000E+00 0.  1.
         12    1    5    5    0    0  0.67791410942E+02  0.21637792301E+02  0.16694986221E+02  0.73093036728E+02  0.00000000000E+00 0. -1.
         11    1    3    3    0    0  0.61371812519E+01  0.20185610076E+02 -0.43838963103E+02  0.48651603610E+02  0.00000000000E+00 0. -1.
        -12    1    3    3    0    0 -0.11678156832E+03  0.59748300015E+01 -0.14888072643E+03  0.18931218660E+03  0.00000000000E+00 0.  1.
          5    1    4    4  501    0  0.43521234242E+02 -0.74202815551E+02 -0.10325407345E+03  0.13445829000E+03  0.41800000000E+01 0.  1.
         -5    1    4    4    0  501  0.21545480074E+02  0.18489199609E+02  0.23279925838E+02  0.36952477059E+02  0.41800000000E+01 0.  1.
</event>
<event>
11    1  0.8551154E-009  0.1822456E+03  0.7561462E-02  0.1067841E+00
         22   -1    0    0    0    0  0.00000000000E+00  0.00000000000E+00  0.13866056363E+04  0.13866056363E+04  0.00000000000E+00 0.  1.
         22   -1    0    0    0    0 -0.00000000000E+00 -0.00000000000E+00 -0.31802536346E+03  0.31802536346E+03  0.00000000000E+00 0. -1.
         24    2    1    2    0    0 -0.42299690825E+02 -0.12427813028E+03 -0.26921380970E+03  0.31104109923E+03  0.83881896539E+02 0.  0.
         25    2    1    2    0    0  0.49245364124E+02  0.14711014774E+03  0.34960185247E+03  0.40241217314E+03  0.12509036888E+03 0.  0.
        -24    2    1    2    0    0 -0.69456732992E+01 -0.22832017461E+02  0.98819223003E+03  0.99117772736E+03  0.73074347901E+02 0.  0.
        -11    1    3    3    0    0 -0.21961252035E+02 -0.20224980529E+02 -0.10843560741E+02  0.31763646483E+02  0.00000000000E+00 0.  1.
         12    1    3    3    0    0 -0.20338438789E+02 -0.10405314975E+03 -0.25837024895E+03  0.27927745274E+03  0.00000000000E+00 0. -1.
         13    1    5    5    0    0 -0.28318019774E+02  0.17465206360E+01  0.17108304232E+03  0.17341962965E+03  0.00000000000E+00 0. -1.
        -14    1    5    5    0    0  0.21372346475E+02 -0.24578538097E+02  0.81710918771E+03  0.81775809771E+03  0.00000000000E+00 0.  1.
          5    1    4    4  501    0  0.79350382078E+02  0.14838605117E+03  0.30612926302E+03  0.34935297536E+03  0.41800000000E+01 0.  1.
         -5    1    4    4    0  501 -0.30105017954E+02 -0.12759034257E+01  0.43472589445E+02  0.53059197776E+02  0.41800000000E+01 0.  1.
</event>
<event>
11    1  0.8551154E-009  0.1514399E+03  0.7561462E-02  0.1095417E+00
         22   -1    0    0    0    0  0.00000000000E+00  0.00000000000E+00  0.35977274127E+03  0.35977274127E+03  0.00000000000E+00 0. -1.
         22   -1    0    0    0    0 -0.00000000000E+00 -0.00000000000E+00 -0.28789445634E+03  0.28789445634E+03  0.00000000000E+00 0. -1.
         24    2    1    2    0    0 -0.32131687017E+02 -0.99135322801E+01 -0.18715442639E+03  0.20381835166E+03  0.73378591708E+02 0.  0.
         25    2    1    2    0    0  0.11030860624E+03  0.29965311135E+02  0.10564458220E+02  0.16977974509E+03  0.12509054953E+03 0.  0.
        -24    2    1    2    0    0 -0.78176919219E+02 -0.20051778855E+02  0.24846825311E+03  0.27406910087E+03  0.82847418279E+02 0.  0.
        -13    1    3    3    0    0  0.23917619502E+02 -0.50792678475E+01 -0.58027346619E+02  0.62968440032E+02  0.00000000000E+00 0.  1.
         14    1    3    3    0    0 -0.56049306518E+02 -0.48342644326E+01 -0.12912707977E+03  0.14084991162E+03  0.00000000000E+00 0. -1.
         13    1    5    5    0    0 -0.79520903927E+02 -0.23400091942E+02  0.25415683732E+03  0.26733281957E+03  0.00000000000E+00 0. -1.
        -14    1    5    5    0    0  0.13439847076E+01  0.33483130867E+01 -0.56885842105E+01  0.67362812991E+01  0.00000000000E+00 0.  1.
          5    1    4    4  501    0  0.54968882371E+02  0.42210025479E+02 -0.50882631058E+02  0.86080072162E+02  0.41800000000E+01 0.  1.
         -5    1    4    4    0  501  0.55339723864E+02 -0.12244714344E+02  0.61447089278E+02  0.83699672924E+02  0.41800000000E+01 0.  1.
</event>
<event>
11    1  0.8551154E-009  0.1399439E+03  0.7561462E-02  0.1107621E+00
         22   -1    0    0    0    0  0.00000000000E+00  0.00000000000E+00  0.11064210038E+04  0.11064210038E+04  0.00000000000E+00 0. -1.
         22   -1    0    0    0    0 -0.00000000000E+00 -0.00000000000E+00 -0.33758631434E+03  0.33758631434E+03  0.00000000000E+00 0. -1.
        -24    2    1    2    0    0 -0.55458402463E+02 -0.31419735163E+02 -0.30786321484E+03  0.32455165446E+03  0.80567879478E+02 0.  0.
         25    2    1    2    0    0  0.44904037109E+02 -0.83323135498E+01  0.21203842694E+03  0.25038627451E+03  0.12508873637E+03 0.  0.
         24    2    1    2    0    0  0.10554365354E+02  0.39752048713E+02  0.86465947738E+03  0.86906938919E+03  0.77161981526E+02 0.  0.
        -13    1    5    5    0    0  0.33641927930E+02  0.13049194891E+02  0.68643281387E+03  0.68738058509E+03  0.00000000000E+00 0.  1.
         14    1    5    5    0    0 -0.23087562575E+02  0.26702853822E+02  0.17822666351E+03  0.18168880410E+03  0.00000000000E+00 0. -1.
         11    1    3    3    0    0 -0.51989948096E+02  0.15571733774E+02 -0.13843238340E+03  0.14869081468E+03  0.00000000000E+00 0. -1.
        -12    1    3    3    0    0 -0.34684543673E+01 -0.46991468938E+02 -0.16943083143E+03  0.17586083978E+03  0.00000000000E+00 0.  1.
          5    1    4    4  501    0  0.11656999664E+02 -0.27865286594E+00 -0.15732055217E+02  0.20023317655E+02  0.41800000000E+01 0.  1.
         -5    1    4    4    0  501  0.33247037445E+02 -0.80536606839E+01  0.22777048215E+03  0.23036295685E+03  0.41800000000E+01 0.  1.
</event>
<event>
11    1  0.8551154E-009  0.2001063E+03  0.7561462E-02  0.1054449E+00
         22   -1    0    0    0    0  0.00000000000E+00  0.00000000000E+00  0.45049781211E+03  0.45049781211E+03  0.00000000000E+00 0. -1.
         22   -1    0    0    0    0 -0.00000000000E+00 -0.00000000000E+00 -0.23120755914E+03  0.23120755914E+03  0.00000000000E+00 0. -1.
         24    2    1    2    0    0  0.77545547162E+02  0.60295974365E+02 -0.26584841302E+02  0.12939649703E+03  0.79923608829E+02 0.  0.
         25    2    1    2    0    0  0.33053460713E+01 -0.19094421117E+03 -0.26269081574E+02  0.22980033383E+03  0.12509001435E+03 0.  0.
        -24    2    1    2    0    0 -0.80850893233E+02  0.13064823680E+03  0.27214417584E+03  0.32250854038E+03  0.79645950655E+02 0.  0.
        -13    1    3    3    0    0  0.76856756453E+02  0.11625328261E+02 -0.12546688545E+02  0.78737085691E+02  0.00000000000E+00 0.  1.
         14    1    3    3    0    0  0.68879070937E+00  0.48670646104E+02 -0.14038152757E+02  0.50659411343E+02  0.00000000000E+00 0. -1.
         11    1    5    5    0    0 -0.90744398101E+02  0.13019152806E+03  0.26862161149E+03  0.31199671461E+03  0.00000000000E+00 0. -1.
        -12    1    5    5    0    0  0.98935048681E+01  0.45670874188E+00  0.35225643529E+01  0.10511825772E+02  0.00000000000E+00 0.  1.
          5    1    4    4  501    0  0.58117955013E+02 -0.14515331720E+03 -0.12216003721E+02  0.15688813000E+03  0.41800000000E+01 0.  1.
         -5    1    4    4    0  501 -0.54812608942E+02 -0.45790893967E+02 -0.14053077853E+02  0.72912203824E+02  0.41800000000E+01 0.  1.
</event>
<event>
11    1  0.8551154E-009  0.1711100E+03  0.7561462E-02  0.1077070E+00
         22   -1    0    0    0    0  0.00000000000E+00  0.00000000000E+00  0.33579321442E+03  0.33579321442E+03  0.00000000000E+00 0. -1.
         22   -1    0    0    0    0 -0.00000000000E+00 -0.00000000000E+00 -0.69106919706E+03  0.69106919706E+03  0.00000000000E+00 0. -1.
         24    2    1    2    0    0  0.48702383480E+01 -0.12365316871E+03 -0.59050239271E+03  0.60904506960E+03  0.83240589007E+02 0.  0.
         25    2    1    2    0    0 -0.11958468950E+03  0.71224479782E+02  0.90110106677E+02  0.20770400319E+03  0.12509075559E+03 0.  0.
        -24    2    1    2    0    0  0.11471445115E+03  0.52428688926E+02  0.14511630339E+03  0.21011333870E+03  0.84739016188E+02 0.  0.
        -13    1    3    3    0    0  0.35925337539E+01  0.10233885327E+02 -0.17350566590E+02  0.20461692712E+02  0.00000000000E+00 0.  1.
         14    1    3    3    0    0  0.12777045941E+01 -0.13388705404E+03 -0.57315182612E+03  0.58858337689E+03  0.00000000000E+00 0. -1.
         11    1    5    5    0    0  0.12314138408E+03  0.57845982276E+02  0.14657982021E+03  0.19998900428E+03  0.00000000000E+00 0. -1.
        -12    1    5    5    0    0 -0.84269329344E+01 -0.54172933494E+01 -0.14635168233E+01  0.10124334418E+02  0.00000000000E+00 0.  1.
          5    1    4    4  501    0 -0.45543955701E+02  0.84640960205E+02  0.84415504735E+01  0.96576789239E+02  0.41800000000E+01 0. -1.
         -5    1    4    4    0  501 -0.74040733797E+02 -0.13416480423E+02  0.81668556203E+02  0.11112721395E+03  0.41800000000E+01 0. -1.
</event>
<event>
11    1  0.8551154E-009  0.1344626E+03  0.7561462E-02  0.1113904E+00
         22   -1    0    0    0    0  0.00000000000E+00  0.00000000000E+00  0.94958369200E+03  0.94958369200E+03  0.00000000000E+00 0.  1.
         22   -1    0    0    0    0 -0.00000000000E+00 -0.00000000000E+00 -0.99631886400E+02  0.99631886400E+02  0.00000000000E+00 0. -1.
         24    2    1    2    0    0  0.25810842084E+02  0.40533641267E+02 -0.40734395457E+02  0.10225276256E+03  0.80542912999E+02 0.  0.
         25    2    1    2    0    0 -0.23419391537E+02 -0.52401382455E+02  0.15740734415E+03  0.20909063660E+03  0.12508976593E+03 0.  0.
        -24    2    1    2    0    0 -0.23914505472E+01  0.11867741187E+02  0.73327885691E+03  0.73787217923E+03  0.81307494044E+02 0.  0.
        -11    1    3    3    0    0  0.47527664891E+02  0.45156078899E+02 -0.13187946850E+02  0.66872059439E+02  0.00000000000E+00 0.  1.
         12    1    3    3    0    0 -0.21716822806E+02 -0.46224376311E+01 -0.27546448607E+02  0.35380703121E+02  0.00000000000E+00 0. -1.
         13    1    5    5    0    0 -0.23995547425E+02 -0.21924347422E+02  0.16446566614E+03  0.16764670783E+03  0.00000000000E+00 0. -1.
        -14    1    5    5    0    0  0.21604096877E+02  0.33792088609E+02  0.56881319076E+03  0.57022547141E+03  0.00000000000E+00 0.  1.
          5    1    4    4  501    0  0.76779700565E+01 -0.69208281953E+02  0.28493757143E+02  0.75353195760E+02  0.41800000000E+01 0.  1.
         -5    1    4    4    0  501 -0.31097361594E+02  0.16806899498E+02  0.12891358701E+03  0.13373744084E+03  0.41800000000E+01 0.  1.
</event>
<event>
11    1  0.8551154E-009  0.2138076E+03  0.7561462E-02  0.1045167E+00
         22   -1    0    0    0    0  0.00000000000E+00  0.00000000000E+00  0.81129693693E+03  0.81129693693E+03  0.00000000000E+00 0. -1.
         22   -1    0    0    0    0 -0.00000000000E+00 -0.00000000000E+00 -0.25969693808E+03  0.25969693808E+03  0.00000000000E+00 0.  1.
         24    2    1    2    0    0 -0.14742828292E+03 -0.51596276925E+02 -0.85318854182E+02  0.19302173856E+03  0.74704821010E+02 0.  0.
         25    2    1    2    0    0  0.20818786284E+03  0.59381673496E+02  0.17703815895E+02  0.25065808231E+03  0.12509068610E+03 0.  0.
        -24    2    1    2    0    0 -0.60759579928E+02 -0.77853965713E+01  0.61921503714E+03  0.62731405413E+03  0.79644970581E+02 0.  0.
        -11    1    3    3    0    0 -0.15333707889E+03 -0.37822462449E+02 -0.75082094930E+02  0.17487172272E+03  0.00000000000E+00 0.  1.
         12    1    3    3    0    0  0.59087959728E+01 -0.13773814476E+02 -0.10236759252E+02  0.18150015841E+02  0.00000000000E+00 0. -1.
         13    1    5    5    0    0 -0.38513187279E+02  0.23001849428E+02  0.15000242497E+03  0.15656652953E+03  0.00000000000E+00 0. -1.
        -14    1    5    5    0    0 -0.22246392650E+02 -0.30787245999E+02  0.46921261217E+03  0.47074752460E+03  0.00000000000E+00 0.  1.
          5    1    4    4  501    0  0.52826411015E+02 -0.33485081062E+02 -0.19855049410E+02  0.65753902861E+02  0.41800000000E+01 0.  1.
         -5    1    4    4    0  501  0.15536145183E+03  0.92866754558E+02  0.37558865305E+02  0.18490417945E+03  0.41800000000E+01 0.  1.
</event>
<event>
11    1  0.8551154E-009  0.1999141E+03  0.7561462E-02  0.1054584E+00
         22   -1    0    0    0    0  0.00000000000E+00  0.00000000000E+00  0.91308461474E+03  0.91308461474E+03  0.00000000000E+00 0. -1.
         22   -1    0    0    0    0 -0.00000000000E+00 -0.00000000000E+00 -0.31640230926E+03  0.31640230926E+03  0.00000000000E+00 0. -1.
         24    2    1    2    0    0 -0.29626107513E+02 -0.46352538107E+01 -0.22063804891E+03  0.23635182532E+03  0.79258090304E+02 0.  0.
         25    2    1    2    0    0 -0.56347425219E+02  0.13635374724E+03  0.41798146448E+02  0.19789383232E+03  0.12508999604E+03 0.  0.
        -24    2    1    2    0    0  0.85973532732E+02 -0.13171849343E+03  0.77552220794E+03  0.79524126636E+03  0.78947874420E+02 0.  0.
        -13    1    3    3    0    0  0.18187683911E+02  0.14408022634E+02 -0.25219418422E+02  0.34269549571E+02  0.00000000000E+00 0.  1.
         14    1    3    3    0    0 -0.47813791423E+02 -0.19043276445E+02 -0.19541863049E+03  0.20208227574E+03  0.00000000000E+00 0. -1.
         11    1    5    5    0    0  0.95320159936E+02 -0.12883822650E+03  0.65496742985E+03  0.67429040900E+03  0.00000000000E+00 0. -1.
        -12    1    5    5    0    0 -0.93466272044E+01 -0.28802669310E+01  0.12055477808E+03  0.12095085736E+03  0.00000000000E+00 0.  1.
          5    1    4    4  501    0 -0.73454414390E+02  0.14207736380E+03  0.90248958741E+01  0.16025120731E+03  0.41800000000E+01 0. -1.
         -5    1    4    4    0  501  0.17106989171E+02 -0.57236165607E+01  0.32773250574E+02  0.37642625017E+02  0.41800000000E+01 0. -1.
</event>
<event>
11    1  0.8551154E-009  0.3455428E+03  0.7561462E-02  0.9825689E-01
         22   -1    0    0    0    0  0.00000000000E+00  0.00000000000E+00  0.16357968395E+04  0.16357968395E+04  0.00000000000E+00 0. -1.
         22   -1    0    0    0    0 -0.00000000000E+00 -0.00000000000E+00 -0.10832274638E+04  0.10832274638E+04  0.00000000000E+00 0.  1.
        -24    2    1    2    0    0 -0.36323744776E+02  0.40038744045E+02 -0.10090468203E+04  0.10137995413E+04  0.81801642824E+02 0.  0.
         25    2    1    2    0    0 -0.27444158405E+03  0.10675647395E+03  0.58986786826E+03  0.67104907957E+03  0.12509051686E+03 0.  0.
         24    2    1    2    0    0  0.31076532882E+03 -0.14679521799E+03  0.97174832784E+03  0.10341756824E+04  0.84265080918E+02 0.  0.
        -11    1    5    5    0    0  0.60428654091E+02 -0.58185228616E+02  0.30952762680E+03  0.32069377109E+03  0.00000000000E+00 0.  1.
         12    1    5    5    0    0  0.25033667473E+03 -0.88609989379E+02  0.66222070104E+03  0.71348191135E+03  0.00000000000E+00 0. -1.
         13    1    3    3    0    0 -0.72159552995E+01  0.60566711361E+02 -0.54964255931E+03  0.55301658161E+03  0.00000000000E+00 0. -1.
        -14    1    3    3    0    0 -0.29107789476E+02 -0.20527967315E+02 -0.45940426104E+03  0.46078295965E+03  0.00000000000E+00 0.  1.
          5    1    4    4  501    0 -0.93045057940E+02  0.76688322201E+01  0.30549142971E+03  0.31946624207E+03  0.41800000000E+01 0.  1.
         -5    1    4    4    0  501 -0.18139652611E+03  0.99087641729E+02  0.28437643855E+03  0.35158283750E+03  0.41800000000E+01 0.  1.
</event>
<event>
11    1  0.8551154E-009  0.2154863E+03  0.7561462E-02  0.1044082E+00
         22   -1    0    0    0    0  0.00000000000E+00  0.00000000000E+00  0.86737020023E+03  0.86737020023E+03  0.00000000000E+00 0. -1.
         22   -1    0    0    0    0 -0.00000000000E+00 -0.00000000000E+00 -0.10227636299E+04  0.10227636299E+04  0.00000000000E+00 0. -1.
         24    2    1    2    0    0 -0.15160068343E+03  0.57656182948E+02 -0.55208846519E+03  0.58091516572E+03  0.79710436744E+02 0.  0.
         25    2    1    2    0    0  0.30867165012E+03 -0.12624693246E+03 -0.37350018110E+03  0.51610656404E+03  0.12508846717E+03 0.  0.
        -24    2    1    2    0    0 -0.15707096670E+03  0.68590749515E+02  0.77019521657E+03  0.79311210041E+03  0.80312842641E+02 0.  0.
        -13    1    3    3    0    0 -0.11783105157E+02 -0.12642716266E+02 -0.12242635780E+03  0.12364017521E+03  0.00000000000E+00 0.  1.
         14    1    3    3    0    0 -0.13981757827E+03  0.70298899214E+02 -0.42966210739E+03  0.45727499051E+03  0.00000000000E+00 0. -1.
         11    1    5    5    0    0 -0.14005725017E+03  0.39493110059E+02  0.70339234054E+03  0.71828721539E+03  0.00000000000E+00 0. -1.
        -12    1    5    5    0    0 -0.17013716525E+02  0.29097639457E+02  0.66802876026E+02  0.74824885014E+02  0.00000000000E+00 0.  1.
          5    1    4    4  501    0  0.30183721210E+03 -0.96286850482E+02 -0.36619536738E+03  0.48424516484E+03  0.41800000000E+01 0.  1.
         -5    1    4    4    0  501  0.68344380240E+01 -0.29960081981E+02 -0.73048137209E+01  0.31861399199E+02  0.41800000000E+01 0.  1.
</event>
<event>
11    1  0.8551154E-009  0.1485921E+03  0.7561462E-02  0.1098326E+00
         22   -1    0    0    0    0  0.00000000000E+00  0.00000000000E+00  0.88563754762E+03  0.88563754762E+03  0.00000000000E+00 0.  1.
         22   -1    0    0    0    0 -0.00000000000E+00 -0.00000000000E+00 -0.40894059677E+03  0.40894059677E+03  0.00000000000E+00 0.  1.
        -24    2    1    2    0    0 -0.62564734217E+02  0.40707086708E+02 -0.27981232161E+03  0.30029778943E+03  0.79450702576E+02 0.  0.
         25    2    1    2    0    0  0.11935259412E+03 -0.26476261629E+02 -0.49694796168E+02  0.18183455478E+03  0.12509275916E+03 0.  0.
         24    2    1    2    0    0 -0.56787859898E+02 -0.14230825080E+02  0.80620406862E+03  0.81244580017E+03  0.81705572326E+02 0.  0.
        -11    1    5    5    0    0 -0.48202834809E+02  0.22580101012E+02  0.62937572948E+03  0.63162265880E+03  0.00000000000E+00 0.  1.
         12    1    5    5    0    0 -0.85850250888E+01 -0.36810926092E+02  0.17682833913E+03  0.18082314137E+03  0.00000000000E+00 0. -1.
         11    1    3    3    0    0 -0.30097374091E+02  0.37844808628E+02 -0.55412811102E+02  0.73543600004E+02  0.00000000000E+00 0. -1.
        -12    1    3    3    0    0 -0.32467360126E+02  0.28622780803E+01 -0.22439951050E+03  0.22675418943E+03  0.00000000000E+00 0.  1.
          5    1    4    4  501    0  0.11095692590E+03 -0.57962935753E+01 -0.84932361297E+02  0.13991431242E+03  0.41800000000E+01 0.  1.
         -5    1    4    4    0  501  0.83956682182E+01 -0.20679968053E+02  0.35237565129E+02  0.41920242363E+02  0.41800000000E+01 0.  1.
</event>
<event>
11    1  0.8551154E-009  0.1402748E+03  0.7561462E-02  0.1107252E+00
         22   -1    0    0    0    0  0.00000000000E+00  0.00000000000E+00  0.17930832033E+03  0.17930832033E+03  0.00000000000E+00 0.  1.
         22   -1    0    0    0    0 -0.00000000000E+00 -0.00000000000E+00 -0.10370984282E+04  0.10370984282E+04  0.00000000000E+00 0. -1.
        -24    2    1    2    0    0  0.42254598103E+02  0.45625105391E+02 -0.89644418291E+03  0.90236213619E+03  0.82329523556E+02 0.  0.
         25    2    1    2    0    0 -0.20718617649E+02 -0.99151334306E+02 -0.61900303568E+02  0.17244563301E+03  0.12508237505E+03 0.  0.
         24    2    1    2    0    0 -0.21535980454E+02  0.53526228914E+02  0.10055437861E+03  0.14159897932E+03  0.81303334808E+02 0.  0.
        -13    1    5    5    0    0  0.26415089210E+02  0.33254785710E+02  0.68081320504E+02  0.80241534832E+02  0.00000000000E+00 0.  1.
         14    1    5    5    0    0 -0.47951069664E+02  0.20271443204E+02  0.32473058111E+02  0.61357444492E+02  0.00000000000E+00 0. -1.
         13    1    3    3    0    0  0.14599862851E+02  0.65949733166E+02 -0.65856393365E+03  0.66201886529E+03  0.00000000000E+00 0. -1.
        -14    1    3    3    0    0  0.27654735252E+02 -0.20324627775E+02 -0.23788024926E+03  0.24034327089E+03  0.00000000000E+00 0.  1.
          5    1    4    4  501    0 -0.53376244921E+02 -0.11218894804E+03 -0.39037637562E+02  0.13029502343E+03  0.41800000000E+01 0.  1.
         -5    1    4    4    0  501  0.32657627272E+02  0.13037613732E+02 -0.22862666006E+02  0.42150609577E+02  0.41800000000E+01 0.  1.
</event>
<event>
11    1  0.8551154E-009  0.1448999E+03  0.7561462E-02  0.1102207E+00
         22   -1    0    0    0    0  0.00000000000E+00  0.00000000000E+00  0.91370899906E+03  0.91370899906E+03  0.00000000000E+00 0. -1.
         22   -1    0    0    0    0 -0.00000000000E+00 -0.00000000000E+00 -0.24772154904E+04  0.24772154904E+04  0.00000000000E+00 0.  1.
         24    2    1    2    0    0  0.31579001914E+02  0.43216579446E+02 -0.22969440207E+04  0.22989843962E+04  0.80700147196E+02 0.  0.
         25    2    1    2    0    0  0.38819832447E+02 -0.20405366600E+02 -0.15053734245E+03  0.20058752702E+03  0.12510198299E+03 0.  0.
        -24    2    1    2    0    0 -0.70398834361E+02 -0.22811212846E+02  0.88397487176E+03  0.89135256627E+03  0.87301066302E+02 0.  0.
        -13    1    3    3    0    0  0.54848400614E+02  0.46379437356E+02 -0.15367664525E+04  0.15384441910E+04  0.00000000000E+00 0.  1.
         14    1    3    3    0    0 -0.23269398700E+02 -0.31628579101E+01 -0.76017756819E+03  0.76054020522E+03  0.00000000000E+00 0. -1.
         13    1    5    5    0    0 -0.28854463653E+02 -0.54427358944E+02  0.52484913269E+03  0.52845201255E+03  0.00000000000E+00 0. -1.
        -14    1    5    5    0    0 -0.41544370707E+02  0.31616146098E+02  0.35912573907E+03  0.36290055372E+03  0.00000000000E+00 0.  1.
          5    1    4    4  501    0  0.35131321195E+02 -0.69931712345E+02 -0.11583673862E+03  0.13985805852E+03  0.41800000000E+01 0.  1.
         -5    1    4    4    0  501  0.36885112520E+01  0.49526345744E+02 -0.34700603828E+02  0.60729468498E+02  0.41800000000E+01 0.  1.
</event>
<event>
11    1  0.8551154E-009  0.1805847E+03  0.7561462E-02  0.1069171E+00
         22   -1    0    0    0    0  0.00000000000E+00  0.00000000000E+00  0.10727001589E+03  0.10727001589E+03  0.00000000000E+00 0. -1.
         22   -1    0    0    0    0 -0.00000000000E+00 -0.00000000000E+00 -0.24298903307E+04  0.24298903307E+04  0.00000000000E+00 0. -1.
        -24    2    1    2    0    0  0.33548713659E+02 -0.12122043058E+03 -0.13495022011E+04  0.13577029535E+04  0.79882476701E+02 0.  0.
         25    2    1    2    0    0  0.49366998297E+01  0.14384452394E+03 -0.10457925536E+04  0.10630362312E+04  0.12509334816E+03 0.  0.
         24    2    1    2    0    0 -0.38485413488E+02 -0.22624093365E+02  0.72674439878E+02  0.11642116186E+03  0.79242261869E+02 0.  0.
        -13    1    5    5    0    0 -0.41586294850E+02 -0.38646156658E+02  0.18295448639E+02  0.59646196733E+02  0.00000000000E+00 0.  1.
         14    1    5    5    0    0  0.31008813618E+01  0.16022063293E+02  0.54378991238E+02  0.56774965130E+02  0.00000000000E+00 0. -1.
         13    1    3    3    0    0  0.45331039556E+01 -0.11424451310E+03 -0.11861099882E+04  0.11916078473E+04  0.00000000000E+00 0. -1.
        -14    1    3    3    0    0  0.29015609703E+02 -0.69759174766E+01 -0.16339221293E+03  0.16609510612E+03  0.00000000000E+00 0.  1.
          5    1    4    4  501    0  0.59157703189E+02  0.11078956694E+03 -0.63116424891E+03  0.64355244035E+03  0.41800000000E+01 0.  1.
         -5    1    4    4    0  501 -0.54221003360E+02  0.33054957007E+02 -0.41462830465E+03  0.41948379088E+03  0.41800000000E+01 0.  1.
</event>
<event>
11    1  0.8551154E-009  0.2861858E+03  0.7561462E-02  0.1006213E+00
         22   -1    0    0    0    0  0.00000000000E+00  0.00000000000E+00  0.19870283038E+04  0.19870283038E+04  0.00000000000E+00 0. -1.
         22   -1    0    0    0    0 -0.00000000000E+00 -0.00000000000E+00 -0.35503581894E+03  0.35503581894E+03  0.00000000000E+00 0.  1.
         24    2    1    2    0    0 -0.99577449561E+02 -0.51873946907E+02 -0.29840082996E+03  0.32745067336E+03  0.74661324238E+02 0.  0.
         25    2    1    2    0    0 -0.10942177816E+03  0.22495530202E+03  0.74236122751E+03  0.79330081808E+03  0.12509189592E+03 0.  0.
        -24    2    1    2    0    0  0.20899922772E+03 -0.17308135511E+03  0.11880320873E+04  0.12213126313E+04  0.80910260192E+02 0.  0.
        -11    1    3    3    0    0 -0.10165131355E+03 -0.33311891438E+02 -0.28513889524E+03  0.30454369347E+03  0.00000000000E+00 0.  1.
         12    1    3    3    0    0  0.20738639900E+01 -0.18562055469E+02 -0.13261934723E+02  0.22906979890E+02  0.00000000000E+00 0. -1.
         13    1    5    5    0    0  0.12867840536E+03 -0.13711615013E+03  0.92591534306E+03  0.94481648649E+03  0.00000000000E+00 0. -1.
        -14    1    5    5    0    0  0.80320822363E+02 -0.35965204983E+02  0.26211674426E+03  0.27649614481E+03  0.00000000000E+00 0.  1.
          5    1    4    4  501    0 -0.17764534643E+02  0.29115531402E+02  0.28858278216E+03  0.29062138156E+03  0.41800000000E+01 0.  1.
         -5    1    4    4    0  501 -0.91657243515E+02  0.19583977062E+03  0.45377844535E+03  0.50267943652E+03  0.41800000000E+01 0.  1.
</event>
<event>
11    1  0.8551154E-009  0.1450464E+03  0.7561462E-02  0.1102051E+00
         22   -1    0    0    0    0  0.00000000000E+00  0.00000000000E+00  0.12905559618E+04  0.12905559618E+04  0.00000000000E+00 0. -1.
         22   -1    0    0    0    0 -0.00000000000E+00 -0.00000000000E+00 -0.18235574298E+03  0.18235574298E+03  0.00000000000E+00 0.  1.
         24    2    1    2    0    0 -0.12691427406E+02 -0.10755761485E+02 -0.15213306507E+03  0.17375255903E+03  0.82272252593E+02 0.  0.
         25    2    1    2    0    0  0.34316439359E+02  0.78569237627E+02  0.33569988409E+03  0.36836352592E+03  0.12508609811E+03 0.  0.
        -24    2    1    2    0    0 -0.21625011953E+02 -0.67813476141E+02  0.92463339980E+03  0.93079561984E+03  0.79795069957E+02 0.  0.
        -11    1    3    3    0    0 -0.41210325691E+02 -0.20812596632E+02 -0.53895994177E+02  0.70966423825E+02  0.00000000000E+00 0.  1.
         12    1    3    3    0    0  0.28518898285E+02  0.10056835147E+02 -0.98237070892E+02  0.10278613520E+03  0.00000000000E+00 0. -1.
         11    1    5    5    0    0 -0.10356484007E+02 -0.61357217971E+02  0.90570650993E+03  0.90784153193E+03  0.00000000000E+00 0. -1.
        -12    1    5    5    0    0 -0.11268527946E+02 -0.64562581707E+01  0.18926889870E+02  0.22954087910E+02  0.00000000000E+00 0.  1.
          5    1    4    4  501    0 -0.28376988465E+02  0.83464176927E+02  0.20839278218E+03  0.22631072968E+03  0.41800000000E+01 0.  1.
         -5    1    4    4    0  501  0.62693427823E+02 -0.48949393009E+01  0.12730710191E+03  0.14205279624E+03  0.41800000000E+01 0.  1.
</event>
<event>
11    1  0.8551154E-009  0.1455852E+03  0.7561462E-02  0.1101477E+00
         22   -1    0    0    0    0  0.00000000000E+00  0.00000000000E+00  0.12123267846E+03  0.12123267846E+03  0.00000000000E+00 0. -1.
         22   -1    0    0    0    0 -0.00000000000E+00 -0.00000000000E+00 -0.12687026463E+04  0.12687026463E+04  0.00000000000E+00 0. -1.
        -24    2    1    2    0    0  0.78117590226E+02  0.55491317335E+01 -0.99771912768E+03  0.10040163556E+04  0.80450194174E+02 0.  0.
         25    2    1    2    0    0 -0.52439907065E+02  0.75935971245E+01 -0.23133881175E+03  0.26828156051E+03  0.12509893413E+03 0.  0.
         24    2    1    2    0    0 -0.25677683160E+02 -0.13142728858E+02  0.81587971543E+02  0.11763740872E+03  0.79686185103E+02 0.  0.
        -13    1    5    5    0    0 -0.28613747805E+02  0.22144081856E+02  0.96329034200E+01  0.37441951779E+02  0.00000000000E+00 0.  1.
         14    1    5    5    0    0  0.29360646452E+01 -0.35286810714E+02  0.71955068123E+02  0.80195456945E+02  0.00000000000E+00 0. -1.
         13    1    3    3    0    0  0.76463153056E+02 -0.14275946141E+02 -0.93471703634E+03  0.93794794868E+03  0.00000000000E+00 0. -1.
        -14    1    3    3    0    0  0.16544371694E+01  0.19825077875E+02 -0.63002091339E+02  0.66068406884E+02  0.00000000000E+00 0.  1.
          5    1    4    4  501    0 -0.41687844658E+02  0.29858669702E+02 -0.19587321846E+02  0.55050450731E+02  0.41800000000E+01 0.  1.
         -5    1    4    4    0  501 -0.10752062408E+02 -0.22265072578E+02 -0.21175148990E+03  0.21323110978E+03  0.41800000000E+01 0.  1.
</event>
<event>
11    1  0.8551154E-009  0.1928926E+03  0.7561462E-02  0.1059667E+00
         22   -1    0    0    0    0  0.00000000000E+00  0.00000000000E+00  0.12793078073E+03  0.12793078073E+03  0.00000000000E+00 0.  1.
         22   -1    0    0    0    0 -0.00000000000E+00 -0.00000000000E+00 -0.88773858794E+03  0.88773858794E+03  0.00000000000E+00 0. -1.
        -24    2    1    2    0    0 -0.18730226636E+02  0.93154943500E+02 -0.47699088745E+03  0.49278611399E+03  0.79304366499E+02 0.  0.
         25    2    1    2    0    0 -0.12287510648E+03 -0.12490130704E+03 -0.28458912628E+03  0.35684392506E+03  0.12509191723E+03 0.  0.
         24    2    1    2    0    0  0.14160533312E+03  0.31746363536E+02  0.17722065166E+01  0.16603932962E+03  0.80659880360E+02 0.  0.
        -13    1    5    5    0    0  0.13664420388E+03  0.50440402688E+02 -0.44419737835E+01  0.14572441048E+03  0.00000000000E+00 0.  1.
         14    1    5    5    0    0  0.49611292389E+01 -0.18694039151E+02  0.62141803000E+01  0.20314919146E+02  0.00000000000E+00 0. -1.
         13    1    3    3    0    0 -0.63270633238E+01  0.91906444347E+02 -0.46903799090E+03  0.47799943845E+03  0.00000000000E+00 0. -1.
        -14    1    3    3    0    0 -0.12403163312E+02  0.12484991532E+01 -0.79528965459E+01  0.14786675548E+02  0.00000000000E+00 0.  1.
          5    1    4    4  501    0 -0.85435181318E+02 -0.10934782907E+03 -0.28396182415E+03  0.31608212209E+03  0.41800000000E+01 0.  1.
         -5    1    4    4    0  501 -0.37439925166E+02 -0.15553477963E+02 -0.62730213538E+00  0.40761802967E+02  0.41800000000E+01 0.  1.
</event>
<event>
11    1  0.8551154E-009  0.1709454E+03  0.7561462E-02  0.1077212E+00
         22   -1    0    0    0    0  0.00000000000E+00  0.00000000000E+00  0.88062068259E+03  0.88062068259E+03  0.00000000000E+00 0. -1.
         22   -1    0    0    0    0 -0.00000000000E+00 -0.00000000000E+00 -0.10833668759E+03  0.10833668759E+03  0.00000000000E+00 0. -1.
         24    2    1    2    0    0 -0.78201412676E+02 -0.14954184467E+02 -0.25799238021E+02  0.11607931698E+03  0.80434560801E+02 0.  0.
         25    2    1    2    0    0  0.18488522948E+02 -0.98858638309E+02  0.20738451897E+03  0.26224519554E+03  0.12509735420E+03 0.  0.
        -24    2    1    2    0    0  0.59712889728E+02  0.11381282278E+03  0.59069871406E+03  0.61063285766E+03  0.86188910111E+02 0.  0.
        -11    1    3    3    0    0 -0.22921759483E+02  0.21403373008E+02  0.18540701482E+02  0.36431703850E+02  0.00000000000E+00 0.  1.
         12    1    3    3    0    0 -0.55279653193E+02 -0.36357557476E+02 -0.44339939503E+02  0.79647613133E+02  0.00000000000E+00 0. -1.
         11    1    5    5    0    0  0.26031942278E+02  0.11792957012E+03  0.45462641864E+03  0.47039369261E+03  0.00000000000E+00 0. -1.
        -12    1    5    5    0    0  0.33680947451E+02 -0.41167473403E+01  0.13607229543E+03  0.14023916504E+03  0.00000000000E+00 0.  1.
          5    1    4    4  501    0 -0.66828047293E+01  0.29015775872E+02  0.36354466523E+02  0.47177269576E+02  0.41800000000E+01 0. -1.
         -5    1    4    4    0  501  0.25171327677E+02 -0.12787441418E+03  0.17103005244E+03  0.21506792596E+03  0.41800000000E+01 0. -1.
</event>
<event>
11    1  0.8551154E-009  0.1924151E+03  0.7561462E-02  0.1060021E+00
         22   -1    0    0    0    0  0.00000000000E+00  0.00000000000E+00  0.55155722078E+03  0.55155722078E+03  0.00000000000E+00 0.  1.
         22   -1    0    0    0    0 -0.00000000000E+00 -0.00000000000E+00 -0.32886981952E+03  0.32886981952E+03  0.00000000000E+00 0. -1.
        -24    2    1    2    0    0  0.94256919532E+02  0.98074313055E+02 -0.20276115739E+03  0.25858063010E+03  0.85140575247E+02 0.  0.
         25    2    1    2    0    0 -0.20298146956E+03 -0.17731728311E+03  0.27010969126E+03  0.40156063507E+03  0.12509517358E+03 0.  0.
         24    2    1    2    0    0  0.10872455002E+03  0.79242970054E+02  0.15533886740E+03  0.22028577514E+03  0.79342188790E+02 0.  0.
        -11    1    5    5    0    0  0.87239905438E+02  0.56426351355E+02  0.15770864298E+03  0.18885642774E+03  0.00000000000E+00 0.  1.
         12    1    5    5    0    0  0.21484644586E+02  0.22816618699E+02 -0.23697755750E+01  0.31429347402E+02  0.00000000000E+00 0. -1.
         11    1    3    3    0    0  0.10227378469E+03  0.56749710477E+02 -0.16341664991E+03  0.20096133494E+03  0.00000000000E+00 0. -1.
        -12    1    3    3    0    0 -0.80168651560E+01  0.41324602578E+02 -0.39344507481E+02  0.57619295155E+02  0.00000000000E+00 0.  1.
          5    1    4    4  501    0 -0.18844576774E+03 -0.18173183531E+03  0.19939271530E+03  0.32910970003E+03  0.41800000000E+01 0.  1.
         -5    1    4    4    0  501 -0.14535701821E+02  0.44145522014E+01  0.70716975961E+02  0.72450935036E+02  0.41800000000E+01 0.  1.
</event>
<event>
11    1  0.8551154E-009  0.2983785E+03  0.7561462E-02  0.1000880E+00
         22   -1    0    0    0    0  0.00000000000E+00  0.00000000000E+00  0.28095258010E+03  0.28095258010E+03  0.00000000000E+00 0.  1.
         22   -1    0    0    0    0 -0.00000000000E+00 -0.00000000000E+00 -0.48726823675E+03  0.48726823675E+03  0.00000000000E+00 0. -1.
         24    2    1    2    0    0  0.11462521257E+02 -0.26768719732E+03 -0.20303441143E+03  0.34599483756E+03  0.81863486298E+02 0.  0.
         25    2    1    2    0    0 -0.88883993153E+02  0.27016802141E+03 -0.42525688888E+01  0.31073624293E+03  0.12509118393E+03 0.  0.
        -24    2    1    2    0    0  0.77421471896E+02 -0.24808240954E+01  0.97132367042E+00  0.11148973636E+03  0.80179667276E+02 0.  0.
        -11    1    3    3    0    0  0.22285022696E+02 -0.10949946886E+03 -0.40303018792E+02  0.11879010582E+03  0.00000000000E+00 0.  1.
         12    1    3    3    0    0 -0.10822501439E+02 -0.15818772845E+03 -0.16273139264E+03  0.22720473173E+03  0.00000000000E+00 0. -1.
         11    1    5    5    0    0  0.72736177695E+02  0.57560765807E+01  0.31537954249E+02  0.79487901730E+02  0.00000000000E+00 0. -1.
        -12    1    5    5    0    0  0.46852942015E+01 -0.82369006761E+01 -0.30566630579E+02  0.32001834626E+02  0.00000000000E+00 0.  1.
          5    1    4    4  501    0  0.31908373087E+02  0.50485475237E+02 -0.39460719840E+01  0.59999761392E+02  0.41800000000E+01 0. -1.
         -5    1    4    4    0  501 -0.12079236624E+03  0.21968254617E+03 -0.30649690480E+00  0.25073648154E+03  0.41800000000E+01 0. -1.
</event>
<event>
11    1  0.8551154E-009  0.1443208E+03  0.7561462E-02  0.1102827E+00
         22   -1    0    0    0    0  0.00000000000E+00  0.00000000000E+00  0.16831475957E+03  0.16831475957E+03  0.00000000000E+00 0. -1.
         22   -1    0    0    0    0 -0.00000000000E+00 -0.00000000000E+00 -0.18157915082E+04  0.18157915082E+04  0.00000000000E+00 0. -1.
         24    2    1    2    0    0 -0.13457163563E+02  0.71880712244E+02 -0.16719033617E+04  0.16754931340E+04  0.81660634143E+02 0.  0.
         25    2    1    2    0    0 -0.89413139338E+01 -0.50145259640E+02 -0.83498481115E+02  0.15879129811E+03  0.12509270901E+03 0.  0.
        -24    2    1    2    0    0  0.22398477497E+02 -0.21735452604E+02  0.10792509420E+03  0.14982183565E+03  0.99119295735E+02 0.  0.
        -13    1    3    3    0    0 -0.28246967072E+02 -0.68111898885E+01 -0.51892812203E+03  0.51974097327E+03  0.00000000000E+00 0.  1.
         14    1    3    3    0    0  0.14789803509E+02  0.78691902132E+02 -0.11529752396E+04  0.11557521607E+04  0.00000000000E+00 0. -1.
         11    1    5    5    0    0 -0.34252595047E+01 -0.32179823475E+02  0.11631253775E+03  0.12073060871E+03  0.00000000000E+00 0. -1.
        -12    1    5    5    0    0  0.25823737002E+02  0.10444370871E+02 -0.83874435547E+01  0.29091226942E+02  0.00000000000E+00 0.  1.
          5    1    4    4  501    0  0.56190150812E+02 -0.26284752299E+02 -0.21867471982E+02  0.65908117729E+02  0.41800000000E+01 0.  1.
         -5    1    4    4    0  501 -0.65131464746E+02 -0.23860507342E+02 -0.61631009132E+02  0.92883180379E+02  0.41800000000E+01 0.  1.
</event>
<event>
11    1  0.8551154E-009  0.1399558E+03  0.7561462E-02  0.1107608E+00
         22   -1    0    0    0    0  0.00000000000E+00  0.00000000000E+00  0.62864370179E+03  0.62864370179E+03  0.00000000000E+00 0. -1.
         22   -1    0    0    0    0 -0.00000000000E+00 -0.00000000000E+00 -0.25277851214E+03  0.25277851214E+03  0.00000000000E+00 0.  1.
         24    2    1    2    0    0  0.43353082533E+02 -0.50468548195E+02 -0.14347191578E+03  0.17723243635E+03  0.80003635893E+02 0.  0.
         25    2    1    2    0    0 -0.27909638601E+02  0.43591542507E+02 -0.37830743383E+02  0.14055892390E+03  0.12508587226E+03 0.  0.
        -24    2    1    2    0    0 -0.15443443932E+02  0.68770056879E+01  0.55716784881E+03  0.56363085368E+03  0.83414233202E+02 0.  0.
        -11    1    3    3    0    0  0.63449882392E+01 -0.35868272152E+02 -0.13034477104E+03  0.13533865361E+03  0.00000000000E+00 0.  1.
         12    1    3    3    0    0  0.37008094293E+02 -0.14600276044E+02 -0.13127144741E+02  0.41893782747E+02  0.00000000000E+00 0. -1.
         13    1    5    5    0    0 -0.47319783971E+02  0.18701763468E+02  0.31341219024E+03  0.31751554119E+03  0.00000000000E+00 0. -1.
        -14    1    5    5    0    0  0.31876340040E+02 -0.11824757780E+02  0.24375565858E+03  0.24611531249E+03  0.00000000000E+00 0.  1.
          5    1    4    4  501    0 -0.19766821853E+02  0.40647632449E+02 -0.82879405003E+02  0.94495637167E+02  0.41800000000E+01 0. -1.
         -5    1    4    4    0  501 -0.81428167480E+01  0.29439100583E+01  0.45048661620E+02  0.46063286735E+02  0.41800000000E+01 0. -1.
</event>
<event>
11    1  0.8551154E-009  0.1469009E+03  0.7561462E-02  0.1100088E+00
         22   -1    0    0    0    0  0.00000000000E+00  0.00000000000E+00  0.19067335411E+04  0.19067335411E+04  0.00000000000E+00 0.  1.
         22   -1    0    0    0    0 -0.00000000000E+00 -0.00000000000E+00 -0.46589808440E+03  0.46589808440E+03  0.00000000000E+00 0. -1.
        -24    2    1    2    0    0  0.55350689970E+02 -0.34755776593E+02 -0.36598136807E+03  0.37990762013E+03  0.78203421754E+02 0.  0.
         25    2    1    2    0    0 -0.11499869776E+03  0.81490217879E+02  0.62466076341E+01  0.18854557539E+03  0.12508020545E+03 0.  0.
         24    2    1    2    0    0  0.59648007787E+02 -0.46734441287E+02  0.18005702172E+04  0.18041784300E+04  0.85233253890E+02 0.  0.
        -13    1    5    5    0    0 -0.15080794189E+02  0.41334734868E-01  0.67228485494E+03  0.67245398225E+03  0.00000000000E+00 0.  1.
         14    1    5    5    0    0  0.74728801976E+02 -0.46775776021E+02  0.11282853622E+04  0.11317244478E+04  0.00000000000E+00 0. -1.
         11    1    3    3    0    0  0.44557972053E+02 -0.57625509615E+02 -0.21982594606E+03  0.23158056653E+03  0.00000000000E+00 0. -1.
        -12    1    3    3    0    0  0.10792717917E+02  0.22869733022E+02 -0.14615542200E+03  0.14832705360E+03  0.00000000000E+00 0.  1.
          5    1    4    4  501    0  0.73804851767E+01 -0.23587477902E+02 -0.86203461380E+01  0.26507045153E+02  0.41800000000E+01 0.  1.
         -5    1    4    4    0  501 -0.12237918293E+03  0.10507769578E+03  0.14866953772E+02  0.16203853023E+03  0.41800000000E+01 0.  1.
</event>
<event>
11    1  0.8551154E-009  0.1314579E+03  0.7561462E-02  0.1117491E+00
         22   -1    0    0    0    0  0.00000000000E+00  0.00000000000E+00  0.33595118140E+03  0.33595118140E+03  0.00000000000E+00 0.  1.
         22   -1    0    0    0    0 -0.00000000000E+00 -0.00000000000E+00 -0.41741725794E+03  0.41741725794E+03  0.00000000000E+00 0. -1.
        -24    2    1    2    0    0 -0.86432309079E+01  0.39645742385E+02 -0.29589233705E+03  0.30939963721E+03  0.80804517526E+02 0.  0.
         25    2    1    2    0    0  0.20186086710E+02  0.13733817439E+01 -0.70383329418E+02  0.14495242665E+03  0.12509208071E+03 0.  0.
         24    2    1    2    0    0 -0.11542855802E+02 -0.41019124129E+02  0.28480958993E+03  0.29901637549E+03  0.80489031728E+02 0.  0.
        -13    1    5    5    0    0 -0.19736919393E+02 -0.63371278267E+02  0.22677084342E+03  0.23628474415E+03  0.00000000000E+00 0.  1.
         14    1    5    5    0    0  0.81940635909E+01  0.22352154138E+02  0.58038746513E+02  0.62731631332E+02  0.00000000000E+00 0. -1.
         11    1    3    3    0    0  0.53358214477E+01  0.81089321152E+01 -0.25790131189E+03  0.25808392520E+03  0.00000000000E+00 0. -1.
        -12    1    3    3    0    0 -0.13979052356E+02  0.31536810270E+02 -0.37991025153E+02  0.51315712008E+02  0.00000000000E+00 0.  1.
          5    1    4    4  501    0 -0.21800689145E+02  0.86931073211E+01 -0.93358456968E+02  0.96354107590E+02  0.41800000000E+01 0.  1.
         -5    1    4    4    0  501  0.41986775854E+02 -0.73197255773E+01  0.22975127549E+02  0.48598319056E+02  0.41800000000E+01 0.  1.
</event>
<event>
11    1  0.8551154E-009  0.2226474E+03  0.7561462E-02  0.1039572E+00
         22   -1    0    0    0    0  0.00000000000E+00  0.00000000000E+00  0.15887700408E+03  0.15887700408E+03  0.00000000000E+00 0.  1.
         22   -1    0    0    0    0 -0.00000000000E+00 -0.00000000000E+00 -0.21303866201E+04  0.21303866201E+04  0.00000000000E+00 0.  1.
        -24    2    1    2    0    0 -0.48076574939E+02  0.18597444641E+03 -0.17199123887E+04  0.17324374186E+04  0.79642529454E+02 0.  0.
         25    2    1    2    0    0 -0.30220865397E+02 -0.15936379330E+03 -0.34958467202E+03  0.40517490315E+03  0.12508852830E+03 0.  0.
         24    2    1    2    0    0  0.78297440336E+02 -0.26610653105E+02  0.97987444738E+02  0.15165130247E+03  0.80981245941E+02 0.  0.
        -13    1    5    5    0    0  0.14424647519E+02 -0.17626690230E+02  0.82129179086E+02  0.85228942982E+02  0.00000000000E+00 0.  1.
         14    1    5    5    0    0  0.63872792816E+02 -0.89839628751E+01  0.15858265652E+02  0.66422359493E+02  0.00000000000E+00 0. -1.
         11    1    3    3    0    0 -0.65516199190E+01  0.11532696744E+02 -0.27283472147E+02  0.30336688517E+02  0.00000000000E+00 0. -1.
        -12    1    3    3    0    0 -0.41524955020E+02  0.17444174966E+03 -0.16926289166E+04  0.17021007300E+04  0.00000000000E+00 0.  1.
          5    1    4    4  501    0 -0.52183949084E+02 -0.55077638442E+02 -0.24213471301E+03  0.25377825447E+03  0.41800000000E+01 0.  1.
         -5    1    4    4    0  501  0.21963083688E+02 -0.10428615486E+03 -0.10744995901E+03  0.15139664868E+03  0.41800000000E+01 0.  1.
</event>
<event>
11    1  0.8551154E-009  0.1344814E+03  0.7561462E-02  0.1113882E+00
         22   -1    0    0    0    0  0.00000000000E+00  0.00000000000E+00  0.36950502281E+04  0.36950502281E+04  0.00000000000E+00 0. -1.
         22   -1    0    0    0    0 -0.00000000000E+00 -0.00000000000E+00 -0.34628652788E+02  0.34628652788E+02  0.00000000000E+00 0. -1.
         24    2    1    2    0    0  0.19789619293E+02 -0.48583998680E+02  0.76822013360E+02  0.12275165738E+03  0.80089410622E+02 0.  0.
         25    2    1    2    0    0 -0.20745920416E+02  0.31985456746E+02  0.37181057632E+03  0.39413641711E+03  0.12508776109E+03 0.  0.
        -24    2    1    2    0    0  0.95630112255E+00  0.16598541934E+02  0.32117889856E+04  0.32127908064E+04  0.78484720269E+02 0.  0.
        -13    1    3    3    0    0  0.46163802228E+02 -0.28637818412E+02  0.21755320489E+02  0.58519357901E+02  0.00000000000E+00 0.  1.
         14    1    3    3    0    0 -0.26374182935E+02 -0.19946180268E+02  0.55066692872E+02  0.64232299481E+02  0.00000000000E+00 0. -1.
         13    1    5    5    0    0  0.32972132984E+01  0.32049265521E+02  0.30655392007E+04  0.30657085019E+04  0.00000000000E+00 0. -1.
        -14    1    5    5    0    0 -0.23409121759E+01 -0.15450723588E+02  0.14624978486E+03  0.14708230451E+03  0.00000000000E+00 0.  1.
          5    1    4    4  501    0  0.42997004532E+02  0.45674452793E+02  0.22134887176E+03  0.23010365809E+03  0.41800000000E+01 0.  1.
         -5    1    4    4    0  501 -0.63742924948E+02 -0.13688996048E+02  0.15046170456E+03  0.16403275902E+03  0.41800000000E+01 0.  1.
</event>
<event>
11    1  0.8551154E-009  0.1623766E+03  0.7561462E-02  0.1084863E+00
         22   -1    0    0    0    0  0.00000000000E+00  0.00000000000E+00  0.23643138738E+03  0.23643138738E+03  0.00000000000E+00 0. -1.
         22   -1    0    0    0    0 -0.00000000000E+00 -0.00000000000E+00 -0.12841227153E+04  0.12841227153E+04  0.00000000000E+00 0.  1.
        -24    2    1    2    0    0 -0.10522222185E+02  0.28870867908E+02 -0.11445233862E+04  0.11478771942E+04  0.82122027488E+02 0.  0.
         25    2    1    2    0    0 -0.30228631346E+02  0.72188897867E+02 -0.65538938886E+02  0.16145720610E+03  0.12509224502E+03 0.  0.
         24    2    1    2    0    0  0.40750853531E+02 -0.10105976577E+03  0.16237099715E+03  0.21121970232E+03  0.79848065777E+02 0.  0.
        -13    1    5    5    0    0 -0.13590298274E+02 -0.38253027752E+02  0.98214208430E+02  0.10627333192E+03  0.00000000000E+00 0.  1.
         14    1    5    5    0    0  0.54341151805E+02 -0.62806738023E+02  0.64156788721E+02  0.10494637040E+03  0.00000000000E+00 0. -1.
         11    1    3    3    0    0 -0.15196332718E+02 -0.19753152605E+02 -0.14243358463E+03  0.14459751587E+03  0.00000000000E+00 0. -1.
        -12    1    3    3    0    0  0.46741105325E+01  0.48624020513E+02 -0.10020898015E+04  0.10032796784E+04  0.00000000000E+00 0.  1.
          5    1    4    4  501    0 -0.58683106567E+02 -0.80672727980E+01 -0.11401742747E+02  0.60467016004E+02  0.41800000000E+01 0. -1.
         -5    1    4    4    0  501  0.28454475221E+02  0.80256170665E+02 -0.54137196139E+02  0.10099019010E+03  0.41800000000E+01 0. -1.
</event>
<event>
11    1  0.8551154E-009  0.1640528E+03  0.7561462E-02  0.1083326E+00
         22   -1    0    0    0    0  0.00000000000E+00  0.00000000000E+00  0.13401973286E+03  0.13401973286E+03  0.00000000000E+00 0. -1.
         22   -1    0    0    0    0 -0.00000000000E+00 -0.00000000000E+00 -0.35734749124E+03  0.35734749124E+03  0.00000000000E+00 0. -1.
        -24    2    1    2    0    0 -0.89898900341E+02 -0.52049222549E+02 -0.17074109451E+03  0.21492671173E+03  0.79057170527E+02 0.  0.
         25    2    1    2    0    0  0.93321608914E+02  0.52337740111E+02  0.23155564465E+02  0.16622177095E+03  0.12508131452E+03 0.  0.
         24    2    1    2    0    0 -0.34227085727E+01 -0.28851756188E+00 -0.75742228335E+02  0.11021874143E+03  0.79996797638E+02 0.  0.
        -11    1    5    5    0    0  0.31095494596E+02 -0.14884755961E+02 -0.12432211256E+02  0.36647586836E+02  0.00000000000E+00 0.  1.
         12    1    5    5    0    0 -0.34518203168E+02  0.14596238399E+02 -0.63310017079E+02  0.73571154592E+02  0.00000000000E+00 0. -1.
         11    1    3    3    0    0 -0.94817924643E+02 -0.66093377826E+02 -0.15358186722E+03  0.19221384801E+03  0.00000000000E+00 0. -1.
        -12    1    3    3    0    0  0.49190243022E+01  0.14044155278E+02 -0.17159227282E+02  0.22712863722E+02  0.00000000000E+00 0.  1.
          5    1    4    4  501    0  0.71466678206E+02  0.93521339152E+02  0.17571851449E+02  0.11907967641E+03  0.41800000000E+01 0.  1.
         -5    1    4    4    0  501  0.21854930708E+02 -0.41183599042E+02  0.55837130164E+01  0.47142094537E+02  0.41800000000E+01 0.  1.
</event>
<event>
11    1  0.8551154E-009  0.1798329E+03  0.7561462E-02  0.1069778E+00
         22   -1    0    0    0    0  0.00000000000E+00  0.00000000000E+00  0.11102717626E+04  0.11102717626E+04  0.00000000000E+00 0. -1.
         22   -1    0    0    0    0 -0.00000000000E+00 -0.00000000000E+00 -0.13474503956E+04  0.13474503956E+04  0.00000000000E+00 0.  1.
        -24    2    1    2    0    0 -0.29967834777E+02 -0.52084908830E+02 -0.12675228069E+04  0.12715346509E+04  0.81088801212E+02 0.  0.
         25    2    1    2    0    0 -0.90425910200E+02  0.10048143854E+03  0.45737076686E+02  0.18976905630E+03  0.12508816818E+03 0.  0.
         24    2    1    2    0    0  0.12039374498E+03 -0.48396529710E+02  0.98460709717E+03  0.99641845096E+03  0.81004417780E+02 0.  0.
        -13    1    5    5    0    0  0.79190262990E+02  0.21747000548E+01  0.37160745123E+03  0.37995779355E+03  0.00000000000E+00 0.  1.
         14    1    5    5    0    0  0.41203481987E+02 -0.50571229765E+02  0.61299964594E+03  0.61646065740E+03  0.00000000000E+00 0. -1.
         11    1    3    3    0    0  0.16072439092E+02  0.11307717175E+02 -0.15220505351E+03  0.15346845304E+03  0.00000000000E+00 0. -1.
        -12    1    3    3    0    0 -0.46040273869E+02 -0.63392626005E+02 -0.11153177534E+04  0.11180661979E+04  0.00000000000E+00 0.  1.
          5    1    4    4  501    0 -0.22826582903E+02  0.30325502394E+02  0.78173725998E+02  0.87001682851E+02  0.41800000000E+01 0. -1.
         -5    1    4    4    0  501 -0.67599327297E+02  0.70155936147E+02 -0.32436649312E+02  0.10276737345E+03  0.41800000000E+01 0. -1.
</event>
<event>
11    1  0.8551154E-009  0.2024872E+03  0.7561462E-02  0.1052779E+00
         22   -1    0    0    0    0  0.00000000000E+00  0.00000000000E+00  0.15790374929E+03  0.15790374929E+03  0.00000000000E+00 0.  1.
         22   -1    0    0    0    0 -0.00000000000E+00 -0.00000000000E+00 -0.94449366515E+03  0.94449366515E+03  0.00000000000E+00 0. -1.
        -24    2    1    2    0    0 -0.67143667958E+02  0.63900600679E+02 -0.43139422071E+03  0.44857824616E+03  0.80807860704E+02 0.  0.
         25    2    1    2    0    0  0.21129059202E+03 -0.10029541583E+03 -0.39918933675E+03  0.47927340085E+03  0.12509189211E+03 0.  0.
         24    2    1    2    0    0 -0.14414692406E+03  0.36394815155E+02  0.43993641598E+02  0.17454576744E+03  0.80173974237E+02 0.  0.
        -13    1    5    5    0    0 -0.10731424254E+03  0.52188410386E+02  0.62510373725E+01  0.11949498859E+03  0.00000000000E+00 0.  1.
         14    1    5    5    0    0 -0.36832681520E+02 -0.15793595231E+02  0.37742604225E+02  0.55050778850E+02  0.00000000000E+00 0. -1.
         11    1    3    3    0    0 -0.67620504788E+02  0.10745897224E+02 -0.27506912221E+03  0.28346257067E+03  0.00000000000E+00 0. -1.
        -12    1    3    3    0    0  0.47683683034E+00  0.53154703455E+02 -0.15632509850E+03  0.16511567549E+03  0.00000000000E+00 0.  1.
          5    1    4    4  501    0  0.38648058062E+02 -0.59551044504E+02 -0.47980480171E+02  0.85788100404E+02  0.41800000000E+01 0.  1.
         -5    1    4    4    0  501  0.17264253396E+03 -0.40744371330E+02 -0.35120885658E+03  0.39348530044E+03  0.41800000000E+01 0.  1.
</event>
<event>
11    1  0.8551154E-009  0.1722783E+03  0.7561462E-02  0.1076066E+00
         22   -1    0    0    0    0  0.00000000000E+00  0.00000000000E+00  0.67943119957E+03  0.67943119957E+03  0.00000000000E+00 0. -1.
         22   -1    0    0    0    0 -0.00000000000E+00 -0.00000000000E+00 -0.56869624781E+03  0.56869624781E+03  0.00000000000E+00 0. -1.
         24    2    1    2    0    0  0.14735009338E+02 -0.29638675947E+02 -0.51407922349E+03  0.52109388713E+03  0.78522732831E+02 0.  0.
         25    2    1    2    0    0 -0.12692519232E+03 -0.40390384245E+01  0.15437655176E+03  0.23580864923E+03  0.12508909241E+03 0.  0.
        -24    2    1    2    0    0  0.11219018299E+03  0.33677714372E+02  0.47043762350E+03  0.49122491102E+03  0.79180363721E+02 0.  0.
        -11    1    3    3    0    0 -0.11047091674E+02 -0.32011761926E+02 -0.88969384147E+02  0.95196336335E+02  0.00000000000E+00 0.  1.
         12    1    3    3    0    0  0.25782101012E+02  0.23730859791E+01 -0.42510983934E+03  0.42589755080E+03  0.00000000000E+00 0. -1.
         11    1    5    5    0    0  0.63293373036E+02  0.94254512527E+01  0.11486101607E+03  0.13148362337E+03  0.00000000000E+00 0. -1.
        -12    1    5    5    0    0  0.48896809950E+02  0.24252263119E+02  0.35557660743E+03  0.35974128765E+03  0.00000000000E+00 0.  1.
          5    1    4    4  501    0 -0.82537717081E+02  0.55331041497E+02  0.11402734929E+03  0.15130666767E+03  0.41800000000E+01 0. -1.
         -5    1    4    4    0  501 -0.44387475243E+02 -0.59370079921E+02  0.40349202466E+02  0.84501981562E+02  0.41800000000E+01 0. -1.
</event>
<event>
11    1  0.8551154E-009  0.1433590E+03  0.7561462E-02  0.1103864E+00
         22   -1    0    0    0    0  0.00000000000E+00  0.00000000000E+00  0.87030087768E+02  0.87030087768E+02  0.00000000000E+00 0. -1.
         22   -1    0    0    0    0 -0.00000000000E+00 -0.00000000000E+00 -0.58618927845E+03  0.58618927845E+03  0.00000000000E+00 0.  1.
        -24    2    1    2    0    0 -0.51159111096E+02  0.50793561928E+02 -0.42490539814E+03  0.43848099197E+03  0.80769687194E+02 0.  0.
         25    2    1    2    0    0  0.26158302028E+02 -0.50389830486E+02 -0.40347703758E+02  0.14317996859E+03  0.12509666033E+03 0.  0.
         24    2    1    2    0    0  0.25000809069E+02 -0.40373144159E+00 -0.33906088788E+02  0.91558405659E+02  0.81290315148E+02 0.  0.
        -11    1    5    5    0    0  0.43779719026E+02 -0.12908704807E+02 -0.46964639344E+02  0.65490272610E+02  0.00000000000E+00 0.  1.
         12    1    5    5    0    0 -0.18778909958E+02  0.12504973365E+02  0.13058550556E+02  0.26068133049E+02  0.00000000000E+00 0. -1.
         13    1    3    3    0    0 -0.44527927658E+02  0.59388230180E+01 -0.90713836680E+02  0.10122749688E+03  0.00000000000E+00 0. -1.
        -14    1    3    3    0    0 -0.66311834382E+01  0.44854738910E+02 -0.33419156146E+03  0.33725349509E+03  0.00000000000E+00 0.  1.
          5    1    4    4  501    0  0.60014097993E+02 -0.74063319076E+02 -0.22813688876E+02  0.98107104690E+02  0.41800000000E+01 0. -1.
         -5    1    4    4    0  501 -0.33855795965E+02  0.23673488590E+02 -0.17534014882E+02  0.45072863902E+02  0.41800000000E+01 0. -1.
</event>
<event>
11    1  0.8551154E-009  0.1534087E+03  0.7561462E-02  0.1093446E+00
         22   -1    0    0    0    0  0.00000000000E+00  0.00000000000E+00  0.73683415740E+03  0.73683415740E+03  0.00000000000E+00 0.  1.
         22   -1    0    0    0    0 -0.00000000000E+00 -0.00000000000E+00 -0.14912916784E+03  0.14912916784E+03  0.00000000000E+00 0. -1.
         24    2    1    2    0    0  0.71436011201E+02  0.49604695509E+02 -0.94949308937E+02  0.15249935437E+03  0.81712620218E+02 0.  0.
         25    2    1    2    0    0 -0.79979584656E+02 -0.79324313902E+02  0.32875684308E+03  0.36934751275E+03  0.12508973805E+03 0.  0.
        -24    2    1    2    0    0  0.85435734550E+01  0.29719618393E+02  0.35389745541E+03  0.36411645812E+03  0.79882024034E+02 0.  0.
        -11    1    3    3    0    0  0.44603842075E+02 -0.14340798539E+02 -0.21709668289E+02  0.51637882682E+02  0.00000000000E+00 0.  1.
         12    1    3    3    0    0  0.26832169126E+02  0.63945494048E+02 -0.73239640647E+02  0.10086147169E+03  0.00000000000E+00 0. -1.
         11    1    5    5    0    0  0.23772343312E+02 -0.17456223094E+02  0.70573296776E+02  0.76488131426E+02  0.00000000000E+00 0. -1.
        -12    1    5    5    0    0 -0.15228769857E+02  0.47175841487E+02  0.28332415863E+03  0.28762832669E+03  0.00000000000E+00 0.  1.
          5    1    4    4  501    0 -0.49797608156E+02  0.15694282597E+02  0.19831636368E+03  0.20511695393E+03  0.41800000000E+01 0.  1.
         -5    1    4    4    0  501 -0.30181976500E+02 -0.95018596499E+02  0.13044047940E+03  0.16423055882E+03  0.41800000000E+01 0.  1.
</event>
<event>
11    1  0.1393465E-008  0.1779219E+03  0.7561462E-02  0.1071336E+00
         22   -1    0    0    0    0  0.00000000000E+00  0.00000000000E+00  0.46697899196E+03  0.46697899196E+03  0.00000000000E+00 0.  1.
         22   -1    0    0    0    0 -0.00000000000E+00 -0.00000000000E+00 -0.26903042227E+04  0.26903042227E+04  0.00000000000E+00 0. -1.
        -24    2    1    2    0    0 -0.12860745706E+02  0.32467375095E+01 -0.20125821770E+04  0.20142460921E+04  0.80773512029E+02 0.  0.
         25    2    1    2    0    0  0.75821998206E+02  0.10641652403E+03 -0.65076438069E+03  0.67543707508E+03  0.12509001247E+03 0.  0.
         24    2    1    2    0    0 -0.62961252500E+02 -0.10966326154E+03  0.44002132696E+03  0.46760004747E+03  0.95083573605E+02 0.  0.
        -13    1    5    5    0    0 -0.77375880543E+02 -0.11771549986E+03  0.37722832353E+03  0.40267253926E+03  0.00000000000E+00 0.  1.
         14    1    5    5    0    0  0.14414628043E+02  0.80522383217E+01  0.62793003427E+02  0.64927508215E+02  0.00000000000E+00 0. -1.
         11    1    3    3    0    0 -0.43793773334E+02 -0.82815452006E+01 -0.14589278972E+04  0.14596085393E+04  0.00000000000E+00 0. -1.
        -12    1    3    3    0    0  0.30933027628E+02  0.11528282710E+02 -0.55365427980E+03  0.55463755286E+03  0.00000000000E+00 0.  1.
          5    1    4    4  501    0 -0.24453780716E+02 -0.90492124499E+01 -0.68620306992E+02  0.73526148878E+02  0.41800000000E+01 0.  1.
         -5    1    4    4    0  501  0.10027577892E+03  0.11546573648E+03 -0.58214407370E+03  0.60191092620E+03  0.41800000000E+01 0.  1.
</event>
<event>
11    1  0.8551154E-009  0.1514927E+03  0.7561462E-02  0.1095363E+00
         22   -1    0    0    0    0  0.00000000000E+00  0.00000000000E+00  0.90646280140E+03  0.90646280140E+03  0.00000000000E+00 0.  1.
         22   -1    0    0    0    0 -0.00000000000E+00 -0.00000000000E+00 -0.35391896739E+03  0.35391896739E+03  0.00000000000E+00 0. -1.
         24    2    1    2    0    0 -0.72178097196E+02  0.56995459737E+02 -0.19020379562E+03  0.22526101502E+03  0.78146534647E+02 0.  0.
         25    2    1    2    0    0 -0.21233647137E+01 -0.97513997986E+02 -0.97986877089E+02  0.18644881720E+03  0.12509294493E+03 0.  0.
        -24    2    1    2    0    0  0.74301461910E+02  0.40518538249E+02  0.84073450671E+03  0.84867193656E+03  0.79038509318E+02 0.  0.
        -11    1    3    3    0    0  0.75969694299E+01  0.18173487328E+02 -0.56533614534E+01  0.20492683618E+02  0.00000000000E+00 0.  1.
         12    1    3    3    0    0 -0.79775066626E+02  0.38821972409E+02 -0.18455043416E+03  0.20476833141E+03  0.00000000000E+00 0. -1.
         13    1    5    5    0    0  0.89061069913E+01 -0.20966761759E+02  0.10251888288E+03  0.10501926103E+03  0.00000000000E+00 0. -1.
        -14    1    5    5    0    0  0.65395354919E+02  0.61485300009E+02  0.73821562383E+03  0.74365267553E+03  0.00000000000E+00 0.  1.
          5    1    4    4  501    0 -0.58712384578E+02 -0.58987257841E+02 -0.26650190942E+02  0.87489117996E+02  0.41800000000E+01 0. -1.
         -5    1    4    4    0  501  0.56589019865E+02 -0.38526740145E+02 -0.71336686147E+02  0.98959699201E+02  0.41800000000E+01 0. -1.
</event>
<event>
11    1  0.8551154E-009  0.2262165E+03  0.7561462E-02  0.1037392E+00
         22   -1    0    0    0    0  0.00000000000E+00  0.00000000000E+00  0.17062684743E+04  0.17062684743E+04  0.00000000000E+00 0.  1.
         22   -1    0    0    0    0 -0.00000000000E+00 -0.00000000000E+00 -0.82495640130E+03  0.82495640130E+03  0.00000000000E+00 0.  1.
        -24    2    1    2    0    0 -0.81378664981E+02  0.17116818123E+03 -0.75628728135E+03  0.78350588359E+03  0.77394988928E+02 0.  0.
         25    2    1    2    0    0  0.85490756242E+01 -0.18396139878E+03  0.18069644024E+03  0.28672925182E+03  0.12509027701E+03 0.  0.
         24    2    1    2    0    0  0.72829589357E+02  0.12793217549E+02  0.14569029141E+04  0.14609897402E+04  0.80356109132E+02 0.  0.
        -11    1    5    5    0    0  0.42963348727E+02  0.23897307402E+02  0.12976228829E+04  0.12985538405E+04  0.00000000000E+00 0.  1.
         12    1    5    5    0    0  0.29866240630E+02 -0.11104089853E+02  0.15928003128E+03  0.16243589968E+03  0.00000000000E+00 0. -1.
         13    1    3    3    0    0  0.55991707151E+01  0.45424549257E+02 -0.26674762114E+03  0.27064558701E+03  0.00000000000E+00 0. -1.
        -14    1    3    3    0    0 -0.86977835696E+02  0.12574363197E+03 -0.48953966021E+03  0.51286029657E+03  0.00000000000E+00 0.  1.
          5    1    4    4  501    0  0.32571325205E+02 -0.36330420627E+02  0.11168607826E+03  0.12195098674E+03  0.41800000000E+01 0. -1.
         -5    1    4    4    0  501 -0.24022249581E+02 -0.14763097815E+03  0.69010361974E+02  0.16477826509E+03  0.41800000000E+01 0. -1.
</event>
<event>
11    1  0.8551154E-009  0.1561771E+03  0.7561462E-02  0.1090729E+00
         22   -1    0    0    0    0  0.00000000000E+00  0.00000000000E+00  0.79146239089E+03  0.79146239089E+03  0.00000000000E+00 0.  1.
         22   -1    0    0    0    0 -0.00000000000E+00 -0.00000000000E+00 -0.28267994046E+03  0.28267994046E+03  0.00000000000E+00 0.  1.
        -24    2    1    2    0    0 -0.76319356395E+02 -0.60132972119E+02 -0.22286444954E+03  0.25638794838E+03  0.81397780736E+02 0.  0.
         25    2    1    2    0    0  0.81808340388E+02 -0.63724785901E+01  0.10585189925E+03  0.18326058412E+03  0.12508638646E+03 0.  0.
         24    2    1    2    0    0 -0.54889839934E+01  0.66505450709E+02  0.62579500073E+03  0.63449379885E+03  0.80683913660E+02 0.  0.
        -13    1    5    5    0    0 -0.10512328674E+02  0.64177611775E+02  0.62558201559E+03  0.62895320425E+03  0.00000000000E+00 0.  1.
         14    1    5    5    0    0  0.50233446803E+01  0.23278389339E+01  0.21298514117E+00  0.55405946025E+01  0.00000000000E+00 0. -1.
         11    1    3    3    0    0  0.15743592189E+02 -0.12944902016E+02 -0.19426084901E+02  0.28156774634E+02  0.00000000000E+00 0. -1.
        -12    1    3    3    0    0 -0.92062948583E+02 -0.47188070103E+02 -0.20343836464E+03  0.22823117374E+03  0.00000000000E+00 0.  1.
          5    1    4    4  501    0  0.72342087504E+02  0.38078232395E+01 -0.37902595743E+01  0.72661651577E+02  0.41800000000E+01 0. -1.
         -5    1    4    4    0  501  0.94662528840E+01 -0.10180301830E+02  0.10964215882E+03  0.11059893254E+03  0.41800000000E+01 0. -1.
</event>
<event>
11    1  0.8551154E-009  0.4640125E+03  0.7561462E-02  0.9477739E-01
         22   -1    0    0    0    0  0.00000000000E+00  0.00000000000E+00  0.20925691161E+04  0.20925691161E+04  0.00000000000E+00 0. -1.
         22   -1    0    0    0    0 -0.00000000000E+00 -0.00000000000E+00 -0.78129227707E+03  0.78129227707E+03  0.00000000000E+00 0.  1.
         24    2    1    2    0    0 -0.31905100576E+03 -0.28976865536E+03 -0.56505262211E+03  0.71516948319E+03  0.80146778037E+02 0.  0.
         25    2    1    2    0    0  0.42983820385E+03  0.40034722253E+03  0.53064905957E+03  0.80141976418E+03  0.12508570627E+03 0.  0.
        -24    2    1    2    0    0 -0.11078719809E+03 -0.11057856718E+03  0.13456804016E+04  0.13572721458E+04  0.82646910517E+02 0.  0.
        -11    1    3    3    0    0 -0.22792429555E+03 -0.25149349947E+03 -0.42998567943E+03  0.54780119504E+03  0.00000000000E+00 0.  1.
         12    1    3    3    0    0 -0.91126710213E+02 -0.38275155888E+02 -0.13506694268E+03  0.16736828815E+03  0.00000000000E+00 0. -1.
         11    1    5    5    0    0 -0.84713426025E+02 -0.59195833708E+02  0.11036239972E+04  0.11084522716E+04  0.00000000000E+00 0. -1.
        -12    1    5    5    0    0 -0.26073772066E+02 -0.51382733469E+02  0.24205640443E+03  0.24881987423E+03  0.00000000000E+00 0.  1.
          5    1    4    4  501    0  0.25783863420E+03  0.26177616186E+03  0.25082600707E+03  0.44490299890E+03  0.41800000000E+01 0. -1.
         -5    1    4    4    0  501  0.17199956965E+03  0.13857106067E+03  0.27982305250E+03  0.35651676528E+03  0.41800000000E+01 0. -1.
</event>
<event>
11    1  0.8551154E-009  0.1323706E+03  0.7561462E-02  0.1116390E+00
         22   -1    0    0    0    0  0.00000000000E+00  0.00000000000E+00  0.15463004463E+04  0.15463004463E+04  0.00000000000E+00 0.  1.
         22   -1    0    0    0    0 -0.00000000000E+00 -0.00000000000E+00 -0.48263023664E+02  0.48263023664E+02  0.00000000000E+00 0. -1.
         24    2    1    2    0    0  0.17084030182E+02  0.36688216683E+02  0.49568843642E+02  0.10238176179E+03  0.79919118848E+02 0.  0.
         25    2    1    2    0    0 -0.38135612764E+01 -0.53958113017E+02  0.20419537475E+03  0.24549963879E+03  0.12509316674E+03 0.  0.
        -24    2    1    2    0    0 -0.13270468906E+02  0.17269896334E+02  0.12442732042E+04  0.12466820694E+04  0.74337209077E+02 0.  0.
        -13    1    3    3    0    0  0.16898275965E+02 -0.53151630018E+01  0.57032289096E+02  0.59720052644E+02  0.00000000000E+00 0.  1.
         14    1    3    3    0    0  0.18575421766E+00  0.42003379685E+02 -0.74634454535E+01  0.42661709150E+02  0.00000000000E+00 0. -1.
         13    1    5    5    0    0  0.15747249430E+02  0.14910414530E+02  0.11460461903E+03  0.11663839432E+03  0.00000000000E+00 0. -1.
        -14    1    5    5    0    0 -0.29017718336E+02  0.23594818044E+01  0.11296685852E+04  0.11300436750E+04  0.00000000000E+00 0.  1.
          5    1    4    4  501    0  0.81030425639E+01 -0.93568186026E+02  0.15266106466E+03  0.17928618964E+03  0.41800000000E+01 0.  1.
         -5    1    4    4    0  501 -0.11916603840E+02  0.39610073008E+02  0.51534310095E+02  0.66213449146E+02  0.41800000000E+01 0.  1.
</event>
<event>
11    1  0.8551154E-009  0.1450289E+03  0.7561462E-02  0.1102069E+00
         22   -1    0    0    0    0  0.00000000000E+00  0.00000000000E+00  0.32796832955E+04  0.32796832955E+04  0.00000000000E+00 0. -1.
         22   -1    0    0    0    0 -0.00000000000E+00 -0.00000000000E+00 -0.43593099992E+03  0.43593099992E+03  0.00000000000E+00 0.  1.
        -24    2    1    2    0    0 -0.14485756503E+02 -0.28025783086E+02 -0.39773261884E+03  0.40693519108E+03  0.80060801814E+02 0.  0.
         25    2    1    2    0    0  0.69345692507E+01  0.10026341703E+03  0.16455885889E+03  0.22984564915E+03  0.12509421789E+03 0.  0.
         24    2    1    2    0    0  0.75511872519E+01 -0.72237633941E+02  0.30769260555E+04  0.30788334552E+04  0.80412669632E+02 0.  0.
        -11    1    5    5    0    0  0.36258326481E+02 -0.70446221629E+01  0.96632651905E+03  0.96703217856E+03  0.00000000000E+00 0.  1.
         12    1    5    5    0    0 -0.28707139229E+02 -0.65193011779E+02  0.21105995364E+04  0.21118012766E+04  0.00000000000E+00 0. -1.
         13    1    3    3    0    0 -0.45748507722E+01  0.25103203351E+02 -0.64773465916E+02  0.69618258846E+02  0.00000000000E+00 0. -1.
        -14    1    3    3    0    0 -0.99109057304E+01 -0.53128986437E+02 -0.33295915292E+03  0.33731693223E+03  0.00000000000E+00 0.  1.
          5    1    4    4  501    0  0.67953518148E+01 -0.19852654190E+00  0.11932318996E+03  0.11958976663E+03  0.41800000000E+01 0. -1.
         -5    1    4    4    0  501  0.13921743590E+00  0.10046194357E+03  0.45235668925E+02  0.11025588252E+03  0.41800000000E+01 0. -1.
</event>
<event>
11    1  0.8551154E-009  0.1534182E+03  0.7561462E-02  0.1093436E+00
         22   -1    0    0    0    0  0.00000000000E+00  0.00000000000E+00  0.74618660449E+02  0.74618660449E+02  0.00000000000E+00 0. -1.
         22   -1    0    0    0    0 -0.00000000000E+00 -0.00000000000E+00 -0.15725863916E+04  0.15725863916E+04  0.00000000000E+00 0.  1.
         24    2    1    2    0    0  0.52798555911E+02 -0.80050193893E+02 -0.13421464667E+04  0.13479519286E+04  0.80134528312E+02 0.  0.
         25    2    1    2    0    0 -0.88988377362E+01  0.29918790692E+02 -0.14768937388E+03  0.19604603181E+03  0.12509025575E+03 0.  0.
        -24    2    1    2    0    0 -0.43899718174E+02  0.50131403201E+02 -0.81318905271E+01  0.10320709161E+03  0.78391538273E+02 0.  0.
        -11    1    3    3    0    0 -0.12662914617E+02 -0.90402374584E+00 -0.40406755203E+03  0.40426693318E+03  0.00000000000E+00 0.  1.
         12    1    3    3    0    0  0.65461470527E+02 -0.79146170148E+02 -0.93807891470E+03  0.94368499542E+03  0.00000000000E+00 0. -1.
         11    1    5    5    0    0 -0.11594754056E+02  0.43856729784E+02  0.28805418329E+02  0.53736423346E+02  0.00000000000E+00 0. -1.
        -12    1    5    5    0    0 -0.32304964118E+02  0.62746734173E+01 -0.36937308856E+02  0.49470668266E+02  0.00000000000E+00 0.  1.
          5    1    4    4  501    0  0.47204296637E+00  0.58410484594E+02 -0.15703587280E+02  0.60630706647E+02  0.41800000000E+01 0. -1.
         -5    1    4    4    0  501 -0.93708807025E+01 -0.28491693902E+02 -0.13198578660E+03  0.13541532517E+03  0.41800000000E+01 0. -1.
</event>
<event>
11    1  0.8551154E-009  0.1779157E+03  0.7561462E-02  0.1071341E+00
         22   -1    0    0    0    0  0.00000000000E+00  0.00000000000E+00  0.12849738497E+04  0.12849738497E+04  0.00000000000E+00 0.  1.
         22   -1    0    0    0    0 -0.00000000000E+00 -0.00000000000E+00 -0.70770807364E+03  0.70770807364E+03  0.00000000000E+00 0.  1.
        -24    2    1    2    0    0 -0.95313776068E+02  0.85289093898E+02 -0.66460665709E+03  0.68167354845E+03  0.81350307709E+02 0.  0.
         25    2    1    2    0    0  0.51575654351E+02 -0.85097254981E+02  0.16323988851E+03  0.22845142387E+03  0.12506478698E+03 0.  0.
         24    2    1    2    0    0  0.43738121716E+02 -0.19183891675E+00  0.10786325447E+04  0.10825569511E+04  0.81045208035E+02 0.  0.
        -13    1    5    5    0    0  0.12348054690E+02  0.28289573742E+02  0.81114369338E+03  0.81173078403E+03  0.00000000000E+00 0.  1.
         14    1    5    5    0    0  0.31390067027E+02 -0.28481412659E+02  0.26748885131E+03  0.27082616703E+03  0.00000000000E+00 0. -1.
         13    1    3    3    0    0  0.13771455628E+02  0.52620319240E+01 -0.41283976963E+02  0.43837298319E+02  0.00000000000E+00 0. -1.
        -14    1    3    3    0    0 -0.10908523170E+03  0.80027061974E+02 -0.62332268013E+03  0.63783625013E+03  0.00000000000E+00 0.  1.
          5    1    4    4  501    0 -0.14160962221E+02  0.23254349570E+02  0.55893911551E+02  0.62312914981E+02  0.41800000000E+01 0.  1.
         -5    1    4    4    0  501  0.65736616572E+02 -0.10835160455E+03  0.10734597696E+03  0.16613850889E+03  0.41800000000E+01 0.  1.
</event>
<event>
11    1  0.8551154E-009  0.1617448E+03  0.7561462E-02  0.1085448E+00
         22   -1    0    0    0    0  0.00000000000E+00  0.00000000000E+00  0.17111781906E+03  0.17111781906E+03  0.00000000000E+00 0. -1.
         22   -1    0    0    0    0 -0.00000000000E+00 -0.00000000000E+00 -0.25394026089E+04  0.25394026089E+04  0.00000000000E+00 0. -1.
         24    2    1    2    0    0  0.58235750390E+01 -0.23601135014E+02 -0.16562030030E+04  0.16585391788E+04  0.84574775831E+02 0.  0.
         25    2    1    2    0    0 -0.79567629652E+02 -0.48138044698E+02 -0.84921850871E+03  0.86340618158E+03  0.12509947970E+03 0.  0.
        -24    2    1    2    0    0  0.73744054613E+02  0.71739179712E+02  0.13713672191E+03  0.18857506757E+03  0.78545401630E+02 0.  0.
        -11    1    3    3    0    0 -0.53065133075E+00 -0.26010888925E+02 -0.14465544213E+03  0.14697634120E+03  0.00000000000E+00 0.  1.
         12    1    3    3    0    0  0.63542263698E+01  0.24097539114E+01 -0.15115475609E+04  0.15115628376E+04  0.00000000000E+00 0. -1.
         13    1    5    5    0    0  0.77685729556E+02  0.76678514316E+02  0.91297028990E+02  0.14230184341E+03  0.00000000000E+00 0. -1.
        -14    1    5    5    0    0 -0.39416749426E+01 -0.49393346039E+01  0.45839692923E+02  0.46273224169E+02  0.00000000000E+00 0.  1.
          5    1    4    4  501    0 -0.40870535263E+02 -0.89257621358E+02 -0.58436341608E+03  0.59256678786E+03  0.41800000000E+01 0.  1.
         -5    1    4    4    0  501 -0.38697094389E+02  0.41119576660E+02 -0.26485509263E+03  0.27083939372E+03  0.41800000000E+01 0.  1.
</event>
<event>
11    1  0.8551154E-009  0.1307647E+03  0.7561462E-02  0.1118333E+00
         22   -1    0    0    0    0  0.00000000000E+00  0.00000000000E+00  0.21835025719E+03  0.21835025719E+03  0.00000000000E+00 0. -1.
         22   -1    0    0    0    0 -0.00000000000E+00 -0.00000000000E+00 -0.15564176272E+04  0.15564176272E+04  0.00000000000E+00 0.  1.
         24    2    1    2    0    0 -0.13016935802E+02  0.27816496932E+02 -0.12107920729E+04  0.12139187915E+04  0.81475090685E+02 0.  0.
         25    2    1    2    0    0  0.50620304528E+02 -0.30038510720E+02 -0.31974186753E+03  0.34834917375E+03  0.12509019803E+03 0.  0.
        -24    2    1    2    0    0 -0.37603368726E+02  0.22220137880E+01  0.19246657048E+03  0.21249991910E+03  0.81816160874E+02 0.  0.
        -13    1    3    3    0    0 -0.38989424229E+02  0.10878497506E+02 -0.10039278190E+04  0.10047435408E+04  0.00000000000E+00 0.  1.
         14    1    3    3    0    0  0.25972488427E+02  0.16937999426E+02 -0.20686425391E+03  0.20917525074E+03  0.00000000000E+00 0. -1.
         13    1    5    5    0    0  0.77472541165E+01  0.78699930648E+01  0.14906636066E+03  0.14947486952E+03  0.00000000000E+00 0. -1.
        -14    1    5    5    0    0 -0.45350622842E+02 -0.56479792768E+01  0.43400209815E+02  0.63025049576E+02  0.00000000000E+00 0.  1.
          5    1    4    4  501    0 -0.28492190714E+01  0.15436873857E+00  0.10905322175E+02  0.12022492702E+02  0.41800000000E+01 0. -1.
         -5    1    4    4    0  501  0.53469523599E+02 -0.30192879458E+02 -0.33064718971E+03  0.33632668105E+03  0.41800000000E+01 0. -1.
</event>
<event>
11    1  0.8551154E-009  0.1309802E+03  0.7561462E-02  0.1118071E+00
         22   -1    0    0    0    0  0.00000000000E+00  0.00000000000E+00  0.41982270836E+03  0.41982270836E+03  0.00000000000E+00 0.  1.
         22   -1    0    0    0    0 -0.00000000000E+00 -0.00000000000E+00 -0.48017760329E+03  0.48017760329E+03  0.00000000000E+00 0. -1.
         24    2    1    2    0    0 -0.31807432263E+02 -0.21406820292E+02 -0.44046836049E+03  0.44938079378E+03  0.80378831301E+02 0.  0.
         25    2    1    2    0    0  0.41378332768E+02  0.42372426400E+02  0.14171390796E+03  0.19808434713E+03  0.12508792079E+03 0.  0.
        -24    2    1    2    0    0 -0.95709005053E+01 -0.20965606108E+02  0.23839955761E+03  0.25253517074E+03  0.80053136205E+02 0.  0.
        -11    1    3    3    0    0  0.25128603483E+02  0.52478550619E+01 -0.15075902403E+03  0.15292897051E+03  0.00000000000E+00 0.  1.
         12    1    3    3    0    0 -0.56936035746E+02 -0.26654675354E+02 -0.28970933646E+03  0.29645182327E+03  0.00000000000E+00 0. -1.
         13    1    5    5    0    0  0.44850222582E+01  0.82785483344E+01 -0.22725084422E+01  0.96857669702E+01  0.00000000000E+00 0. -1.
        -14    1    5    5    0    0 -0.14055922763E+02 -0.29244154443E+02  0.24067206605E+03  0.24284940377E+03  0.00000000000E+00 0.  1.
          5    1    4    4  501    0  0.15330306498E+01 -0.43384226045E+02  0.48804686009E+02  0.65451593020E+02  0.41800000000E+01 0.  1.
         -5    1    4    4    0  501  0.39845302118E+02  0.85756652445E+02  0.92909221954E+02  0.13263275411E+03  0.41800000000E+01 0.  1.
</event>
<event>
11    1  0.8551154E-009  0.2188795E+03  0.7561462E-02  0.1041922E+00
         22   -1    0    0    0    0  0.00000000000E+00  0.00000000000E+00  0.10160625856E+04  0.10160625856E+04  0.00000000000E+00 0. -1.
         22   -1    0    0    0    0 -0.00000000000E+00 -0.00000000000E+00 -0.38726113708E+03  0.38726113708E+03  0.00000000000E+00 0.  1.
         24    2    1    2    0    0 -0.18925474400E+02 -0.21619735564E+02 -0.32722706309E+03  0.33789353420E+03  0.79176404872E+02 0.  0.
         25    2    1    2    0    0  0.19132678852E+03 -0.13943798266E+02  0.27642380880E+03  0.35896723725E+03  0.12508791242E+03 0.  0.
        -24    2    1    2    0    0 -0.17240131412E+03  0.35563533830E+02  0.67960470281E+03  0.70646295124E+03  0.78996021048E+02 0.  0.
        -11    1    3    3    0    0 -0.21433410235E+02 -0.11044285330E+02 -0.32607347717E+03  0.32696372860E+03  0.00000000000E+00 0.  1.
         12    1    3    3    0    0  0.25079358351E+01 -0.10575450234E+02 -0.11535859218E+01  0.10929805592E+02  0.00000000000E+00 0. -1.
         13    1    5    5    0    0 -0.95743920488E+02  0.14078838863E+02  0.51003672595E+03  0.51913637306E+03  0.00000000000E+00 0. -1.
        -14    1    5    5    0    0 -0.76657393628E+02  0.21484694967E+02  0.16956797686E+03  0.18732657818E+03  0.00000000000E+00 0.  1.
          5    1    4    4  501    0  0.82145787865E+02  0.51073972613E+02  0.83153862505E+02  0.12762647998E+03  0.41800000000E+01 0.  1.
         -5    1    4    4    0  501  0.10918100065E+03 -0.65017770879E+02  0.19326994629E+03  0.23134075727E+03  0.41800000000E+01 0.  1.
</event>
<event>
11    1  0.8551154E-009  0.1928789E+03  0.7561462E-02  0.1059677E+00
         22   -1    0    0    0    0  0.00000000000E+00  0.00000000000E+00  0.52397726993E+03  0.52397726993E+03  0.00000000000E+00 0. -1.
         22   -1    0    0    0    0 -0.00000000000E+00 -0.00000000000E+00 -0.58522784500E+03  0.58522784500E+03  0.00000000000E+00 0.  1.
         24    2    1    2    0    0  0.14032100031E+03  0.25846121117E+02 -0.47356918232E+03  0.50017497570E+03  0.74493159255E+02 0.  0.
         25    2    1    2    0    0 -0.18249264969E+03 -0.69701046279E+02  0.55141660126E+02  0.23843083042E+03  0.12508739014E+03 0.  0.
        -24    2    1    2    0    0  0.42171649382E+02  0.43854925162E+02  0.35717694711E+03  0.37059930880E+03  0.77889496483E+02 0.  0.
        -13    1    3    3    0    0  0.13766930555E+03  0.36835084898E+02 -0.37857308559E+03  0.40450864305E+03  0.00000000000E+00 0.  1.
         14    1    3    3    0    0  0.26516947624E+01 -0.10988963781E+02 -0.94996096731E+02  0.95666332658E+02  0.00000000000E+00 0. -1.
         11    1    5    5    0    0  0.10530434196E+02 -0.22145220767E+02  0.67415943327E+02  0.71737091256E+02  0.00000000000E+00 0. -1.
        -12    1    5    5    0    0  0.31641215186E+02  0.66000145929E+02  0.28976100379E+03  0.29886221755E+03  0.00000000000E+00 0.  1.
          5    1    4    4  501    0 -0.15135256364E+03 -0.45172100318E+02 -0.13998072574E+02  0.15862388093E+03  0.41800000000E+01 0.  1.
         -5    1    4    4    0  501 -0.31140086054E+02 -0.24528945961E+02  0.69139732700E+02  0.79806949492E+02  0.41800000000E+01 0.  1.
</event>
<event>
11    1  0.8551154E-009  0.1297318E+03  0.7561462E-02  0.1119599E+00
         22   -1    0    0    0    0  0.00000000000E+00  0.00000000000E+00  0.62002937151E+03  0.62002937151E+03  0.00000000000E+00 0.  1.
         22   -1    0    0    0    0 -0.00000000000E+00 -0.00000000000E+00 -0.35935549762E+03  0.35935549762E+03  0.00000000000E+00 0.  1.
        -24    2    1    2    0    0  0.42151000486E+02 -0.14240732306E+02 -0.20223468316E+03  0.22333706376E+03  0.83672406918E+02 0.  0.
         25    2    1    2    0    0 -0.96817827676E+01 -0.44434129224E+01 -0.11544194809E+03  0.17055439166E+03  0.12509386995E+03 0.  0.
         24    2    1    2    0    0 -0.32469217719E+02  0.18684145229E+02  0.57835050513E+03  0.58549341371E+03  0.83125707984E+02 0.  0.
        -13    1    5    5    0    0 -0.30435110945E+02 -0.18045146774E+02  0.46454314325E+03  0.46588867258E+03  0.00000000000E+00 0.  1.
         14    1    5    5    0    0 -0.20341067741E+01  0.36729292002E+02  0.11380736189E+03  0.11960474113E+03  0.00000000000E+00 0. -1.
         11    1    3    3    0    0  0.97582096213E+01 -0.67140269927E+00  0.64508522510E+01  0.11716950600E+02  0.00000000000E+00 0. -1.
        -12    1    3    3    0    0  0.32392790865E+02 -0.13569329607E+02 -0.20868553541E+03  0.21162011316E+03  0.00000000000E+00 0.  1.
          5    1    4    4  501    0 -0.25472983721E+02 -0.20748946367E+02  0.16225063844E+02  0.36879761004E+02  0.41800000000E+01 0.  1.
         -5    1    4    4    0  501  0.15791200954E+02  0.16305533445E+02 -0.13166701193E+03  0.13367463065E+03  0.41800000000E+01 0.  1.
</event>
<event>
11    1  0.8551154E-009  0.1549576E+03  0.7561462E-02  0.1091918E+00
         22   -1    0    0    0    0  0.00000000000E+00  0.00000000000E+00  0.73092153281E+03  0.73092153281E+03  0.00000000000E+00 0.  1.
         22   -1    0    0    0    0 -0.00000000000E+00 -0.00000000000E+00 -0.15088908549E+03  0.15088908549E+03  0.00000000000E+00 0.  1.
         24    2    1    2    0    0  0.53150220660E+02  0.90451472088E+02 -0.78464892512E+02  0.15436525393E+03  0.81642375664E+02 0.  0.
         25    2    1    2    0    0 -0.56267565965E+02  0.28547770208E+00  0.14442102721E+03  0.19917110509E+03  0.12508227502E+03 0.  0.
        -24    2    1    2    0    0  0.31173453054E+01 -0.90736949790E+02  0.51407631262E+03  0.52827425928E+03  0.80971142570E+02 0.  0.
        -13    1    3    3    0    0  0.41233302233E+02  0.10546561821E+03 -0.71738331482E+02  0.13405062492E+03  0.00000000000E+00 0.  1.
         14    1    3    3    0    0  0.11916918427E+02 -0.15014146120E+02 -0.67265610301E+01  0.20314629010E+02  0.00000000000E+00 0. -1.
         13    1    5    5    0    0 -0.14179938596E+02 -0.90890146954E+02  0.30723311084E+03  0.32070901744E+03  0.00000000000E+00 0. -1.
        -14    1    5    5    0    0  0.17297283901E+02  0.15319716399E+00  0.20684320178E+03  0.20756524184E+03  0.00000000000E+00 0.  1.
          5    1    4    4  501    0 -0.55425085460E+02 -0.56490634135E+02  0.95537697594E+02  0.12412919038E+03  0.41800000000E+01 0.  1.
         -5    1    4    4    0  501 -0.84248050574E+00  0.56776111837E+02  0.48883329615E+02  0.75041914707E+02  0.41800000000E+01 0.  1.
</event>
<event>
11    1  0.8551154E-009  0.1384335E+03  0.7561462E-02  0.1109320E+00
         22   -1    0    0    0    0  0.00000000000E+00  0.00000000000E+00  0.65471611980E+03  0.65471611980E+03  0.00000000000E+00 0. -1.
         22   -1    0    0    0    0 -0.00000000000E+00 -0.00000000000E+00 -0.46727623252E+03  0.46727623252E+03  0.00000000000E+00 0. -1.
         24    2    1    2    0    0 -0.33774900900E+02 -0.45712355915E+02 -0.38367960384E+03  0.39783395920E+03  0.88495521203E+02 0.  0.
         25    2    1    2    0    0  0.14634566622E+02  0.10009444578E+03  0.17724838100E+02  0.16184613061E+03  0.12508769521E+03 0.  0.
        -24    2    1    2    0    0  0.19140334278E+02 -0.54382089864E+02  0.55339465301E+03  0.56231226251E+03  0.81398246263E+02 0.  0.
        -13    1    3    3    0    0 -0.50651833879E+02 -0.46471194613E+02 -0.16835590595E+03  0.18184853937E+03  0.00000000000E+00 0.  1.
         14    1    3    3    0    0  0.16876932979E+02  0.75883869764E+00 -0.21532369789E+03  0.21598541983E+03  0.00000000000E+00 0. -1.
         13    1    5    5    0    0 -0.19824199697E+02 -0.37572427376E+02  0.42430884855E+03  0.42643016445E+03  0.00000000000E+00 0. -1.
        -14    1    5    5    0    0  0.38964533975E+02 -0.16809662488E+02  0.12908580446E+03  0.13588209806E+03  0.00000000000E+00 0.  1.
          5    1    4    4  501    0 -0.29676513819E+02  0.54732007744E+02  0.59155335142E+02  0.85983220572E+02  0.41800000000E+01 0.  1.
         -5    1    4    4    0  501  0.44311080441E+02  0.45362438035E+02 -0.41430497042E+02  0.75862910038E+02  0.41800000000E+01 0.  1.
</event>
<event>
11    1  0.8551154E-009  0.1316655E+03  0.7561462E-02  0.1117239E+00
         22   -1    0    0    0    0  0.00000000000E+00  0.00000000000E+00  0.24455351492E+04  0.24455351492E+04  0.00000000000E+00 0.  1.
         22   -1    0    0    0    0 -0.00000000000E+00 -0.00000000000E+00 -0.76654666854E+03  0.76654666854E+03  0.00000000000E+00 0.  1.
         24    2    1    2    0    0  0.11691951579E+02 -0.39309166914E+02 -0.73884501418E+03  0.74479800605E+03  0.84558870068E+02 0.  0.
         25    2    1    2    0    0 -0.33171808304E+02  0.27330891674E+01  0.15434280138E+03  0.20143374864E+03  0.12508403619E+03 0.  0.
        -24    2    1    2    0    0  0.21479856725E+02  0.36576077747E+02  0.22634906934E+04  0.22658500630E+04  0.94271921351E+02 0.  0.
        -11    1    3    3    0    0  0.26952474930E+02 -0.22763523022E+02 -0.69124189501E+03  0.69214158328E+03  0.00000000000E+00 0.  1.
         12    1    3    3    0    0 -0.15260523351E+02 -0.16545643892E+02 -0.47603119166E+02  0.52656422771E+02  0.00000000000E+00 0. -1.
         11    1    5    5    0    0 -0.31353487776E+02  0.14380432869E+02  0.40190487906E+03  0.40338241144E+03  0.00000000000E+00 0. -1.
        -12    1    5    5    0    0  0.52833344501E+02  0.22195644878E+02  0.18615858144E+04  0.18624676516E+04  0.00000000000E+00 0.  1.
          5    1    4    4  501    0 -0.30780194472E+02 -0.58584495823E+02  0.64125089861E+02  0.92244582888E+02  0.41800000000E+01 0.  1.
         -5    1    4    4    0  501 -0.23916138318E+01  0.61317584990E+02  0.90217711522E+02  0.10918916575E+03  0.41800000000E+01 0.  1.
</event>
<event>
11    1  0.8551154E-009  0.1634941E+03  0.7561462E-02  0.1083836E+00
         22   -1    0    0    0    0  0.00000000000E+00  0.00000000000E+00  0.14687210129E+03  0.14687210129E+03  0.00000000000E+00 0.  1.
         22   -1    0    0    0    0 -0.00000000000E+00 -0.00000000000E+00 -0.12960261846E+04  0.12960261846E+04  0.00000000000E+00 0.  1.
         24    2    1    2    0    0 -0.22267924653E+02  0.10381711565E+03 -0.11621566944E+04  0.11698883734E+04  0.82199574399E+02 0.  0.
         25    2    1    2    0    0 -0.49485579841E+01 -0.95149348793E+02 -0.54317676139E+02  0.16636044750E+03  0.12508997462E+03 0.  0.
        -24    2    1    2    0    0  0.27216482637E+02 -0.86677668573E+01  0.67320287188E+02  0.10664946497E+03  0.77628733101E+02 0.  0.
        -11    1    3    3    0    0 -0.46718441127E+02  0.57293523028E+02 -0.86207014623E+03  0.86523412875E+03  0.00000000000E+00 0.  1.
         12    1    3    3    0    0  0.24450516475E+02  0.46523592623E+02 -0.30008654813E+03  0.30465424467E+03  0.00000000000E+00 0. -1.
         13    1    5    5    0    0  0.14108788068E+02  0.25318353658E+02 -0.12428750926E+01  0.29010716488E+02  0.00000000000E+00 0. -1.
        -14    1    5    5    0    0  0.13107694569E+02 -0.33986120515E+02  0.68563162281E+02  0.77638748486E+02  0.00000000000E+00 0.  1.
          5    1    4    4  501    0 -0.49507319453E+02 -0.10019595236E+03 -0.33525321844E+02  0.11675454233E+03  0.41800000000E+01 0. -1.
         -5    1    4    4    0  501  0.44558761469E+02  0.50466035706E+01 -0.20792354295E+02  0.49605905176E+02  0.41800000000E+01 0. -1.
</event>
<event>
11    1  0.8551154E-009  0.2407688E+03  0.7561462E-02  0.1028935E+00
         22   -1    0    0    0    0  0.00000000000E+00  0.00000000000E+00  0.21167434077E+04  0.21167434077E+04  0.00000000000E+00 0.  1.
         22   -1    0    0    0    0 -0.00000000000E+00 -0.00000000000E+00 -0.50386105788E+03  0.50386105788E+03  0.00000000000E+00 0.  1.
         24    2    1    2    0    0  0.19908363322E+02 -0.93796165468E+02 -0.44868058321E+03  0.46607359097E+03  0.81952808730E+02 0.  0.
         25    2    1    2    0    0  0.14942475388E+03 -0.42474441102E+02  0.21550805987E+03  0.29363845770E+03  0.12509190522E+03 0.  0.
        -24    2    1    2    0    0 -0.16933311721E+03  0.13627060657E+03  0.18460548732E+04  0.18608924169E+04  0.88082971087E+02 0.  0.
        -11    1    3    3    0    0 -0.52483235009E+01 -0.10002779691E+03 -0.35084093409E+03  0.36485951555E+03  0.00000000000E+00 0.  1.
         12    1    3    3    0    0  0.25156686823E+02  0.62316314401E+01 -0.97839649126E+02  0.10121407542E+03  0.00000000000E+00 0. -1.
         11    1    5    5    0    0 -0.40429089759E+02  0.36285281975E+02  0.21727802639E+03  0.22396623348E+03  0.00000000000E+00 0. -1.
        -12    1    5    5    0    0 -0.12890402745E+03  0.99985324595E+02  0.16287768468E+04  0.16369261834E+04  0.00000000000E+00 0.  1.
          5    1    4    4  501    0 -0.98742025734E+01  0.24328987876E+02  0.31476178425E+02  0.41202205472E+02  0.41800000000E+01 0. -1.
         -5    1    4    4    0  501  0.15929895646E+03 -0.66803428978E+02  0.18403188145E+03  0.25243625223E+03  0.41800000000E+01 0. -1.
</event>
<event>
11    1  0.9396269E-009  0.1889528E+03  0.7561462E-02  0.1062623E+00
         22   -1    0    0    0    0  0.00000000000E+00  0.00000000000E+00  0.17692126145E+04  0.17692126145E+04  0.00000000000E+00 0. -1.
         22   -1    0    0    0    0 -0.00000000000E+00 -0.00000000000E+00 -0.61674782685E+03  0.61674782685E+03  0.00000000000E+00 0.  1.
         24    2    1    2    0    0  0.46496248529E+02  0.11624563150E+03 -0.36669750901E+03  0.39493535254E+03  0.76367019089E+02 0.  0.
         25    2    1    2    0    0 -0.77706067010E+02 -0.20914934773E+03 -0.16353008106E+03  0.30359636515E+03  0.12508790116E+03 0.  0.
        -24    2    1    2    0    0  0.31209818481E+02  0.92903716228E+02  0.16826923777E+04  0.16874287237E+04  0.79730208652E+02 0.  0.
        -13    1    3    3    0    0  0.46774677442E+02  0.12632561276E+03 -0.35370974803E+03  0.37849255837E+03  0.00000000000E+00 0.  1.
         14    1    3    3    0    0 -0.27842891278E+00 -0.10079981264E+02 -0.12987760972E+02  0.16442794167E+02  0.00000000000E+00 0. -1.
         11    1    5    5    0    0  0.57339471325E+02  0.76046209877E+02  0.12746407386E+04  0.12781939812E+04  0.00000000000E+00 0. -1.
        -12    1    5    5    0    0 -0.26129652844E+02  0.16857506350E+02  0.40805163913E+03  0.40923474250E+03  0.00000000000E+00 0.  1.
          5    1    4    4  501    0 -0.67964362151E+02 -0.17972385248E+03 -0.18411808040E+03  0.26615175672E+03  0.41800000000E+01 0.  1.
         -5    1    4    4    0  501 -0.97417048593E+01 -0.29425495241E+02  0.20587999338E+02  0.37444608431E+02  0.41800000000E+01 0.  1.
</event>
<event>
11    1  0.8551154E-009  0.2799098E+03  0.7561462E-02  0.1009071E+00
         22   -1    0    0    0    0  0.00000000000E+00  0.00000000000E+00  0.10604854644E+04  0.10604854644E+04  0.00000000000E+00 0.  1.
         22   -1    0    0    0    0 -0.00000000000E+00 -0.00000000000E+00 -0.27950381073E+03  0.27950381073E+03  0.00000000000E+00 0. -1.
         24    2    1    2    0    0  0.64276910015E+02  0.25432509980E+01 -0.14649855730E+03  0.17986019421E+03  0.82157610023E+02 0.  0.
         25    2    1    2    0    0  0.12900910722E+03  0.17013118617E+03  0.64810753814E+02  0.25580373754E+03  0.12508856093E+03 0.  0.
        -24    2    1    2    0    0 -0.19328601723E+03 -0.17267443717E+03  0.86266945720E+03  0.90432534343E+03  0.80185963007E+02 0.  0.
        -13    1    3    3    0    0  0.18593605962E+02  0.28218904298E+02 -0.12590356182E+02  0.36063081001E+02  0.00000000000E+00 0.  1.
         14    1    3    3    0    0  0.45683304053E+02 -0.25675653300E+02 -0.13390820112E+03  0.14379711321E+03  0.00000000000E+00 0. -1.
         13    1    5    5    0    0  0.27568085066E+01 -0.11350029610E+02  0.96078201061E+02  0.96785556176E+02  0.00000000000E+00 0. -1.
        -14    1    5    5    0    0 -0.19604282574E+03 -0.16132440756E+03  0.76659125614E+03  0.80753978725E+03  0.00000000000E+00 0.  1.
          5    1    4    4  501    0 -0.10632256392E+02  0.79759359135E+02  0.13583049319E+02  0.81710292341E+02  0.41800000000E+01 0. -1.
         -5    1    4    4    0  501  0.13964136361E+03  0.90371827040E+02  0.51227704495E+02  0.17409344520E+03  0.41800000000E+01 0. -1.
</event>
<event>
11    1  0.8551154E-009  0.4582328E+03  0.7561462E-02  0.9492022E-01
         22   -1    0    0    0    0  0.00000000000E+00  0.00000000000E+00  0.28412624481E+03  0.28412624481E+03  0.00000000000E+00 0.  1.
         22   -1    0    0    0    0 -0.00000000000E+00 -0.00000000000E+00 -0.15337342108E+04  0.15337342108E+04  0.00000000000E+00 0.  1.
         24    2    1    2    0    0 -0.38056312713E+00 -0.62264562169E+02 -0.25507987807E+03  0.27531695578E+03  0.82804960077E+02 0.  0.
         25    2    1    2    0    0 -0.42086365363E+03 -0.78957176043E+02 -0.99555830787E+03  0.10909361754E+04  0.12507974962E+03 0.  0.
        -24    2    1    2    0    0  0.42124421675E+03  0.14122173821E+03  0.10302199451E+01  0.45160732447E+03  0.80980520329E+02 0.  0.
        -13    1    3    3    0    0 -0.15412171622E+02  0.16973507783E+02 -0.59033523566E+02  0.63329234206E+02  0.00000000000E+00 0.  1.
         14    1    3    3    0    0  0.15031608495E+02 -0.79238069952E+02 -0.19604635450E+03  0.21198772157E+03  0.00000000000E+00 0. -1.
         11    1    5    5    0    0  0.88627226677E+02  0.65132759588E+02 -0.80164321460E+01  0.11027839709E+03  0.00000000000E+00 0. -1.
        -12    1    5    5    0    0  0.33261699008E+03  0.76088978624E+02  0.90466520911E+01  0.34132892739E+03  0.00000000000E+00 0.  1.
          5    1    4    4  501    0 -0.15331321723E+03 -0.88759140841E+02 -0.43506934043E+03  0.46977221186E+03  0.41800000000E+01 0. -1.
         -5    1    4    4    0  501 -0.26755043640E+03  0.98019647980E+01 -0.56048896744E+03  0.62116396350E+03  0.41800000000E+01 0. -1.
</event>
<event>
11    1  0.8551154E-009  0.1589535E+03  0.7561462E-02  0.1088066E+00
         22   -1    0    0    0    0  0.00000000000E+00  0.00000000000E+00  0.24010403958E+03  0.24010403958E+03  0.00000000000E+00 0.  1.
         22   -1    0    0    0    0 -0.00000000000E+00 -0.00000000000E+00 -0.26831275973E+04  0.26831275973E+04  0.00000000000E+00 0. -1.
         24    2    1    2    0    0  0.64185516559E+02 -0.73997423255E+02 -0.24222452206E+04  0.24258949341E+04  0.89994016778E+02 0.  0.
         25    2    1    2    0    0 -0.55224141758E+02  0.84073658792E+02 -0.22556020971E+03  0.27684449782E+03  0.12508949528E+03 0.  0.
        -24    2    1    2    0    0 -0.89613748005E+01 -0.10076235537E+02  0.20478187268E+03  0.22049220493E+03  0.80618610117E+02 0.  0.
        -13    1    3    3    0    0  0.38585935408E+02  0.14236408975E+02 -0.76817360701E+03  0.76927383958E+03  0.00000000000E+00 0.  1.
         14    1    3    3    0    0  0.25599581150E+02 -0.88233832230E+02 -0.16540716136E+04  0.16566210945E+04  0.00000000000E+00 0. -1.
         13    1    5    5    0    0 -0.97298357323E+01 -0.11439723195E+02 -0.67147842981E+00  0.15032892385E+02  0.00000000000E+00 0. -1.
        -14    1    5    5    0    0  0.76846093176E+00  0.13634876586E+01  0.20545335111E+03  0.20545931255E+03  0.00000000000E+00 0.  1.
          5    1    4    4  501    0 -0.18885201514E+02  0.26499459099E+02  0.77977565582E+01  0.33721648478E+02  0.41800000000E+01 0.  1.
         -5    1    4    4    0  501 -0.36338940244E+02  0.57574199693E+02 -0.23335796627E+03  0.24312284934E+03  0.41800000000E+01 0.  1.
</event>
<event>
11    1  0.8551154E-009  0.1925690E+03  0.7561462E-02  0.1059906E+00
         22   -1    0    0    0    0  0.00000000000E+00  0.00000000000E+00  0.16673259961E+04  0.16673259961E+04  0.00000000000E+00 0. -1.
         22   -1    0    0    0    0 -0.00000000000E+00 -0.00000000000E+00 -0.52481649307E+03  0.52481649307E+03  0.00000000000E+00 0.  1.
         24    2    1    2    0    0  0.85902675475E+02 -0.11923247490E+03 -0.49334490839E+03  0.52046330625E+03  0.76793240523E+02 0.  0.
         25    2    1    2    0    0 -0.70595862153E+02  0.10704407713E+03  0.47207921186E+03  0.50491326457E+03  0.12504564072E+03 0.  0.
        -24    2    1    2    0    0 -0.15306813322E+02  0.12188397771E+02  0.11637751996E+04  0.11667659184E+04  0.81161182502E+02 0.  0.
        -13    1    3    3    0    0  0.20499399071E+02 -0.92808180160E+02 -0.29648159475E+03  0.31134373238E+03  0.00000000000E+00 0.  1.
         14    1    3    3    0    0  0.65403276404E+02 -0.26424294744E+02 -0.19686331364E+03  0.20911957387E+03  0.00000000000E+00 0. -1.
         13    1    5    5    0    0 -0.52205894076E+01  0.27558879505E+01  0.11332154423E+04  0.11332308185E+04  0.00000000000E+00 0. -1.
        -14    1    5    5    0    0 -0.10086223914E+02  0.94325098206E+01  0.30559757290E+02  0.33535099820E+02  0.00000000000E+00 0.  1.
          5    1    4    4  501    0 -0.62221260156E+02  0.18480299545E+02  0.33631126032E+03  0.34254305263E+03  0.41800000000E+01 0.  1.
         -5    1    4    4    0  501 -0.83746019971E+01  0.88563777588E+02  0.13576795154E+03  0.16237021193E+03  0.41800000000E+01 0.  1.
</event>
<event>
11    1  0.8551154E-009  0.1421492E+03  0.7561462E-02  0.1105182E+00
         22   -1    0    0    0    0  0.00000000000E+00  0.00000000000E+00  0.96636043284E+03  0.96636043284E+03  0.00000000000E+00 0.  1.
         22   -1    0    0    0    0 -0.00000000000E+00 -0.00000000000E+00 -0.27462337557E+03  0.27462337557E+03  0.00000000000E+00 0.  1.
        -24    2    1    2    0    0 -0.20143316847E+02 -0.15812116462E+02 -0.21653881766E+03  0.23246315445E+03  0.80587110535E+02 0.  0.
         25    2    1    2    0    0  0.28288603341E+02 -0.52071777291E+02  0.55355307643E+02  0.14907495860E+03  0.12508964037E+03 0.  0.
         24    2    1    2    0    0 -0.81452864939E+01  0.67883893754E+02  0.85292056729E+03  0.85944569536E+03  0.80615385892E+02 0.  0.
        -11    1    5    5    0    0  0.18722811253E+02  0.41413760657E+02  0.71553293592E+03  0.71697491283E+03  0.00000000000E+00 0.  1.
         12    1    5    5    0    0 -0.26868097747E+02  0.26470133097E+02  0.13738763136E+03  0.14247078253E+03  0.00000000000E+00 0. -1.
         13    1    3    3    0    0 -0.50618083565E+02 -0.40645683643E+01 -0.11277722879E+03  0.12368271680E+03  0.00000000000E+00 0. -1.
        -14    1    3    3    0    0  0.30474766718E+02 -0.11747548098E+02 -0.10376158887E+03  0.10878043766E+03  0.00000000000E+00 0.  1.
          5    1    4    4  501    0 -0.29644620979E+02 -0.32583313496E+02  0.72960259543E+02  0.85329641649E+02  0.41800000000E+01 0. -1.
         -5    1    4    4    0  501  0.57933224320E+02 -0.19488463796E+02 -0.17604951900E+02  0.63745316947E+02  0.41800000000E+01 0. -1.
</event>
<event>
11    1  0.8551154E-009  0.1323108E+03  0.7561462E-02  0.1116462E+00
         22   -1    0    0    0    0  0.00000000000E+00  0.00000000000E+00  0.65476970393E+03  0.65476970393E+03  0.00000000000E+00 0. -1.
         22   -1    0    0    0    0 -0.00000000000E+00 -0.00000000000E+00 -0.16146769313E+03  0.16146769313E+03  0.00000000000E+00 0.  1.
         24    2    1    2    0    0 -0.19537350422E+02 -0.25633929578E+02 -0.89500575048E+02  0.12467164150E+03  0.80584482715E+02 0.  0.
         25    2    1    2    0    0  0.49043627070E+02  0.53875017642E+02  0.53270772838E+02  0.15424649905E+03  0.12508562007E+03 0.  0.
        -24    2    1    2    0    0 -0.29506276648E+02 -0.28241088063E+02  0.52953181301E+03  0.53731925650E+03  0.81485354565E+02 0.  0.
        -11    1    3    3    0    0  0.16402186336E+02  0.15483337162E+02 -0.56569877238E+02  0.60900874026E+02  0.00000000000E+00 0.  1.
         12    1    3    3    0    0 -0.35939536759E+02 -0.41117266741E+02 -0.32930697809E+02  0.63770767479E+02  0.00000000000E+00 0. -1.
         11    1    5    5    0    0 -0.51740854906E+02 -0.37031070522E+02  0.30816549206E+03  0.31466551566E+03  0.00000000000E+00 0. -1.
        -12    1    5    5    0    0  0.22234578258E+02  0.87899824584E+01  0.22136632095E+03  0.22265374085E+03  0.00000000000E+00 0.  1.
          5    1    4    4  501    0  0.86840652555E+01 -0.10895165375E+02  0.73709313548E+02  0.75130905236E+02  0.41800000000E+01 0. -1.
         -5    1    4    4    0  501  0.40359561815E+02  0.64770183017E+02 -0.20438540710E+02  0.79115593813E+02  0.41800000000E+01 0. -1.
</event>
<event>
11    1  0.8551154E-009  0.1651825E+03  0.7561462E-02  0.1082302E+00
         22   -1    0    0    0    0  0.00000000000E+00  0.00000000000E+00  0.43906436608E+03  0.43906436608E+03  0.00000000000E+00 0.  1.
         22   -1    0    0    0    0 -0.00000000000E+00 -0.00000000000E+00 -0.11548264304E+03  0.11548264304E+03  0.00000000000E+00 0.  1.
         24    2    1    2    0    0  0.90734214412E+01 -0.26458746381E+02 -0.27295393294E+02  0.88753811292E+02  0.79685684330E+02 0.  0.
         25    2    1    2    0    0 -0.30076760958E+02 -0.90034939404E+02  0.15800716066E+03  0.22276811635E+03  0.12509384069E+03 0.  0.
        -24    2    1    2    0    0  0.21003339517E+02  0.11649368578E+03  0.19286995568E+03  0.24302508148E+03  0.88602772676E+02 0.  0.
        -13    1    3    3    0    0  0.23610933075E+02  0.10398265052E+02 -0.39603535541E+02  0.47265633436E+02  0.00000000000E+00 0.  1.
         14    1    3    3    0    0 -0.14537511633E+02 -0.36857011433E+02  0.12308142247E+02  0.41488177856E+02  0.00000000000E+00 0. -1.
         11    1    5    5    0    0  0.31988895671E+02  0.27597809873E+01  0.57690471892E+02  0.66023453291E+02  0.00000000000E+00 0. -1.
        -12    1    5    5    0    0 -0.10985556154E+02  0.11373390480E+03  0.13517948379E+03  0.17700162819E+03  0.00000000000E+00 0.  1.
          5    1    4    4  501    0  0.14228849662E+02 -0.37191740859E+01  0.11592625758E+03  0.11693015870E+03  0.41800000000E+01 0.  1.
         -5    1    4    4    0  501 -0.44305610620E+02 -0.86315765318E+02  0.42080903084E+02  0.10583795765E+03  0.41800000000E+01 0.  1.
</event>
<event>
11    1  0.8551154E-009  0.1757093E+03  0.7561462E-02  0.1073167E+00
         22   -1    0    0    0    0  0.00000000000E+00  0.00000000000E+00  0.39885053364E+03  0.39885053364E+03  0.00000000000E+00 0.  1.
         22   -1    0    0    0    0 -0.00000000000E+00 -0.00000000000E+00 -0.93944094023E+03  0.93944094023E+03  0.00000000000E+00 0. -1.
         24    2    1    2    0    0 -0.12178724146E+02  0.39216867581E+02 -0.72958836387E+03  0.73502280625E+03  0.79202657687E+02 0.  0.
         25    2    1    2    0    0  0.95680016563E+01 -0.15975881536E+03 -0.13827779890E+03  0.24571609709E+03  0.12506488300E+03 0.  0.
        -24    2    1    2    0    0  0.26107224901E+01  0.12054194778E+03  0.32727575618E+03  0.35755257053E+03  0.78722570218E+02 0.  0.
        -13    1    3    3    0    0  0.33028624949E+02  0.26224439979E+02 -0.34850049442E+03  0.35104302575E+03  0.00000000000E+00 0.  1.
         14    1    3    3    0    0 -0.45207349096E+02  0.12992427601E+02 -0.38108786945E+03  0.38397978050E+03  0.00000000000E+00 0. -1.
         11    1    5    5    0    0 -0.23349125743E+02  0.61120097984E+02  0.24040088573E+03  0.24914540716E+03  0.00000000000E+00 0. -1.
        -12    1    5    5    0    0  0.25959848233E+02  0.59421849794E+02  0.86874870454E+02  0.10840716337E+03  0.00000000000E+00 0.  1.
          5    1    4    4  501    0  0.17951522444E+02  0.12127911456E+02  0.39554218182E+01  0.22415645342E+02  0.41800000000E+01 0. -1.
         -5    1    4    4    0  501 -0.83835207874E+01 -0.17188672681E+03 -0.14223322072E+03  0.22330045175E+03  0.41800000000E+01 0. -1.
</event>
<event>
11    1  0.8551154E-009  0.2188756E+03  0.7561462E-02  0.1041924E+00
         22   -1    0    0    0    0  0.00000000000E+00  0.00000000000E+00  0.17252052581E+03  0.17252052581E+03  0.00000000000E+00 0.  1.
         22   -1    0    0    0    0 -0.00000000000E+00 -0.00000000000E+00 -0.83381848777E+03  0.83381848777E+03  0.00000000000E+00 0. -1.
         24    2    1    2    0    0 -0.70968238432E+01 -0.52559590382E+01 -0.13248359784E+03  0.15620449354E+03  0.82279706435E+02 0.  0.
         25    2    1    2    0    0 -0.31978081460E+02 -0.17072662786E+03 -0.60279284019E+03  0.63966901074E+03  0.12508819276E+03 0.  0.
        -24    2    1    2    0    0  0.39074905303E+02  0.17598258690E+03  0.73978476066E+02  0.21046550930E+03  0.79537391002E+02 0.  0.
        -11    1    3    3    0    0  0.24991018342E+02 -0.87323285807E+01 -0.80742455053E+01  0.27676668888E+02  0.00000000000E+00 0.  1.
         12    1    3    3    0    0 -0.32087842186E+02  0.34763695425E+01 -0.12440935233E+03  0.12852782465E+03  0.00000000000E+00 0. -1.
         11    1    5    5    0    0  0.52810847055E+01 -0.49774873428E+01 -0.63227862270E+01  0.96251161856E+01  0.00000000000E+00 0. -1.
        -12    1    5    5    0    0  0.33793820597E+02  0.18096007424E+03  0.80301262293E+02  0.20084039311E+03  0.00000000000E+00 0.  1.
          5    1    4    4  501    0  0.37382919896E+02 -0.10622251727E+03 -0.24754176916E+03  0.27198364979E+03  0.41800000000E+01 0.  1.
         -5    1    4    4    0  501 -0.69361001356E+02 -0.64504110593E+02 -0.35525107102E+03  0.36768536095E+03  0.41800000000E+01 0.  1.
</event>
<event>
11    1  0.8551154E-009  0.1340157E+03  0.7561462E-02  0.1114431E+00
         22   -1    0    0    0    0  0.00000000000E+00  0.00000000000E+00  0.65478634512E+03  0.65478634512E+03  0.00000000000E+00 0. -1.
         22   -1    0    0    0    0 -0.00000000000E+00 -0.00000000000E+00 -0.58683138684E+03  0.58683138684E+03  0.00000000000E+00 0. -1.
        -24    2    1    2    0    0 -0.35002820596E+02 -0.33300096273E+02 -0.55993596123E+03  0.56773390008E+03  0.80370434621E+02 0.  0.
         25    2    1    2    0    0  0.29836655337E+02  0.20169519074E+02  0.19983005707E+03  0.23848845011E+03  0.12509058169E+03 0.  0.
         24    2    1    2    0    0  0.51661652587E+01  0.13130577199E+02  0.42806086245E+03  0.43539538177E+03  0.78319443240E+02 0.  0.
        -13    1    5    5    0    0  0.21800653503E+02  0.48035191927E+01  0.32678094062E+02  0.39575246320E+02  0.00000000000E+00 0.  1.
         14    1    5    5    0    0 -0.16634488244E+02  0.83270580061E+01  0.39538276839E+03  0.39582013545E+03  0.00000000000E+00 0. -1.
         11    1    3    3    0    0  0.67836967252E+01  0.21164204984E+02 -0.84780212918E+02  0.87644889276E+02  0.00000000000E+00 0. -1.
        -12    1    3    3    0    0 -0.41786517321E+02 -0.54464301258E+02 -0.47515574831E+03  0.48008901080E+03  0.00000000000E+00 0.  1.
          5    1    4    4  501    0  0.37587329628E+02 -0.28143660915E+02  0.17907048420E+03  0.18517176812E+03  0.41800000000E+01 0. -1.
         -5    1    4    4    0  501 -0.77506742903E+01  0.48313179989E+02  0.20759572868E+02  0.53316681989E+02  0.41800000000E+01 0. -1.
</event>
<event>
11    1  0.8551154E-009  0.1303118E+03  0.7561462E-02  0.1118886E+00
         22   -1    0    0    0    0  0.00000000000E+00  0.00000000000E+00  0.18741882727E+03  0.18741882727E+03  0.00000000000E+00 0.  1.
         22   -1    0    0    0    0 -0.00000000000E+00 -0.00000000000E+00 -0.30431475979E+03  0.30431475979E+03  0.00000000000E+00 0.  1.
        -24    2    1    2    0    0  0.29148188569E+01  0.33844581655E+02 -0.20102193422E+03  0.21822881611E+03  0.77846298993E+02 0.  0.
         25    2    1    2    0    0  0.34038642199E+02 -0.26070246983E+02 -0.23471325649E+02  0.13429817938E+03  0.12508721324E+03 0.  0.
         24    2    1    2    0    0 -0.36953461056E+02 -0.77743346719E+01  0.10759732734E+03  0.13920659158E+03  0.79845423937E+02 0.  0.
        -13    1    5    5    0    0  0.57862560276E+01  0.86423827965E+01  0.89296714430E+02  0.89900360106E+02  0.00000000000E+00 0.  1.
         14    1    5    5    0    0 -0.42739717084E+02 -0.16416717468E+02  0.18300612911E+02  0.49306231470E+02  0.00000000000E+00 0. -1.
         11    1    3    3    0    0  0.24706374267E+02  0.63033228483E+01 -0.16446190890E+02  0.30341621630E+02  0.00000000000E+00 0. -1.
        -12    1    3    3    0    0 -0.21791555410E+02  0.27541258807E+02 -0.18457574333E+03  0.18788719448E+03  0.00000000000E+00 0.  1.
          5    1    4    4  501    0 -0.45747603179E+02 -0.14433742818E+02 -0.23451589906E+02  0.53559551879E+02  0.41800000000E+01 0. -1.
         -5    1    4    4    0  501  0.79786245379E+02 -0.11636504165E+02 -0.19735743079E-01  0.80738627498E+02  0.41800000000E+01 0. -1.
</event>
<event>
11    1  0.8551154E-009  0.1301900E+03  0.7561462E-02  0.1119036E+00
         22   -1    0    0    0    0  0.00000000000E+00  0.00000000000E+00  0.95026473109E+02  0.95026473109E+02  0.00000000000E+00 0. -1.
         22   -1    0    0    0    0 -0.00000000000E+00 -0.00000000000E+00 -0.93571840732E+03  0.93571840732E+03  0.00000000000E+00 0. -1.
        -24    2    1    2    0    0  0.32986705762E+02 -0.83464032722E+01 -0.64929175764E+03  0.65502555708E+03  0.79504142550E+02 0.  0.
         25    2    1    2    0    0 -0.52909464137E+02 -0.16148212296E+02 -0.24059984888E+03  0.27676259291E+03  0.12509624054E+03 0.  0.
         24    2    1    2    0    0  0.19922758376E+02  0.24494615568E+02  0.49199672307E+02  0.98956730442E+02  0.79843122757E+02 0.  0.
        -11    1    5    5    0    0  0.23213988159E+02  0.41932534532E+02  0.13786167693E+01  0.47949215663E+02  0.00000000000E+00 0.  1.
         12    1    5    5    0    0 -0.32912297830E+01 -0.17437918963E+02  0.47821055538E+02  0.51007514780E+02  0.00000000000E+00 0. -1.
         11    1    3    3    0    0  0.47340514952E+02  0.16845757333E+01 -0.61196029790E+03  0.61379098100E+03  0.00000000000E+00 0. -1.
        -12    1    3    3    0    0 -0.14353809190E+02 -0.10030979006E+02 -0.37331459740E+02  0.41234576079E+02  0.00000000000E+00 0.  1.
          5    1    4    4  501    0 -0.89898391499E+02  0.55104846563E+01 -0.19005734245E+03  0.21036005337E+03  0.41800000000E+01 0.  1.
         -5    1    4    4    0  501  0.36988927362E+02 -0.21658696952E+02 -0.50542506432E+02  0.66402539541E+02  0.41800000000E+01 0.  1.
</event>
<event>
11    1  0.8551154E-009  0.2662756E+03  0.7561462E-02  0.1015569E+00
         22   -1    0    0    0    0  0.00000000000E+00  0.00000000000E+00  0.83080394544E+03  0.83080394544E+03  0.00000000000E+00 0.  1.
         22   -1    0    0    0    0 -0.00000000000E+00 -0.00000000000E+00 -0.28455291308E+03  0.28455291308E+03  0.00000000000E+00 0. -1.
        -24    2    1    2    0    0  0.46865330788E+02  0.12575573644E+03 -0.14135183212E+03  0.21134502433E+03  0.81703821125E+02 0.  0.
         25    2    1    2    0    0  0.13278986140E+03 -0.25725278935E+03  0.23561349035E+03  0.39366740104E+03  0.12509260925E+03 0.  0.
         24    2    1    2    0    0 -0.17965519218E+03  0.13149705291E+03  0.45198937414E+03  0.51034443315E+03  0.81176247221E+02 0.  0.
        -11    1    5    5    0    0 -0.94440824821E+02  0.10899900081E+03  0.32715138583E+03  0.35753025162E+03  0.00000000000E+00 0.  1.
         12    1    5    5    0    0 -0.85214367364E+02  0.22498052098E+02  0.12483798830E+03  0.15281418153E+03  0.00000000000E+00 0. -1.
         13    1    3    3    0    0  0.48861123281E+02  0.11589273181E+03 -0.15160161491E+03  0.19698117752E+03  0.00000000000E+00 0. -1.
        -14    1    3    3    0    0 -0.19957924930E+01  0.98630046317E+01  0.10249782784E+02  0.14363846809E+02  0.00000000000E+00 0.  1.
          5    1    4    4  501    0  0.11726499279E+03 -0.17190834503E+03  0.95913262191E+02  0.22917326172E+03  0.41800000000E+01 0. -1.
         -5    1    4    4    0  501  0.15524868608E+02 -0.85344444321E+02  0.13970022816E+03  0.16449413932E+03  0.41800000000E+01 0. -1.
</event>
<event>
11    1  0.8551154E-009  0.4936306E+03  0.7561462E-02  0.9407868E-01
         22   -1    0    0    0    0  0.00000000000E+00  0.00000000000E+00  0.37876786342E+03  0.37876786342E+03  0.00000000000E+00 0.  1.
         22   -1    0    0    0    0 -0.00000000000E+00 -0.00000000000E+00 -0.12748067356E+04  0.12748067356E+04  0.00000000000E+00 0.  1.
        -24    2    1    2    0    0 -0.36055859634E+03  0.22118000804E+03 -0.46197402748E+03  0.63149386040E+03  0.80258309954E+02 0.  0.
         25    2    1    2    0    0  0.39116945065E+03 -0.49179828408E+03 -0.31908792129E+03  0.71578413793E+03  0.12510291466E+03 0.  0.
         24    2    1    2    0    0 -0.30610854309E+02  0.27061827605E+03 -0.11497692343E+03  0.30629660071E+03  0.80166320551E+02 0.  0.
        -11    1    5    5    0    0  0.41466586248E+01  0.12811767672E+03 -0.15615790667E+02  0.12913243893E+03  0.00000000000E+00 0.  1.
         12    1    5    5    0    0 -0.34757512934E+02  0.14250059933E+03 -0.99361132761E+02  0.17716416177E+03  0.00000000000E+00 0. -1.
         13    1    3    3    0    0 -0.14906534496E+03  0.97520061002E+02 -0.13808731772E+03  0.22538577302E+03  0.00000000000E+00 0. -1.
        -14    1    3    3    0    0 -0.21149325138E+03  0.12365994703E+03 -0.32388670976E+03  0.40610808738E+03  0.00000000000E+00 0.  1.
          5    1    4    4  501    0  0.25683737221E+03 -0.32920105854E+03 -0.14417511001E+03  0.44174959813E+03  0.41800000000E+01 0. -1.
         -5    1    4    4    0  501  0.13433207844E+03 -0.16259722555E+03 -0.17491281128E+03  0.27403453980E+03  0.41800000000E+01 0. -1.
</event>
<event>
11    1  0.8551154E-009  0.2319271E+03  0.7561462E-02  0.1033993E+00
         22   -1    0    0    0    0  0.00000000000E+00  0.00000000000E+00  0.20232704430E+03  0.20232704430E+03  0.00000000000E+00 0. -1.
         22   -1    0    0    0    0 -0.00000000000E+00 -0.00000000000E+00 -0.19709786655E+04  0.19709786655E+04  0.00000000000E+00 0.  1.
         24    2    1    2    0    0  0.10221161558E+03 -0.16438141627E+03 -0.18014320538E+04  0.18136642647E+04  0.82171505889E+02 0.  0.
         25    2    1    2    0    0 -0.11669283810E+03  0.21036662076E+03  0.42476403910E+02  0.27444900235E+03  0.12508667558E+03 0.  0.
        -24    2    1    2    0    0  0.14481222516E+02 -0.45985204494E+02 -0.96959713412E+01  0.85192442730E+02  0.69565764569E+02 0.  0.
        -13    1    3    3    0    0  0.82276835213E+02 -0.14046802196E+03 -0.11472840898E+04  0.11587758738E+04  0.00000000000E+00 0.  1.
         14    1    3    3    0    0  0.19934780366E+02 -0.23913394315E+02 -0.65414796393E+03  0.65488839096E+03  0.00000000000E+00 0. -1.
         13    1    5    5    0    0  0.25765152500E+02 -0.48399928308E+02  0.15921922195E+02  0.57095566815E+02  0.00000000000E+00 0. -1.
        -14    1    5    5    0    0 -0.11283929984E+02  0.24147238138E+01 -0.25617893536E+02  0.28096875915E+02  0.00000000000E+00 0.  1.
          5    1    4    4  501    0 -0.25537040431E+02  0.95708539726E+02  0.75034442192E+02  0.12433786602E+03  0.41800000000E+01 0.  1.
         -5    1    4    4    0  501 -0.91155797664E+02  0.11465808104E+03 -0.32558038282E+02  0.15011113634E+03  0.41800000000E+01 0.  1.
</event>
<event>
11    1  0.8551154E-009  0.2034532E+03  0.7561462E-02  0.1052108E+00
         22   -1    0    0    0    0  0.00000000000E+00  0.00000000000E+00  0.53726301320E+03  0.53726301320E+03  0.00000000000E+00 0.  1.
         22   -1    0    0    0    0 -0.00000000000E+00 -0.00000000000E+00 -0.43036800698E+03  0.43036800698E+03  0.00000000000E+00 0.  1.
        -24    2    1    2    0    0  0.37221446223E+02  0.21449306383E+01 -0.34244932797E+03  0.35365001173E+03  0.80042187491E+02 0.  0.
         25    2    1    2    0    0  0.12698651928E+03 -0.47052852144E+02  0.83490377580E+02  0.20238121814E+03  0.12509183560E+03 0.  0.
         24    2    1    2    0    0 -0.16420796551E+03  0.44907921506E+02  0.36585395661E+03  0.41159979032E+03  0.81143653315E+02 0.  0.
        -11    1    5    5    0    0 -0.11777449289E+03  0.68757740566E+02  0.26258174119E+03  0.29588448568E+03  0.00000000000E+00 0.  1.
         12    1    5    5    0    0 -0.46433472615E+02 -0.23849819060E+02  0.10327221542E+03  0.11571530464E+03  0.00000000000E+00 0. -1.
         11    1    3    3    0    0  0.18664620618E+02 -0.23808915661E+00 -0.10986036726E+02  0.21659126303E+02  0.00000000000E+00 0. -1.
        -12    1    3    3    0    0  0.18556825605E+02  0.23830197949E+01 -0.33146329125E+03  0.33199088542E+03  0.00000000000E+00 0.  1.
          5    1    4    4  501    0  0.65601909134E+02 -0.11738880033E+01 -0.24271135194E+02  0.70082443584E+02  0.41800000000E+01 0. -1.
         -5    1    4    4    0  501  0.61384610150E+02 -0.45878964141E+02  0.10776151277E+03  0.13229877456E+03  0.41800000000E+01 0. -1.
</event>
<event>
11    1  0.8551154E-009  0.1285779E+03  0.7561462E-02  0.1121029E+00
         22   -1    0    0    0    0  0.00000000000E+00  0.00000000000E+00  0.18085830335E+04  0.18085830335E+04  0.00000000000E+00 0. -1.
         22   -1    0    0    0    0 -0.00000000000E+00 -0.00000000000E+00 -0.10907280334E+04  0.10907280334E+04  0.00000000000E+00 0. -1.
         24    2    1    2    0    0 -0.17793405957E+02 -0.66990591006E+01 -0.10805230233E+04  0.10835880683E+04  0.79193529511E+02 0.  0.
         25    2    1    2    0    0  0.40932202692E+02  0.18680994708E+02  0.62546687000E+03  0.63943840901E+03  0.12509296012E+03 0.  0.
        -24    2    1    2    0    0 -0.23138796735E+02 -0.11981935607E+02  0.11729111534E+04  0.11762845896E+04  0.85122801382E+02 0.  0.
        -13    1    3    3    0    0  0.29416595540E+02  0.86764352799E+01 -0.50330493183E+03  0.50423850610E+03  0.00000000000E+00 0.  1.
         14    1    3    3    0    0 -0.47210001497E+02 -0.15375494381E+02 -0.57721809150E+03  0.57934956221E+03  0.00000000000E+00 0. -1.
         11    1    5    5    0    0 -0.13676791920E+02  0.70724149858E+01  0.11052590370E+04  0.11053662799E+04  0.00000000000E+00 0. -1.
        -12    1    5    5    0    0 -0.94620048154E+01 -0.19054350593E+02  0.67652116377E+02  0.70918309779E+02  0.00000000000E+00 0.  1.
          5    1    4    4  501    0  0.49050447261E+02 -0.39442393747E+02  0.19448810438E+03  0.20446208437E+03  0.41800000000E+01 0.  1.
         -5    1    4    4    0  501 -0.81182445691E+01  0.58123388454E+02  0.43097876562E+03  0.43497632464E+03  0.41800000000E+01 0.  1.
</event>
<event>
11    1  0.8551154E-009  0.1395073E+03  0.7561462E-02  0.1108110E+00
         22   -1    0    0    0    0  0.00000000000E+00  0.00000000000E+00  0.10551064469E+03  0.10551064469E+03  0.00000000000E+00 0. -1.
         22   -1    0    0    0    0 -0.00000000000E+00 -0.00000000000E+00 -0.56388872592E+03  0.56388872592E+03  0.00000000000E+00 0. -1.
        -24    2    1    2    0    0 -0.41159831813E+01  0.22353863973E+02 -0.27428379425E+03  0.28765482111E+03  0.83648429546E+02 0.  0.
         25    2    1    2    0    0  0.34824606173E+02 -0.73278125648E+02 -0.23044146566E+03  0.27446916912E+03  0.12509044252E+03 0.  0.
         24    2    1    2    0    0 -0.30708622992E+02  0.50924261675E+02  0.46347178686E+02  0.10727538038E+03  0.76312818779E+02 0.  0.
        -11    1    5    5    0    0 -0.32478055812E+02 -0.46156342814E+01 -0.30231764140E+01  0.32943402751E+02  0.00000000000E+00 0.  1.
         12    1    5    5    0    0  0.17694328204E+01  0.55539895957E+02  0.49370355100E+02  0.74331977628E+02  0.00000000000E+00 0. -1.
         13    1    3    3    0    0  0.38387403887E+02  0.79565343068E+01 -0.16334179774E+03  0.16798048132E+03  0.00000000000E+00 0. -1.
        -14    1    3    3    0    0 -0.42503387069E+02  0.14397329666E+02 -0.11094199651E+03  0.11967433979E+03  0.00000000000E+00 0.  1.
          5    1    4    4  501    0 -0.42086494945E+02  0.64479051836E+00 -0.62538120501E+02  0.75499521372E+02  0.41800000000E+01 0. -1.
         -5    1    4    4    0  501  0.76911101118E+02 -0.73922916166E+02 -0.16790334516E+03  0.19896964775E+03  0.41800000000E+01 0. -1.
</event>
<event>
11    1  0.8551154E-009  0.1627842E+03  0.7561462E-02  0.1084487E+00
         22   -1    0    0    0    0  0.00000000000E+00  0.00000000000E+00  0.38560589768E+03  0.38560589768E+03  0.00000000000E+00 0. -1.
         22   -1    0    0    0    0 -0.00000000000E+00 -0.00000000000E+00 -0.38338562489E+03  0.38338562489E+03  0.00000000000E+00 0.  1.
        -24    2    1    2    0    0 -0.55334939571E+02  0.59982096395E+02 -0.18663787048E+03  0.21891591885E+03  0.80191504559E+02 0.  0.
         25    2    1    2    0    0 -0.27757021992E+01 -0.14461345666E+03 -0.11251003639E+03  0.22186789103E+03  0.12508435719E+03 0.  0.
         24    2    1    2    0    0  0.58110641770E+02  0.84631360263E+02  0.30136817966E+03  0.32820771269E+03  0.79738379271E+02 0.  0.
        -11    1    5    5    0    0  0.54759927705E+02  0.63791116642E+02  0.12537421027E+03  0.15095247214E+03  0.00000000000E+00 0.  1.
         12    1    5    5    0    0  0.33507140645E+01  0.20840243621E+02  0.17599396940E+03  0.17725524055E+03  0.00000000000E+00 0. -1.
         13    1    3    3    0    0  0.58084574422E+01 -0.41384771274E+01 -0.79808743932E+02  0.80126779411E+02  0.00000000000E+00 0. -1.
        -14    1    3    3    0    0 -0.61143397013E+02  0.64120573523E+02 -0.10682912655E+03  0.13878913944E+03  0.00000000000E+00 0.  1.
          5    1    4    4  501    0 -0.34589969400E+02 -0.52106632390E+02 -0.10674020915E+03  0.12378413376E+03  0.41800000000E+01 0. -1.
         -5    1    4    4    0  501  0.31814267201E+02 -0.92506824269E+02 -0.57698272428E+01  0.98083757270E+02  0.41800000000E+01 0. -1.
</event>
<event>
11    1  0.8551154E-009  0.1318968E+03  0.7561462E-02  0.1116960E+00
         22   -1    0    0    0    0  0.00000000000E+00  0.00000000000E+00  0.36145635767E+03  0.36145635767E+03  0.00000000000E+00 0.  1.
         22   -1    0    0    0    0 -0.00000000000E+00 -0.00000000000E+00 -0.12922473648E+04  0.12922473648E+04  0.00000000000E+00 0.  1.
        -24    2    1    2    0    0  0.16382865243E+02  0.11742214834E+02 -0.12338555041E+04  0.12364844531E+04  0.78026406206E+02 0.  0.
         25    2    1    2    0    0 -0.49013998506E+01  0.30550351755E+02  0.33740707198E+02  0.13319772250E+03  0.12508337317E+03 0.  0.
         24    2    1    2    0    0 -0.11481465392E+02 -0.42292566589E+02  0.26932378975E+03  0.28402154681E+03  0.78819097260E+02 0.  0.
        -13    1    5    5    0    0 -0.15685261919E+02 -0.26027421216E+02  0.26491612510E+03  0.26665334694E+03  0.00000000000E+00 0.  1.
         14    1    5    5    0    0  0.42037965267E+01 -0.16265145373E+02  0.44076646531E+01  0.17368199876E+02  0.00000000000E+00 0. -1.
         13    1    3    3    0    0 -0.27992996080E+01 -0.16366391457E+02 -0.63519475354E+02  0.65653778238E+02  0.00000000000E+00 0. -1.
        -14    1    3    3    0    0  0.19182164851E+02  0.28108606291E+02 -0.11703360287E+04  0.11708306749E+04  0.00000000000E+00 0.  1.
          5    1    4    4  501    0 -0.10593631127E+02  0.78929005907E+02  0.17164133796E+02  0.81572623366E+02  0.41800000000E+01 0. -1.
         -5    1    4    4    0  501  0.56922312760E+01 -0.48378654152E+02  0.16576573402E+02  0.51625099130E+02  0.41800000000E+01 0. -1.
</event>
<event>
11    1  0.8551154E-009  0.1286170E+03  0.7561462E-02  0.1120980E+00
         22   -1    0    0    0    0  0.00000000000E+00  0.00000000000E+00  0.26898437809E+03  0.26898437809E+03  0.00000000000E+00 0. -1.
         22   -1    0    0    0    0 -0.00000000000E+00 -0.00000000000E+00 -0.48402106796E+03  0.48402106796E+03  0.00000000000E+00 0.  1.
         24    2    1    2    0    0  0.19758000433E+02  0.20082505247E+02 -0.35228495778E+03  0.36245483356E+03  0.80468188064E+02 0.  0.
         25    2    1    2    0    0 -0.15823442182E+02  0.10960296368E+02 -0.85012699052E+02  0.15246436381E+03  0.12509082226E+03 0.  0.
        -24    2    1    2    0    0 -0.39345582510E+01 -0.31042801614E+02  0.22226096697E+03  0.23808624868E+03  0.79410251787E+02 0.  0.
        -13    1    3    3    0    0 -0.18664831201E+02  0.15859981330E+02 -0.27454327539E+03  0.27563367899E+03  0.00000000000E+00 0.  1.
         14    1    3    3    0    0  0.38422831634E+02  0.42225239169E+01 -0.77741682391E+02  0.86821154565E+02  0.00000000000E+00 0. -1.
         13    1    5    5    0    0 -0.28120424571E+02  0.14490984464E+02  0.11172116600E+03  0.11611359025E+03  0.00000000000E+00 0. -1.
        -14    1    5    5    0    0  0.24185866320E+02 -0.45533786078E+02  0.11053980097E+03  0.12197265843E+03  0.00000000000E+00 0.  1.
          5    1    4    4  501    0 -0.57254626766E+02 -0.27534519770E+02 -0.68234934600E+02  0.93325884753E+02  0.41800000000E+01 0.  1.
         -5    1    4    4    0  501  0.41431184584E+02  0.38494816138E+02 -0.16777764452E+02  0.59138479060E+02  0.41800000000E+01 0.  1.
</event>
<event>
11    1  0.8551154E-009  0.2291333E+03  0.7561462E-02  0.1035642E+00
         22   -1    0    0    0    0  0.00000000000E+00  0.00000000000E+00  0.15950644424E+04  0.15950644424E+04  0.00000000000E+00 0.  1.
         22   -1    0    0    0    0 -0.00000000000E+00 -0.00000000000E+00 -0.14071012219E+03  0.14071012219E+03  0.00000000000E+00 0.  1.
         24    2    1    2    0    0 -0.31110799384E+02  0.19061862884E+03 -0.29348545937E+02  0.21184204640E+03  0.81929066719E+02 0.  0.
         25    2    1    2    0    0  0.26000773819E+02 -0.18149523112E+03  0.66093915075E+03  0.69721157952E+03  0.12508743532E+03 0.  0.
        -24    2    1    2    0    0  0.51100255646E+01 -0.91233977235E+01  0.82276371537E+03  0.82672093864E+03  0.80112610152E+02 0.  0.
        -13    1    3    3    0    0 -0.43705028561E+02  0.82465077115E+02 -0.41770079997E+02  0.10225144521E+03  0.00000000000E+00 0.  1.
         14    1    3    3    0    0  0.12594229177E+02  0.10815355173E+03  0.12421534060E+02  0.10959060119E+03  0.00000000000E+00 0. -1.
         13    1    5    5    0    0 -0.16410424345E+02 -0.16995816468E+02  0.75592164885E+02  0.79198075712E+02  0.00000000000E+00 0. -1.
        -14    1    5    5    0    0  0.21520449910E+02  0.78724187450E+01  0.74717155049E+03  0.74752286293E+03  0.00000000000E+00 0.  1.
          5    1    4    4  501    0  0.71443776319E+01 -0.14536261459E+03  0.29487484886E+03  0.32886164377E+03  0.41800000000E+01 0. -1.
         -5    1    4    4    0  501  0.18856396188E+02 -0.36132616528E+02  0.36606430189E+03  0.36834993575E+03  0.41800000000E+01 0. -1.
</event>
<event>
11    1  0.8551154E-009  0.1696853E+03  0.7561462E-02  0.1078306E+00
         22   -1    0    0    0    0  0.00000000000E+00  0.00000000000E+00  0.47061653885E+03  0.47061653885E+03  0.00000000000E+00 0. -1.
         22   -1    0    0    0    0 -0.00000000000E+00 -0.00000000000E+00 -0.10835029041E+03  0.10835029041E+03  0.00000000000E+00 0. -1.
        -24    2    1    2    0    0  0.61564959038E+02 -0.14312867790E+02  0.14425879455E+02  0.10837184152E+03  0.86840357386E+02 0.  0.
         25    2    1    2    0    0  0.73406060436E+02 -0.36355431168E+02  0.14007127987E+03  0.20488445810E+03  0.12509001017E+03 0.  0.
         24    2    1    2    0    0 -0.13497101947E+03  0.50668298958E+02  0.20776908912E+03  0.26571052963E+03  0.81545315913E+02 0.  0.
        -13    1    5    5    0    0 -0.24278485378E+02  0.45723627174E+02  0.91292467290E+02  0.10494955702E+03  0.00000000000E+00 0.  1.
         14    1    5    5    0    0 -0.11069253410E+03  0.49446717844E+01  0.11647662183E+03  0.16076097261E+03  0.00000000000E+00 0. -1.
         11    1    3    3    0    0  0.51755553877E+02 -0.48275262428E+02  0.17441828237E+02  0.72892768447E+02  0.00000000000E+00 0. -1.
        -12    1    3    3    0    0  0.98094051608E+01  0.33962394638E+02 -0.30159487819E+01  0.35479073074E+02  0.00000000000E+00 0.  1.
          5    1    4    4  501    0  0.91520129468E+02  0.16828435480E+02  0.85055596959E+02  0.12613903961E+03  0.41800000000E+01 0. -1.
         -5    1    4    4    0  501 -0.18114069032E+02 -0.53183866649E+02  0.55015682907E+02  0.78745418497E+02  0.41800000000E+01 0. -1.
</event>
<event>
11    1  0.8551154E-009  0.2339082E+03  0.7561462E-02  0.1032839E+00
         22   -1    0    0    0    0  0.00000000000E+00  0.00000000000E+00  0.18067975748E+03  0.18067975748E+03  0.00000000000E+00 0.  1.
         22   -1    0    0    0    0 -0.00000000000E+00 -0.00000000000E+00 -0.83012307021E+03  0.83012307021E+03  0.00000000000E+00 0.  1.
        -24    2    1    2    0    0  0.69458622651E+02 -0.21426672779E+03 -0.60480316718E+03  0.65019794489E+03  0.78966864009E+02 0.  0.
         25    2    1    2    0    0  0.40653076641E+02  0.47138261053E+02 -0.56987591682E+00  0.13972406294E+03  0.12509116959E+03 0.  0.
         24    2    1    2    0    0 -0.11011169929E+03  0.16712846674E+03 -0.44070269641E+02  0.22088081986E+03  0.82399254853E+02 0.  0.
        -13    1    5    5    0    0 -0.10831939939E+03  0.95303584602E+02 -0.23781662727E+02  0.14622391393E+03  0.00000000000E+00 0.  1.
         14    1    5    5    0    0 -0.17922999031E+01  0.71824882140E+02 -0.20288606913E+02  0.74656905936E+02  0.00000000000E+00 0. -1.
         11    1    3    3    0    0  0.12081049391E+02 -0.14398319825E+03 -0.31574233271E+03  0.34723239163E+03  0.00000000000E+00 0. -1.
        -12    1    3    3    0    0  0.57377573260E+02 -0.70283529543E+02 -0.28906083447E+03  0.30296555326E+03  0.00000000000E+00 0.  1.
          5    1    4    4  501    0 -0.34980893772E+01  0.60903787340E+02 -0.44637467229E+02  0.75706563931E+02  0.41800000000E+01 0. -1.
         -5    1    4    4    0  501  0.44151166018E+02 -0.13765526287E+02  0.44067591312E+02  0.64017499005E+02  0.41800000000E+01 0. -1.
</event>
<event>
11    1  0.8551154E-009  0.2045726E+03  0.7561462E-02  0.1051336E+00
         22   -1    0    0    0    0  0.00000000000E+00  0.00000000000E+00  0.17823735536E+03  0.17823735536E+03  0.00000000000E+00 0.  1.
         22   -1    0    0    0    0 -0.00000000000E+00 -0.00000000000E+00 -0.69423365699E+03  0.69423365699E+03  0.00000000000E+00 0.  1.
         24    2    1    2    0    0 -0.17695232787E+03  0.28695507946E+01 -0.48437449251E+03  0.52257418780E+03  0.84526753735E+02 0.  0.
         25    2    1    2    0    0  0.10308562100E+03  0.96644846203E+02 -0.62862651251E+02  0.19891231572E+03  0.12509006702E+03 0.  0.
        -24    2    1    2    0    0  0.73866706870E+02 -0.99514396997E+02  0.31240842140E+02  0.15098450884E+03  0.80379886150E+02 0.  0.
        -11    1    3    3    0    0 -0.17703919628E+03  0.20269043154E+02 -0.42922172272E+03  0.46474186210E+03  0.00000000000E+00 0.  1.
         12    1    3    3    0    0  0.86868409609E-01 -0.17399492359E+02 -0.55152769790E+02  0.57832325701E+02  0.00000000000E+00 0. -1.
         13    1    5    5    0    0 -0.10976391239E+02 -0.45939097822E+02  0.69202594839E+01  0.47736483580E+02  0.00000000000E+00 0. -1.
        -14    1    5    5    0    0  0.84843098109E+02 -0.53575299176E+02  0.24320582656E+02  0.10324802526E+03  0.00000000000E+00 0.  1.
          5    1    4    4  501    0  0.54334019483E+02 -0.23155518253E+02 -0.16739476363E+02  0.61530855411E+02  0.41800000000E+01 0.  1.
         -5    1    4    4    0  501  0.48751601516E+02  0.11980036446E+03 -0.46123174888E+02  0.13738146031E+03  0.41800000000E+01 0.  1.
</event>
<event>
11    1  0.8551154E-009  0.1633135E+03  0.7561462E-02  0.1084002E+00
         22   -1    0    0    0    0  0.00000000000E+00  0.00000000000E+00  0.18273722218E+04  0.18273722218E+04  0.00000000000E+00 0.  1.
         22   -1    0    0    0    0 -0.00000000000E+00 -0.00000000000E+00 -0.39445017353E+03  0.39445017353E+03  0.00000000000E+00 0. -1.
        -24    2    1    2    0    0  0.82044173190E+02  0.23014401207E+02 -0.36632047944E+03  0.38483939355E+03  0.81546037033E+02 0.  0.
         25    2    1    2    0    0 -0.12620581512E+03  0.68048976801E+02  0.56884119884E+03  0.59982282506E+03  0.12509412835E+03 0.  0.
         24    2    1    2    0    0  0.44161641929E+02 -0.91063378007E+02  0.12304013289E+04  0.12371601767E+04  0.80218971253E+02 0.  0.
        -11    1    5    5    0    0  0.35724114226E+02 -0.41126931408E+02  0.98922533899E+03  0.99072418368E+03  0.00000000000E+00 0.  1.
         12    1    5    5    0    0  0.84375277032E+01 -0.49936446600E+02  0.24117598986E+03  0.24643599302E+03  0.00000000000E+00 0. -1.
         13    1    3    3    0    0  0.49520892386E+02  0.11250162673E+02 -0.33287859514E+03  0.33672992746E+03  0.00000000000E+00 0. -1.
        -14    1    3    3    0    0  0.32523280804E+02  0.11764238533E+02 -0.33441884301E+02  0.48109466097E+02  0.00000000000E+00 0.  1.
          5    1    4    4  501    0 -0.97783604787E+02  0.92853152983E+02  0.30822255870E+03  0.33645498878E+03  0.41800000000E+01 0. -1.
         -5    1    4    4    0  501 -0.28422210332E+02 -0.24804176182E+02  0.26061864014E+03  0.26336783628E+03  0.41800000000E+01 0. -1.
</event>
<event>
11    1  0.8551154E-009  0.1868961E+03  0.7561462E-02  0.1064197E+00
         22   -1    0    0    0    0  0.00000000000E+00  0.00000000000E+00  0.53637925773E+03  0.53637925773E+03  0.00000000000E+00 0.  1.
         22   -1    0    0    0    0 -0.00000000000E+00 -0.00000000000E+00 -0.68890226875E+03  0.68890226875E+03  0.00000000000E+00 0.  1.
         24    2    1    2    0    0  0.13545881868E+03  0.31268621660E+02 -0.49624595160E+03  0.52150555623E+03  0.79882303651E+02 0.  0.
         25    2    1    2    0    0 -0.14763406968E+03  0.41110388561E+02 -0.11729594937E+03  0.22998213252E+03  0.12509020330E+03 0.  0.
        -24    2    1    2    0    0  0.12175250995E+02 -0.72379010221E+02  0.46101888996E+03  0.47379383773E+03  0.80964349678E+02 0.  0.
        -11    1    3    3    0    0  0.84333741610E+02 -0.85633896543E+01 -0.37011431343E+03  0.37969740139E+03  0.00000000000E+00 0.  1.
         12    1    3    3    0    0  0.51125077073E+02  0.39832011314E+02 -0.12613163818E+03  0.14180815485E+03  0.00000000000E+00 0. -1.
         11    1    5    5    0    0  0.20610171778E+02  0.11656850107E+02  0.13205719520E+03  0.13416319965E+03  0.00000000000E+00 0. -1.
        -12    1    5    5    0    0 -0.84349207833E+01 -0.84035860328E+02  0.32896169475E+03  0.33963063808E+03  0.00000000000E+00 0.  1.
          5    1    4    4  501    0 -0.98899435910E+02 -0.18949822654E+02 -0.11440934323E+03  0.15247020831E+03  0.41800000000E+01 0. -1.
         -5    1    4    4    0  501 -0.48734633769E+02  0.60060211215E+02 -0.28866061381E+01  0.77511924211E+02  0.41800000000E+01 0. -1.
</event>
<event>
11    1  0.8551154E-009  0.1387950E+03  0.7561462E-02  0.1108911E+00
         22   -1    0    0    0    0  0.00000000000E+00  0.00000000000E+00  0.21835333606E+03  0.21835333606E+03  0.00000000000E+00 0. -1.
         22   -1    0    0    0    0 -0.00000000000E+00 -0.00000000000E+00 -0.76862390138E+03  0.76862390138E+03  0.00000000000E+00 0.  1.
        -24    2    1    2    0    0  0.10088221323E+02  0.58322599398E+02 -0.64793493665E+03  0.65545703252E+03  0.79378470288E+02 0.  0.
         25    2    1    2    0    0 -0.22110339048E+01 -0.73195080727E+02 -0.57650525235E+02  0.15599146420E+03  0.12508934939E+03 0.  0.
         24    2    1    2    0    0 -0.78771874181E+01  0.14872481329E+02  0.15531489656E+03  0.17552874071E+03  0.80027376174E+02 0.  0.
        -11    1    5    5    0    0  0.17462414936E+02  0.19355022209E+02  0.99481967847E+01  0.27901961210E+02  0.00000000000E+00 0.  1.
         12    1    5    5    0    0 -0.25339602354E+02 -0.44825408800E+01  0.14536669978E+03  0.14762677950E+03  0.00000000000E+00 0. -1.
         11    1    3    3    0    0 -0.17152319493E+02 -0.12733330001E+02 -0.99470845657E+02  0.10173882687E+03  0.00000000000E+00 0. -1.
        -12    1    3    3    0    0  0.27240540816E+02  0.71055929399E+02 -0.54846409099E+03  0.55371820566E+03  0.00000000000E+00 0.  1.
          5    1    4    4  501    0 -0.26867700909E+02 -0.87156775259E+02 -0.78626826982E+02  0.12048994625E+03  0.41800000000E+01 0.  1.
         -5    1    4    4    0  501  0.24656667004E+02  0.13961694532E+02  0.20976301748E+02  0.35501517953E+02  0.41800000000E+01 0.  1.
</event>
<event>
11    1  0.8551154E-009  0.8264482E+03  0.7561462E-02  0.8864252E-01
         22   -1    0    0    0    0  0.00000000000E+00  0.00000000000E+00  0.82565507020E+03  0.82565507020E+03  0.00000000000E+00 0.  1.
         22   -1    0    0    0    0 -0.00000000000E+00 -0.00000000000E+00 -0.20539359828E+04  0.20539359828E+04  0.00000000000E+00 0. -1.
        -24    2    1    2    0    0  0.51539941714E+03 -0.62697017834E+03 -0.14379147027E+04  0.16531088156E+04  0.80261448070E+02 0.  0.
         25    2    1    2    0    0 -0.58867286721E+03  0.59541810080E+03 -0.14088735444E+03  0.85822940723E+03  0.12509999783E+03 0.  0.
         24    2    1    2    0    0  0.73273450071E+02  0.31552077543E+02  0.35052114453E+03  0.36825283024E+03  0.79878295746E+02 0.  0.
        -11    1    5    5    0    0  0.90399634143E+02  0.25978509105E+02  0.27603121571E+03  0.29161654418E+03  0.00000000000E+00 0.  1.
         12    1    5    5    0    0 -0.17126184072E+02  0.55735684384E+01  0.74489928818E+02  0.76636286061E+02  0.00000000000E+00 0. -1.
         11    1    3    3    0    0  0.47840959282E+03 -0.55514948648E+03 -0.12581333021E+04  0.14560103354E+04  0.00000000000E+00 0. -1.
        -12    1    3    3    0    0  0.36989824321E+02 -0.71820691858E+02 -0.17978140066E+03  0.19709848022E+03  0.00000000000E+00 0.  1.
          5    1    4    4  501    0 -0.17871578793E+03  0.21577553252E+03  0.67764458868E+01  0.28028879019E+03  0.41800000000E+01 0.  1.
         -5    1    4    4    0  501 -0.40995707928E+03  0.37964256828E+03 -0.14766380032E+03  0.57794061704E+03  0.41800000000E+01 0.  1.
</event>
<event>
11    1  0.8551154E-009  0.2017270E+04  0.7561462E-02  0.8059938E-01
         22   -1    0    0    0    0  0.00000000000E+00  0.00000000000E+00  0.25049253359E+04  0.25049253359E+04  0.00000000000E+00 0. -1.
         22   -1    0    0    0    0 -0.00000000000E+00 -0.00000000000E+00 -0.40613784930E+03  0.40613784930E+03  0.00000000000E+00 0. -1.
         24    2    1    2    0    0  0.35592294763E+03  0.56771887025E+03  0.22091107091E+03  0.71092814712E+03  0.87357133902E+02 0.  0.
         25    2    1    2    0    0 -0.56742017270E+03 -0.67418627179E+03  0.15732046871E+04  0.18075157929E+04  0.12509025755E+03 0.  0.
        -24    2    1    2    0    0  0.21149722507E+03  0.10646740155E+03  0.30467172862E+03  0.39261924522E+03  0.72516382268E+02 0.  0.
        -13    1    3    3    0    0  0.25933561309E+03  0.34591153953E+03  0.11895724827E+03  0.44839779249E+03  0.00000000000E+00 0.  1.
         14    1    3    3    0    0  0.96587334536E+02  0.22180733071E+03  0.10195382264E+03  0.26253035463E+03  0.00000000000E+00 0. -1.
         13    1    5    5    0    0  0.21743635994E+03  0.10181806924E+03  0.29514790036E+03  0.38047046263E+03  0.00000000000E+00 0. -1.
        -14    1    5    5    0    0 -0.59391348672E+01  0.46493323020E+01  0.95238282616E+01  0.12148782597E+02  0.00000000000E+00 0.  1.
          5    1    4    4  501    0 -0.22112133892E+03 -0.32693122838E+03  0.60852576787E+03  0.72532734484E+03  0.41800000000E+01 0.  1.
         -5    1    4    4    0  501 -0.34629883378E+03 -0.34725504341E+03  0.96467891925E+03  0.10821884481E+04  0.41800000000E+01 0.  1.
</event>
<event>
11    1  0.8551154E-009  0.2376855E+03  0.7561462E-02  0.1030672E+00
         22   -1    0    0    0    0  0.00000000000E+00  0.00000000000E+00  0.12731979974E+04  0.12731979974E+04  0.00000000000E+00 0. -1.
         22   -1    0    0    0    0 -0.00000000000E+00 -0.00000000000E+00 -0.85185659783E+03  0.85185659783E+03  0.00000000000E+00 0.  1.
         24    2    1    2    0    0 -0.38056323277E+02  0.31706977433E+02 -0.52979821483E+03  0.53826702337E+03  0.81188816070E+02 0.  0.
         25    2    1    2    0    0 -0.10835887934E+03  0.10977906421E+03 -0.27618373473E+03  0.34017272099E+03  0.12508770964E+03 0.  0.
        -24    2    1    2    0    0  0.14641520261E+03 -0.14148604165E+03  0.12273233491E+04  0.12466148509E+04  0.79185046301E+02 0.  0.
        -11    1    3    3    0    0 -0.16827724203E+02 -0.26830527873E+02 -0.22053123388E+03  0.22279379400E+03  0.00000000000E+00 0.  1.
         12    1    3    3    0    0 -0.21228599073E+02  0.58537505305E+02 -0.30926698095E+03  0.31547322938E+03  0.00000000000E+00 0. -1.
         11    1    5    5    0    0  0.62420373180E+02 -0.20623170700E+02  0.52011486059E+03  0.52425288398E+03  0.00000000000E+00 0. -1.
        -12    1    5    5    0    0  0.83994829434E+02 -0.12086287095E+03  0.70720848852E+03  0.72236196687E+03  0.00000000000E+00 0.  1.
          5    1    4    4  501    0 -0.10565964533E+03  0.34672833255E+02 -0.21897388375E+03  0.24562817465E+03  0.41800000000E+01 0.  1.
         -5    1    4    4    0  501 -0.26992340072E+01  0.75106230959E+02 -0.57209850979E+02  0.94544546337E+02  0.41800000000E+01 0.  1.
</event>
<event>
11    1  0.8551154E-009  0.4256240E+03  0.7561462E-02  0.9577038E-01
         22   -1    0    0    0    0  0.00000000000E+00  0.00000000000E+00  0.60216942925E+03  0.60216942925E+03  0.00000000000E+00 0. -1.
         22   -1    0    0    0    0 -0.00000000000E+00 -0.00000000000E+00 -0.76487865526E+03  0.76487865526E+03  0.00000000000E+00 0.  1.
        -24    2    1    2    0    0  0.33151344240E+03 -0.26282790441E+03 -0.46545115706E+03  0.63216620471E+03  0.63321883543E+02 0.  0.
         25    2    1    2    0    0 -0.25032038368E+03  0.27760540179E+03 -0.17000445898E+02  0.39454000357E+03  0.12509094956E+03 0.  0.
         24    2    1    2    0    0 -0.81193058718E+02 -0.14777497379E+02  0.31974237694E+03  0.34034187624E+03  0.82381538552E+02 0.  0.
        -11    1    5    5    0    0 -0.83533882165E+02  0.16550263774E+02  0.22982053463E+03  0.24509038912E+03  0.00000000000E+00 0.  1.
         12    1    5    5    0    0  0.23408234465E+01 -0.31327761153E+02  0.89921842313E+02  0.95251487118E+02  0.00000000000E+00 0. -1.
         11    1    3    3    0    0  0.24871167438E+02 -0.48719341321E+01 -0.15765128868E+02  0.29847110416E+02  0.00000000000E+00 0. -1.
        -12    1    3    3    0    0  0.30664227496E+03 -0.25795597028E+03 -0.44968602819E+03  0.60231909429E+03  0.00000000000E+00 0.  1.
          5    1    4    4  501    0 -0.25209279936E+03  0.27912075639E+03  0.77167821370E+00  0.37613460891E+03  0.41800000000E+01 0. -1.
         -5    1    4    4    0  501  0.17724156752E+01 -0.15153545965E+01 -0.17772124111E+02  0.18405394652E+02  0.41800000000E+01 0. -1.
</event>
<event>
11    1  0.8551154E-009  0.1921163E+03  0.7561462E-02  0.1060243E+00
         22   -1    0    0    0    0  0.00000000000E+00  0.00000000000E+00  0.80485790396E+02  0.80485790396E+02  0.00000000000E+00 0. -1.
         22   -1    0    0    0    0 -0.00000000000E+00 -0.00000000000E+00 -0.11018319523E+04  0.11018319523E+04  0.00000000000E+00 0.  1.
        -24    2    1    2    0    0  0.11593780414E+02 -0.26181103172E+02 -0.66940806344E+03  0.67491769822E+03  0.81159583988E+02 0.  0.
         25    2    1    2    0    0  0.13204591984E+03  0.59608934574E+02 -0.22859008546E+03  0.29814506054E+03  0.12509076674E+03 0.  0.
         24    2    1    2    0    0 -0.14363970026E+03 -0.33427831402E+02 -0.12334801302E+03  0.20925498394E+03  0.82602255348E+02 0.  0.
        -11    1    5    5    0    0 -0.16653866663E+02 -0.33424156253E+02 -0.90927322305E+01  0.38434402239E+02  0.00000000000E+00 0.  1.
         12    1    5    5    0    0 -0.12698583359E+03 -0.36751498142E-02 -0.11425528079E+03  0.17082058171E+03  0.00000000000E+00 0. -1.
         11    1    3    3    0    0  0.27046744463E+02 -0.37592374579E+02 -0.20727630266E+03  0.21238686084E+03  0.00000000000E+00 0. -1.
        -12    1    3    3    0    0 -0.15452964049E+02  0.11411271407E+02 -0.46213176077E+03  0.46253083738E+03  0.00000000000E+00 0.  1.
          5    1    4    4  501    0  0.11600226099E+03  0.94911385843E+02 -0.19912267714E+03  0.24926293080E+03  0.41800000000E+01 0.  1.
         -5    1    4    4    0  501  0.16043658848E+02 -0.35302451269E+02 -0.29467408321E+02  0.48882129741E+02  0.41800000000E+01 0.  1.
</event>
<event>
11    1  0.8551154E-009  0.1562141E+03  0.7561462E-02  0.1090693E+00
         22   -1    0    0    0    0  0.00000000000E+00  0.00000000000E+00  0.10417951972E+03  0.10417951972E+03  0.00000000000E+00 0.  1.
         22   -1    0    0    0    0 -0.00000000000E+00 -0.00000000000E+00 -0.83829619597E+03  0.83829619597E+03  0.00000000000E+00 0. -1.
        -24    2    1    2    0    0 -0.97564586068E+02 -0.27970167081E+02 -0.56619349288E+03  0.58079776137E+03  0.80310581710E+02 0.  0.
         25    2    1    2    0    0  0.75517567976E+02 -0.35560443589E+02 -0.20183182648E+03  0.25169962620E+03  0.12509663235E+03 0.  0.
         24    2    1    2    0    0  0.22047018092E+02  0.63530610670E+02  0.33908643107E+02  0.10997832813E+03  0.80145037791E+02 0.  0.
        -13    1    5    5    0    0  0.16706287195E+02  0.82617156252E+02  0.23074031800E+02  0.87390534284E+02  0.00000000000E+00 0.  1.
         14    1    5    5    0    0  0.53407308964E+01 -0.19086545582E+02  0.10834611307E+02  0.22587793848E+02  0.00000000000E+00 0. -1.
         13    1    3    3    0    0 -0.76907374148E+02 -0.35416377455E+02 -0.54009068772E+03  0.54668731004E+03  0.00000000000E+00 0. -1.
        -14    1    3    3    0    0 -0.20657211920E+02  0.74462103736E+01 -0.26102805156E+02  0.34110451335E+02  0.00000000000E+00 0.  1.
          5    1    4    4  501    0  0.29277638438E+02 -0.56960117797E+02 -0.27143104362E+02  0.69683969795E+02  0.41800000000E+01 0.  1.
         -5    1    4    4    0  501  0.46239929538E+02  0.21399674209E+02 -0.17468872212E+03  0.18201565640E+03  0.41800000000E+01 0.  1.
</event>
<event>
11    1  0.8551154E-009  0.2201820E+03  0.7561462E-02  0.1041104E+00
         22   -1    0    0    0    0  0.00000000000E+00  0.00000000000E+00  0.90162132563E+03  0.90162132563E+03  0.00000000000E+00 0.  1.
         22   -1    0    0    0    0 -0.00000000000E+00 -0.00000000000E+00 -0.19919969738E+04  0.19919969738E+04  0.00000000000E+00 0. -1.
        -24    2    1    2    0    0  0.16106679604E+03  0.53835469389E+02 -0.12694122657E+04  0.12835564543E+04  0.85257847684E+02 0.  0.
         25    2    1    2    0    0 -0.31944526814E+03 -0.13622971871E+03 -0.65574370302E+03  0.75249601442E+03  0.12508649833E+03 0.  0.
         24    2    1    2    0    0  0.15837847210E+03  0.82394249318E+02  0.83478032055E+03  0.85756583069E+03  0.81782746680E+02 0.  0.
        -13    1    5    5    0    0  0.16807065994E+03  0.80186774342E+02  0.78294861464E+03  0.80478953688E+03  0.00000000000E+00 0.  1.
         14    1    5    5    0    0 -0.96921878416E+01  0.22074749759E+01  0.51831705911E+02  0.52776293813E+02  0.00000000000E+00 0. -1.
         13    1    3    3    0    0  0.16636855431E+03  0.36714428501E+02 -0.11908559218E+04  0.12029814095E+04  0.00000000000E+00 0. -1.
        -14    1    3    3    0    0 -0.53017582712E+01  0.17121040888E+02 -0.78556343864E+02  0.80575044792E+02  0.00000000000E+00 0.  1.
          5    1    4    4  501    0 -0.26834459793E+03 -0.12783930410E+03 -0.44296940770E+03  0.53347078596E+03  0.41800000000E+01 0.  1.
         -5    1    4    4    0  501 -0.51100670208E+02 -0.83904146107E+01 -0.21277429532E+03  0.21902522846E+03  0.41800000000E+01 0.  1.
</event>
<event>
11    1  0.8551154E-009  0.1406573E+03  0.7561462E-02  0.1106827E+00
         22   -1    0    0    0    0  0.00000000000E+00  0.00000000000E+00  0.41485198126E+03  0.41485198126E+03  0.00000000000E+00 0. -1.
         22   -1    0    0    0    0 -0.00000000000E+00 -0.00000000000E+00 -0.38834374180E+03  0.38834374180E+03  0.00000000000E+00 0. -1.
        -24    2    1    2    0    0 -0.38253905848E+02  0.47013949978E+02 -0.26565901086E+03  0.28320662089E+03  0.77185537920E+02 0.  0.
         25    2    1    2    0    0  0.60081381928E+02 -0.63663816898E+02 -0.55527835899E+02  0.16243716551E+03  0.12505853887E+03 0.  0.
         24    2    1    2    0    0 -0.21827476080E+02  0.16649866920E+02  0.34769508621E+03  0.35755193666E+03  0.78726473658E+02 0.  0.
        -13    1    5    5    0    0  0.10797589812E+02  0.91549202341E+01  0.80976944010E+01  0.16308683725E+02  0.00000000000E+00 0.  1.
         14    1    5    5    0    0 -0.32625065892E+02  0.74949466861E+01  0.33959739181E+03  0.34124325294E+03  0.00000000000E+00 0. -1.
         11    1    3    3    0    0 -0.51572247486E+02  0.50820160974E+02 -0.25668701264E+03  0.26670322069E+03  0.00000000000E+00 0. -1.
        -12    1    3    3    0    0  0.13318341638E+02 -0.38062109959E+01 -0.89719982200E+01  0.16503400201E+02  0.00000000000E+00 0.  1.
          5    1    4    4  501    0  0.39808782078E+02 -0.85374506881E+02  0.54824393997E+01  0.94451443067E+02  0.41800000000E+01 0.  1.
         -5    1    4    4    0  501  0.20272599850E+02  0.21710689983E+02 -0.61010275299E+02  0.67985722444E+02  0.41800000000E+01 0.  1.
</event>
<event>
11    1  0.8551154E-009  0.1533016E+03  0.7561462E-02  0.1093552E+00
         22   -1    0    0    0    0  0.00000000000E+00  0.00000000000E+00  0.18652730481E+03  0.18652730481E+03  0.00000000000E+00 0.  1.
         22   -1    0    0    0    0 -0.00000000000E+00 -0.00000000000E+00 -0.23817835000E+04  0.23817835000E+04  0.00000000000E+00 0. -1.
        -24    2    1    2    0    0 -0.50353017701E+02  0.47639392935E+02 -0.19289266531E+04  0.19318515354E+04  0.80544296148E+02 0.  0.
         25    2    1    2    0    0  0.55408256843E+02  0.42910423432E+02 -0.41822014382E+03  0.44211665709E+03  0.12509064878E+03 0.  0.
         24    2    1    2    0    0 -0.50552391423E+01 -0.90549816367E+02  0.15189060175E+03  0.19434261230E+03  0.80457885687E+02 0.  0.
        -13    1    5    5    0    0 -0.79082151154E+01 -0.97470688107E+02  0.15722113826E+03  0.18515280507E+03  0.00000000000E+00 0.  1.
         14    1    5    5    0    0  0.28529759731E+01  0.69208717395E+01 -0.53305365131E+01  0.91898072371E+01  0.00000000000E+00 0. -1.
         11    1    3    3    0    0  0.37442452594E+01  0.38183863675E+02 -0.12895825568E+04  0.12901531683E+04  0.00000000000E+00 0. -1.
        -12    1    3    3    0    0 -0.54097262960E+02  0.94555292594E+01 -0.63934409622E+03  0.64169836705E+03  0.00000000000E+00 0.  1.
          5    1    4    4  501    0 -0.39455173960E+02  0.13213734796E+01 -0.11233613045E+03  0.11914417898E+03  0.41800000000E+01 0.  1.
         -5    1    4    4    0  501  0.94863430803E+02  0.41589049953E+02 -0.30588401337E+03  0.32297247810E+03  0.41800000000E+01 0.  1.
</event>
<event>
11    1  0.8551154E-009  0.1207653E+04  0.7561462E-02  0.8503252E-01
         22   -1    0    0    0    0  0.00000000000E+00  0.00000000000E+00  0.20324943356E+03  0.20324943356E+03  0.00000000000E+00 0.  1.
         22   -1    0    0    0    0 -0.00000000000E+00 -0.00000000000E+00 -0.17938868297E+04  0.17938868297E+04  0.00000000000E+00 0.  1.
        -24    2    1    2    0    0 -0.27786578137E+03 -0.25011069295E+02 -0.25325737277E+03  0.38535545615E+03  0.80774901305E+02 0.  0.
         25    2    1    2    0    0  0.50311756187E+03  0.16378579223E+03 -0.11664122585E+04  0.12869061574E+04  0.12512727219E+03 0.  0.
         24    2    1    2    0    0 -0.22525178051E+03 -0.13877472293E+03 -0.17096776487E+03  0.32487464977E+03  0.79478129640E+02 0.  0.
        -13    1    5    5    0    0 -0.16672383444E+03 -0.13961626081E+03 -0.12892721817E+03  0.25280776261E+03  0.00000000000E+00 0.  1.
         14    1    5    5    0    0 -0.58527946069E+02  0.84153788268E+00 -0.42040546704E+02  0.72066887155E+02  0.00000000000E+00 0. -1.
         11    1    3    3    0    0 -0.85643019694E+02 -0.34219572415E+02 -0.47914223087E+02  0.10393016277E+03  0.00000000000E+00 0. -1.
        -12    1    3    3    0    0 -0.19222276167E+03  0.92085031196E+01 -0.20534314968E+03  0.28142529338E+03  0.00000000000E+00 0.  1.
          5    1    4    4  501    0  0.13759130422E+03  0.47395621160E+02 -0.46729691388E+03  0.48945029373E+03  0.41800000000E+01 0.  1.
         -5    1    4    4    0  501  0.36552625765E+03  0.11639017107E+03 -0.69911534463E+03  0.79745586363E+03  0.41800000000E+01 0.  1.
</event>
<event>
11    1  0.8551154E-009  0.1707441E+03  0.7561462E-02  0.1077386E+00
         22   -1    0    0    0    0  0.00000000000E+00  0.00000000000E+00  0.21192800803E+03  0.21192800803E+03  0.00000000000E+00 0.  1.
         22   -1    0    0    0    0 -0.00000000000E+00 -0.00000000000E+00 -0.14933414693E+04  0.14933414693E+04  0.00000000000E+00 0.  1.
        -24    2    1    2    0    0  0.11068620776E+03  0.21482641547E+02 -0.11717893735E+04  0.11800905140E+04  0.82524813493E+02 0.  0.
         25    2    1    2    0    0 -0.12612380165E+03 -0.98077443250E+02 -0.26448992823E+03  0.33336119627E+03  0.12509343240E+03 0.  0.
         24    2    1    2    0    0  0.15437593896E+02  0.76594801702E+02  0.15486584046E+03  0.19181776708E+03  0.81887387760E+02 0.  0.
        -11    1    5    5    0    0  0.29393745968E+02 -0.43660252274E+01  0.54882204303E+02  0.62410822999E+02  0.00000000000E+00 0.  1.
         12    1    5    5    0    0 -0.13956152072E+02  0.80960826930E+02  0.99983636157E+02  0.12940694408E+03  0.00000000000E+00 0. -1.
         11    1    3    3    0    0  0.32570878599E+02 -0.15914594339E+02 -0.66240610389E+03  0.66339730397E+03  0.00000000000E+00 0. -1.
        -12    1    3    3    0    0  0.78115329160E+02  0.37397235887E+02 -0.50938326961E+03  0.51669321000E+03  0.00000000000E+00 0.  1.
          5    1    4    4  501    0 -0.51486235372E+02 -0.11492198236E+03 -0.15574312439E+03  0.20032795027E+03  0.41800000000E+01 0. -1.
         -5    1    4    4    0  501 -0.74637566282E+02  0.16844539115E+02 -0.10874680383E+03  0.13303324601E+03  0.41800000000E+01 0. -1.
</event>
<event>
11    1  0.8551154E-009  0.1342514E+03  0.7561462E-02  0.1114153E+00
         22   -1    0    0    0    0  0.00000000000E+00  0.00000000000E+00  0.12402209405E+04  0.12402209405E+04  0.00000000000E+00 0.  1.
         22   -1    0    0    0    0 -0.00000000000E+00 -0.00000000000E+00 -0.12228047806E+03  0.12228047806E+03  0.00000000000E+00 0.  1.
        -24    2    1    2    0    0  0.33079276558E+02  0.33586728772E+02 -0.80510150836E+02  0.12336958248E+03  0.80720893245E+02 0.  0.
         25    2    1    2    0    0 -0.38628938932E+02 -0.59818950720E+02  0.26478090074E+03  0.30137542004E+03  0.12509083349E+03 0.  0.
         24    2    1    2    0    0  0.55496623749E+01  0.26232221948E+02  0.93366971258E+03  0.93775641607E+03  0.83240828206E+02 0.  0.
        -11    1    5    5    0    0  0.19844426315E+02  0.50252098586E+02  0.44149271847E+03  0.44478634773E+03  0.00000000000E+00 0.  1.
         12    1    5    5    0    0 -0.14294763940E+02 -0.24019876638E+02  0.49217699411E+03  0.49297006834E+03  0.00000000000E+00 0. -1.
         13    1    3    3    0    0  0.13692008590E+02  0.84196463280E+01  0.15445439645E+02  0.22291773131E+02  0.00000000000E+00 0. -1.
        -14    1    3    3    0    0  0.19387267968E+02  0.25167082444E+02 -0.95955590481E+02  0.10107780935E+03  0.00000000000E+00 0.  1.
          5    1    4    4  501    0 -0.43877613910E+00 -0.86441367622E+02  0.22096588158E+03  0.23730928297E+03  0.41800000000E+01 0. -1.
         -5    1    4    4    0  501 -0.38190162793E+02  0.26622416902E+02  0.43815019161E+02  0.64066137077E+02  0.41800000000E+01 0. -1.
</event>
<event>
11    1  0.8551154E-009  0.1326797E+03  0.7561462E-02  0.1116020E+00
         22   -1    0    0    0    0  0.00000000000E+00  0.00000000000E+00  0.28613588363E+03  0.28613588363E+03  0.00000000000E+00 0.  1.
         22   -1    0    0    0    0 -0.00000000000E+00 -0.00000000000E+00 -0.49407574811E+03  0.49407574811E+03  0.00000000000E+00 0. -1.
        -24    2    1    2    0    0 -0.33959072832E+02  0.25781987826E+02 -0.39727694098E+03  0.40618140321E+03  0.73050906615E+02 0.  0.
         25    2    1    2    0    0  0.48767485393E+02 -0.43825029276E+02 -0.25393658882E+02  0.14349665267E+03  0.12509016986E+03 0.  0.
         24    2    1    2    0    0 -0.14808412561E+02  0.18043041450E+02  0.21473073539E+03  0.23053357586E+03  0.80570468856E+02 0.  0.
        -13    1    5    5    0    0 -0.43370153422E+02 -0.74784913805E+01  0.13668060844E+03  0.14359138820E+03  0.00000000000E+00 0.  1.
         14    1    5    5    0    0  0.28561740860E+02  0.25521532830E+02  0.78050126945E+02  0.86942187660E+02  0.00000000000E+00 0. -1.
         13    1    3    3    0    0 -0.27529980762E+02  0.46643007600E+02 -0.34927011569E+03  0.35344459780E+03  0.00000000000E+00 0. -1.
        -14    1    3    3    0    0 -0.64290920693E+01 -0.20861019774E+02 -0.48006825287E+02  0.52736805411E+02  0.00000000000E+00 0.  1.
          5    1    4    4  501    0 -0.26988636928E+02 -0.34881824517E+02 -0.46513208479E+02  0.64234563654E+02  0.41800000000E+01 0. -1.
         -5    1    4    4    0  501  0.75756122321E+02 -0.89432047594E+01  0.21119549597E+02  0.79262089019E+02  0.41800000000E+01 0. -1.
</event>
<event>
11    1  0.8551154E-009  0.1599097E+03  0.7561462E-02  0.1087162E+00
         22   -1    0    0    0    0  0.00000000000E+00  0.00000000000E+00  0.41380474397E+03  0.41380474397E+03  0.00000000000E+00 0.  1.
         22   -1    0    0    0    0 -0.00000000000E+00 -0.00000000000E+00 -0.28129860519E+03  0.28129860519E+03  0.00000000000E+00 0.  1.
        -24    2    1    2    0    0  0.62342242719E+02 -0.70976711225E+02 -0.19331135582E+03  0.22988430357E+03  0.80952232675E+02 0.  0.
         25    2    1    2    0    0 -0.14020446868E+03  0.10205001714E+03  0.20217617794E+03  0.29426468155E+03  0.12507996181E+03 0.  0.
         24    2    1    2    0    0  0.77862225957E+02 -0.31073305918E+02  0.12364131667E+03  0.17095436404E+03  0.83127268845E+02 0.  0.
        -11    1    5    5    0    0  0.92969730219E+02 -0.38327593222E+02  0.98691469178E+02  0.14089847844E+03  0.00000000000E+00 0.  1.
         12    1    5    5    0    0 -0.15107504262E+02  0.72542873037E+01  0.24949847490E+02  0.30055885598E+02  0.00000000000E+00 0. -1.
         13    1    3    3    0    0 -0.16416613924E+02 -0.17806266000E+02 -0.70870534608E+02  0.74894599253E+02  0.00000000000E+00 0. -1.
        -14    1    3    3    0    0  0.78758856643E+02 -0.53170445224E+02 -0.12244082121E+03  0.15498970431E+03  0.00000000000E+00 0.  1.
          5    1    4    4  501    0 -0.65139801072E+02  0.11589281346E+03  0.98782086030E+02  0.16567954254E+03  0.41800000000E+01 0.  1.
         -5    1    4    4    0  501 -0.75064667604E+02 -0.13842796322E+02  0.10339409191E+03  0.12858513901E+03  0.41800000000E+01 0.  1.
</event>
<event>
11    1  0.8551154E-009  0.1491538E+03  0.7561462E-02  0.1097747E+00
         22   -1    0    0    0    0  0.00000000000E+00  0.00000000000E+00  0.62488498873E+03  0.62488498873E+03  0.00000000000E+00 0. -1.
         22   -1    0    0    0    0 -0.00000000000E+00 -0.00000000000E+00 -0.12122956353E+04  0.12122956353E+04  0.00000000000E+00 0. -1.
        -24    2    1    2    0    0  0.78597416612E+02  0.22686769124E+02 -0.11751055904E+04  0.11806858469E+04  0.80334780894E+02 0.  0.
         25    2    1    2    0    0 -0.56910999566E+02  0.32828837103E+02  0.14457069761E+03  0.20215069748E+03  0.12509046114E+03 0.  0.
         24    2    1    2    0    0 -0.21686417046E+02 -0.55515606227E+02  0.44312424630E+03  0.45434407961E+03  0.80728940264E+02 0.  0.
        -13    1    5    5    0    0  0.62929842232E+01  0.19356222632E+02  0.96641997023E+02  0.98762040247E+02  0.00000000000E+00 0.  1.
         14    1    5    5    0    0 -0.27979401269E+02 -0.74871828859E+02  0.34648224928E+03  0.35558203936E+03  0.00000000000E+00 0. -1.
         11    1    3    3    0    0  0.35189806127E+02 -0.22771443546E+02 -0.72527980967E+03  0.72648996098E+03  0.00000000000E+00 0. -1.
        -12    1    3    3    0    0  0.43407610486E+02  0.45458212670E+02 -0.44982578078E+03  0.45419588593E+03  0.00000000000E+00 0.  1.
          5    1    4    4  501    0  0.28565351276E+02  0.16510512818E+02  0.97735877445E+02  0.10323928742E+03  0.41800000000E+01 0. -1.
         -5    1    4    4    0  501 -0.85476350842E+02  0.16318324284E+02  0.46834820164E+02  0.98911410062E+02  0.41800000000E+01 0. -1.
</event>
<event>
11    1  0.8551154E-009  0.1345766E+03  0.7561462E-02  0.1113770E+00
         22   -1    0    0    0    0  0.00000000000E+00  0.00000000000E+00  0.37530875238E+02  0.37530875238E+02  0.00000000000E+00 0.  1.
         22   -1    0    0    0    0 -0.00000000000E+00 -0.00000000000E+00 -0.24551169665E+04  0.24551169665E+04  0.00000000000E+00 0. -1.
         24    2    1    2    0    0  0.44744668391E+02  0.19206509379E+02 -0.15907644978E+04  0.15934999725E+04  0.79620973223E+02 0.  0.
         25    2    1    2    0    0 -0.59066988705E+02  0.50548624588E+01 -0.79357221000E+03  0.80555495240E+03  0.12508983999E+03 0.  0.
        -24    2    1    2    0    0  0.14322320314E+02 -0.24261371838E+02 -0.33249383432E+02  0.93592916857E+02  0.82827347927E+02 0.  0.
        -13    1    3    3    0    0  0.11705901628E+02 -0.17710478943E+02 -0.11748072342E+03  0.11938345602E+03  0.00000000000E+00 0.  1.
         14    1    3    3    0    0  0.33038766763E+02  0.36916988322E+02 -0.14732837744E+04  0.14741165165E+04  0.00000000000E+00 0. -1.
         11    1    5    5    0    0  0.98787998082E+01  0.29815755977E+02 -0.21535684967E+02  0.38083536038E+02  0.00000000000E+00 0. -1.
        -12    1    5    5    0    0  0.44435205061E+01 -0.54077127815E+02 -0.11713698465E+02  0.55509380819E+02  0.00000000000E+00 0.  1.
          5    1    4    4  501    0 -0.33889015060E+02 -0.54315537241E+02 -0.54325978576E+03  0.54703501730E+03  0.41800000000E+01 0.  1.
         -5    1    4    4    0  501 -0.25177973645E+02  0.59370399699E+02 -0.25031242424E+03  0.25851993510E+03  0.41800000000E+01 0.  1.
</event>
<event>
11    1  0.8551154E-009  0.2540784E+03  0.7561462E-02  0.1021749E+00
         22   -1    0    0    0    0  0.00000000000E+00  0.00000000000E+00  0.34044626967E+04  0.34044626967E+04  0.00000000000E+00 0. -1.
         22   -1    0    0    0    0 -0.00000000000E+00 -0.00000000000E+00 -0.65696297216E+02  0.65696297216E+02  0.00000000000E+00 0. -1.
         24    2    1    2    0    0 -0.75268280757E+02  0.63186980471E+01  0.27843501194E+02  0.11313988909E+03  0.79499269887E+02 0.  0.
         25    2    1    2    0    0 -0.98166811411E+02  0.15374830498E+03  0.69471093468E+03  0.72907153076E+03  0.12508696997E+03 0.  0.
        -24    2    1    2    0    0  0.17343509217E+03 -0.16006700303E+03  0.26162119636E+04  0.26279475740E+04  0.76434526386E+02 0.  0.
        -13    1    3    3    0    0  0.76215975627E+01  0.19606748524E+02  0.19661487245E+02  0.28793878130E+02  0.00000000000E+00 0.  1.
         14    1    3    3    0    0 -0.82889878319E+02 -0.13288050477E+02  0.81820139486E+01  0.84346010964E+02  0.00000000000E+00 0. -1.
         11    1    5    5    0    0  0.16173740436E+03 -0.16361918737E+03  0.22949434833E+04  0.23064465782E+04  0.00000000000E+00 0. -1.
        -12    1    5    5    0    0  0.11697687808E+02  0.35521843408E+01  0.32126848030E+03  0.32150099587E+03  0.00000000000E+00 0.  1.
          5    1    4    4  501    0 -0.84891936442E+02  0.49328697858E+02  0.47943755877E+03  0.48940556440E+03  0.41800000000E+01 0. -1.
         -5    1    4    4    0  501 -0.13274874969E+02  0.10441960712E+03  0.21527337591E+03  0.23966596637E+03  0.41800000000E+01 0. -1.
</event>
<event>
11    1  0.8551154E-009  0.1575472E+03  0.7561462E-02  0.1089407E+00
         22   -1    0    0    0    0  0.00000000000E+00  0.00000000000E+00  0.97239200083E+03  0.97239200083E+03  0.00000000000E+00 0.  1.
         22   -1    0    0    0    0 -0.00000000000E+00 -0.00000000000E+00 -0.25860371007E+03  0.25860371007E+03  0.00000000000E+00 0.  1.
         24    2    1    2    0    0 -0.60395684535E+02 -0.72844897684E+02 -0.13328485730E+03  0.18124169708E+03  0.78292284084E+02 0.  0.
         25    2    1    2    0    0  0.37494569234E+02  0.95579403329E+02 -0.33104601103E+02  0.16518158573E+03  0.12509107317E+03 0.  0.
        -24    2    1    2    0    0  0.22901115301E+02 -0.22734505644E+02  0.88017774916E+03  0.88457242808E+03  0.81940170716E+02 0.  0.
        -13    1    3    3    0    0 -0.41710411462E+02 -0.90685065818E+01 -0.95947986732E+02  0.10501434375E+03  0.00000000000E+00 0.  1.
         14    1    3    3    0    0 -0.18685273073E+02 -0.63776391102E+02 -0.37336870566E+02  0.76227353329E+02  0.00000000000E+00 0. -1.
         11    1    5    5    0    0  0.36687029961E+02 -0.35382585019E+02  0.31596708092E+03  0.32005165476E+03  0.00000000000E+00 0. -1.
        -12    1    5    5    0    0 -0.13785914660E+02  0.12648079375E+02  0.56421066825E+03  0.56452077333E+03  0.00000000000E+00 0.  1.
          5    1    4    4  501    0  0.15195103490E+02  0.52568740501E+02 -0.80401591275E+02  0.97346042177E+02  0.41800000000E+01 0. -1.
         -5    1    4    4    0  501  0.22299465744E+02  0.43010662827E+02  0.47296990172E+02  0.67835543549E+02  0.41800000000E+01 0. -1.
</event>
<event>
11    1  0.8551154E-009  0.1997818E+03  0.7561462E-02  0.1054678E+00
         22   -1    0    0    0    0  0.00000000000E+00  0.00000000000E+00  0.43810980314E+04  0.43810980314E+04  0.00000000000E+00 0. -1.
         22   -1    0    0    0    0 -0.00000000000E+00 -0.00000000000E+00 -0.17523160289E+03  0.17523160289E+03  0.00000000000E+00 0.  1.
        -24    2    1    2    0    0 -0.54417348041E+02  0.14182419983E+03 -0.10508896007E+03  0.20139196051E+03  0.80247621797E+02 0.  0.
         25    2    1    2    0    0  0.35899179662E+02 -0.21866843065E+03  0.74649679084E+03  0.78867616701E+03  0.12509198222E+03 0.  0.
         24    2    1    2    0    0  0.18518168379E+02  0.76844230818E+02  0.35644585978E+04  0.35662615068E+04  0.81290106028E+02 0.  0.
        -13    1    5    5    0    0  0.44536422576E+02  0.71210610198E+02  0.23238949817E+04  0.23254122925E+04  0.00000000000E+00 0.  1.
         14    1    5    5    0    0 -0.26018254197E+02  0.56336206196E+01  0.12405636161E+04  0.12408492143E+04  0.00000000000E+00 0. -1.
         11    1    3    3    0    0  0.10035793590E+02  0.43381866582E+02 -0.61467989537E+02  0.75901365198E+02  0.00000000000E+00 0. -1.
        -12    1    3    3    0    0 -0.64453141631E+02  0.98442333249E+02 -0.43620970532E+02  0.12549059531E+03  0.00000000000E+00 0.  1.
          5    1    4    4  501    0 -0.16195304453E+02 -0.14533545682E+03  0.30734325891E+03  0.34038512613E+03  0.41800000000E+01 0.  1.
         -5    1    4    4    0  501  0.52094484115E+02 -0.73332973828E+02  0.43915353193E+03  0.44829104088E+03  0.41800000000E+01 0.  1.
</event>
<event>
11    1  0.8551154E-009  0.1394145E+03  0.7561462E-02  0.1108214E+00
         22   -1    0    0    0    0  0.00000000000E+00  0.00000000000E+00  0.15653351570E+03  0.15653351570E+03  0.00000000000E+00 0. -1.
         22   -1    0    0    0    0 -0.00000000000E+00 -0.00000000000E+00 -0.10435131100E+04  0.10435131100E+04  0.00000000000E+00 0. -1.
         24    2    1    2    0    0  0.37165428932E+02 -0.47457500022E+02 -0.82140147393E+03  0.82790523534E+03  0.84221219998E+02 0.  0.
         25    2    1    2    0    0 -0.63683704821E+02  0.40574721370E+02 -0.17870502702E+03  0.23083523850E+03  0.12508996113E+03 0.  0.
        -24    2    1    2    0    0  0.26518275889E+02  0.68827786522E+01  0.11312690668E+03  0.14130615183E+03  0.80119535281E+02 0.  0.
        -13    1    3    3    0    0 -0.20995940681E+02 -0.28859192269E+02 -0.17349261979E+03  0.17712529922E+03  0.00000000000E+00 0.  1.
         14    1    3    3    0    0  0.58161369613E+02 -0.18598307753E+02 -0.64790885415E+03  0.65077993611E+03  0.00000000000E+00 0. -1.
         13    1    5    5    0    0  0.34467084424E+02 -0.53087806099E+01  0.12017692888E+03  0.12513455675E+03  0.00000000000E+00 0. -1.
        -14    1    5    5    0    0 -0.79488085352E+01  0.12191559262E+02 -0.70500221992E+01  0.16171595078E+02  0.00000000000E+00 0.  1.
          5    1    4    4  501    0 -0.37138602803E+02  0.44872681348E+02 -0.19190172118E+03  0.20059056892E+03  0.41800000000E+01 0. -1.
         -5    1    4    4    0  501 -0.26545102019E+02 -0.42979599780E+01  0.13196694158E+02  0.30244669578E+02  0.41800000000E+01 0. -1.
</event>
<event>
11    1  0.8551154E-009  0.2199636E+03  0.7561462E-02  0.1041240E+00
         22   -1    0    0    0    0  0.00000000000E+00  0.00000000000E+00  0.11673198292E+04  0.11673198292E+04  0.00000000000E+00 0. -1.
         22   -1    0    0    0    0 -0.00000000000E+00 -0.00000000000E+00 -0.15239840680E+04  0.15239840680E+04  0.00000000000E+00 0.  1.
         24    2    1    2    0    0  0.23620972098E+02  0.59321523333E+01 -0.14767504885E+04  0.14791504980E+04  0.80629087913E+02 0.  0.
         25    2    1    2    0    0  0.16337278773E+03 -0.13671429651E+02  0.28044844596E+03  0.34808650971E+03  0.12504123974E+03 0.  0.
        -24    2    1    2    0    0 -0.18699375983E+03  0.77392773174E+01  0.83963780372E+03  0.86406688946E+03  0.81199663782E+02 0.  0.
        -13    1    3    3    0    0  0.33251201039E+02  0.37491720594E+02 -0.10040420677E+04  0.10052918707E+04  0.00000000000E+00 0.  1.
         14    1    3    3    0    0 -0.96302289413E+01 -0.31559568260E+02 -0.47270842077E+03  0.47385862736E+03  0.00000000000E+00 0. -1.
         11    1    5    5    0    0 -0.19171434177E+03  0.11919498865E+02  0.83320306630E+03  0.85505778342E+03  0.00000000000E+00 0. -1.
        -12    1    5    5    0    0  0.47205819372E+01 -0.41802215480E+01  0.64347374180E+01  0.90091060408E+01  0.00000000000E+00 0.  1.
          5    1    4    4  501    0  0.14550953588E+03 -0.36654569547E+02  0.28110092837E+03  0.31867191096E+03  0.41800000000E+01 0.  1.
         -5    1    4    4    0  501  0.17863251855E+02  0.22983139896E+02 -0.65248241169E+00  0.29414598750E+02  0.41800000000E+01 0.  1.
</event>
<event>
11    1  0.8551154E-009  0.1285594E+03  0.7561462E-02  0.1121052E+00
         22   -1    0    0    0    0  0.00000000000E+00  0.00000000000E+00  0.28066061913E+03  0.28066061913E+03  0.00000000000E+00 0.  1.
         22   -1    0    0    0    0 -0.00000000000E+00 -0.00000000000E+00 -0.11459779808E+04  0.11459779808E+04  0.00000000000E+00 0.  1.
         24    2    1    2    0    0 -0.45218252767E+01  0.18512432995E+02 -0.10804059980E+04  0.10836342685E+04  0.81381510890E+02 0.  0.
         25    2    1    2    0    0 -0.32795936639E+01  0.13103955231E+02  0.18764563911E+02  0.12720905805E+03  0.12509023229E+03 0.  0.
        -24    2    1    2    0    0  0.78014189406E+01 -0.31616388226E+02  0.19632407237E+03  0.21579527341E+03  0.83450587125E+02 0.  0.
        -13    1    3    3    0    0 -0.21205312783E+02  0.41821239249E+02 -0.87281523461E+03  0.87407386136E+03  0.00000000000E+00 0.  1.
         14    1    3    3    0    0  0.16683487506E+02 -0.23308806254E+02 -0.20759076336E+03  0.20956040713E+03  0.00000000000E+00 0. -1.
         11    1    5    5    0    0 -0.18977878949E+02 -0.62564450477E+01  0.45330936160E+01  0.20490288718E+02  0.00000000000E+00 0. -1.
        -12    1    5    5    0    0  0.26779297889E+02 -0.25359943178E+02  0.19179097876E+03  0.19530498469E+03  0.00000000000E+00 0.  1.
          5    1    4    4  501    0 -0.87827402031E+01 -0.46473878575E+00 -0.52979437957E+02  0.53866926345E+02  0.41800000000E+01 0.  1.
         -5    1    4    4    0  501  0.55031465392E+01  0.13568694017E+02  0.71744001868E+02  0.73342131706E+02  0.41800000000E+01 0.  1.
</event>
<event>
11    1  0.8551154E-009  0.2024827E+03  0.7561462E-02  0.1052782E+00
         22   -1    0    0    0    0  0.00000000000E+00  0.00000000000E+00  0.48883186303E+03  0.48883186303E+03  0.00000000000E+00 0. -1.
         22   -1    0    0    0    0 -0.00000000000E+00 -0.00000000000E+00 -0.12985242979E+04  0.12985242979E+04  0.00000000000E+00 0.  1.
         24    2    1    2    0    0  0.89316223022E+02  0.70720086746E+02 -0.12099635558E+04  0.12180409106E+04  0.81444061887E+02 0.  0.
         25    2    1    2    0    0  0.63973782612E+01 -0.19087025806E+03  0.19227705090E+03  0.29847911142E+03  0.12508770442E+03 0.  0.
        -24    2    1    2    0    0 -0.95713601283E+02  0.12015017131E+03  0.20799406999E+03  0.27083613894E+03  0.80582404190E+02 0.  0.
        -11    1    3    3    0    0  0.77034252366E+02  0.29744780784E+02 -0.10192149628E+04  0.10225547264E+04  0.00000000000E+00 0.  1.
         12    1    3    3    0    0  0.12281970656E+02  0.40975305963E+02 -0.19074859296E+03  0.19548618421E+03  0.00000000000E+00 0. -1.
         13    1    5    5    0    0 -0.74265528957E+02  0.41910050883E+02  0.14462541826E+03  0.16789381395E+03  0.00000000000E+00 0. -1.
        -14    1    5    5    0    0 -0.21448072326E+02  0.78240120427E+02  0.63368651736E+02  0.10294232499E+03  0.00000000000E+00 0.  1.
          5    1    4    4  501    0 -0.24647481525E+02 -0.11913506977E+02  0.80593742097E+02  0.85218857415E+02  0.41800000000E+01 0. -1.
         -5    1    4    4    0  501  0.31044859786E+02 -0.17895675108E+03  0.11168330880E+03  0.21326025401E+03  0.41800000000E+01 0. -1.
</event>
<event>
11    1  0.8551154E-009  0.1326205E+03  0.7561462E-02  0.1116090E+00
         22   -1    0    0    0    0  0.00000000000E+00  0.00000000000E+00  0.11203417400E+04  0.11203417400E+04  0.00000000000E+00 0. -1.
         22   -1    0    0    0    0 -0.00000000000E+00 -0.00000000000E+00 -0.50962885537E+03  0.50962885537E+03  0.00000000000E+00 0.  1.
         24    2    1    2    0    0 -0.42261493681E+02 -0.93647472308E+01 -0.45714912760E+03  0.46658732437E+03  0.82732545326E+02 0.  0.
         25    2    1    2    0    0  0.59558569409E+02  0.12710913101E+02  0.59923691362E+02  0.15148724498E+03  0.12509494835E+03 0.  0.
        -24    2    1    2    0    0 -0.17297075728E+02 -0.33461658702E+01  0.10079383209E+04  0.10118960261E+04  0.87655707872E+02 0.  0.
        -13    1    3    3    0    0 -0.27540500673E+02 -0.17489677590E+02 -0.44411756638E+03  0.44531424945E+03  0.00000000000E+00 0.  1.
         14    1    3    3    0    0 -0.14720993007E+02  0.81249303589E+01 -0.13031561221E+02  0.21273074914E+02  0.00000000000E+00 0. -1.
         13    1    5    5    0    0 -0.14897631712E+02  0.33764656265E+02  0.78581635783E+03  0.78668248975E+03  0.00000000000E+00 0. -1.
        -14    1    5    5    0    0 -0.23994440164E+01 -0.37110822135E+02  0.22212196308E+03  0.22521353630E+03  0.00000000000E+00 0.  1.
          5    1    4    4  501    0  0.36218756822E+02  0.63538319616E+02  0.61095536919E+02  0.95388958674E+02  0.41800000000E+01 0. -1.
         -5    1    4    4    0  501  0.23339812587E+02 -0.50827406515E+02 -0.11718455573E+01  0.56098286308E+02  0.41800000000E+01 0. -1.
</event>
<event>
11    1  0.8551154E-009  0.1339475E+03  0.7561462E-02  0.1114512E+00
         22   -1    0    0    0    0  0.00000000000E+00  0.00000000000E+00  0.71380487758E+03  0.71380487758E+03  0.00000000000E+00 0. -1.
         22   -1    0    0    0    0 -0.00000000000E+00 -0.00000000000E+00 -0.12998488350E+03  0.12998488350E+03  0.00000000000E+00 0.  1.
         24    2    1    2    0    0 -0.22289323661E+02  0.13404448059E+02 -0.94410898424E+02  0.12763841570E+03  0.81863631998E+02 0.  0.
         25    2    1    2    0    0 -0.18634036468E+02 -0.43641257628E+02  0.37754654187E+03  0.40054986729E+03  0.12508804189E+03 0.  0.
        -24    2    1    2    0    0  0.40923360129E+02  0.30236809569E+02  0.30068435064E+03  0.31560147810E+03  0.81266402691E+02 0.  0.
        -13    1    3    3    0    0 -0.43112611973E+02  0.85575348818E+01 -0.96616899501E+02  0.10614496683E+03  0.00000000000E+00 0.  1.
         14    1    3    3    0    0  0.20823288312E+02  0.48469131768E+01  0.22060010774E+01  0.21493448868E+02  0.00000000000E+00 0. -1.
         11    1    5    5    0    0  0.52241142073E+02  0.54995427083E+01  0.98836090859E+02  0.11192834651E+03  0.00000000000E+00 0. -1.
        -12    1    5    5    0    0 -0.11317781944E+02  0.24737266861E+02  0.20184825978E+03  0.20367313160E+03  0.00000000000E+00 0.  1.
          5    1    4    4  501    0 -0.22543373584E+02 -0.74709748530E+02  0.35005313898E+03  0.35867035385E+03  0.41800000000E+01 0.  1.
         -5    1    4    4    0  501  0.39093371163E+01  0.31068490902E+02  0.27493402886E+02  0.41879513438E+02  0.41800000000E+01 0.  1.
</event>
<event>
11    1  0.8551154E-009  0.1589970E+03  0.7561462E-02  0.1088024E+00
         22   -1    0    0    0    0  0.00000000000E+00  0.00000000000E+00  0.10012582868E+04  0.10012582868E+04  0.00000000000E+00 0. -1.
         22   -1    0    0    0    0 -0.00000000000E+00 -0.00000000000E+00 -0.32485142081E+03  0.32485142081E+03  0.00000000000E+00 0.  1.
        -24    2    1    2    0    0 -0.96165726566E+02  0.21943173470E+02 -0.29094133374E+03  0.31752107864E+03  0.80270952879E+02 0.  0.
         25    2    1    2    0    0  0.89302089136E+02  0.76831291409E+01  0.32097274503E+03  0.35595754359E+03  0.12509346980E+03 0.  0.
         24    2    1    2    0    0  0.68636374302E+01 -0.29626302611E+02  0.64637545468E+03  0.65263108537E+03  0.84860343243E+02 0.  0.
        -13    1    5    5    0    0 -0.16358095591E+02 -0.38938803472E+02  0.15595453712E+03  0.16157238426E+03  0.00000000000E+00 0.  1.
         14    1    5    5    0    0  0.23221733022E+02  0.93125008612E+01  0.49042091756E+03  0.49105870111E+03  0.00000000000E+00 0. -1.
         11    1    3    3    0    0 -0.53606198730E+02 -0.20272564423E+02 -0.81247866266E+02  0.99427446831E+02  0.00000000000E+00 0. -1.
        -12    1    3    3    0    0 -0.42559527836E+02  0.42215737893E+02 -0.20969346747E+03  0.21809363181E+03  0.00000000000E+00 0.  1.
          5    1    4    4  501    0  0.10404199278E+03  0.45088552742E+02  0.23662467338E+03  0.26242412675E+03  0.41800000000E+01 0. -1.
         -5    1    4    4    0  501 -0.14739903639E+02 -0.37405423601E+02  0.84348071655E+02  0.93533416841E+02  0.41800000000E+01 0. -1.
</event>
<event>
11    1  0.8551154E-009  0.2444551E+03  0.7561462E-02  0.1026895E+00
         22   -1    0    0    0    0  0.00000000000E+00  0.00000000000E+00  0.15251664062E+03  0.15251664062E+03  0.00000000000E+00 0. -1.
         22   -1    0    0    0    0 -0.00000000000E+00 -0.00000000000E+00 -0.14545975573E+04  0.14545975573E+04  0.00000000000E+00 0.  1.
         24    2    1    2    0    0 -0.42516980844E+02 -0.48203444324E+02 -0.66885190585E+03  0.67693921830E+03  0.82174008153E+02 0.  0.
         25    2    1    2    0    0  0.22427296492E+03 -0.53049445528E+02 -0.65309869909E+03  0.70377349408E+03  0.12508642515E+03 0.  0.
        -24    2    1    2    0    0 -0.18175598407E+03  0.10125288985E+03  0.19869688283E+02  0.22640148550E+03  0.87037018996E+02 0.  0.
        -13    1    3    3    0    0  0.68767274983E+01 -0.42379650124E+02 -0.47019043379E+03  0.47214655368E+03  0.00000000000E+00 0.  1.
         14    1    3    3    0    0 -0.49393708342E+02 -0.58237941997E+01 -0.19866147206E+03  0.20479266462E+03  0.00000000000E+00 0. -1.
         11    1    5    5    0    0 -0.16670266096E+03  0.54797520484E+02  0.25198947634E+02  0.17727812156E+03  0.00000000000E+00 0. -1.
        -12    1    5    5    0    0 -0.15053323115E+02  0.46455369369E+02 -0.53292593510E+01  0.49123363944E+02  0.00000000000E+00 0.  1.
          5    1    4    4  501    0  0.19044076714E+03 -0.46204689480E+02 -0.37151926161E+03  0.42005546452E+03  0.41800000000E+01 0. -1.
         -5    1    4    4    0  501  0.33832197771E+02 -0.68447560485E+01 -0.28157943747E+03  0.28371802956E+03  0.41800000000E+01 0. -1.
</event>
<event>
11    1  0.8551154E-009  0.1657814E+03  0.7561462E-02  0.1081762E+00
         22   -1    0    0    0    0  0.00000000000E+00  0.00000000000E+00  0.38079169004E+03  0.38079169004E+03  0.00000000000E+00 0.  1.
         22   -1    0    0    0    0 -0.00000000000E+00 -0.00000000000E+00 -0.72040899381E+03  0.72040899381E+03  0.00000000000E+00 0. -1.
         24    2    1    2    0    0  0.81664448782E+01 -0.17186819077E+02 -0.46923690600E+03  0.47653952464E+03  0.80898498241E+02 0.  0.
         25    2    1    2    0    0  0.63006525062E+02 -0.66387069158E+02 -0.20869946195E+03  0.25996121926E+03  0.12508918799E+03 0.  0.
        -24    2    1    2    0    0 -0.71172969940E+02  0.83573888235E+02  0.33831906419E+03  0.36469993995E+03  0.80598204430E+02 0.  0.
        -13    1    3    3    0    0 -0.12039746916E+02 -0.45775853694E+02 -0.30098042611E+03  0.30467950569E+03  0.00000000000E+00 0.  1.
         14    1    3    3    0    0  0.20206191795E+02  0.28589034617E+02 -0.16825647989E+03  0.17186001895E+03  0.00000000000E+00 0. -1.
         11    1    5    5    0    0 -0.74280980483E+01  0.15986586033E+01 -0.28210953562E+01  0.81049940748E+01  0.00000000000E+00 0. -1.
        -12    1    5    5    0    0 -0.63744871892E+02  0.81975229632E+02  0.34114015955E+03  0.35659494587E+03  0.00000000000E+00 0.  1.
          5    1    4    4  501    0 -0.35345751891E+02  0.11447514210E+01 -0.49146675203E+02  0.60691850492E+02  0.41800000000E+01 0. -1.
         -5    1    4    4    0  501  0.98352276953E+02 -0.67531820579E+02 -0.15955278675E+03  0.19926936877E+03  0.41800000000E+01 0. -1.
</event>
<event>
11    1  0.8551154E-009  0.1362065E+03  0.7561462E-02  0.1111870E+00
         22   -1    0    0    0    0  0.00000000000E+00  0.00000000000E+00  0.16342233496E+03  0.16342233496E+03  0.00000000000E+00 0.  1.
         22   -1    0    0    0    0 -0.00000000000E+00 -0.00000000000E+00 -0.82763098603E+03  0.82763098603E+03  0.00000000000E+00 0.  1.
        -24    2    1    2    0    0 -0.17370495105E+02 -0.14447668426E+02 -0.64906158270E+03  0.65448503648E+03  0.80989231421E+02 0.  0.
         25    2    1    2    0    0 -0.30885965449E+02  0.40287293174E+02 -0.12850986331E+03  0.18638501013E+03  0.12509028012E+03 0.  0.
         24    2    1    2    0    0  0.48256460554E+02 -0.25839624748E+02  0.11336279494E+03  0.15018327438E+03  0.81899453204E+02 0.  0.
        -11    1    5    5    0    0  0.43774666021E+02  0.87880150016E+01  0.10526175361E+03  0.11433935178E+03  0.00000000000E+00 0.  1.
         12    1    5    5    0    0  0.44817945328E+01 -0.34627639750E+02  0.81010413326E+01  0.35843922602E+02  0.00000000000E+00 0. -1.
         13    1    3    3    0    0 -0.62562819000E+01  0.27488167466E+02 -0.10571871655E+03  0.10941292174E+03  0.00000000000E+00 0. -1.
        -14    1    3    3    0    0 -0.11114213205E+02 -0.41935835892E+02 -0.54334286615E+03  0.54507211474E+03  0.00000000000E+00 0.  1.
          5    1    4    4  501    0  0.16410207526E+02  0.66812458844E+02 -0.10828258479E+03  0.12835805443E+03  0.41800000000E+01 0.  1.
         -5    1    4    4    0  501 -0.47296172975E+02 -0.26525165670E+02 -0.20227278523E+02  0.58026955705E+02  0.41800000000E+01 0.  1.
</event>
<event>
11    1  0.8551154E-009  0.4522927E+03  0.7561462E-02  0.9506936E-01
         22   -1    0    0    0    0  0.00000000000E+00  0.00000000000E+00  0.99110654700E+03  0.99110654700E+03  0.00000000000E+00 0.  1.
         22   -1    0    0    0    0 -0.00000000000E+00 -0.00000000000E+00 -0.16440609011E+04  0.16440609011E+04  0.00000000000E+00 0.  1.
        -24    2    1    2    0    0 -0.11683521388E+03  0.34711291243E+02 -0.87000244709E+03  0.88218251493E+03  0.80538132372E+02 0.  0.
         25    2    1    2    0    0  0.51208812454E+03  0.12944727936E+03 -0.61099588168E+03  0.81728505642E+03  0.12509216842E+03 0.  0.
         24    2    1    2    0    0 -0.39525291066E+03 -0.16415857060E+03  0.82804397464E+03  0.93569987678E+03  0.81881229807E+02 0.  0.
        -13    1    5    5    0    0 -0.37461772939E+03 -0.13589734723E+03  0.78381335555E+03  0.87930080660E+03  0.00000000000E+00 0.  1.
         14    1    5    5    0    0 -0.20635181266E+02 -0.28261223366E+02  0.44230619088E+02  0.56399070178E+02  0.00000000000E+00 0. -1.
         13    1    3    3    0    0 -0.95622829733E+02  0.15707650627E+01 -0.43420842193E+03  0.44461572907E+03  0.00000000000E+00 0. -1.
        -14    1    3    3    0    0 -0.21212384151E+02  0.33140526180E+02 -0.43579402517E+03  0.43756678586E+03  0.00000000000E+00 0.  1.
          5    1    4    4  501    0  0.26738879599E+03  0.81665517292E+01 -0.33846429709E+03  0.43143830798E+03  0.41800000000E+01 0.  1.
         -5    1    4    4    0  501  0.24469932855E+03  0.12128072763E+03 -0.27253158458E+03  0.38584674844E+03  0.41800000000E+01 0.  1.
</event>
<event>
11    1  0.8551154E-009  0.1319284E+03  0.7561462E-02  0.1116922E+00
         22   -1    0    0    0    0  0.00000000000E+00  0.00000000000E+00  0.70504725048E+02  0.70504725048E+02  0.00000000000E+00 0.  1.
         22   -1    0    0    0    0 -0.00000000000E+00 -0.00000000000E+00 -0.33783371559E+04  0.33783371559E+04  0.00000000000E+00 0. -1.
         24    2    1    2    0    0 -0.10337264983E+02 -0.41107530640E+02 -0.32066871612E+04  0.32079310214E+04  0.78626969254E+02 0.  0.
         25    2    1    2    0    0 -0.16210023061E+02  0.20139636581E+02 -0.80836533518E+02  0.15116373833E+03  0.12509021075E+03 0.  0.
        -24    2    1    2    0    0  0.26547288044E+02  0.20967894059E+02 -0.20308736104E+02  0.89747121158E+02  0.80608249641E+02 0.  0.
        -11    1    3    3    0    0  0.30951643128E+02 -0.35521208628E+02 -0.18771714352E+04  0.18777625935E+04  0.00000000000E+00 0.  1.
         12    1    3    3    0    0 -0.41288908111E+02 -0.55863220121E+01 -0.13295157260E+04  0.13301684279E+04  0.00000000000E+00 0. -1.
         13    1    5    5    0    0 -0.14170448027E+02  0.37605308794E+02 -0.21834185960E+02  0.45735025126E+02  0.00000000000E+00 0. -1.
        -14    1    5    5    0    0  0.40717736071E+02 -0.16637414735E+02  0.15254498556E+01  0.44012096032E+02  0.00000000000E+00 0.  1.
          5    1    4    4  501    0 -0.48514492053E+02  0.25030811822E+02 -0.99306712619E+02  0.11339970481E+03  0.41800000000E+01 0.  1.
         -5    1    4    4    0  501  0.32304468991E+02 -0.48911752409E+01  0.18470179101E+02  0.37764033525E+02  0.41800000000E+01 0.  1.
</event>
<event>
11    1  0.8551154E-009  0.1672065E+03  0.7561462E-02  0.1080489E+00
         22   -1    0    0    0    0  0.00000000000E+00  0.00000000000E+00  0.21222753906E+03  0.21222753906E+03  0.00000000000E+00 0. -1.
         22   -1    0    0    0    0 -0.00000000000E+00 -0.00000000000E+00 -0.13799843302E+04  0.13799843302E+04  0.00000000000E+00 0.  1.
        -24    2    1    2    0    0 -0.16849384708E+02  0.21532735203E+02 -0.11697512886E+04  0.11728595594E+04  0.80832594878E+02 0.  0.
         25    2    1    2    0    0  0.30260468085E+02 -0.12858320704E+03 -0.13595223329E+03  0.22711123174E+03  0.12508862772E+03 0.  0.
         24    2    1    2    0    0 -0.13411083378E+02  0.10705047184E+03  0.13794673080E+03  0.19224107810E+03  0.79294835233E+02 0.  0.
        -13    1    5    5    0    0 -0.22025033568E+02  0.39533332795E+02  0.85793113940E+01  0.46060732620E+02  0.00000000000E+00 0.  1.
         14    1    5    5    0    0  0.86139501901E+01  0.67517139040E+02  0.12936741940E+03  0.14618034548E+03  0.00000000000E+00 0. -1.
         11    1    3    3    0    0 -0.18481709379E+02 -0.76153431363E+00 -0.57886083262E+02  0.60769664730E+02  0.00000000000E+00 0. -1.
        -12    1    3    3    0    0  0.16323246708E+01  0.22294269517E+02 -0.11118652054E+04  0.11120898947E+04  0.00000000000E+00 0.  1.
          5    1    4    4  501    0  0.22994643243E+02 -0.22830575573E+01 -0.89096549126E+02  0.92139206833E+02  0.41800000000E+01 0.  1.
         -5    1    4    4    0  501  0.72658248422E+01 -0.12630014948E+03 -0.46855684169E+02  0.13497202491E+03  0.41800000000E+01 0.  1.
</event>
<event>
11    1  0.8551154E-009  0.1515565E+03  0.7561462E-02  0.1095299E+00
         22   -1    0    0    0    0  0.00000000000E+00  0.00000000000E+00  0.25025471478E+03  0.25025471478E+03  0.00000000000E+00 0. -1.
         22   -1    0    0    0    0 -0.00000000000E+00 -0.00000000000E+00 -0.85462169277E+03  0.85462169277E+03  0.00000000000E+00 0. -1.
        -24    2    1    2    0    0 -0.12346930012E+02  0.37459945805E+02 -0.72817321478E+03  0.73376122610E+03  0.81324116856E+02 0.  0.
         25    2    1    2    0    0  0.86394414474E+02 -0.71563633869E+02 -0.38705184789E+02  0.17243043606E+03  0.12509522535E+03 0.  0.
         24    2    1    2    0    0 -0.74047484462E+02  0.34103688065E+02  0.16251142159E+03  0.19868474540E+03  0.80122246677E+02 0.  0.
        -11    1    5    5    0    0 -0.45664528737E+01 -0.22407038804E+02  0.49185728238E+02  0.54241715884E+02  0.00000000000E+00 0.  1.
         12    1    5    5    0    0 -0.69481031588E+02  0.56510726868E+02  0.11332569335E+03  0.14444302951E+03  0.00000000000E+00 0. -1.
         11    1    3    3    0    0  0.30672809245E+02  0.28106760030E+02 -0.23743932164E+03  0.24105651339E+03  0.00000000000E+00 0. -1.
        -12    1    3    3    0    0 -0.43019739258E+02  0.93531857742E+01 -0.49073389315E+03  0.49270471272E+03  0.00000000000E+00 0.  1.
          5    1    4    4  501    0  0.14253497845E+02 -0.41147153567E+02 -0.74381786945E+02  0.86292369747E+02  0.41800000000E+01 0.  1.
         -5    1    4    4    0  501  0.72140916629E+02 -0.30416480302E+02  0.35676602156E+02  0.86138066309E+02  0.41800000000E+01 0.  1.
</event>
<event>
11    1  0.8551154E-009  0.1890879E+03  0.7561462E-02  0.1062520E+00
         22   -1    0    0    0    0  0.00000000000E+00  0.00000000000E+00  0.44322570097E+03  0.44322570097E+03  0.00000000000E+00 0.  1.
         22   -1    0    0    0    0 -0.00000000000E+00 -0.00000000000E+00 -0.43292675633E+03  0.43292675633E+03  0.00000000000E+00 0.  1.
        -24    2    1    2    0    0 -0.14008280013E+03  0.24101339022E+02 -0.34657388682E+03  0.38310906473E+03  0.80343207638E+02 0.  0.
         25    2    1    2    0    0  0.14130328120E+03  0.22701539612E+01  0.80806675317E+02  0.20529966529E+03  0.12508582219E+03 0.  0.
         24    2    1    2    0    0 -0.12204810726E+01 -0.26371492983E+02  0.27606615615E+03  0.28774372729E+03  0.76726689019E+02 0.  0.
        -13    1    5    5    0    0  0.25373379048E+02 -0.42581846803E+02  0.18358237413E+03  0.19015654112E+03  0.00000000000E+00 0.  1.
         14    1    5    5    0    0 -0.26593860121E+02  0.16210353820E+02  0.92483782024E+02  0.97587186170E+02  0.00000000000E+00 0. -1.
         11    1    3    3    0    0 -0.33307740666E+02 -0.23630972192E+02 -0.51680812196E+02  0.65869073048E+02  0.00000000000E+00 0. -1.
        -12    1    3    3    0    0 -0.10677505946E+03  0.47732311214E+02 -0.29489307463E+03  0.31723999168E+03  0.00000000000E+00 0.  1.
          5    1    4    4  501    0  0.12766063751E+03  0.18289064408E+02  0.78677031787E+01  0.12927142530E+03  0.41800000000E+01 0. -1.
         -5    1    4    4    0  501  0.13642643694E+02 -0.16018910447E+02  0.72938972138E+02  0.76028239986E+02  0.41800000000E+01 0. -1.
</event>
<event>
11    1  0.8551154E-009  0.1481696E+03  0.7561462E-02  0.1098764E+00
         22   -1    0    0    0    0  0.00000000000E+00  0.00000000000E+00  0.81328939443E+02  0.81328939443E+02  0.00000000000E+00 0.  1.
         22   -1    0    0    0    0 -0.00000000000E+00 -0.00000000000E+00 -0.10524293651E+04  0.10524293651E+04  0.00000000000E+00 0.  1.
        -24    2    1    2    0    0 -0.12885930716E+02  0.73242256207E+02 -0.42760098224E+03  0.44136265791E+03  0.80174313057E+02 0.  0.
         25    2    1    2    0    0  0.57649165979E+02 -0.73131500425E+02 -0.57920017809E+03  0.59982677702E+03  0.12509066090E+03 0.  0.
         24    2    1    2    0    0 -0.44763235264E+02 -0.11075578126E+00  0.35700734645E+02  0.92568869643E+02  0.72737154706E+02 0.  0.
        -11    1    5    5    0    0 -0.62161397768E+02  0.87818248939E+01  0.37199655321E+02  0.72972420659E+02  0.00000000000E+00 0.  1.
         12    1    5    5    0    0  0.17398162504E+02 -0.88925806751E+01 -0.14989206762E+01  0.19596448984E+02  0.00000000000E+00 0. -1.
         13    1    3    3    0    0  0.10491960667E+02  0.49480587597E+01 -0.24110991864E+03  0.24138880958E+03  0.00000000000E+00 0. -1.
        -14    1    3    3    0    0 -0.23377891383E+02  0.68294197447E+02 -0.18649106360E+03  0.19997384833E+03  0.00000000000E+00 0.  1.
          5    1    4    4  501    0 -0.12277426766E+02 -0.32885407937E+02 -0.41821991426E+03  0.41971127498E+03  0.41800000000E+01 0. -1.
         -5    1    4    4    0  501  0.69926592745E+02 -0.40246092489E+02 -0.16098026383E+03  0.18011550204E+03  0.41800000000E+01 0. -1.
</event>
<event>
11    1  0.8551154E-009  0.2113755E+03  0.7561462E-02  0.1046759E+00
         22   -1    0    0    0    0  0.00000000000E+00  0.00000000000E+00  0.60975694332E+03  0.60975694332E+03  0.00000000000E+00 0.  1.
         22   -1    0    0    0    0 -0.00000000000E+00 -0.00000000000E+00 -0.19408141085E+04  0.19408141085E+04  0.00000000000E+00 0.  1.
         24    2    1    2    0    0 -0.15781555395E+03  0.45019364337E+02 -0.14401435077E+04  0.14512868921E+04  0.72717454990E+02 0.  0.
         25    2    1    2    0    0  0.17150840049E+03 -0.14775187306E+03 -0.45165291612E+03  0.52046426781E+03  0.12508776920E+03 0.  0.
        -24    2    1    2    0    0 -0.13692846549E+02  0.10273250872E+03  0.56073925866E+03  0.57881989186E+03  0.99310063024E+02 0.  0.
        -11    1    3    3    0    0 -0.11816268153E+03  0.32742714848E+00 -0.86121235644E+03  0.86928088061E+03  0.00000000000E+00 0.  1.
         12    1    3    3    0    0 -0.39652872418E+02  0.44691937188E+02 -0.57893115124E+03  0.58200601149E+03  0.00000000000E+00 0. -1.
         13    1    5    5    0    0  0.21529457602E+02 -0.90264537424E+01  0.56272474237E+02  0.60922785299E+02  0.00000000000E+00 0. -1.
        -14    1    5    5    0    0 -0.35222304151E+02  0.11175896246E+03  0.50446678442E+03  0.51789710656E+03  0.00000000000E+00 0.  1.
          5    1    4    4  501    0  0.90274638499E+02 -0.14223222250E+03 -0.36190387832E+03  0.39921348301E+03  0.41800000000E+01 0. -1.
         -5    1    4    4    0  501  0.81233761995E+02 -0.55196505542E+01 -0.89749037795E+02  0.12125078480E+03  0.41800000000E+01 0. -1.
</event>
<event>
11    1  0.8551154E-009  0.1551662E+03  0.7561462E-02  0.1091714E+00
         22   -1    0    0    0    0  0.00000000000E+00  0.00000000000E+00  0.30426961003E+03  0.30426961003E+03  0.00000000000E+00 0.  1.
         22   -1    0    0    0    0 -0.00000000000E+00 -0.00000000000E+00 -0.90786425627E+03  0.90786425627E+03  0.00000000000E+00 0.  1.
         24    2    1    2    0    0 -0.12383228510E+02 -0.53575432524E+02 -0.81796921747E+03  0.82363845603E+03  0.79265340497E+02 0.  0.
         25    2    1    2    0    0 -0.63452859067E+02  0.97436356882E+02  0.38737520196E+02  0.17512542120E+03  0.12509280041E+03 0.  0.
        -24    2    1    2    0    0  0.75836087577E+02 -0.43860924358E+02  0.17563705104E+03  0.21336998906E+03  0.83686830931E+02 0.  0.
        -11    1    3    3    0    0 -0.32099570823E+02 -0.61331309994E+02 -0.47525385275E+03  0.48026881700E+03  0.00000000000E+00 0.  1.
         12    1    3    3    0    0  0.19716342313E+02  0.77558774702E+01 -0.34271536472E+03  0.34336963903E+03  0.00000000000E+00 0. -1.
         11    1    5    5    0    0  0.37385251966E+02  0.23061375098E+02  0.60881171395E+02  0.75073304952E+02  0.00000000000E+00 0. -1.
        -12    1    5    5    0    0  0.38450835611E+02 -0.66922299457E+02  0.11475587964E+03  0.13829668411E+03  0.00000000000E+00 0.  1.
          5    1    4    4  501    0 -0.59315405713E+02  0.20745154450E+02 -0.31987572043E+02  0.70635373244E+02  0.41800000000E+01 0.  1.
         -5    1    4    4    0  501 -0.41374533544E+01  0.76691202432E+02  0.70725092239E+02  0.10449004796E+03  0.41800000000E+01 0.  1.
</event>
<event>
11    1  0.8551154E-009  0.1623393E+03  0.7561462E-02  0.1084898E+00
         22   -1    0    0    0    0  0.00000000000E+00  0.00000000000E+00  0.92474729007E+03  0.92474729007E+03  0.00000000000E+00 0. -1.
         22   -1    0    0    0    0 -0.00000000000E+00 -0.00000000000E+00 -0.20389827214E+03  0.20389827214E+03  0.00000000000E+00 0.  1.
        -24    2    1    2    0    0 -0.47763020210E+02 -0.34093469678E+02 -0.13580305584E+03  0.16808689965E+03  0.79793891267E+02 0.  0.
         25    2    1    2    0    0 -0.47031711300E+02  0.82241666857E+02  0.87089032224E+02  0.17946594601E+03  0.12509137703E+03 0.  0.
         24    2    1    2    0    0  0.94794731510E+02 -0.48148197179E+02  0.76956304155E+03  0.78109271655E+03  0.81081853240E+02 0.  0.
        -11    1    5    5    0    0 -0.38198995995E+01 -0.18397656529E+02  0.28921706025E+03  0.28982679886E+03  0.00000000000E+00 0.  1.
         12    1    5    5    0    0  0.98614631110E+02 -0.29750540650E+02  0.48034598130E+03  0.49126591769E+03  0.00000000000E+00 0. -1.
         11    1    3    3    0    0 -0.34987997648E+00 -0.31025399438E+02 -0.84467216679E+01  0.32156569053E+02  0.00000000000E+00 0. -1.
        -12    1    3    3    0    0 -0.47413140234E+02 -0.30680702392E+01 -0.12735633418E+03  0.13593033060E+03  0.00000000000E+00 0.  1.
          5    1    4    4  501    0 -0.22340463729E+02  0.40010014258E+02 -0.28330867358E+02  0.54037098421E+02  0.41800000000E+01 0. -1.
         -5    1    4    4    0  501 -0.24691247572E+02  0.42231652599E+02  0.11541989958E+03  0.12542884759E+03  0.41800000000E+01 0. -1.
</event>
<event>
11    1  0.8551154E-009  0.2188886E+03  0.7561462E-02  0.1041916E+00
         22   -1    0    0    0    0  0.00000000000E+00  0.00000000000E+00  0.14601060424E+04  0.14601060424E+04  0.00000000000E+00 0.  1.
         22   -1    0    0    0    0 -0.00000000000E+00 -0.00000000000E+00 -0.80577088385E+03  0.80577088385E+03  0.00000000000E+00 0. -1.
         24    2    1    2    0    0 -0.15906690023E+03 -0.83879451205E+02 -0.77810960594E+03  0.80260076364E+03  0.79846013447E+02 0.  0.
         25    2    1    2    0    0  0.15910618988E+03  0.55536401892E+02  0.90757807152E+03  0.93152207559E+03  0.12504539100E+03 0.  0.
        -24    2    1    2    0    0 -0.39289656562E-01  0.28343049313E+02  0.52486669297E+03  0.53175408704E+03  0.80461380169E+02 0.  0.
        -11    1    3    3    0    0 -0.96362503141E+02 -0.29918004805E+02 -0.27906486128E+03  0.29674570902E+03  0.00000000000E+00 0.  1.
         12    1    3    3    0    0 -0.62704397087E+02 -0.53961446400E+02 -0.49904474466E+03  0.50585505462E+03  0.00000000000E+00 0. -1.
         13    1    5    5    0    0  0.13805615568E+02  0.33012827672E+01  0.13506221925E+02  0.19593660194E+02  0.00000000000E+00 0. -1.
        -14    1    5    5    0    0 -0.13844905224E+02  0.25041766546E+02  0.51136047105E+03  0.51216042684E+03  0.00000000000E+00 0.  1.
          5    1    4    4  501    0  0.45725910978E+02  0.61449906095E+02  0.18828231754E+03  0.20330925555E+03  0.41800000000E+01 0.  1.
         -5    1    4    4    0  501  0.11338027891E+03 -0.59135042033E+01  0.71929575398E+03  0.72821282004E+03  0.41800000000E+01 0.  1.
</event>
<event>
11    1  0.8551154E-009  0.1621750E+03  0.7561462E-02  0.1085049E+00
         22   -1    0    0    0    0  0.00000000000E+00  0.00000000000E+00  0.16037977186E+04  0.16037977186E+04  0.00000000000E+00 0. -1.
         22   -1    0    0    0    0 -0.00000000000E+00 -0.00000000000E+00 -0.86096385171E+02  0.86096385171E+02  0.00000000000E+00 0. -1.
         24    2    1    2    0    0 -0.90442504512E+02 -0.52684882767E+02 -0.20345592960E+02  0.13413179014E+03  0.81374753333E+02 0.  0.
         25    2    1    2    0    0  0.73825609321E+02  0.31319836568E+02  0.90938956723E+03  0.92145038176E+03  0.12510103238E+03 0.  0.
        -24    2    1    2    0    0  0.16616895190E+02  0.21365046199E+02  0.62865735921E+03  0.63431193192E+03  0.80056013387E+02 0.  0.
        -11    1    3    3    0    0 -0.17080784447E+01 -0.16546166943E+02  0.23478284542E+02  0.28773651446E+02  0.00000000000E+00 0.  1.
         12    1    3    3    0    0 -0.88734426067E+02 -0.36138715823E+02 -0.43823877502E+02  0.10535813870E+03  0.00000000000E+00 0. -1.
         13    1    5    5    0    0  0.84218952745E+01  0.47955208285E+02  0.51507572790E+03  0.51737185447E+03  0.00000000000E+00 0. -1.
        -14    1    5    5    0    0  0.81949999156E+01 -0.26590162086E+02  0.11358163131E+03  0.11694007745E+03  0.00000000000E+00 0.  1.
          5    1    4    4  501    0  0.10192505511E+03 -0.42521102658E+01  0.57794870959E+03  0.58689775994E+03  0.41800000000E+01 0. -1.
         -5    1    4    4    0  501 -0.28099445792E+02  0.35571946834E+02  0.33144085764E+03  0.33455262182E+03  0.41800000000E+01 0. -1.
</event>
<event>
11    1  0.8551154E-009  0.2306351E+03  0.7561462E-02  0.1034753E+00
         22   -1    0    0    0    0  0.00000000000E+00  0.00000000000E+00  0.19411852802E+04  0.19411852802E+04  0.00000000000E+00 0.  1.
         22   -1    0    0    0    0 -0.00000000000E+00 -0.00000000000E+00 -0.53964402556E+03  0.53964402556E+03  0.00000000000E+00 0. -1.
         24    2    1    2    0    0  0.35877985270E+02 -0.19285287713E+03 -0.43189159813E+03  0.48104620086E+03  0.79972700263E+02 0.  0.
         25    2    1    2    0    0  0.46239374997E+02  0.18722852156E+03  0.81172777736E+02  0.24379691429E+03  0.12512120719E+03 0.  0.
        -24    2    1    2    0    0 -0.82117360267E+02  0.56243555634E+01  0.17522600750E+04  0.17559861906E+04  0.79355130844E+02 0.  0.
        -11    1    3    3    0    0  0.18477163266E+02 -0.12117482884E+03 -0.34995289892E+03  0.37079883517E+03  0.00000000000E+00 0.  1.
         12    1    3    3    0    0  0.17400822004E+02 -0.71678048286E+02 -0.81938699211E+02  0.11024736569E+03  0.00000000000E+00 0. -1.
         13    1    5    5    0    0 -0.33342383574E+02  0.21427337938E+02  0.27549469705E+03  0.27833105011E+03  0.00000000000E+00 0. -1.
        -14    1    5    5    0    0 -0.48774976693E+02 -0.15802982375E+02  0.14767653780E+04  0.14776551405E+04  0.00000000000E+00 0.  1.
          5    1    4    4  501    0  0.72510034582E+02  0.15818027072E+03  0.99350832507E+02  0.20041647507E+03  0.41800000000E+01 0.  1.
         -5    1    4    4    0  501 -0.26270659584E+02  0.29048250838E+02 -0.18178054771E+02  0.43380439221E+02  0.41800000000E+01 0.  1.
</event>
<event>
11    1  0.8551154E-009  0.2022248E+03  0.7561462E-02  0.1052961E+00
         22   -1    0    0    0    0  0.00000000000E+00  0.00000000000E+00  0.61356049876E+03  0.61356049876E+03  0.00000000000E+00 0. -1.
         22   -1    0    0    0    0 -0.00000000000E+00 -0.00000000000E+00 -0.54481738954E+03  0.54481738954E+03  0.00000000000E+00 0.  1.
         24    2    1    2    0    0  0.23711947324E+02 -0.29251605309E+02 -0.47248009060E+03  0.48086390873E+03  0.81084831157E+02 0.  0.
         25    2    1    2    0    0 -0.15767169943E+03  0.93819781371E+02  0.20939444243E+03  0.30521470763E+03  0.12508984393E+03 0.  0.
        -24    2    1    2    0    0  0.13395975211E+03 -0.64568176062E+02  0.33182875739E+03  0.37229927194E+03  0.79888416629E+02 0.  0.
        -11    1    3    3    0    0  0.26623363442E+02 -0.55995462831E+02 -0.35176987930E+03  0.35719230580E+03  0.00000000000E+00 0.  1.
         12    1    3    3    0    0 -0.29114161174E+01  0.26743857522E+02 -0.12071021131E+03  0.12367160293E+03  0.00000000000E+00 0. -1.
         11    1    5    5    0    0  0.86240038440E+02 -0.79059322517E+01  0.23453698769E+03  0.25001489273E+03  0.00000000000E+00 0. -1.
        -12    1    5    5    0    0  0.47719713665E+02 -0.56662243810E+02  0.97291769701E+02  0.12228437920E+03  0.00000000000E+00 0.  1.
          5    1    4    4  501    0 -0.15102257224E+03  0.25737900685E+02  0.13766582600E+03  0.20600875930E+03  0.41800000000E+01 0. -1.
         -5    1    4    4    0  501 -0.66491271881E+01  0.68081880686E+02  0.71728616425E+02  0.99205948332E+02  0.41800000000E+01 0. -1.
</event>
<event>
11    1  0.8551154E-009  0.1478046E+03  0.7561462E-02  0.1099143E+00
         22   -1    0    0    0    0  0.00000000000E+00  0.00000000000E+00  0.16818487584E+04  0.16818487584E+04  0.00000000000E+00 0. -1.
         22   -1    0    0    0    0 -0.00000000000E+00 -0.00000000000E+00 -0.72976592826E+02  0.72976592826E+02  0.00000000000E+00 0. -1.
        -24    2    1    2    0    0  0.22676726198E+02  0.45034462752E+02 -0.18617958596E+02  0.97832375416E+02  0.81744776902E+02 0.  0.
         25    2    1    2    0    0 -0.58749423729E+02 -0.10079835883E+03  0.64589764462E+03  0.66816550194E+03  0.12509822834E+03 0.  0.
         24    2    1    2    0    0  0.36072697531E+02  0.55763896073E+02  0.98159247958E+03  0.98882747389E+03  0.99222606036E+02 0.  0.
        -13    1    5    5    0    0 -0.34383321299E+02  0.24662721769E+02  0.36436243947E+03  0.36681119112E+03  0.00000000000E+00 0.  1.
         14    1    5    5    0    0  0.70456018830E+02  0.31101174303E+02  0.61723004010E+03  0.62201628277E+03  0.00000000000E+00 0. -1.
         13    1    3    3    0    0 -0.17585835423E+02  0.41671114463E+02 -0.31849125848E+02  0.55318262855E+02  0.00000000000E+00 0. -1.
        -14    1    3    3    0    0  0.40262561621E+02  0.33633482898E+01  0.13231167252E+02  0.42514112561E+02  0.00000000000E+00 0.  1.
          5    1    4    4  501    0 -0.37802185597E+02 -0.12958426732E+03  0.49814614812E+03  0.51612803146E+03  0.41800000000E+01 0. -1.
         -5    1    4    4    0  501 -0.20947238132E+02  0.28785908497E+02  0.14775149650E+03  0.15203747048E+03  0.41800000000E+01 0. -1.
</event>
<event>
11    1  0.8551154E-009  0.1701038E+03  0.7561462E-02  0.1077941E+00
         22   -1    0    0    0    0  0.00000000000E+00  0.00000000000E+00  0.12453998665E+04  0.12453998665E+04  0.00000000000E+00 0. -1.
         22   -1    0    0    0    0 -0.00000000000E+00 -0.00000000000E+00 -0.22149404279E+03  0.22149404279E+03  0.00000000000E+00 0.  1.
        -24    2    1    2    0    0 -0.10800806540E+03  0.18615120688E+02 -0.99955578375E+02  0.16951614395E+03  0.82050840952E+02 0.  0.
         25    2    1    2    0    0  0.21670384331E+03 -0.31150018707E+02  0.11138874592E+03  0.27566815318E+03  0.12511833834E+03 0.  0.
         24    2    1    2    0    0 -0.10869577791E+03  0.12534898019E+02  0.10124726561E+04  0.10217096121E+04  0.82569705591E+02 0.  0.
        -11    1    5    5    0    0 -0.82784926878E+02 -0.73553043335E+01  0.40928745967E+03  0.41764059820E+03  0.00000000000E+00 0.  1.
         12    1    5    5    0    0 -0.25910851031E+02  0.19890202352E+02  0.60318519646E+03  0.60406901392E+03  0.00000000000E+00 0. -1.
         13    1    3    3    0    0  0.67044292538E+01  0.21044878055E+02 -0.18385254893E+02  0.28737673208E+02  0.00000000000E+00 0. -1.
        -14    1    3    3    0    0 -0.11471249466E+03 -0.24297573663E+01 -0.81570323482E+02  0.14077847074E+03  0.00000000000E+00 0.  1.
          5    1    4    4  501    0  0.19865792885E+01 -0.19180694252E+02  0.47270984965E+02  0.51223665905E+02  0.41800000000E+01 0. -1.
         -5    1    4    4    0  501  0.21471726402E+03 -0.11969324455E+02  0.64117760951E+02  0.22444448727E+03  0.41800000000E+01 0. -1.
</event>
<event>
11    1  0.8551154E-009  0.1430336E+03  0.7561462E-02  0.1104217E+00
         22   -1    0    0    0    0  0.00000000000E+00  0.00000000000E+00  0.10560651580E+04  0.10560651580E+04  0.00000000000E+00 0. -1.
         22   -1    0    0    0    0 -0.00000000000E+00 -0.00000000000E+00 -0.10765874593E+03  0.10765874593E+03  0.00000000000E+00 0.  1.
        -24    2    1    2    0    0 -0.60530219750E+02  0.28166854663E+02 -0.48101305080E+02  0.11385849954E+03  0.78693984282E+02 0.  0.
         25    2    1    2    0    0  0.67124476300E+02 -0.65906904702E+02  0.23007262083E+03  0.27826234703E+03  0.12508839880E+03 0.  0.
         24    2    1    2    0    0 -0.65942565495E+01  0.37740050039E+02  0.76643509634E+03  0.77160305738E+03  0.80502954310E+02 0.  0.
        -13    1    5    5    0    0 -0.33540323509E+02 -0.84294689090E+01  0.24369565063E+03  0.24613731815E+03  0.00000000000E+00 0.  1.
         14    1    5    5    0    0  0.26946066960E+02  0.46169518948E+02  0.52273944571E+03  0.52546573923E+03  0.00000000000E+00 0. -1.
         11    1    3    3    0    0 -0.60842211818E+00 -0.18392077707E+02  0.74099486516E+01  0.19837994830E+02  0.00000000000E+00 0. -1.
        -12    1    3    3    0    0 -0.59921797632E+02  0.46558932370E+02 -0.55511253731E+02  0.94020504709E+02  0.00000000000E+00 0.  1.
          5    1    4    4  501    0  0.44057104724E+02 -0.10055595209E+03  0.19434116073E+03  0.22324535187E+03  0.41800000000E+01 0.  1.
         -5    1    4    4    0  501  0.23067371576E+02  0.34649047385E+02  0.35731460101E+02  0.55016995165E+02  0.41800000000E+01 0.  1.
</event>
<event>
11    1  0.8551154E-009  0.1430282E+03  0.7561462E-02  0.1104223E+00
         22   -1    0    0    0    0  0.00000000000E+00  0.00000000000E+00  0.68796492729E+03  0.68796492729E+03  0.00000000000E+00 0.  1.
         22   -1    0    0    0    0 -0.00000000000E+00 -0.00000000000E+00 -0.29490587513E+04  0.29490587513E+04  0.00000000000E+00 0. -1.
         24    2    1    2    0    0 -0.18611885755E+02 -0.37652335690E+02 -0.29027992407E+04  0.29042094198E+04  0.80154982759E+02 0.  0.
         25    2    1    2    0    0 -0.40524513956E+02  0.72864262003E+02  0.99469914716E+02  0.18025563219E+03  0.12508553911E+03 0.  0.
        -24    2    1    2    0    0  0.59136399711E+02 -0.35211926314E+02  0.54223550202E+03  0.55255862661E+03  0.81022852776E+02 0.  0.
        -11    1    3    3    0    0 -0.63811891057E+01 -0.10066065819E+02 -0.56182044269E+02  0.57432284942E+02  0.00000000000E+00 0.  1.
         12    1    3    3    0    0 -0.12230696649E+02 -0.27586269871E+02 -0.28466171964E+04  0.28467771348E+04  0.00000000000E+00 0. -1.
         13    1    5    5    0    0  0.97073133320E+01  0.15593106667E+02  0.28170115964E+02  0.33629337506E+02  0.00000000000E+00 0. -1.
        -14    1    5    5    0    0  0.49429086379E+02 -0.50805032980E+02  0.51406538605E+03  0.51892928911E+03  0.00000000000E+00 0.  1.
          5    1    4    4  501    0  0.11287282946E+01  0.99826754233E+02  0.58597716525E+02  0.11583531271E+03  0.41800000000E+01 0.  1.
         -5    1    4    4    0  501 -0.41653242251E+02 -0.26962492230E+02  0.40872198190E+02  0.64420319482E+02  0.41800000000E+01 0.  1.
</event>
<event>
11    1  0.8551154E-009  0.1467522E+03  0.7561462E-02  0.1100244E+00
         22   -1    0    0    0    0  0.00000000000E+00  0.00000000000E+00  0.32971348991E+03  0.32971348991E+03  0.00000000000E+00 0.  1.
         22   -1    0    0    0    0 -0.00000000000E+00 -0.00000000000E+00 -0.35921123736E+03  0.35921123736E+03  0.00000000000E+00 0. -1.
         24    2    1    2    0    0 -0.35818876793E+02  0.20384183591E+01 -0.27416861486E+03  0.28816566398E+03  0.81141071203E+02 0.  0.
         25    2    1    2    0    0  0.10547843484E+03  0.26935454977E+01  0.43562789848E+02  0.16934704943E+03  0.12509097124E+03 0.  0.
        -24    2    1    2    0    0 -0.69659558047E+02 -0.47319638568E+01  0.20110807757E+03  0.23141201387E+03  0.90731558953E+02 0.  0.
        -11    1    3    3    0    0 -0.45788193913E+02  0.20836796847E+02 -0.92846096149E+02  0.10559890328E+03  0.00000000000E+00 0.  1.
         12    1    3    3    0    0  0.99693171199E+01 -0.18798378488E+02 -0.18132251871E+03  0.18256676069E+03  0.00000000000E+00 0. -1.
         13    1    5    5    0    0 -0.54322568527E+02 -0.80581961486E+01  0.36235639316E+02  0.65794357913E+02  0.00000000000E+00 0. -1.
        -14    1    5    5    0    0 -0.15336989520E+02  0.33262322919E+01  0.16487243825E+03  0.16561765596E+03  0.00000000000E+00 0.  1.
          5    1    4    4  501    0  0.50298508339E+02  0.87434393290E+01 -0.42696473573E+02  0.66684697855E+02  0.41800000000E+01 0.  1.
         -5    1    4    4    0  501  0.55179926501E+02 -0.60498938313E+01  0.86259263421E+02  0.10266235157E+03  0.41800000000E+01 0.  1.
</event>
<event>
11    1  0.8551154E-009  0.1779587E+03  0.7561462E-02  0.1071306E+00
         22   -1    0    0    0    0  0.00000000000E+00  0.00000000000E+00  0.10596061926E+04  0.10596061926E+04  0.00000000000E+00 0. -1.
         22   -1    0    0    0    0 -0.00000000000E+00 -0.00000000000E+00 -0.15050689432E+03  0.15050689432E+03  0.00000000000E+00 0.  1.
        -24    2    1    2    0    0  0.40687277601E+02 -0.10773997984E+03  0.19395735696E+02  0.14160862931E+03  0.80084027858E+02 0.  0.
         25    2    1    2    0    0  0.19907748072E+02  0.15064994035E+03  0.26464661927E+02  0.19859382234E+03  0.12508958781E+03 0.  0.
         24    2    1    2    0    0 -0.60595025672E+02 -0.42909960509E+02  0.86323890070E+03  0.86991063532E+03  0.77782336789E+02 0.  0.
        -11    1    5    5    0    0 -0.35628313775E+02 -0.27971991642E+01  0.12094626864E+03  0.12611582360E+03  0.00000000000E+00 0.  1.
         12    1    5    5    0    0 -0.24966711898E+02 -0.40112761345E+02  0.74229263206E+03  0.74379481172E+03  0.00000000000E+00 0. -1.
         13    1    3    3    0    0  0.73250449815E+01  0.36191987304E+01 -0.17773652223E+02  0.19561635841E+02  0.00000000000E+00 0. -1.
        -14    1    3    3    0    0  0.33362232619E+02 -0.11135917857E+03  0.37169387918E+02  0.12204699347E+03  0.00000000000E+00 0.  1.
          5    1    4    4  501    0 -0.46824118253E+02  0.10345679415E+03  0.26795320527E+02  0.11675302098E+03  0.41800000000E+01 0.  1.
         -5    1    4    4    0  501  0.66731866325E+02  0.47193146197E+02 -0.33065860081E+00  0.81840801354E+02  0.41800000000E+01 0.  1.
</event>
<event>
11    1  0.8551154E-009  0.1327745E+03  0.7561462E-02  0.1115906E+00
         22   -1    0    0    0    0  0.00000000000E+00  0.00000000000E+00  0.28225584502E+03  0.28225584502E+03  0.00000000000E+00 0.  1.
         22   -1    0    0    0    0 -0.00000000000E+00 -0.00000000000E+00 -0.63412512485E+03  0.63412512485E+03  0.00000000000E+00 0. -1.
        -24    2    1    2    0    0  0.42797717598E+02 -0.11113957740E+02 -0.57416214530E+03  0.58139190994E+03  0.79995119606E+02 0.  0.
         25    2    1    2    0    0 -0.45767893738E+02  0.33804380102E+02  0.54194339232E+02  0.14772105458E+03  0.12508815831E+03 0.  0.
         24    2    1    2    0    0  0.29701761398E+01 -0.22690422362E+02  0.16809852624E+03  0.18726800535E+03  0.79300151899E+02 0.  0.
        -11    1    5    5    0    0 -0.72105259568E+01 -0.30456640721E+02  0.17124551871E+03  0.17408224013E+03  0.00000000000E+00 0.  1.
         12    1    5    5    0    0  0.10180702097E+02  0.77662183590E+01 -0.31469924777E+01  0.13185765220E+02  0.00000000000E+00 0. -1.
         13    1    3    3    0    0  0.25523746016E+02  0.33184485118E+02 -0.32983646522E+03  0.33248272955E+03  0.00000000000E+00 0. -1.
        -14    1    3    3    0    0  0.17273971583E+02 -0.44298442859E+02 -0.24432568008E+03  0.24890918039E+03  0.00000000000E+00 0.  1.
          5    1    4    4  501    0 -0.78865112641E+02  0.55047417918E+02  0.48399389949E+02  0.10774923461E+03  0.41800000000E+01 0. -1.
         -5    1    4    4    0  501  0.33097218902E+02 -0.21243037816E+02  0.57949492828E+01  0.39971819972E+02  0.41800000000E+01 0. -1.
</event>
<event>
11    1  0.8551154E-009  0.1864162E+03  0.7561462E-02  0.1064568E+00
         22   -1    0    0    0    0  0.00000000000E+00  0.00000000000E+00  0.11459824227E+04  0.11459824227E+04  0.00000000000E+00 0. -1.
         22   -1    0    0    0    0 -0.00000000000E+00 -0.00000000000E+00 -0.55955055912E+03  0.55955055912E+03  0.00000000000E+00 0. -1.
        -24    2    1    2    0    0  0.41562948107E+02  0.78352983378E+02 -0.47451303256E+03  0.48930793187E+03  0.79956022077E+02 0.  0.
         25    2    1    2    0    0 -0.15116678892E+03 -0.15131522327E+03  0.14442167547E+03  0.28680989144E+03  0.12511833847E+03 0.  0.
         24    2    1    2    0    0  0.10960384081E+03  0.72962239889E+02  0.91652322072E+03  0.92941515855E+03  0.80381791801E+02 0.  0.
        -13    1    5    5    0    0  0.28770745747E+02  0.62330574993E+02  0.52688676434E+03  0.53134030416E+03  0.00000000000E+00 0.  1.
         14    1    5    5    0    0  0.80833095061E+02  0.10631664896E+02  0.38963645639E+03  0.39807485439E+03  0.00000000000E+00 0. -1.
         13    1    3    3    0    0  0.56414569122E+02  0.29510136700E+02 -0.32889163040E+03  0.33499724824E+03  0.00000000000E+00 0. -1.
        -14    1    3    3    0    0 -0.14851621015E+02  0.48842846679E+02 -0.14562140216E+03  0.15431068364E+03  0.00000000000E+00 0.  1.
          5    1    4    4  501    0 -0.14508282611E+03 -0.10882559993E+03  0.15906057904E+03  0.24126702600E+03  0.41800000000E+01 0.  1.
         -5    1    4    4    0  501 -0.60839628066E+01 -0.42489623333E+02 -0.14638903573E+02  0.45542865437E+02  0.41800000000E+01 0.  1.
</event>
<event>
11    1  0.8551154E-009  0.2501508E+03  0.7561462E-02  0.1023819E+00
         22   -1    0    0    0    0  0.00000000000E+00  0.00000000000E+00  0.36609320375E+03  0.36609320375E+03  0.00000000000E+00 0.  1.
         22   -1    0    0    0    0 -0.00000000000E+00 -0.00000000000E+00 -0.19042996484E+04  0.19042996484E+04  0.00000000000E+00 0. -1.
         24    2    1    2    0    0 -0.14734280381E+03  0.16191895389E+03 -0.18293564816E+04  0.18441910728E+04  0.81042745123E+02 0.  0.
         25    2    1    2    0    0  0.12728850105E+03 -0.77927001781E+02  0.19626444659E+03  0.27648315162E+03  0.12509284564E+03 0.  0.
        -24    2    1    2    0    0  0.20054302762E+02 -0.83991952107E+02  0.94885590355E+02  0.14971862779E+03  0.77172334240E+02 0.  0.
        -13    1    3    3    0    0 -0.31514984488E+02  0.88810592299E+02 -0.62367633953E+03  0.63075565161E+03  0.00000000000E+00 0.  1.
         14    1    3    3    0    0 -0.11582781932E+03  0.73108361589E+02 -0.12056801421E+04  0.12134354212E+04  0.00000000000E+00 0. -1.
         13    1    5    5    0    0  0.29401239995E+00  0.14581900218E+02  0.69664787520E+01  0.16163232457E+02  0.00000000000E+00 0. -1.
        -14    1    5    5    0    0  0.19760290362E+02 -0.98573852324E+02  0.87919111603E+02  0.13355539533E+03  0.00000000000E+00 0.  1.
          5    1    4    4  501    0 -0.59812647356E+01  0.82246796598E+01 -0.10904979523E+02  0.15485860058E+02  0.41800000000E+01 0. -1.
         -5    1    4    4    0  501  0.13326976578E+03 -0.86151681441E+02  0.20716942611E+03  0.26099729156E+03  0.41800000000E+01 0. -1.
</event>
<event>
11    1  0.8551154E-009  0.1448483E+03  0.7561462E-02  0.1102262E+00
         22   -1    0    0    0    0  0.00000000000E+00  0.00000000000E+00  0.16884535469E+04  0.16884535469E+04  0.00000000000E+00 0. -1.
         22   -1    0    0    0    0 -0.00000000000E+00 -0.00000000000E+00 -0.21894610044E+03  0.21894610044E+03  0.00000000000E+00 0.  1.
         24    2    1    2    0    0  0.50228859621E+02  0.48873085678E+02 -0.17235544300E+03  0.20262977591E+03  0.80255283383E+02 0.  0.
         25    2    1    2    0    0 -0.97520026088E+02 -0.77743134455E+02  0.23265311143E+03  0.29211121433E+03  0.12508933142E+03 0.  0.
        -24    2    1    2    0    0  0.47291166467E+02  0.28870048776E+02  0.14092097780E+04  0.14126586571E+04  0.81623212471E+02 0.  0.
        -13    1    3    3    0    0  0.58230367878E+02  0.12498656129E+02 -0.14396855430E+03  0.15580095242E+03  0.00000000000E+00 0.  1.
         14    1    3    3    0    0 -0.80015082570E+01  0.36374429549E+02 -0.28386888707E+02  0.46828823494E+02  0.00000000000E+00 0. -1.
         13    1    5    5    0    0  0.20913541330E+01 -0.21225721390E+02  0.67987257301E+03  0.68020704241E+03  0.00000000000E+00 0. -1.
        -14    1    5    5    0    0  0.45199812334E+02  0.50095770166E+02  0.72933720500E+03  0.73245161467E+03  0.00000000000E+00 0.  1.
          5    1    4    4  501    0 -0.11575494642E+02 -0.85238967052E+02  0.14761967779E+03  0.17090557408E+03  0.41800000000E+01 0. -1.
         -5    1    4    4    0  501 -0.85944531446E+02  0.74958325973E+01  0.85033433641E+02  0.12120564025E+03  0.41800000000E+01 0. -1.
</event>
<event>
11    1  0.8551154E-009  0.1562953E+03  0.7561462E-02  0.1090614E+00
         22   -1    0    0    0    0  0.00000000000E+00  0.00000000000E+00  0.69199693969E+03  0.69199693969E+03  0.00000000000E+00 0.  1.
         22   -1    0    0    0    0 -0.00000000000E+00 -0.00000000000E+00 -0.21400011389E+03  0.21400011389E+03  0.00000000000E+00 0.  1.
        -24    2    1    2    0    0 -0.19529725175E+02 -0.21461522586E+02 -0.17157292256E+03  0.19212398321E+03  0.81439241467E+02 0.  0.
         25    2    1    2    0    0  0.16228232156E+02 -0.79078000609E+02  0.23191800993E+03  0.27559198285E+03  0.12509313324E+03 0.  0.
         24    2    1    2    0    0  0.33014930187E+01  0.10053952320E+03  0.41765173844E+03  0.43828108753E+03  0.86823046971E+02 0.  0.
        -11    1    5    5    0    0  0.30397777673E+02  0.87294170792E+02  0.37379524310E+03  0.38505477650E+03  0.00000000000E+00 0.  1.
         12    1    5    5    0    0 -0.27096284654E+02  0.13245352403E+02  0.43856495334E+02  0.53226311025E+02  0.00000000000E+00 0. -1.
         13    1    3    3    0    0 -0.49203891960E+02 -0.20202692357E+01 -0.80280464768E+02  0.94180982662E+02  0.00000000000E+00 0. -1.
        -14    1    3    3    0    0  0.29674166785E+02 -0.19441253350E+02 -0.91292457795E+02  0.97943000549E+02  0.00000000000E+00 0.  1.
          5    1    4    4  501    0 -0.21400173972E+02 -0.54826772590E+02  0.25403465349E+02  0.64239792111E+02  0.41800000000E+01 0.  1.
         -5    1    4    4    0  501  0.37628406128E+02 -0.24251228019E+02  0.20651454458E+03  0.21135219074E+03  0.41800000000E+01 0.  1.
</event>
<event>
11    1  0.8551154E-009  0.1286678E+03  0.7561462E-02  0.1120917E+00
         22   -1    0    0    0    0  0.00000000000E+00  0.00000000000E+00  0.84509876876E+03  0.84509876876E+03  0.00000000000E+00 0. -1.
         22   -1    0    0    0    0 -0.00000000000E+00 -0.00000000000E+00 -0.43497784344E+03  0.43497784344E+03  0.00000000000E+00 0. -1.
         24    2    1    2    0    0 -0.29107531035E+02 -0.77343555392E+01 -0.41411896787E+03  0.42339445405E+03  0.82832816876E+02 0.  0.
         25    2    1    2    0    0  0.38222216438E+02 -0.23507965988E+02  0.34658527884E+03  0.37119062222E+03  0.12509020832E+03 0.  0.
        -24    2    1    2    0    0 -0.91146854037E+01  0.31242321527E+02  0.47765461435E+03  0.48549153594E+03  0.80553961521E+02 0.  0.
        -11    1    3    3    0    0 -0.35874342795E+02  0.69231120755E+01 -0.70576714662E+02  0.79473081004E+02  0.00000000000E+00 0.  1.
         12    1    3    3    0    0  0.67668117603E+01 -0.14657467615E+02 -0.34354225321E+03  0.34392137305E+03  0.00000000000E+00 0. -1.
         13    1    5    5    0    0 -0.18925390326E+02  0.25201527921E+02  0.47126368834E+03  0.47231636787E+03  0.00000000000E+00 0. -1.
        -14    1    5    5    0    0  0.98107049221E+01  0.60407936065E+01  0.63909260076E+01  0.13175168071E+02  0.00000000000E+00 0.  1.
          5    1    4    4  501    0  0.86724759911E+01  0.10142049225E+02  0.31710383349E+03  0.31741201397E+03  0.41800000000E+01 0.  1.
         -5    1    4    4    0  501  0.29549740447E+02 -0.33650015213E+02  0.29481445353E+02  0.53778608242E+02  0.41800000000E+01 0.  1.
</event>
<event>
11    1  0.8551154E-009  0.1368121E+03  0.7561462E-02  0.1111171E+00
         22   -1    0    0    0    0  0.00000000000E+00  0.00000000000E+00  0.14216219715E+04  0.14216219715E+04  0.00000000000E+00 0. -1.
         22   -1    0    0    0    0 -0.00000000000E+00 -0.00000000000E+00 -0.75694971166E+02  0.75694971166E+02  0.00000000000E+00 0.  1.
        -24    2    1    2    0    0 -0.59678967035E+02 -0.32886276082E+02  0.77305651312E+01  0.10567593387E+03  0.80402457055E+02 0.  0.
         25    2    1    2    0    0  0.10750138103E+03  0.16103238137E+02  0.26108041711E+03  0.30923549835E+03  0.12509095908E+03 0.  0.
         24    2    1    2    0    0 -0.47822413991E+02  0.16783037945E+02  0.10771160180E+04  0.10824055104E+04  0.94096328114E+02 0.  0.
        -13    1    5    5    0    0  0.10319060340E+02  0.32524166850E+02  0.17591371699E+03  0.17919246708E+03  0.00000000000E+00 0.  1.
         14    1    5    5    0    0 -0.58141474332E+02 -0.15741128905E+02  0.90120230106E+03  0.90321304331E+03  0.00000000000E+00 0. -1.
         11    1    3    3    0    0 -0.17650112812E+02 -0.53154013266E+02 -0.76900198165E+01  0.56533282351E+02  0.00000000000E+00 0. -1.
        -12    1    3    3    0    0 -0.42028854224E+02  0.20267737184E+02  0.15420584948E+02  0.49142651516E+02  0.00000000000E+00 0.  1.
          5    1    4    4  501    0  0.43926763292E+02  0.64357067438E+02  0.17589906985E+03  0.19243011156E+03  0.41800000000E+01 0. -1.
         -5    1    4    4    0  501  0.63574617735E+02 -0.48253829301E+02  0.85181347264E+02  0.11680538679E+03  0.41800000000E+01 0. -1.
</event>
<event>
11    1  0.8551154E-009  0.1525324E+03  0.7561462E-02  0.1094319E+00
         22   -1    0    0    0    0  0.00000000000E+00  0.00000000000E+00  0.42885574418E+03  0.42885574418E+03  0.00000000000E+00 0.  1.
         22   -1    0    0    0    0 -0.00000000000E+00 -0.00000000000E+00 -0.18904075710E+03  0.18904075710E+03  0.00000000000E+00 0. -1.
         24    2    1    2    0    0 -0.10068377614E+02 -0.77977916890E+02 -0.77626253125E+02  0.14192830063E+03  0.89083554015E+02 0.  0.
         25    2    1    2    0    0 -0.59876994819E+02  0.12448594487E+03  0.63202623642E+02  0.19678529248E+03  0.12509146543E+03 0.  0.
        -24    2    1    2    0    0  0.69945372433E+02 -0.46508027981E+02  0.25423861656E+03  0.27918290816E+03  0.79059915679E+02 0.  0.
        -13    1    3    3    0    0  0.14273569295E+00 -0.83847840868E+02 -0.24273271043E+02  0.87290735355E+02  0.00000000000E+00 0.  1.
         14    1    3    3    0    0 -0.10211113307E+02  0.58699239777E+01 -0.53352982082E+02  0.54637565278E+02  0.00000000000E+00 0. -1.
         13    1    5    5    0    0 -0.10543831654E+02  0.53292477109E+01  0.75504659751E+02  0.76423340094E+02  0.00000000000E+00 0. -1.
        -14    1    5    5    0    0  0.80489204087E+02 -0.51837275692E+02  0.17873395681E+03  0.20275956807E+03  0.00000000000E+00 0.  1.
          5    1    4    4  501    0 -0.51436515146E+02  0.34038548229E+01  0.54335516160E+02  0.75014145562E+02  0.41800000000E+01 0. -1.
         -5    1    4    4    0  501 -0.84404796735E+01  0.12108209005E+03  0.88671074818E+01  0.12177114692E+03  0.41800000000E+01 0. -1.
</event>
<event>
11    1  0.8551154E-009  0.1647445E+03  0.7561462E-02  0.1082698E+00
         22   -1    0    0    0    0  0.00000000000E+00  0.00000000000E+00  0.15413602425E+04  0.15413602425E+04  0.00000000000E+00 0. -1.
         22   -1    0    0    0    0 -0.00000000000E+00 -0.00000000000E+00 -0.85239159064E+03  0.85239159064E+03  0.00000000000E+00 0.  1.
        -24    2    1    2    0    0 -0.66678907568E+01 -0.18627099288E+02 -0.72428290867E+03  0.72912780332E+03  0.81548710526E+02 0.  0.
         25    2    1    2    0    0 -0.68188096772E+02 -0.58686374075E+02 -0.74557063935E+02  0.17117044597E+03  0.12508740443E+03 0.  0.
         24    2    1    2    0    0  0.74855987529E+02  0.77313473363E+02  0.14878086244E+04  0.14934535838E+04  0.72445235067E+02 0.  0.
        -11    1    5    5    0    0  0.13258547666E+01 -0.12541589214E+02  0.21110442272E+03  0.21148079497E+03  0.00000000000E+00 0.  1.
         12    1    5    5    0    0  0.73530132763E+02  0.89855062577E+02  0.12767042017E+04  0.12819727888E+04  0.00000000000E+00 0. -1.
         13    1    3    3    0    0 -0.18304440777E+02  0.28413835423E+02 -0.22916191739E+03  0.23164106497E+03  0.00000000000E+00 0. -1.
        -14    1    3    3    0    0  0.11636550021E+02 -0.47040934711E+02 -0.49512099128E+03  0.49748673835E+03  0.00000000000E+00 0.  1.
          5    1    4    4  501    0  0.16440718991E+02 -0.60164273330E+02 -0.72112437331E+01  0.62924649085E+02  0.41800000000E+01 0.  1.
         -5    1    4    4    0  501 -0.84628815763E+02  0.14778992550E+01 -0.67345820202E+02  0.10824579688E+03  0.41800000000E+01 0.  1.
</event>
<event>
11    1  0.8551154E-009  0.1625070E+03  0.7561462E-02  0.1084743E+00
         22   -1    0    0    0    0  0.00000000000E+00  0.00000000000E+00  0.35458164542E+03  0.35458164542E+03  0.00000000000E+00 0.  1.
         22   -1    0    0    0    0 -0.00000000000E+00 -0.00000000000E+00 -0.19123535705E+04  0.19123535705E+04  0.00000000000E+00 0. -1.
        -24    2    1    2    0    0  0.73257325381E+02  0.72227693030E+02 -0.17774183082E+04  0.17821876125E+04  0.79958541515E+02 0.  0.
         25    2    1    2    0    0 -0.96685615385E+02 -0.80901970831E+02 -0.64274382642E+02  0.18888063184E+03  0.12510579409E+03 0.  0.
         24    2    1    2    0    0  0.23428290004E+02  0.86742778009E+01  0.28392076575E+03  0.29586697162E+03  0.79385992504E+02 0.  0.
        -11    1    5    5    0    0 -0.39135103075E+01 -0.55255992672E+01  0.24981197854E+03  0.24990372633E+03  0.00000000000E+00 0.  1.
         12    1    5    5    0    0  0.27341800312E+02  0.14199877068E+02  0.34108787201E+02  0.45963245287E+02  0.00000000000E+00 0. -1.
         11    1    3    3    0    0  0.89170585184E+02  0.48044730683E+02 -0.13601812822E+04  0.13639475100E+04  0.00000000000E+00 0. -1.
        -12    1    3    3    0    0 -0.15913259803E+02  0.24182962347E+02 -0.41723702599E+03  0.41824010253E+03  0.00000000000E+00 0.  1.
          5    1    4    4  501    0 -0.12974104764E+02 -0.78311014084E+02  0.56602346868E+01  0.79689729439E+02  0.41800000000E+01 0.  1.
         -5    1    4    4    0  501 -0.83711510621E+02 -0.25909567471E+01 -0.69934617329E+02  0.10919090241E+03  0.41800000000E+01 0.  1.
</event>
<event>
11    1  0.8551154E-009  0.2152596E+03  0.7561462E-02  0.1044228E+00
         22   -1    0    0    0    0  0.00000000000E+00  0.00000000000E+00  0.18668736350E+04  0.18668736350E+04  0.00000000000E+00 0. -1.
         22   -1    0    0    0    0 -0.00000000000E+00 -0.00000000000E+00 -0.59059891002E+03  0.59059891002E+03  0.00000000000E+00 0. -1.
        -24    2    1    2    0    0 -0.27611433461E+02 -0.27826305430E+02 -0.54502617533E+03  0.55213714686E+03  0.79153032881E+02 0.  0.
         25    2    1    2    0    0  0.10828444597E+03  0.17712649615E+03  0.37316304449E+03  0.44496987950E+03  0.12509284158E+03 0.  0.
         24    2    1    2    0    0 -0.80673012506E+02 -0.14930019072E+03  0.14481378558E+04  0.14603655186E+04  0.82252761220E+02 0.  0.
        -11    1    5    5    0    0 -0.15444491581E+02 -0.19692607256E+02  0.65221913398E+02  0.69858636460E+02  0.00000000000E+00 0.  1.
         12    1    5    5    0    0 -0.65228520925E+02 -0.12960758347E+03  0.13829159424E+04  0.13905068822E+04  0.00000000000E+00 0. -1.
         11    1    3    3    0    0  0.14332806334E+02 -0.41245793249E+02 -0.23859734249E+03  0.24255996504E+03  0.00000000000E+00 0. -1.
        -12    1    3    3    0    0 -0.41944239795E+02  0.13419487818E+02 -0.30642883284E+03  0.30957718182E+03  0.00000000000E+00 0.  1.
          5    1    4    4  501    0 -0.17811884928E+02  0.78727757843E+02  0.10225826382E+03  0.13034396042E+03  0.41800000000E+01 0.  1.
         -5    1    4    4    0  501  0.12609633089E+03  0.98398738312E+02  0.27090478067E+03  0.31462591908E+03  0.41800000000E+01 0.  1.
</event>
<event>
11    1  0.8551154E-009  0.1342095E+03  0.7561462E-02  0.1114202E+00
         22   -1    0    0    0    0  0.00000000000E+00  0.00000000000E+00  0.51610071900E+03  0.51610071900E+03  0.00000000000E+00 0. -1.
         22   -1    0    0    0    0 -0.00000000000E+00 -0.00000000000E+00 -0.10256778783E+03  0.10256778783E+03  0.00000000000E+00 0. -1.
         24    2    1    2    0    0 -0.45055677989E+02  0.29002404016E+02 -0.31001001149E+02  0.10120860352E+03  0.80068506902E+02 0.  0.
         25    2    1    2    0    0  0.18128783235E+02 -0.26376514640E+02  0.10158873948E+03  0.16429367941E+03  0.12509103804E+03 0.  0.
        -24    2    1    2    0    0  0.26926894754E+02 -0.26258893757E+01  0.34294519284E+03  0.35316622390E+03  0.79893826127E+02 0.  0.
        -11    1    3    3    0    0  0.74204596327E+01  0.37347139066E+02  0.28871627525E+01  0.38186486175E+02  0.00000000000E+00 0.  1.
         12    1    3    3    0    0 -0.52476137621E+02 -0.83447350503E+01 -0.33888163901E+02  0.63022117350E+02  0.00000000000E+00 0. -1.
         13    1    5    5    0    0 -0.94746388991E+01  0.29691069999E+02  0.82068631418E+02  0.87787178351E+02  0.00000000000E+00 0. -1.
        -14    1    5    5    0    0  0.36401533653E+02 -0.32316959375E+02  0.26087656142E+03  0.26537904555E+03  0.00000000000E+00 0.  1.
          5    1    4    4  501    0  0.37190641451E+02  0.37918647377E+02  0.16295080873E+02  0.55713281102E+02  0.41800000000E+01 0.  1.
         -5    1    4    4    0  501 -0.19061858216E+02 -0.64295162018E+02  0.85293658611E+02  0.10858039831E+03  0.41800000000E+01 0.  1.
</event>
<event>
11    1  0.8551154E-009  0.1416881E+03  0.7561462E-02  0.1105688E+00
         22   -1    0    0    0    0  0.00000000000E+00  0.00000000000E+00  0.92423993682E+02  0.92423993682E+02  0.00000000000E+00 0.  1.
         22   -1    0    0    0    0 -0.00000000000E+00 -0.00000000000E+00 -0.88486006765E+03  0.88486006765E+03  0.00000000000E+00 0. -1.
         24    2    1    2    0    0  0.25075237483E+02  0.64593207764E+02 -0.60842905622E+03  0.61747906821E+03  0.79331161584E+02 0.  0.
         25    2    1    2    0    0 -0.47528097045E+02 -0.38499467704E+02 -0.22367012299E+03  0.26347507270E+03  0.12509860509E+03 0.  0.
        -24    2    1    2    0    0  0.22452859562E+02 -0.26093740060E+02  0.39663105251E+02  0.96329920410E+02  0.80754426970E+02 0.  0.
        -13    1    3    3    0    0  0.15071356168E+02 -0.14778659054E+02 -0.21269113300E+03  0.21373598807E+03  0.00000000000E+00 0.  1.
         14    1    3    3    0    0  0.10003881315E+02  0.79371866818E+02 -0.39573792323E+03  0.40374308014E+03  0.00000000000E+00 0. -1.
         13    1    5    5    0    0  0.68709139282E+00 -0.26418975453E+02 -0.19790430039E+02  0.33016594005E+02  0.00000000000E+00 0. -1.
        -14    1    5    5    0    0  0.21765768169E+02  0.32523539271E+00  0.59453535290E+02  0.63313326405E+02  0.00000000000E+00 0.  1.
          5    1    4    4  501    0 -0.66010016674E+02  0.20753614213E+01 -0.46870265422E+02  0.81092068706E+02  0.41800000000E+01 0. -1.
         -5    1    4    4    0  501  0.18481919629E+02 -0.40574829126E+02 -0.17679985757E+03  0.18238300400E+03  0.41800000000E+01 0. -1.
</event>
<event>
11    1  0.8551154E-009  0.3392581E+03  0.7561462E-02  0.9848217E-01
         22   -1    0    0    0    0  0.00000000000E+00  0.00000000000E+00  0.62666512430E+03  0.62666512430E+03  0.00000000000E+00 0. -1.
         22   -1    0    0    0    0 -0.00000000000E+00 -0.00000000000E+00 -0.19390001004E+04  0.19390001004E+04  0.00000000000E+00 0. -1.
        -24    2    1    2    0    0 -0.50556212955E+02  0.12654552125E+03 -0.16972793560E+04  0.17046254746E+04  0.80131747406E+02 0.  0.
         25    2    1    2    0    0  0.29049741622E+03 -0.28334496453E+03  0.75092699699E+02  0.43123022625E+03  0.12508987461E+03 0.  0.
         24    2    1    2    0    0 -0.23994120327E+03  0.15679944328E+03  0.30985168012E+03  0.42980952387E+03  0.81057490057E+02 0.  0.
        -11    1    5    5    0    0 -0.16698024087E+03  0.68669060968E+02  0.15976289446E+03  0.24108509540E+03  0.00000000000E+00 0.  1.
         12    1    5    5    0    0 -0.72960962392E+02  0.88130382314E+02  0.15008878566E+03  0.18872442847E+03  0.00000000000E+00 0. -1.
         13    1    3    3    0    0 -0.43153949718E+02  0.13101142863E+03 -0.16758642579E+04  0.16815312274E+04  0.00000000000E+00 0. -1.
        -14    1    3    3    0    0 -0.74022632373E+01 -0.44659073810E+01 -0.21415098027E+02  0.23094247190E+02  0.00000000000E+00 0.  1.
          5    1    4    4  501    0  0.74776919682E+02 -0.87395501319E+01  0.14511126160E+02  0.76785497564E+02  0.41800000000E+01 0.  1.
         -5    1    4    4    0  501  0.21572049654E+03 -0.27460541440E+03  0.60581573539E+02  0.35444472869E+03  0.41800000000E+01 0.  1.
</event>
<event>
11    1  0.8551154E-009  0.1486041E+03  0.7561462E-02  0.1098314E+00
         22   -1    0    0    0    0  0.00000000000E+00  0.00000000000E+00  0.50914764246E+03  0.50914764246E+03  0.00000000000E+00 0. -1.
         22   -1    0    0    0    0 -0.00000000000E+00 -0.00000000000E+00 -0.64237794164E+03  0.64237794164E+03  0.00000000000E+00 0. -1.
        -24    2    1    2    0    0 -0.29103686716E+02 -0.70238970888E+02 -0.46245063416E+03  0.47546975513E+03  0.80189534247E+02 0.  0.
         25    2    1    2    0    0  0.89612213389E+02  0.78160496380E+02 -0.12330894643E+03  0.21211716806E+03  0.12509670154E+03 0.  0.
         24    2    1    2    0    0 -0.60508526674E+02 -0.79215254922E+01  0.45252928140E+03  0.46393866090E+03  0.82050583136E+02 0.  0.
        -11    1    5    5    0    0 -0.21756469288E+02 -0.43185533004E+02  0.17784398992E+03  0.18430089247E+03  0.00000000000E+00 0.  1.
         12    1    5    5    0    0 -0.38752057386E+02  0.35264007512E+02  0.27468529148E+03  0.27963776843E+03  0.00000000000E+00 0. -1.
         13    1    3    3    0    0  0.65864474968E-01 -0.52059726583E+02 -0.40639435738E+03  0.40971525866E+03  0.00000000000E+00 0. -1.
        -14    1    3    3    0    0 -0.29169551191E+02 -0.18179244305E+02 -0.56056276777E+02  0.65754496472E+02  0.00000000000E+00 0.  1.
          5    1    4    4  501    0  0.81239465857E+02  0.76664603359E+01 -0.15805663376E+02  0.83222093350E+02  0.41800000000E+01 0.  1.
         -5    1    4    4    0  501  0.83727475326E+01  0.70494036044E+02 -0.10750328305E+03  0.12889507471E+03  0.41800000000E+01 0.  1.
</event>
<event>
11    1  0.8551154E-009  0.1427495E+03  0.7561462E-02  0.1104526E+00
         22   -1    0    0    0    0  0.00000000000E+00  0.00000000000E+00  0.24717063765E+04  0.24717063765E+04  0.00000000000E+00 0. -1.
         22   -1    0    0    0    0 -0.00000000000E+00 -0.00000000000E+00 -0.16080067009E+04  0.16080067009E+04  0.00000000000E+00 0.  1.
         24    2    1    2    0    0 -0.33757539774E+02 -0.42561017959E+02 -0.12197837657E+04  0.12236706670E+04  0.80910163106E+02 0.  0.
         25    2    1    2    0    0  0.94368192697E+02  0.10123257533E+02 -0.36918590983E+03  0.40119055423E+03  0.12509112138E+03 0.  0.
        -24    2    1    2    0    0 -0.60610652924E+02  0.32437760426E+02  0.24526693511E+04  0.24548518561E+04  0.77361682442E+02 0.  0.
        -11    1    3    3    0    0 -0.17534009861E+02 -0.57973723356E+02 -0.51778936960E+03  0.52131969594E+03  0.00000000000E+00 0.  1.
         12    1    3    3    0    0 -0.16223529913E+02  0.15412705397E+02 -0.70199439613E+03  0.70235097110E+03  0.00000000000E+00 0. -1.
         13    1    5    5    0    0 -0.39324796148E+02  0.16885180440E+02  0.45492847967E+03  0.45693705313E+03  0.00000000000E+00 0. -1.
        -14    1    5    5    0    0 -0.21285856776E+02  0.15552579987E+02  0.19977408715E+04  0.19979148030E+04  0.00000000000E+00 0.  1.
          5    1    4    4  501    0 -0.56831468403E+01  0.47047136362E+02 -0.15068205274E+03  0.15801355833E+03  0.41800000000E+01 0. -1.
         -5    1    4    4    0  501  0.10005133954E+03 -0.36923878829E+02 -0.21850385709E+03  0.24317699590E+03  0.41800000000E+01 0. -1.
</event>
<event>
11    1  0.8551154E-009  0.1462829E+03  0.7561462E-02  0.1100739E+00
         22   -1    0    0    0    0  0.00000000000E+00  0.00000000000E+00  0.82857940715E+03  0.82857940715E+03  0.00000000000E+00 0.  1.
         22   -1    0    0    0    0 -0.00000000000E+00 -0.00000000000E+00 -0.57829831721E+02  0.57829831721E+02  0.00000000000E+00 0.  1.
         24    2    1    2    0    0  0.13326566791E+02  0.73429330647E+02  0.42645976390E+02  0.11807590368E+03  0.80955393556E+02 0.  0.
         25    2    1    2    0    0 -0.52646079892E+02 -0.73903964972E+02  0.49690527532E+03  0.52038081943E+03  0.12509172163E+03 0.  0.
        -24    2    1    2    0    0  0.39319513102E+02  0.47463432497E+00  0.23119832372E+03  0.24795251576E+03  0.80507985905E+02 0.  0.
        -11    1    3    3    0    0  0.36043781483E+02  0.50641908431E+01  0.48414624165E+01  0.36718387367E+02  0.00000000000E+00 0.  1.
         12    1    3    3    0    0 -0.22717214693E+02  0.68365139804E+02  0.37804513973E+02  0.81357516312E+02  0.00000000000E+00 0. -1.
         13    1    5    5    0    0 -0.18154762664E+02 -0.33914659811E+01  0.13164876000E+03  0.13293793085E+03  0.00000000000E+00 0. -1.
        -14    1    5    5    0    0  0.57474275765E+02  0.38661003061E+01  0.99549563719E+02  0.11501458491E+03  0.00000000000E+00 0.  1.
          5    1    4    4  501    0 -0.36680451434E+01  0.34546446580E+02  0.13077701204E+03  0.13537729058E+03  0.41800000000E+01 0. -1.
         -5    1    4    4    0  501 -0.48978034749E+02 -0.10845041155E+03  0.36612826328E+03  0.38500352885E+03  0.41800000000E+01 0. -1.
</event>
<event>
11    1  0.8551154E-009  0.1729333E+03  0.7561462E-02  0.1075507E+00
         22   -1    0    0    0    0  0.00000000000E+00  0.00000000000E+00  0.57526338469E+03  0.57526338469E+03  0.00000000000E+00 0. -1.
         22   -1    0    0    0    0 -0.00000000000E+00 -0.00000000000E+00 -0.56945291068E+03  0.56945291068E+03  0.00000000000E+00 0. -1.
        -24    2    1    2    0    0 -0.93720998634E+02 -0.73544390301E+02 -0.49267790537E+03  0.51319240006E+03  0.80265298330E+02 0.  0.
         25    2    1    2    0    0  0.87266952757E+02  0.87588651273E+02  0.60515214524E+02  0.18599924654E+03  0.12508531348E+03 0.  0.
         24    2    1    2    0    0  0.64540458771E+01 -0.14044260972E+02  0.43797316485E+03  0.44552464877E+03  0.80204884860E+02 0.  0.
        -11    1    5    5    0    0  0.12472327073E+01  0.14721165943E+02  0.13397963519E+02  0.19944265908E+02  0.00000000000E+00 0.  1.
         12    1    5    5    0    0  0.52068131698E+01 -0.28765426915E+02  0.42457520133E+03  0.42558038286E+03  0.00000000000E+00 0. -1.
         11    1    3    3    0    0 -0.89080734479E+02 -0.47765007045E+02 -0.46165198507E+03  0.47258801135E+03  0.00000000000E+00 0. -1.
        -12    1    3    3    0    0 -0.46402641553E+01 -0.25779383257E+02 -0.31025920301E+02  0.40604388717E+02  0.00000000000E+00 0.  1.
          5    1    4    4  501    0  0.20841981099E+01  0.21583916005E+02 -0.35367004188E+02  0.41695403788E+02  0.41800000000E+01 0.  1.
         -5    1    4    4    0  501  0.85182754647E+02  0.66004735268E+02  0.95882218711E+02  0.14430384275E+03  0.41800000000E+01 0.  1.
</event>
<event>
11    1  0.8551154E-009  0.1875230E+03  0.7561462E-02  0.1063715E+00
         22   -1    0    0    0    0  0.00000000000E+00  0.00000000000E+00  0.18282983192E+04  0.18282983192E+04  0.00000000000E+00 0.  1.
         22   -1    0    0    0    0 -0.00000000000E+00 -0.00000000000E+00 -0.94034830870E+02  0.94034830870E+02  0.00000000000E+00 0. -1.
        -24    2    1    2    0    0 -0.29469286808E+02 -0.22117064395E+02 -0.47373235264E+02  0.10143954392E+03  0.81781136263E+02 0.  0.
         25    2    1    2    0    0 -0.50395070835E+01  0.15302577271E+03  0.68467120924E+03  0.71264431322E+03  0.12507984914E+03 0.  0.
         24    2    1    2    0    0  0.34508793892E+02 -0.13090870832E+03  0.10969655143E+04  0.11082492929E+04  0.80964244100E+02 0.  0.
        -11    1    5    5    0    0  0.27259671392E+02 -0.13785357557E+03  0.10744100015E+04  0.10835605886E+04  0.00000000000E+00 0.  1.
         12    1    5    5    0    0  0.72491224996E+01  0.69448672480E+01  0.22555512845E+02  0.24688704255E+02  0.00000000000E+00 0. -1.
         11    1    3    3    0    0 -0.47351413062E+02 -0.14477878864E+02 -0.60348745024E+02  0.78062387366E+02  0.00000000000E+00 0. -1.
        -12    1    3    3    0    0  0.17882126253E+02 -0.76391855306E+01  0.12975509760E+02  0.23377156552E+02  0.00000000000E+00 0.  1.
          5    1    4    4  501    0  0.11195606981E+02  0.13665642458E+03  0.33238458728E+03  0.35957934625E+03  0.41800000000E+01 0. -1.
         -5    1    4    4    0  501 -0.16235114065E+02  0.16369348139E+02  0.35228662196E+03  0.35306496697E+03  0.41800000000E+01 0. -1.
</event>
<event>
11    1  0.8551154E-009  0.1716200E+03  0.7561462E-02  0.1076630E+00
         22   -1    0    0    0    0  0.00000000000E+00  0.00000000000E+00  0.79691546603E+03  0.79691546603E+03  0.00000000000E+00 0. -1.
         22   -1    0    0    0    0 -0.00000000000E+00 -0.00000000000E+00 -0.57990847790E+03  0.57990847790E+03  0.00000000000E+00 0. -1.
         24    2    1    2    0    0 -0.22091972497E+02 -0.44097948170E+02 -0.45951017300E+03  0.46908758687E+03  0.80379604272E+02 0.  0.
         25    2    1    2    0    0 -0.94384078472E+02  0.17904636205E+02 -0.51239552996E+02  0.16583746536E+03  0.12509053864E+03 0.  0.
        -24    2    1    2    0    0  0.11647605097E+03  0.26193311965E+02  0.72775671413E+03  0.74189889170E+03  0.80816894953E+02 0.  0.
        -11    1    3    3    0    0  0.29943509149E+02 -0.84471737475E+01 -0.14099746431E+03  0.14438924277E+03  0.00000000000E+00 0.  1.
         12    1    3    3    0    0 -0.52035481645E+02 -0.35650774423E+02 -0.31851270869E+03  0.32469834411E+03  0.00000000000E+00 0. -1.
         11    1    5    5    0    0  0.61925435566E+02  0.18100058527E+02  0.58994959295E+03  0.59346684315E+03  0.00000000000E+00 0. -1.
        -12    1    5    5    0    0  0.54550615402E+02  0.80932534381E+01  0.13780712117E+03  0.14843204855E+03  0.00000000000E+00 0.  1.
          5    1    4    4  501    0 -0.24366980948E+02  0.31809060321E+02  0.35309287930E+02  0.53570367678E+02  0.41800000000E+01 0.  1.
         -5    1    4    4    0  501 -0.70017097524E+02 -0.13904424116E+02 -0.86548840925E+02  0.11226709768E+03  0.41800000000E+01 0.  1.
</event>
<event>
11    1  0.8551154E-009  0.1629484E+03  0.7561462E-02  0.1084336E+00
         22   -1    0    0    0    0  0.00000000000E+00  0.00000000000E+00  0.13377836183E+04  0.13377836183E+04  0.00000000000E+00 0.  1.
         22   -1    0    0    0    0 -0.00000000000E+00 -0.00000000000E+00 -0.13699908072E+03  0.13699908072E+03  0.00000000000E+00 0. -1.
         24    2    1    2    0    0 -0.47329429026E+02 -0.46533769151E+02 -0.85018075331E+02  0.13483956628E+03  0.80920757395E+02 0.  0.
         25    2    1    2    0    0  0.10783857371E+03  0.11804995743E+03  0.43175066696E+03  0.47709783881E+03  0.12509499971E+03 0.  0.
        -24    2    1    2    0    0 -0.60509144688E+02 -0.71516188276E+02  0.85405194597E+03  0.86284529394E+03  0.79506937391E+02 0.  0.
        -11    1    3    3    0    0  0.10978870574E+02 -0.17154164608E+02  0.74128794995E+01  0.21673757057E+02  0.00000000000E+00 0.  1.
         12    1    3    3    0    0 -0.58308299601E+02 -0.29379604543E+02 -0.92430954831E+02  0.11316580922E+03  0.00000000000E+00 0. -1.
         13    1    5    5    0    0 -0.16923265715E+02 -0.68362117875E+02  0.35727409126E+03  0.36414907987E+03  0.00000000000E+00 0. -1.
        -14    1    5    5    0    0 -0.43585878973E+02 -0.31540704014E+01  0.49677785471E+03  0.49869621408E+03  0.00000000000E+00 0.  1.
          5    1    4    4  501    0  0.40955138681E+02 -0.18552662328E+02  0.57584158001E+02  0.73177403046E+02  0.41800000000E+01 0. -1.
         -5    1    4    4    0  501  0.66883435033E+02  0.13660261975E+03  0.37416650896E+03  0.40392043577E+03  0.41800000000E+01 0. -1.
</event>
<event>
11    1  0.8551154E-009  0.1465476E+03  0.7561462E-02  0.1100460E+00
         22   -1    0    0    0    0  0.00000000000E+00  0.00000000000E+00  0.15576666143E+03  0.15576666143E+03  0.00000000000E+00 0.  1.
         22   -1    0    0    0    0 -0.00000000000E+00 -0.00000000000E+00 -0.59444872149E+03  0.59444872149E+03  0.00000000000E+00 0.  1.
         24    2    1    2    0    0  0.22339187048E+02 -0.41335173362E+01 -0.39943510675E+03  0.40824991826E+03  0.81261713100E+02 0.  0.
         25    2    1    2    0    0 -0.78675057775E+02 -0.44679967821E+02 -0.13117118590E+03  0.20258466063E+03  0.12509436626E+03 0.  0.
        -24    2    1    2    0    0  0.56335870727E+02  0.48813485158E+02  0.91924232596E+02  0.13938080402E+03  0.73623755192E+02 0.  0.
        -13    1    3    3    0    0  0.48383701366E+02 -0.21608717826E+02 -0.24619588037E+03  0.25183393488E+03  0.00000000000E+00 0.  1.
         14    1    3    3    0    0 -0.26044514318E+02  0.17475200490E+02 -0.15323922638E+03  0.15641598339E+03  0.00000000000E+00 0. -1.
         13    1    5    5    0    0  0.48880117770E+02  0.39258908506E+02  0.19076712410E+02  0.65532043816E+02  0.00000000000E+00 0. -1.
        -14    1    5    5    0    0  0.74557529564E+01  0.95545766514E+01  0.72847520186E+02  0.73848760209E+02  0.00000000000E+00 0.  1.
          5    1    4    4  501    0  0.72848319711E+01 -0.41029994776E+02 -0.10423252495E+03  0.11233174487E+03  0.41800000000E+01 0. -1.
         -5    1    4    4    0  501 -0.85959889746E+02 -0.36499730454E+01 -0.26938660952E+02  0.90252915755E+02  0.41800000000E+01 0. -1.
</event>
<event>
11    1  0.8551154E-009  0.1666284E+03  0.7561462E-02  0.1081004E+00
         22   -1    0    0    0    0  0.00000000000E+00  0.00000000000E+00  0.88110620162E+02  0.88110620162E+02  0.00000000000E+00 0.  1.
         22   -1    0    0    0    0 -0.00000000000E+00 -0.00000000000E+00 -0.96658350762E+03  0.96658350762E+03  0.00000000000E+00 0. -1.
        -24    2    1    2    0    0  0.38807580871E+01 -0.34563990231E+02 -0.55388705862E+03  0.56060255415E+03  0.79212500990E+02 0.  0.
         25    2    1    2    0    0 -0.11304768565E+03  0.21562879778E+02 -0.31284001375E+03  0.35603523444E+03  0.12508987547E+03 0.  0.
         24    2    1    2    0    0  0.10916692756E+03  0.13001110453E+02 -0.11745815092E+02  0.13805633919E+03  0.82674915619E+02 0.  0.
        -11    1    5    5    0    0  0.98676426951E+02  0.40632287827E+02 -0.13420166034E+01  0.10672310461E+03  0.00000000000E+00 0.  1.
         12    1    5    5    0    0  0.10490500611E+02 -0.27631177374E+02 -0.10403798488E+02  0.31333234578E+02  0.00000000000E+00 0. -1.
         11    1    3    3    0    0 -0.19336985906E+02 -0.16310380499E+02 -0.48489989181E+03  0.48555931936E+03  0.00000000000E+00 0. -1.
        -12    1    3    3    0    0  0.23217743993E+02 -0.18253609732E+02 -0.68987166801E+02  0.75043234789E+02  0.00000000000E+00 0.  1.
          5    1    4    4  501    0  0.17454024126E+02 -0.24933381577E+02 -0.69598387425E+02  0.76077095155E+02  0.41800000000E+01 0. -1.
         -5    1    4    4    0  501 -0.13050170978E+03  0.46496261355E+02 -0.24324162633E+03  0.27995813929E+03  0.41800000000E+01 0. -1.
</event>
<event>
11    1  0.8551154E-009  0.1529597E+03  0.7561462E-02  0.1093892E+00
         22   -1    0    0    0    0  0.00000000000E+00  0.00000000000E+00  0.29168178694E+04  0.29168178694E+04  0.00000000000E+00 0. -1.
         22   -1    0    0    0    0 -0.00000000000E+00 -0.00000000000E+00 -0.84082467462E+03  0.84082467462E+03  0.00000000000E+00 0.  1.
         24    2    1    2    0    0 -0.87109868301E+02  0.15528077617E+02 -0.80257084816E+03  0.81132286624E+03  0.79344669696E+02 0.  0.
         25    2    1    2    0    0  0.79027047864E+02  0.61932374656E+02  0.16318711676E+03  0.22882032332E+03  0.12509121456E+03 0.  0.
        -24    2    1    2    0    0  0.80828204370E+01 -0.77460452273E+02  0.27153769262E+04  0.27174993545E+04  0.73928591661E+02 0.  0.
        -11    1    3    3    0    0 -0.58675325781E+02  0.30608195596E+02 -0.27811856890E+03  0.28588388178E+03  0.00000000000E+00 0.  1.
         12    1    3    3    0    0 -0.28434542520E+02 -0.15080117979E+02 -0.52445227926E+03  0.52543898446E+03  0.00000000000E+00 0. -1.
         13    1    5    5    0    0  0.40141317211E+02 -0.51146711207E+02  0.18231590209E+04  0.18243179895E+04  0.00000000000E+00 0. -1.
        -14    1    5    5    0    0 -0.32058496774E+02 -0.26313741066E+02  0.89221790529E+03  0.89318136496E+03  0.00000000000E+00 0.  1.
          5    1    4    4  501    0  0.81133017783E+02 -0.15219772180E+02  0.92906916458E+02  0.12435182172E+03  0.41800000000E+01 0.  1.
         -5    1    4    4    0  501 -0.21059699192E+01  0.77152146836E+02  0.70280200304E+02  0.10446850159E+03  0.41800000000E+01 0.  1.
</event>
<event>
11    1  0.8551154E-009  0.1326146E+03  0.7561462E-02  0.1116098E+00
         22   -1    0    0    0    0  0.00000000000E+00  0.00000000000E+00  0.95605310755E+03  0.95605310755E+03  0.00000000000E+00 0.  1.
         22   -1    0    0    0    0 -0.00000000000E+00 -0.00000000000E+00 -0.20508395767E+04  0.20508395767E+04  0.00000000000E+00 0.  1.
         24    2    1    2    0    0 -0.16653702942E+02  0.79475582568E+00 -0.95609396107E+03  0.95953502943E+03  0.79459630258E+02 0.  0.
         25    2    1    2    0    0  0.35802415062E+02  0.38853171718E+02 -0.10865806215E+04  0.10950322625E+04  0.12508727748E+03 0.  0.
        -24    2    1    2    0    0 -0.19148712120E+02 -0.39647927544E+02  0.94788811345E+03  0.95232539230E+03  0.80580058832E+02 0.  0.
        -13    1    3    3    0    0 -0.11284004781E+02  0.10919429860E+02 -0.93790630233E+03  0.93803773627E+03  0.00000000000E+00 0.  1.
         14    1    3    3    0    0 -0.53696981610E+01 -0.10124674035E+02 -0.18187658741E+02  0.21497293158E+02  0.00000000000E+00 0. -1.
         11    1    5    5    0    0 -0.10935106187E+02 -0.16131312330E+02  0.44337681907E+02  0.48431661356E+02  0.00000000000E+00 0. -1.
        -12    1    5    5    0    0 -0.82136059328E+01 -0.23516615214E+02  0.90355043154E+03  0.90389373095E+03  0.00000000000E+00 0.  1.
          5    1    4    4  501    0 -0.16394331173E+02 -0.33565700313E+02 -0.52915595216E+03  0.53048932547E+03  0.41800000000E+01 0.  1.
         -5    1    4    4    0  501  0.52196746235E+02  0.72418872032E+02 -0.55742466932E+03  0.56454293699E+03  0.41800000000E+01 0.  1.
</event>
<event>
11    1  0.8551154E-009  0.3200811E+03  0.7561462E-02  0.9920333E-01
         22   -1    0    0    0    0  0.00000000000E+00  0.00000000000E+00  0.40122613917E+03  0.40122613917E+03  0.00000000000E+00 0.  1.
         22   -1    0    0    0    0 -0.00000000000E+00 -0.00000000000E+00 -0.43473238078E+03  0.43473238078E+03  0.00000000000E+00 0.  1.
        -24    2    1    2    0    0  0.11742841408E+03  0.76783842225E+02 -0.97112230718E+02  0.18830220201E+03  0.79635061782E+02 0.  0.
         25    2    1    2    0    0 -0.35064010533E+03  0.35060046804E+02  0.44782395103E+02  0.37660430467E+03  0.12509056337E+03 0.  0.
         24    2    1    2    0    0  0.23321169124E+03 -0.11184388903E+03  0.18823594002E+02  0.27105201327E+03  0.78855042704E+02 0.  0.
        -13    1    5    5    0    0  0.66295939615E+02 -0.71907885559E+02 -0.41560382429E+01  0.97893657960E+02  0.00000000000E+00 0.  1.
         14    1    5    5    0    0  0.16691575163E+03 -0.39936003470E+02  0.22979632245E+02  0.17315835531E+03  0.00000000000E+00 0. -1.
         11    1    3    3    0    0  0.10655693593E+02 -0.14479084553E+02 -0.80513428989E+00  0.17995442108E+02  0.00000000000E+00 0. -1.
        -12    1    3    3    0    0  0.10677272049E+03  0.91262926778E+02 -0.96307096429E+02  0.17030675990E+03  0.00000000000E+00 0.  1.
          5    1    4    4  501    0 -0.27596467011E+03 -0.23964974793E+02  0.48527819785E+02  0.28125298374E+03  0.41800000000E+01 0.  1.
         -5    1    4    4    0  501 -0.74675435213E+02  0.59025021597E+02 -0.37454246812E+01  0.95351320939E+02  0.41800000000E+01 0.  1.
</event>
<event>
11    1  0.8551154E-009  0.1261807E+03  0.7561462E-02  0.1124053E+00
         22   -1    0    0    0    0  0.00000000000E+00  0.00000000000E+00  0.38047204180E+03  0.38047204180E+03  0.00000000000E+00 0.  1.
         22   -1    0    0    0    0 -0.00000000000E+00 -0.00000000000E+00 -0.88325384045E+03  0.88325384045E+03  0.00000000000E+00 0. -1.
         24    2    1    2    0    0 -0.53415032714E+01  0.13710536250E+02 -0.73762190639E+03  0.74198617636E+03  0.78999358594E+02 0.  0.
         25    2    1    2    0    0 -0.45720762715E+01 -0.44035028277E+02 -0.10746142458E+03  0.17076876597E+03  0.12511605037E+03 0.  0.
        -24    2    1    2    0    0  0.99135795429E+01  0.30324492027E+02  0.34230153232E+03  0.35097093993E+03  0.70656972532E+02 0.  0.
        -11    1    3    3    0    0 -0.70782842594E+01 -0.55162225698E+01 -0.77447974083E+01  0.11853805566E+02  0.00000000000E+00 0.  1.
         12    1    3    3    0    0  0.17367809880E+01  0.19226758819E+02 -0.72987710898E+03  0.73013237079E+03  0.00000000000E+00 0. -1.
         13    1    5    5    0    0  0.12263843443E+02 -0.21977196597E+02  0.11280116723E+03  0.11557466139E+03  0.00000000000E+00 0. -1.
        -14    1    5    5    0    0 -0.23502639001E+01  0.52301688624E+02  0.22950036509E+03  0.23539627854E+03  0.00000000000E+00 0.  1.
          5    1    4    4  501    0  0.42007501035E+02 -0.53665756591E+02 -0.20043708702E+02  0.71160847607E+02  0.41800000000E+01 0. -1.
         -5    1    4    4    0  501 -0.46579577306E+02  0.96307283144E+01 -0.87417715881E+02  0.99607918358E+02  0.41800000000E+01 0. -1.
</event>
<event>
11    1  0.8551154E-009  0.1896838E+03  0.7561462E-02  0.1062068E+00
         22   -1    0    0    0    0  0.00000000000E+00  0.00000000000E+00  0.32161645489E+04  0.32161645489E+04  0.00000000000E+00 0. -1.
         22   -1    0    0    0    0 -0.00000000000E+00 -0.00000000000E+00 -0.22067867169E+03  0.22067867169E+03  0.00000000000E+00 0. -1.
         24    2    1    2    0    0  0.35086425543E+02  0.16826298088E+02 -0.19183568470E+03  0.21143064720E+03  0.79923757954E+02 0.  0.
         25    2    1    2    0    0 -0.78498708551E+02  0.11964978485E+03  0.52961778956E+03  0.56269012616E+03  0.12508819609E+03 0.  0.
        -24    2    1    2    0    0  0.43412283008E+02 -0.13647608294E+03  0.26577037724E+04  0.26627224472E+04  0.78683809554E+02 0.  0.
        -13    1    3    3    0    0 -0.22944712454E+02 -0.34926027546E+01 -0.27590450428E+02  0.36054001975E+02  0.00000000000E+00 0.  1.
         14    1    3    3    0    0  0.58031137996E+02  0.20318900842E+02 -0.16424523427E+03  0.17537664523E+03  0.00000000000E+00 0. -1.
         13    1    5    5    0    0  0.29041591984E+01 -0.10349363759E+03  0.21083720259E+04  0.21109125910E+04  0.00000000000E+00 0. -1.
        -14    1    5    5    0    0  0.40508123809E+02 -0.32982445348E+02  0.54933174646E+03  0.55180985626E+03  0.00000000000E+00 0.  1.
          5    1    4    4  501    0 -0.24408316921E+02 -0.26725184622E+01  0.26494827613E+03  0.26611645893E+03  0.41800000000E+01 0.  1.
         -5    1    4    4    0  501 -0.54090391629E+02  0.12232230331E+03  0.26466951343E+03  0.29657366723E+03  0.41800000000E+01 0.  1.
</event>
<event>
11    1  0.8551154E-009  0.1427569E+03  0.7561462E-02  0.1104518E+00
         22   -1    0    0    0    0  0.00000000000E+00  0.00000000000E+00  0.14115502351E+04  0.14115502351E+04  0.00000000000E+00 0.  1.
         22   -1    0    0    0    0 -0.00000000000E+00 -0.00000000000E+00 -0.53780899221E+03  0.53780899221E+03  0.00000000000E+00 0.  1.
         24    2    1    2    0    0  0.48030864049E+02 -0.36004294886E+02 -0.49886465027E+03  0.50907057083E+03  0.81753493157E+02 0.  0.
         25    2    1    2    0    0 -0.28325308214E+02  0.10036278908E+03  0.17859524056E+03  0.24169928987E+03  0.12508906529E+03 0.  0.
        -24    2    1    2    0    0 -0.19705555835E+02 -0.64358494193E+02  0.11940106526E+04  0.11985893666E+04  0.80154267230E+02 0.  0.
        -13    1    3    3    0    0  0.15831911343E+02 -0.23094547781E+02 -0.43891598207E+03  0.43980819327E+03  0.00000000000E+00 0.  1.
         14    1    3    3    0    0  0.32198952705E+02 -0.12909747105E+02 -0.59948668200E+02  0.69262377555E+02  0.00000000000E+00 0. -1.
         13    1    5    5    0    0  0.89257194758E+01  0.88881767849E+00  0.15362527456E+02  0.17789483266E+02  0.00000000000E+00 0. -1.
        -14    1    5    5    0    0 -0.28631275311E+02 -0.65247311871E+02  0.11786481251E+04  0.11807998833E+04  0.00000000000E+00 0.  1.
          5    1    4    4  501    0 -0.22769115370E+02  0.11040133223E+03  0.70725871388E+02  0.13314093306E+03  0.41800000000E+01 0. -1.
         -5    1    4    4    0  501 -0.55561928432E+01 -0.10038543150E+02  0.10786936917E+03  0.10855835680E+03  0.41800000000E+01 0. -1.
</event>
<event>
11    1  0.8551154E-009  0.1381798E+03  0.7561462E-02  0.1109608E+00
         22   -1    0    0    0    0  0.00000000000E+00  0.00000000000E+00  0.11440155041E+03  0.11440155041E+03  0.00000000000E+00 0.  1.
         22   -1    0    0    0    0 -0.00000000000E+00 -0.00000000000E+00 -0.22920402447E+04  0.22920402447E+04  0.00000000000E+00 0. -1.
         24    2    1    2    0    0 -0.12165580816E+02 -0.35258341229E+01 -0.18183805027E+04  0.18202300090E+04  0.81050601526E+02 0.  0.
         25    2    1    2    0    0 -0.46778936737E+02  0.10055649741E+02 -0.43852388704E+03  0.45851917368E+03  0.12508896078E+03 0.  0.
        -24    2    1    2    0    0  0.58944517553E+02 -0.65298156177E+01  0.79265695464E+02  0.12769261247E+03  0.80655180614E+02 0.  0.
        -13    1    3    3    0    0 -0.85062808859E+01 -0.42265655443E+02 -0.96916270221E+03  0.97012117068E+03  0.00000000000E+00 0.  1.
         14    1    3    3    0    0 -0.36592999296E+01  0.38739821320E+02 -0.84921780050E+03  0.85010883828E+03  0.00000000000E+00 0. -1.
         13    1    5    5    0    0 -0.41936217054E+01  0.90351785410E+01 -0.12021493323E+02  0.15612085574E+02  0.00000000000E+00 0. -1.
        -14    1    5    5    0    0  0.63138139258E+02 -0.15564994159E+02  0.91287188787E+02  0.11208052689E+03  0.00000000000E+00 0.  1.
          5    1    4    4  501    0 -0.60598372837E+02  0.17205389499E+02 -0.91754432167E+02  0.11137565461E+03  0.41800000000E+01 0. -1.
         -5    1    4    4    0  501  0.13819436099E+02 -0.71497397580E+01 -0.34676945488E+03  0.34714351906E+03  0.41800000000E+01 0. -1.
</event>
<event>
11    1  0.8551154E-009  0.1398659E+03  0.7561462E-02  0.1107708E+00
         22   -1    0    0    0    0  0.00000000000E+00  0.00000000000E+00  0.82133265452E+03  0.82133265452E+03  0.00000000000E+00 0.  1.
         22   -1    0    0    0    0 -0.00000000000E+00 -0.00000000000E+00 -0.23424515239E+03  0.23424515239E+03  0.00000000000E+00 0.  1.
         24    2    1    2    0    0  0.47997023985E+02  0.39985778989E+02 -0.18400338355E+03  0.20998781569E+03  0.79593094850E+02 0.  0.
         25    2    1    2    0    0 -0.84786983154E+02  0.54194806781E+01  0.13796581823E+03  0.20470148724E+03  0.12509967465E+03 0.  0.
        -24    2    1    2    0    0  0.36789959168E+02 -0.45405259667E+02  0.63312506745E+03  0.64088850397E+03  0.80471018244E+02 0.  0.
        -11    1    3    3    0    0 -0.11169530931E+02  0.36429682073E+02 -0.10136492538E+03  0.10829001919E+03  0.00000000000E+00 0.  1.
         12    1    3    3    0    0  0.59166554916E+02  0.35560969167E+01 -0.82638458170E+02  0.10169779651E+03  0.00000000000E+00 0. -1.
         11    1    5    5    0    0  0.18807400819E+02 -0.44489228907E+01  0.27489284649E+02  0.33603154777E+02  0.00000000000E+00 0. -1.
        -12    1    5    5    0    0  0.17982558350E+02 -0.40956336777E+02  0.60563578281E+03  0.60728534919E+03  0.00000000000E+00 0.  1.
          5    1    4    4  501    0 -0.60379284991E+02  0.48582311193E+02  0.25456302512E+02  0.81678606467E+02  0.41800000000E+01 0. -1.
         -5    1    4    4    0  501 -0.24407698163E+02 -0.43162830515E+02  0.11250951571E+03  0.12302288077E+03  0.41800000000E+01 0. -1.
</event>
<event>
11    1  0.8551154E-009  0.1309104E+03  0.7561462E-02  0.1118155E+00
         22   -1    0    0    0    0  0.00000000000E+00  0.00000000000E+00  0.70577271032E+03  0.70577271032E+03  0.00000000000E+00 0.  1.
         22   -1    0    0    0    0 -0.00000000000E+00 -0.00000000000E+00 -0.39449657230E+03  0.39449657230E+03  0.00000000000E+00 0. -1.
         24    2    1    2    0    0 -0.21759013571E+02 -0.31518756005E+02 -0.36328663982E+03  0.37563757652E+03  0.87518681271E+02 0.  0.
         25    2    1    2    0    0  0.45503147128E+02  0.27557542291E+02  0.19156402302E+03  0.23489328379E+03  0.12509246707E+03 0.  0.
        -24    2    1    2    0    0 -0.23744133557E+02  0.39612137141E+01  0.48299875482E+03  0.48973842231E+03  0.77307503144E+02 0.  0.
        -11    1    3    3    0    0  0.95496065040E+00  0.81820477647E+01  0.11715487242E+01  0.83204796665E+01  0.00000000000E+00 0.  1.
         12    1    3    3    0    0 -0.22713974221E+02 -0.39700803769E+02 -0.36445818855E+03  0.36731709686E+03  0.00000000000E+00 0. -1.
         11    1    5    5    0    0 -0.18374123005E+02  0.49047933483E+01  0.23606868716E+02  0.30314182235E+02  0.00000000000E+00 0. -1.
        -12    1    5    5    0    0 -0.53700105524E+01 -0.94357963423E+00  0.45939188610E+03  0.45942424008E+03  0.00000000000E+00 0.  1.
          5    1    4    4  501    0  0.82834910859E+01  0.80433763442E+01  0.19226333644E+03  0.19265506759E+03  0.41800000000E+01 0. -1.
         -5    1    4    4    0  501  0.37219656042E+02  0.19514165946E+02 -0.69931342052E+00  0.42238216200E+02  0.41800000000E+01 0. -1.
</event>
<event>
11    1  0.8551154E-009  0.1783377E+03  0.7561462E-02  0.1070995E+00
         22   -1    0    0    0    0  0.00000000000E+00  0.00000000000E+00  0.19344319225E+04  0.19344319225E+04  0.00000000000E+00 0.  1.
         22   -1    0    0    0    0 -0.00000000000E+00 -0.00000000000E+00 -0.11578239270E+03  0.11578239270E+03  0.00000000000E+00 0. -1.
         24    2    1    2    0    0  0.12853280276E+03 -0.87794067708E+01 -0.49471443498E+02  0.15914894081E+03  0.79266652950E+02 0.  0.
         25    2    1    2    0    0 -0.92292793502E+02  0.77598641060E+02  0.90360867754E+03  0.92016040729E+03  0.12508806577E+03 0.  0.
        -24    2    1    2    0    0 -0.36240009263E+02 -0.68819234289E+02  0.96451229576E+03  0.97090496710E+03  0.79517678515E+02 0.  0.
        -13    1    3    3    0    0  0.22417827640E+02 -0.22903835738E+01 -0.47774260503E+02  0.52822200064E+02  0.00000000000E+00 0.  1.
         14    1    3    3    0    0  0.10611497513E+03 -0.64890231970E+01 -0.16971829947E+01  0.10632674075E+03  0.00000000000E+00 0. -1.
         11    1    5    5    0    0 -0.26491824605E+02  0.12359847513E+02  0.28286366960E+03  0.28437024841E+03  0.00000000000E+00 0. -1.
        -12    1    5    5    0    0 -0.97481846581E+01 -0.81179081802E+02  0.68164862616E+03  0.68653471869E+03  0.00000000000E+00 0.  1.
          5    1    4    4  501    0  0.20275003160E+02 -0.29321163789E+01  0.36493644497E+02  0.42058667932E+02  0.41800000000E+01 0.  1.
         -5    1    4    4    0  501 -0.11256779666E+03  0.80530757439E+02  0.86711503304E+03  0.87810173936E+03  0.41800000000E+01 0.  1.
</event>
<event>
11    1  0.8551154E-009  0.1692212E+03  0.7561462E-02  0.1078711E+00
         22   -1    0    0    0    0  0.00000000000E+00  0.00000000000E+00  0.23261231179E+03  0.23261231179E+03  0.00000000000E+00 0.  1.
         22   -1    0    0    0    0 -0.00000000000E+00 -0.00000000000E+00 -0.76752309841E+03  0.76752309841E+03  0.00000000000E+00 0. -1.
        -24    2    1    2    0    0 -0.14058517562E+02 -0.60623872899E+02 -0.41857266971E+03  0.43058950761E+03  0.79569770343E+02 0.  0.
         25    2    1    2    0    0  0.21931311963E+02  0.17032439775E+03 -0.28553626107E+03  0.35590665126E+03  0.12508878891E+03 0.  0.
         24    2    1    2    0    0 -0.78727944011E+01 -0.10970052485E+03  0.16919814417E+03  0.21363925133E+03  0.70125114444E+02 0.  0.
        -11    1    5    5    0    0 -0.37017025204E+02 -0.64057369673E+02  0.77500504461E+02  0.10714445835E+03  0.00000000000E+00 0.  1.
         12    1    5    5    0    0  0.29144230802E+02 -0.45643155181E+02  0.91697639707E+02  0.10649479298E+03  0.00000000000E+00 0. -1.
         11    1    3    3    0    0 -0.31408006846E+02 -0.36678001272E+01 -0.24622519480E+03  0.24824738106E+03  0.00000000000E+00 0. -1.
        -12    1    3    3    0    0  0.17349489284E+02 -0.56956072772E+02 -0.17234747491E+03  0.18234212655E+03  0.00000000000E+00 0.  1.
          5    1    4    4  501    0  0.39310624929E+01  0.88845326321E+02 -0.24951689112E+03  0.26492469990E+03  0.41800000000E+01 0. -1.
         -5    1    4    4    0  501  0.18000249470E+02  0.81479071432E+02 -0.36019369951E+02  0.90981951364E+02  0.41800000000E+01 0. -1.
</event>
<event>
11    1  0.8551154E-009  0.1438067E+03  0.7561462E-02  0.1103381E+00
         22   -1    0    0    0    0  0.00000000000E+00  0.00000000000E+00  0.27823124900E+03  0.27823124900E+03  0.00000000000E+00 0. -1.
         22   -1    0    0    0    0 -0.00000000000E+00 -0.00000000000E+00 -0.38884356271E+03  0.38884356271E+03  0.00000000000E+00 0. -1.
        -24    2    1    2    0    0  0.89534940562E+01 -0.73427319920E+02 -0.29736418100E+03  0.31704317782E+03  0.81358368321E+02 0.  0.
         25    2    1    2    0    0  0.17016050089E+02  0.53048031759E+02 -0.82158835826E+01  0.13718035102E+03  0.12508920149E+03 0.  0.
         24    2    1    2    0    0 -0.25969544145E+02  0.20379288161E+02  0.19496775087E+03  0.21285128287E+03  0.78762377635E+02 0.  0.
        -11    1    5    5    0    0  0.20177378678E+02  0.30593189939E+02  0.10520951873E+03  0.11140966167E+03  0.00000000000E+00 0.  1.
         12    1    5    5    0    0 -0.46146922823E+02 -0.10213901778E+02  0.89758232141E+02  0.10144162120E+03  0.00000000000E+00 0. -1.
         11    1    3    3    0    0  0.51787372083E+00 -0.65052781258E+02 -0.29811714241E+03  0.30513269760E+03  0.00000000000E+00 0. -1.
        -12    1    3    3    0    0  0.84356203354E+01 -0.83745386621E+01  0.75296141586E+00  0.11910480223E+02  0.00000000000E+00 0.  1.
          5    1    4    4  501    0 -0.35960523057E+02  0.66668810282E+02 -0.24890758001E+02  0.79843044260E+02  0.41800000000E+01 0.  1.
         -5    1    4    4    0  501  0.52976573145E+02 -0.13620778523E+02  0.16674874418E+02  0.57337306762E+02  0.41800000000E+01 0.  1.
</event>
<event>
11    1  0.8551154E-009  0.1458496E+03  0.7561462E-02  0.1101197E+00
         22   -1    0    0    0    0  0.00000000000E+00  0.00000000000E+00  0.27579968932E+03  0.27579968932E+03  0.00000000000E+00 0. -1.
         22   -1    0    0    0    0 -0.00000000000E+00 -0.00000000000E+00 -0.10595569724E+04  0.10595569724E+04  0.00000000000E+00 0.  1.
        -24    2    1    2    0    0  0.14619789318E+02  0.73606531361E+02 -0.99630147165E+03  0.10021910582E+04  0.78349442410E+02 0.  0.
         25    2    1    2    0    0  0.89822241290E+01 -0.76277966654E+02  0.57839270831E+02  0.15777307063E+03  0.12509177439E+03 0.  0.
         24    2    1    2    0    0 -0.23602013447E+02  0.26714352930E+01  0.15470491777E+03  0.17539253281E+03  0.79150093979E+02 0.  0.
        -11    1    5    5    0    0  0.86931820582E+01  0.19781788021E+02  0.62333145902E+01  0.22488769694E+02  0.00000000000E+00 0.  1.
         12    1    5    5    0    0 -0.32295195506E+02 -0.17110352728E+02  0.14847160318E+03  0.15290376311E+03  0.00000000000E+00 0. -1.
         13    1    3    3    0    0  0.14978310671E+01 -0.14969196310E+02 -0.26524149245E+03  0.26566778061E+03  0.00000000000E+00 0. -1.
        -14    1    3    3    0    0  0.13121958251E+02  0.88575727671E+02 -0.73105997920E+03  0.73652327764E+03  0.00000000000E+00 0.  1.
          5    1    4    4  501    0 -0.76190804666E+01 -0.84041963078E+02  0.88152683245E+02  0.12210434025E+03  0.41800000000E+01 0.  1.
         -5    1    4    4    0  501  0.16601304596E+02  0.77639964240E+01 -0.30313412414E+02  0.35668730381E+02  0.41800000000E+01 0.  1.
</event>
<event>
11    1  0.8551154E-009  0.1973735E+03  0.7561462E-02  0.1056397E+00
         22   -1    0    0    0    0  0.00000000000E+00  0.00000000000E+00  0.11064911937E+04  0.11064911937E+04  0.00000000000E+00 0. -1.
         22   -1    0    0    0    0 -0.00000000000E+00 -0.00000000000E+00 -0.21680579600E+03  0.21680579600E+03  0.00000000000E+00 0.  1.
        -24    2    1    2    0    0 -0.20697883290E+02  0.12166182913E+02 -0.14363158290E+03  0.16655464168E+03  0.80833153347E+02 0.  0.
         25    2    1    2    0    0  0.14265804374E+03 -0.98633149569E+02  0.15987233179E+03  0.26700199116E+03  0.12510429718E+03 0.  0.
         24    2    1    2    0    0 -0.12196016045E+03  0.86466966655E+02  0.87344464878E+03  0.88974035682E+03  0.79884485415E+02 0.  0.
        -11    1    5    5    0    0 -0.32523499620E+02 -0.10550090721E+02  0.11781533111E+03  0.12267654497E+03  0.00000000000E+00 0.  1.
         12    1    5    5    0    0 -0.89436660832E+02  0.97017057376E+02  0.75562931767E+03  0.76706381185E+03  0.00000000000E+00 0. -1.
         11    1    3    3    0    0  0.18993286816E+02  0.20471672926E+02 -0.11113350815E+03  0.11458835442E+03  0.00000000000E+00 0. -1.
        -12    1    3    3    0    0 -0.39691170107E+02 -0.83054900127E+01 -0.32498074755E+02  0.51966287259E+02  0.00000000000E+00 0.  1.
          5    1    4    4  501    0  0.61126148535E+02 -0.45998271095E+02 -0.37644979740E+01  0.76706523995E+02  0.41800000000E+01 0. -1.
         -5    1    4    4    0  501  0.81531895207E+02 -0.52634878474E+02  0.16363682976E+03  0.19029546716E+03  0.41800000000E+01 0. -1.
</event>
<event>
11    1  0.8551154E-009  0.1358515E+03  0.7561462E-02  0.1112281E+00
         22   -1    0    0    0    0  0.00000000000E+00  0.00000000000E+00  0.48053408597E+03  0.48053408597E+03  0.00000000000E+00 0. -1.
         22   -1    0    0    0    0 -0.00000000000E+00 -0.00000000000E+00 -0.11815786287E+04  0.11815786287E+04  0.00000000000E+00 0. -1.
        -24    2    1    2    0    0  0.42244511750E+02  0.30975432281E+02 -0.11104288304E+04  0.11145010815E+04  0.79475763912E+02 0.  0.
         25    2    1    2    0    0 -0.82796390918E+02 -0.16956990019E+02  0.25119787509E+02  0.15305970830E+03  0.12511390299E+03 0.  0.
         24    2    1    2    0    0  0.40551879167E+02 -0.14018442262E+02  0.38426450022E+03  0.39455192483E+03  0.78555990421E+02 0.  0.
        -11    1    5    5    0    0  0.31964233853E+02 -0.25824560886E+02  0.79994257738E+02  0.89931648833E+02  0.00000000000E+00 0.  1.
         12    1    5    5    0    0  0.85876453143E+01  0.11806118624E+02  0.30427024248E+03  0.30462027600E+03  0.00000000000E+00 0. -1.
         11    1    3    3    0    0  0.21783660395E+02  0.23720408629E+02 -0.10463357426E+04  0.10468312528E+04  0.00000000000E+00 0. -1.
        -12    1    3    3    0    0  0.20460851355E+02  0.72550236520E+01 -0.64093087837E+02  0.67669828689E+02  0.00000000000E+00 0.  1.
          5    1    4    4  501    0  0.24152819460E+02  0.97132772290E+01  0.33275229957E+02  0.42454914569E+02  0.41800000000E+01 0.  1.
         -5    1    4    4    0  501 -0.10694921038E+03 -0.26670267248E+02 -0.81554424480E+01  0.11060479373E+03  0.41800000000E+01 0.  1.
</event>
<event>
11    1  0.8551154E-009  0.1775047E+03  0.7561462E-02  0.1071679E+00
         22   -1    0    0    0    0  0.00000000000E+00  0.00000000000E+00  0.62484966167E+03  0.62484966167E+03  0.00000000000E+00 0. -1.
         22   -1    0    0    0    0 -0.00000000000E+00 -0.00000000000E+00 -0.23997406621E+03  0.23997406621E+03  0.00000000000E+00 0.  1.
        -24    2    1    2    0    0 -0.10990587907E+03  0.35963837905E+02 -0.12067527121E+03  0.18525566480E+03  0.79902693115E+02 0.  0.
         25    2    1    2    0    0  0.14862021340E+03 -0.94545593514E+02  0.63816705724E+02  0.22527070288E+03  0.12508988992E+03 0.  0.
         24    2    1    2    0    0 -0.38714334335E+02  0.58581755610E+02  0.44173416095E+03  0.45429736021E+03  0.79538674646E+02 0.  0.
        -13    1    5    5    0    0 -0.45376679967E+01 -0.18924040641E+02  0.53489295720E+02  0.56919368423E+02  0.00000000000E+00 0.  1.
         14    1    5    5    0    0 -0.34176666339E+02  0.77505796250E+02  0.38824486523E+03  0.39737799178E+03  0.00000000000E+00 0. -1.
         11    1    3    3    0    0 -0.43398649786E+02 -0.21842106930E+02 -0.64514008685E+02  0.80762477395E+02  0.00000000000E+00 0. -1.
        -12    1    3    3    0    0 -0.66507229281E+02  0.57805944834E+02 -0.56161262527E+02  0.10449318740E+03  0.00000000000E+00 0.  1.
          5    1    4    4  501    0  0.14602956472E+03 -0.45604297422E+02  0.11517372354E+02  0.15347477963E+03  0.41800000000E+01 0.  1.
         -5    1    4    4    0  501  0.25906486794E+01 -0.48941296092E+02  0.52299333370E+02  0.71795923245E+02  0.41800000000E+01 0.  1.
</event>
<event>
11    1  0.8551154E-009  0.1599166E+03  0.7561462E-02  0.1087156E+00
         22   -1    0    0    0    0  0.00000000000E+00  0.00000000000E+00  0.60123682316E+03  0.60123682316E+03  0.00000000000E+00 0.  1.
         22   -1    0    0    0    0 -0.00000000000E+00 -0.00000000000E+00 -0.71273686515E+03  0.71273686515E+03  0.00000000000E+00 0. -1.
        -24    2    1    2    0    0  0.40248044911E+02 -0.58719218067E+02 -0.66640929379E+03  0.67510749861E+03  0.81246145377E+02 0.  0.
         25    2    1    2    0    0 -0.12816544544E+03  0.52565069730E+02  0.25702668455E+03  0.31764843663E+03  0.12509334419E+03 0.  0.
         24    2    1    2    0    0  0.87917400527E+02  0.61541483364E+01  0.29788256726E+03  0.32121775308E+03  0.81728074498E+02 0.  0.
        -13    1    5    5    0    0  0.96747761458E+02  0.21984909114E+02  0.27271631319E+03  0.29020277920E+03  0.00000000000E+00 0.  1.
         14    1    5    5    0    0 -0.88303609305E+01 -0.15830760778E+02  0.25166254064E+02  0.31014973877E+02  0.00000000000E+00 0. -1.
         11    1    3    3    0    0  0.44720775530E+02 -0.75969735507E+02 -0.49642138819E+03  0.50418800376E+03  0.00000000000E+00 0. -1.
        -12    1    3    3    0    0 -0.44727306192E+01  0.17250517440E+02 -0.16998790560E+03  0.17091949485E+03  0.00000000000E+00 0.  1.
          5    1    4    4  501    0 -0.11871891912E+02  0.55967549075E+02  0.14562394864E+03  0.15651554295E+03  0.41800000000E+01 0.  1.
         -5    1    4    4    0  501 -0.11629355353E+03 -0.34024793449E+01  0.11140273591E+03  0.16113289368E+03  0.41800000000E+01 0.  1.
</event>
<event>
11    1  0.8551154E-009  0.1644316E+03  0.7561462E-02  0.1082982E+00
         22   -1    0    0    0    0  0.00000000000E+00  0.00000000000E+00  0.17303007109E+04  0.17303007109E+04  0.00000000000E+00 0.  1.
         22   -1    0    0    0    0 -0.00000000000E+00 -0.00000000000E+00 -0.25690140871E+04  0.25690140871E+04  0.00000000000E+00 0.  1.
        -24    2    1    2    0    0 -0.18592194574E+02  0.73762880212E+02 -0.25090054537E+04  0.25112995685E+04  0.75700222059E+02 0.  0.
         25    2    1    2    0    0 -0.88897084547E+02 -0.64804988308E+02  0.67834748140E+02  0.17986435861E+03  0.12508899348E+03 0.  0.
         24    2    1    2    0    0  0.10748927912E+03 -0.89578919039E+01  0.16024573294E+04  0.16081508709E+04  0.81520194292E+02 0.  0.
        -11    1    5    5    0    0  0.11692564487E+03 -0.17593201344E+02  0.15308823312E+04  0.15354419035E+04  0.00000000000E+00 0.  1.
         12    1    5    5    0    0 -0.94363657464E+01  0.86353094400E+01  0.71574998234E+02  0.72708967396E+02  0.00000000000E+00 0. -1.
         11    1    3    3    0    0  0.27363773207E+01  0.29335261683E+02 -0.24606907466E+03  0.24782662255E+03  0.00000000000E+00 0. -1.
        -12    1    3    3    0    0 -0.21328571895E+02  0.44427618529E+02 -0.22629363791E+04  0.22634729459E+04  0.00000000000E+00 0.  1.
          5    1    4    4  501    0 -0.11389267825E+01 -0.15633694343E+02  0.77071099347E+02  0.78759991796E+02  0.41800000000E+01 0.  1.
         -5    1    4    4    0  501 -0.87758157764E+02 -0.49171293966E+02 -0.92363512073E+01  0.10110436681E+03  0.41800000000E+01 0.  1.
</event>
<event>
11    1  0.8551154E-009  0.2396442E+03  0.7561462E-02  0.1029565E+00
         22   -1    0    0    0    0  0.00000000000E+00  0.00000000000E+00  0.56176774878E+03  0.56176774878E+03  0.00000000000E+00 0. -1.
         22   -1    0    0    0    0 -0.00000000000E+00 -0.00000000000E+00 -0.46444114145E+03  0.46444114145E+03  0.00000000000E+00 0.  1.
        -24    2    1    2    0    0 -0.16357239333E+03  0.11860270376E+03 -0.34529016005E+03  0.40972542681E+03  0.88470907956E+02 0.  0.
         25    2    1    2    0    0  0.13385311623E+03 -0.18887824656E+03  0.14806686107E+03  0.30192837056E+03  0.12508116106E+03 0.  0.
         24    2    1    2    0    0  0.29719277100E+02  0.70275542809E+02  0.29454990631E+03  0.31455509286E+03  0.79770745198E+02 0.  0.
        -13    1    5    5    0    0  0.18641669134E+02 -0.10922236023E+02  0.26138187550E+02  0.33911825611E+02  0.00000000000E+00 0.  1.
         14    1    5    5    0    0  0.11077607965E+02  0.81197778832E+02  0.26841171876E+03  0.28064326725E+03  0.00000000000E+00 0. -1.
         11    1    3    3    0    0 -0.12695215642E+03  0.78799754813E+02 -0.17025198859E+03  0.22652150229E+03  0.00000000000E+00 0. -1.
        -12    1    3    3    0    0 -0.36620236907E+02  0.39802948942E+02 -0.17503817146E+03  0.18320392453E+03  0.00000000000E+00 0.  1.
          5    1    4    4  501    0  0.27966930295E+02 -0.13222957304E+03  0.41836715850E+02  0.14154360590E+03  0.41800000000E+01 0.  1.
         -5    1    4    4    0  501  0.10588618593E+03 -0.56648673523E+02  0.10623014522E+03  0.16038476466E+03  0.41800000000E+01 0.  1.
</event>
<event>
11    1  0.8763404E-009  0.1998784E+03  0.7561462E-02  0.1054610E+00
         22   -1    0    0    0    0  0.00000000000E+00  0.00000000000E+00  0.11556989729E+04  0.11556989729E+04  0.00000000000E+00 0.  1.
         22   -1    0    0    0    0 -0.00000000000E+00 -0.00000000000E+00 -0.30845213333E+04  0.30845213333E+04  0.00000000000E+00 0.  1.
         24    2    1    2    0    0 -0.55677942854E+02 -0.12403902377E+02 -0.26744075367E+04  0.26762204211E+04  0.80288105702E+02 0.  0.
         25    2    1    2    0    0 -0.87532500115E+02 -0.51637392461E+02 -0.38588193749E+03  0.41818709786E+03  0.12508884945E+03 0.  0.
        -24    2    1    2    0    0  0.14321044297E+03  0.64041294838E+02  0.11314671138E+04  0.11458127873E+04  0.89769680174E+02 0.  0.
        -13    1    3    3    0    0  0.89849251145E+01 -0.93929041819E+01 -0.14820545910E+04  0.14821115903E+04  0.00000000000E+00 0.  1.
         14    1    3    3    0    0 -0.64662867968E+02 -0.30109981954E+01 -0.11923529457E+04  0.11941088308E+04  0.00000000000E+00 0. -1.
         13    1    5    5    0    0  0.83821474005E+02  0.73942363656E+02  0.55041024843E+03  0.56164486487E+03  0.00000000000E+00 0. -1.
        -14    1    5    5    0    0  0.59388968964E+02 -0.99010688176E+01  0.58105686534E+03  0.58416792239E+03  0.00000000000E+00 0.  1.
          5    1    4    4  501    0 -0.76339276159E+02  0.12783382704E+02 -0.30177860340E+03  0.31157486714E+03  0.41800000000E+01 0.  1.
         -5    1    4    4    0  501 -0.11193223956E+02 -0.64420775165E+02 -0.84103334085E+02  0.10661223072E+03  0.41800000000E+01 0.  1.
</event>
<event>
11    1  0.8551154E-009  0.1317251E+03  0.7561462E-02  0.1117167E+00
         22   -1    0    0    0    0  0.00000000000E+00  0.00000000000E+00  0.49092087676E+03  0.49092087676E+03  0.00000000000E+00 0. -1.
         22   -1    0    0    0    0 -0.00000000000E+00 -0.00000000000E+00 -0.53439411177E+03  0.53439411177E+03  0.00000000000E+00 0. -1.
         24    2    1    2    0    0 -0.33428486411E+02 -0.15397889773E+02 -0.29534641149E+03  0.30858221863E+03  0.81479593505E+02 0.  0.
         25    2    1    2    0    0  0.29102060005E+02  0.58581306894E+02 -0.20638322045E+03  0.25005143946E+03  0.12511190704E+03 0.  0.
        -24    2    1    2    0    0  0.43264264058E+01 -0.43183417122E+02  0.45825639693E+03  0.46668133044E+03  0.76870107139E+02 0.  0.
        -11    1    3    3    0    0 -0.49727064729E+02  0.16401978451E+02 -0.20059909877E+03  0.20732053514E+03  0.00000000000E+00 0.  1.
         12    1    3    3    0    0  0.16298578318E+02 -0.31799868224E+02 -0.94747312724E+02  0.10126168349E+03  0.00000000000E+00 0. -1.
         11    1    5    5    0    0  0.28209377448E+02  0.78372378883E+01  0.21517115942E+03  0.21715390652E+03  0.00000000000E+00 0. -1.
        -12    1    5    5    0    0 -0.23882951042E+02 -0.51020655010E+02  0.24308523752E+03  0.24952742392E+03  0.00000000000E+00 0.  1.
          5    1    4    4  501    0  0.34441249070E+02 -0.33549945203E+02 -0.81412887244E+02  0.94643167054E+02  0.41800000000E+01 0. -1.
         -5    1    4    4    0  501 -0.53391890652E+01  0.92131252097E+02 -0.12497033320E+03  0.15540827241E+03  0.41800000000E+01 0. -1.
</event>
<event>
11    1  0.8551154E-009  0.2343775E+03  0.7561462E-02  0.1032567E+00
         22   -1    0    0    0    0  0.00000000000E+00  0.00000000000E+00  0.46083015269E+03  0.46083015269E+03  0.00000000000E+00 0. -1.
         22   -1    0    0    0    0 -0.00000000000E+00 -0.00000000000E+00 -0.16651253946E+04  0.16651253946E+04  0.00000000000E+00 0.  1.
         24    2    1    2    0    0  0.29356534030E+02  0.48286972140E+02 -0.12659995744E+04  0.12698375083E+04  0.80863694771E+02 0.  0.
         25    2    1    2    0    0  0.86490378238E+02  0.11718100527E+03 -0.34567120945E+03  0.39540902217E+03  0.12509091192E+03 0.  0.
        -24    2    1    2    0    0 -0.11584691227E+03 -0.16546797741E+03  0.40737554196E+03  0.46070901688E+03  0.74147200986E+02 0.  0.
        -13    1    3    3    0    0  0.31633942204E+02  0.66484495815E+01 -0.10056539794E+04  0.10061733620E+04  0.00000000000E+00 0.  1.
         14    1    3    3    0    0 -0.22774081740E+01  0.41638522558E+02 -0.26034559504E+03  0.26366414623E+03  0.00000000000E+00 0. -1.
         13    1    5    5    0    0 -0.78534957809E+02 -0.12821770936E+03  0.35875491944E+03  0.38898921940E+03  0.00000000000E+00 0. -1.
        -14    1    5    5    0    0 -0.37311954459E+02 -0.37250268047E+02  0.48620622527E+02  0.71719797476E+02  0.00000000000E+00 0.  1.
          5    1    4    4  501    0  0.92666136273E+02  0.90173667761E+02 -0.15146400077E+03  0.19919116220E+03  0.41800000000E+01 0. -1.
         -5    1    4    4    0  501 -0.61757580356E+01  0.27007337510E+02 -0.19420720868E+03  0.19621785997E+03  0.41800000000E+01 0. -1.
</event>
<event>
11    1  0.8551154E-009  0.2355566E+03  0.7561462E-02  0.1031888E+00
         22   -1    0    0    0    0  0.00000000000E+00  0.00000000000E+00  0.36197477045E+03  0.36197477045E+03  0.00000000000E+00 0. -1.
         22   -1    0    0    0    0 -0.00000000000E+00 -0.00000000000E+00 -0.46288935092E+03  0.46288935092E+03  0.00000000000E+00 0.  1.
         24    2    1    2    0    0 -0.22813742177E+03  0.35977035271E+01 -0.28827585182E+03  0.37644954224E+03  0.80942352503E+02 0.  0.
         25    2    1    2    0    0  0.14467121199E+03  0.39609651562E+02 -0.30929100692E+02  0.19774455128E+03  0.12509042416E+03 0.  0.
        -24    2    1    2    0    0  0.83466209783E+02 -0.43207355089E+02  0.21829037204E+03  0.25067002785E+03  0.79694997509E+02 0.  0.
        -13    1    3    3    0    0 -0.64306257909E+02 -0.16776670176E+02 -0.13815306609E+03  0.15330695072E+03  0.00000000000E+00 0.  1.
         14    1    3    3    0    0 -0.16383116386E+03  0.20374373703E+02 -0.15012278572E+03  0.22314259152E+03  0.00000000000E+00 0. -1.
         13    1    5    5    0    0  0.89092877541E+02 -0.55221592554E+02  0.21083160450E+03  0.23545048432E+03  0.00000000000E+00 0. -1.
        -14    1    5    5    0    0 -0.56266677574E+01  0.12014237465E+02  0.74587675390E+01  0.15219543525E+02  0.00000000000E+00 0.  1.
          5    1    4    4  501    0  0.38750764377E+02  0.60604265465E+02 -0.50413194617E+02  0.87940100773E+02  0.41800000000E+01 0.  1.
         -5    1    4    4    0  501  0.10592044761E+03 -0.20994613903E+02  0.19484093925E+02  0.10980445051E+03  0.41800000000E+01 0.  1.
</event>
<event>
11    1  0.8551154E-009  0.1500336E+03  0.7561462E-02  0.1096844E+00
         22   -1    0    0    0    0  0.00000000000E+00  0.00000000000E+00  0.12633995538E+04  0.12633995538E+04  0.00000000000E+00 0. -1.
         22   -1    0    0    0    0 -0.00000000000E+00 -0.00000000000E+00 -0.10331341573E+03  0.10331341573E+03  0.00000000000E+00 0. -1.
         24    2    1    2    0    0 -0.34314351835E+02 -0.21139558507E+02 -0.31554043122E+02  0.93764716580E+02  0.78560860244E+02 0.  0.
         25    2    1    2    0    0  0.87826972549E+02  0.81189729450E+02  0.15832236173E+03  0.23455927559E+03  0.12508690686E+03 0.  0.
        -24    2    1    2    0    0 -0.53512620714E+02 -0.60050170943E+02  0.10333178194E+04  0.10383889773E+04  0.63532107368E+02 0.  0.
        -11    1    3    3    0    0 -0.26791600511E+02  0.25944525720E+02 -0.13447260991E+01  0.37319117903E+02  0.00000000000E+00 0.  1.
         12    1    3    3    0    0 -0.75227513236E+01 -0.47084084227E+02 -0.30209317023E+02  0.56445598677E+02  0.00000000000E+00 0. -1.
         13    1    5    5    0    0 -0.11796546029E+02 -0.58314160082E+02  0.68465298811E+03  0.68723315832E+03  0.00000000000E+00 0. -1.
        -14    1    5    5    0    0 -0.41716074685E+02 -0.17360108612E+01  0.34866483133E+03  0.35115581901E+03  0.00000000000E+00 0.  1.
          5    1    4    4  501    0 -0.58313135541E+01  0.67546609433E+02  0.10719538373E+03  0.12690496978E+03  0.41800000000E+01 0. -1.
         -5    1    4    4    0  501  0.93658286103E+02  0.13643120017E+02  0.51126978006E+02  0.10765430581E+03  0.41800000000E+01 0. -1.
</event>
<event>
11    1  0.8551154E-009  0.1604505E+03  0.7561462E-02  0.1086654E+00
         22   -1    0    0    0    0  0.00000000000E+00  0.00000000000E+00  0.18410731337E+04  0.18410731337E+04  0.00000000000E+00 0.  1.
         22   -1    0    0    0    0 -0.00000000000E+00 -0.00000000000E+00 -0.81717039552E+02  0.81717039552E+02  0.00000000000E+00 0. -1.
        -24    2    1    2    0    0 -0.12022575478E+02 -0.16143913732E+02  0.32041749036E+02  0.95304894216E+02  0.87471028967E+02 0.  0.
         25    2    1    2    0    0 -0.47384930761E+02 -0.66147103190E+02  0.69484999732E+02  0.16461145677E+03  0.12509194853E+03 0.  0.
         24    2    1    2    0    0  0.59407506239E+02  0.82291016922E+02  0.16578293454E+04  0.16628738223E+04  0.80312807915E+02 0.  0.
        -11    1    5    5    0    0  0.61873530644E+02  0.20045390455E+02  0.99507754547E+03  0.99720081878E+03  0.00000000000E+00 0.  1.
         12    1    5    5    0    0 -0.24660244044E+01  0.62245626467E+02  0.66275179993E+03  0.66567300351E+03  0.00000000000E+00 0. -1.
         13    1    3    3    0    0  0.55942657093E+00  0.11252781507E+02 -0.26864905782E+02  0.29131790409E+02  0.00000000000E+00 0. -1.
        -14    1    3    3    0    0 -0.12582002049E+02 -0.27396695240E+02  0.58906654818E+02  0.66173103807E+02  0.00000000000E+00 0.  1.
          5    1    4    4  501    0  0.36508479623E+02 -0.16755823782E+02 -0.66776163707E+01  0.40935188718E+02  0.41800000000E+01 0. -1.
         -5    1    4    4    0  501 -0.83893410384E+02 -0.49391279408E+02  0.76162616103E+02  0.12367626805E+03  0.41800000000E+01 0. -1.
</event>
<event>
11    1  0.8551154E-009  0.1892885E+03  0.7561462E-02  0.1062368E+00
         22   -1    0    0    0    0  0.00000000000E+00  0.00000000000E+00  0.17409479170E+04  0.17409479170E+04  0.00000000000E+00 0. -1.
         22   -1    0    0    0    0 -0.00000000000E+00 -0.00000000000E+00 -0.22424215928E+03  0.22424215928E+03  0.00000000000E+00 0. -1.
        -24    2    1    2    0    0  0.14081953016E+03  0.23587852700E+02 -0.16725923170E+03  0.23444730193E+03  0.81261060312E+02 0.  0.
         25    2    1    2    0    0 -0.13684012432E+03  0.87219325810E+01  0.36992120260E+03  0.41387053528E+03  0.12508330068E+03 0.  0.
         24    2    1    2    0    0 -0.39794058421E+01 -0.32309785281E+02  0.13140437868E+04  0.13168722391E+04  0.79885308148E+02 0.  0.
        -13    1    5    5    0    0 -0.39162103480E+02 -0.22806229363E+02  0.51229307098E+03  0.51429367585E+03  0.00000000000E+00 0.  1.
         14    1    5    5    0    0  0.35182697638E+02 -0.95035559178E+01  0.80175071586E+03  0.80257856323E+03  0.00000000000E+00 0. -1.
         13    1    3    3    0    0  0.15016258016E+03  0.27204302913E+02 -0.14722316229E+03  0.21204606597E+03  0.00000000000E+00 0. -1.
        -14    1    3    3    0    0 -0.93430499959E+01 -0.36164502125E+01 -0.20036069404E+02  0.22401235960E+02  0.00000000000E+00 0.  1.
          5    1    4    4  501    0 -0.15554831638E+03  0.97767975967E+01  0.35988728239E+03  0.39220809901E+03  0.41800000000E+01 0. -1.
         -5    1    4    4    0  501  0.18708192063E+02 -0.10548650157E+01  0.10033920208E+02  0.21662436271E+02  0.41800000000E+01 0. -1.
</event>
<event>
11    1  0.8551154E-009  0.1640192E+03  0.7561462E-02  0.1083357E+00
         22   -1    0    0    0    0  0.00000000000E+00  0.00000000000E+00  0.74517768354E+03  0.74517768354E+03  0.00000000000E+00 0.  1.
         22   -1    0    0    0    0 -0.00000000000E+00 -0.00000000000E+00 -0.25010872673E+03  0.25010872673E+03  0.00000000000E+00 0.  1.
         24    2    1    2    0    0 -0.60394740664E+02 -0.76611417994E+02 -0.11019871715E+03  0.16761470300E+03  0.80212825238E+02 0.  0.
         25    2    1    2    0    0  0.10347738084E+03  0.80650729198E+02 -0.31831342772E+02  0.18405320479E+03  0.12510091665E+03 0.  0.
        -24    2    1    2    0    0 -0.43082640178E+02 -0.40393112034E+01  0.63709901673E+03  0.64361850248E+03  0.80480989674E+02 0.  0.
        -11    1    3    3    0    0  0.34343004018E+01  0.53557812339E+00 -0.51360478895E+02  0.51477956986E+02  0.00000000000E+00 0.  1.
         12    1    3    3    0    0 -0.63829041065E+02 -0.77146996118E+02 -0.58838238258E+02  0.11613674601E+03  0.00000000000E+00 0. -1.
         11    1    5    5    0    0 -0.24429285581E+02  0.25106916785E+02  0.11131397627E+03  0.11669596641E+03  0.00000000000E+00 0. -1.
        -12    1    5    5    0    0 -0.18653354597E+02 -0.29146227988E+02  0.52578504046E+03  0.52692253607E+03  0.00000000000E+00 0.  1.
          5    1    4    4  501    0  0.12998049578E+03  0.81227279483E+02 -0.34244190126E+02  0.15710804300E+03  0.41800000000E+01 0.  1.
         -5    1    4    4    0  501 -0.26503114943E+02 -0.57655028537E+00  0.24128473545E+01  0.26945161797E+02  0.41800000000E+01 0.  1.
</event>
<event>
11    1  0.8551154E-009  0.1537993E+03  0.7561462E-02  0.1093059E+00
         22   -1    0    0    0    0  0.00000000000E+00  0.00000000000E+00  0.78321315901E+03  0.78321315901E+03  0.00000000000E+00 0. -1.
         22   -1    0    0    0    0 -0.00000000000E+00 -0.00000000000E+00 -0.79357269007E+03  0.79357269007E+03  0.00000000000E+00 0.  1.
        -24    2    1    2    0    0 -0.13277182045E+02  0.40406806809E+02 -0.64692152088E+03  0.65325831135E+03  0.80187116009E+02 0.  0.
         25    2    1    2    0    0 -0.76550765672E+02 -0.43473287265E+02 -0.96320056329E+02  0.18076152968E+03  0.12508889211E+03 0.  0.
         24    2    1    2    0    0  0.89827947717E+02  0.30664804557E+01  0.73288204615E+03  0.74276600805E+03  0.80664649367E+02 0.  0.
        -11    1    5    5    0    0  0.83954238468E+01  0.30433464024E+01  0.47886797816E+01  0.10132943943E+02  0.00000000000E+00 0.  1.
         12    1    5    5    0    0  0.81432523870E+02  0.23134053269E-01  0.72809336637E+03  0.73263306411E+03  0.00000000000E+00 0. -1.
         11    1    3    3    0    0 -0.44396554394E+02  0.38616831161E+02 -0.38116535879E+03  0.38568036563E+03  0.00000000000E+00 0. -1.
        -12    1    3    3    0    0  0.31119372349E+02  0.17899756483E+01 -0.26575616209E+03  0.26757794573E+03  0.00000000000E+00 0.  1.
          5    1    4    4  501    0 -0.29533187001E+01 -0.41746275848E+02  0.17163859002E+02  0.45426248957E+02  0.41800000000E+01 0.  1.
         -5    1    4    4    0  501 -0.73597446972E+02 -0.17270114170E+01 -0.11348391533E+03  0.13533528072E+03  0.41800000000E+01 0.  1.
</event>
<event>
11    1  0.8551154E-009  0.1452979E+03  0.7561462E-02  0.1101783E+00
         22   -1    0    0    0    0  0.00000000000E+00  0.00000000000E+00  0.61539340460E+03  0.61539340460E+03  0.00000000000E+00 0.  1.
         22   -1    0    0    0    0 -0.00000000000E+00 -0.00000000000E+00 -0.19772917280E+03  0.19772917280E+03  0.00000000000E+00 0.  1.
         24    2    1    2    0    0  0.64522373782E+02 -0.34494329313E+02 -0.14549504547E+03  0.18134215947E+03  0.79769512188E+02 0.  0.
         25    2    1    2    0    0 -0.64525229964E+02  0.52800213417E+02  0.16045099582E+03  0.21987058460E+03  0.12508870482E+03 0.  0.
        -24    2    1    2    0    0  0.28561818195E-02 -0.18305884104E+02  0.40270828145E+03  0.41190983333E+03  0.84620597024E+02 0.  0.
        -13    1    3    3    0    0  0.43230124434E+02  0.13171581865E+02 -0.10797962130E+03  0.11705525551E+03  0.00000000000E+00 0.  1.
         14    1    3    3    0    0  0.21292249348E+02 -0.47665911178E+02 -0.37515424170E+02  0.64286903965E+02  0.00000000000E+00 0. -1.
         11    1    5    5    0    0 -0.12016984998E+02 -0.34999088707E+02  0.75753323981E+02  0.84308423263E+02  0.00000000000E+00 0. -1.
        -12    1    5    5    0    0  0.12019841180E+02  0.16693204603E+02  0.32695495747E+03  0.32760141006E+03  0.00000000000E+00 0.  1.
          5    1    4    4  501    0 -0.95463343749E+02  0.87072760360E+01  0.10976008114E+03  0.14578688030E+03  0.41800000000E+01 0. -1.
         -5    1    4    4    0  501  0.30938113786E+02  0.44092937381E+02  0.50690914681E+02  0.74083704300E+02  0.41800000000E+01 0. -1.
</event>
<event>
11    1  0.8551154E-009  0.1447631E+03  0.7561462E-02  0.1102353E+00
         22   -1    0    0    0    0  0.00000000000E+00  0.00000000000E+00  0.13789042564E+04  0.13789042564E+04  0.00000000000E+00 0. -1.
         22   -1    0    0    0    0 -0.00000000000E+00 -0.00000000000E+00 -0.14030165420E+03  0.14030165420E+03  0.00000000000E+00 0. -1.
         24    2    1    2    0    0  0.30590574071E+02  0.75321751153E+02 -0.57407633455E+02  0.12766382650E+03  0.79957906416E+02 0.  0.
         25    2    1    2    0    0 -0.53094336613E+02 -0.27201402759E+02  0.58292933782E+02  0.15034753312E+03  0.12508952672E+03 0.  0.
        -24    2    1    2    0    0  0.22503762542E+02 -0.48120348393E+02  0.12377173019E+04  0.12411945510E+04  0.76143330426E+02 0.  0.
        -13    1    3    3    0    0 -0.43243168447E+01  0.10449320622E+02  0.18627845169E+02  0.21791847862E+02  0.00000000000E+00 0.  1.
         14    1    3    3    0    0  0.34914890916E+02  0.64872430531E+02 -0.76035478624E+02  0.10587197864E+03  0.00000000000E+00 0. -1.
         13    1    5    5    0    0  0.25839974153E+02 -0.63053406465E+02  0.11591452036E+04  0.11611464332E+04  0.00000000000E+00 0. -1.
        -14    1    5    5    0    0 -0.33362116110E+01  0.14933058072E+02  0.78572098293E+02  0.80048117789E+02  0.00000000000E+00 0.  1.
          5    1    4    4  501    0 -0.80150590650E+02 -0.17050390542E+02 -0.33711573289E+01  0.82119852051E+02  0.41800000000E+01 0. -1.
         -5    1    4    4    0  501  0.27056254037E+02 -0.10151012218E+02  0.61664091111E+02  0.68227681069E+02  0.41800000000E+01 0. -1.
</event>
<event>
11    1  0.8551154E-009  0.1303926E+03  0.7561462E-02  0.1118788E+00
         22   -1    0    0    0    0  0.00000000000E+00  0.00000000000E+00  0.38859316692E+03  0.38859316692E+03  0.00000000000E+00 0.  1.
         22   -1    0    0    0    0 -0.00000000000E+00 -0.00000000000E+00 -0.70745527098E+03  0.70745527098E+03  0.00000000000E+00 0.  1.
         24    2    1    2    0    0 -0.15872219212E+02 -0.65815975811E+01 -0.62700296544E+03  0.63235749199E+03  0.80299652802E+02 0.  0.
         25    2    1    2    0    0  0.51454400047E+02  0.51008965662E+01 -0.81288753374E+01  0.13560062543E+03  0.12509147282E+03 0.  0.
        -24    2    1    2    0    0 -0.35582180835E+02  0.14807010149E+01  0.31626973672E+03  0.32809032048E+03  0.79677022755E+02 0.  0.
        -13    1    3    3    0    0  0.14485761630E+02 -0.31002107359E+02 -0.15416698734E+03  0.15791905501E+03  0.00000000000E+00 0.  1.
         14    1    3    3    0    0 -0.30357980841E+02  0.24420509778E+02 -0.47283597810E+03  0.47443843698E+03  0.00000000000E+00 0. -1.
         13    1    5    5    0    0 -0.11438162636E+01 -0.18757535938E+02  0.14626117829E+02  0.23813374244E+02  0.00000000000E+00 0. -1.
        -14    1    5    5    0    0 -0.34438364571E+02  0.20238236953E+02  0.30164361890E+03  0.30427694623E+03  0.00000000000E+00 0.  1.
          5    1    4    4  501    0  0.50290319479E+02  0.60890814228E+02 -0.93074128924E+01  0.79629817439E+02  0.41800000000E+01 0.  1.
         -5    1    4    4    0  501  0.11640805673E+01 -0.55789917662E+02  0.11785375550E+01  0.55970807990E+02  0.41800000000E+01 0.  1.
</event>
<event>
11    1  0.8551154E-009  0.1274411E+03  0.7561462E-02  0.1122454E+00
         22   -1    0    0    0    0  0.00000000000E+00  0.00000000000E+00  0.42483129097E+03  0.42483129097E+03  0.00000000000E+00 0.  1.
         22   -1    0    0    0    0 -0.00000000000E+00 -0.00000000000E+00 -0.51779155074E+03  0.51779155074E+03  0.00000000000E+00 0.  1.
         24    2    1    2    0    0  0.10625212463E+01  0.24374368212E+02 -0.48075322990E+03  0.48810138656E+03  0.80771633147E+02 0.  0.
         25    2    1    2    0    0  0.76787727559E+01 -0.22853667126E+02  0.12205257815E+03  0.17642633306E+03  0.12509262773E+03 0.  0.
        -24    2    1    2    0    0 -0.87412940022E+01 -0.15207010858E+01  0.26574039198E+03  0.27809512210E+03  0.81487534351E+02 0.  0.
        -13    1    3    3    0    0 -0.34233631164E+02  0.62500710646E+01 -0.34261511428E+03  0.34437787592E+03  0.00000000000E+00 0.  1.
         14    1    3    3    0    0  0.35296152410E+02  0.18124297147E+02 -0.13813811562E+03  0.14372351064E+03  0.00000000000E+00 0. -1.
         11    1    5    5    0    0 -0.34046215262E+01  0.29836879780E+02  0.39447300953E+02  0.49577418199E+02  0.00000000000E+00 0. -1.
        -12    1    5    5    0    0 -0.53366724760E+01 -0.31357580866E+02  0.22629309103E+03  0.22851770391E+03  0.00000000000E+00 0.  1.
          5    1    4    4  501    0  0.41981652857E+02 -0.30559961392E+02  0.29559191629E+01  0.52178350635E+02  0.41800000000E+01 0. -1.
         -5    1    4    4    0  501 -0.34302880101E+02  0.77062942658E+01  0.11909665899E+03  0.12424798242E+03  0.41800000000E+01 0. -1.
</event>
<event>
11    1  0.8551154E-009  0.8423243E+03  0.7561462E-02  0.8845400E-01
         22   -1    0    0    0    0  0.00000000000E+00  0.00000000000E+00  0.22808677167E+03  0.22808677167E+03  0.00000000000E+00 0. -1.
         22   -1    0    0    0    0 -0.00000000000E+00 -0.00000000000E+00 -0.77767571330E+03  0.77767571330E+03  0.00000000000E+00 0. -1.
        -24    2    1    2    0    0 -0.24463470234E+03  0.35252677877E+02 -0.32746471910E+03  0.41803847444E+03  0.80213059854E+02 0.  0.
         25    2    1    2    0    0  0.36787914508E+03 -0.15427019818E+02 -0.11983013545E+03  0.40691453262E+03  0.12508843738E+03 0.  0.
         24    2    1    2    0    0 -0.12324444274E+03 -0.19825658059E+02 -0.10229408707E+03  0.18080947791E+03  0.81521393939E+02 0.  0.
        -11    1    5    5    0    0  0.55415874046E+01  0.12375643685E+02 -0.58096975741E+00  0.13572150656E+02  0.00000000000E+00 0.  1.
         12    1    5    5    0    0 -0.12878603015E+03 -0.32201301744E+02 -0.10171311731E+03  0.16723732726E+03  0.00000000000E+00 0. -1.
         11    1    3    3    0    0 -0.10780143469E+03  0.34004844270E+02 -0.20642799578E+03  0.23535079392E+03  0.00000000000E+00 0. -1.
        -12    1    3    3    0    0 -0.13683326764E+03  0.12478336068E+01 -0.12103672333E+03  0.18268768053E+03  0.00000000000E+00 0.  1.
          5    1    4    4  501    0  0.14366256537E+03 -0.60255378662E+02 -0.78574128202E+02  0.17453082641E+03  0.41800000000E+01 0.  1.
         -5    1    4    4    0  501  0.22421657971E+03  0.44828358845E+02 -0.41256007252E+02  0.23238370620E+03  0.41800000000E+01 0.  1.
</event>
<event>
11    1  0.8551154E-009  0.1411717E+03  0.7561462E-02  0.1106257E+00
         22   -1    0    0    0    0  0.00000000000E+00  0.00000000000E+00  0.42653384418E+03  0.42653384418E+03  0.00000000000E+00 0. -1.
         22   -1    0    0    0    0 -0.00000000000E+00 -0.00000000000E+00 -0.68488629235E+03  0.68488629235E+03  0.00000000000E+00 0. -1.
         24    2    1    2    0    0 -0.26949512779E+02 -0.61867757985E+02 -0.56537076357E+03  0.57479076814E+03  0.78653869102E+02 0.  0.
         25    2    1    2    0    0  0.96066765374E+01  0.48070426265E+02 -0.69780847202E+02  0.15138077535E+03  0.12507485116E+03 0.  0.
        -24    2    1    2    0    0  0.17342836242E+02  0.13797331720E+02  0.37679916260E+03  0.38524859304E+03  0.77121522098E+02 0.  0.
        -13    1    3    3    0    0 -0.54433077080E+02 -0.40623564863E+02 -0.33503586351E+03  0.34185123042E+03  0.00000000000E+00 0.  1.
         14    1    3    3    0    0  0.27483564301E+02 -0.21244193122E+02 -0.23033490006E+03  0.23293953772E+03  0.00000000000E+00 0. -1.
         11    1    5    5    0    0  0.10307903698E+02 -0.74013391645E+01  0.35056331487E+03  0.35079291674E+03  0.00000000000E+00 0. -1.
        -12    1    5    5    0    0  0.70349325444E+01  0.21198670885E+02  0.26235847723E+02  0.34455676294E+02  0.00000000000E+00 0.  1.
          5    1    4    4  501    0  0.43982692167E+01  0.39513760603E+02 -0.10614902236E+03  0.11342737499E+03  0.41800000000E+01 0. -1.
         -5    1    4    4    0  501  0.52084073207E+01  0.85566656615E+01  0.36368175161E+02  0.37953400356E+02  0.41800000000E+01 0. -1.
</event>
<event>
11    1  0.8551154E-009  0.1407903E+03  0.7561462E-02  0.1106679E+00
         22   -1    0    0    0    0  0.00000000000E+00  0.00000000000E+00  0.53021763458E+03  0.53021763458E+03  0.00000000000E+00 0.  1.
         22   -1    0    0    0    0 -0.00000000000E+00 -0.00000000000E+00 -0.11330297564E+04  0.11330297564E+04  0.00000000000E+00 0.  1.
        -24    2    1    2    0    0  0.83086730873E+01  0.25714117328E+02 -0.98639496428E+03  0.98999920035E+03  0.79957121333E+02 0.  0.
         25    2    1    2    0    0 -0.20686585618E+02 -0.88134758910E+02 -0.96874338555E+02  0.18228496114E+03  0.12508996377E+03 0.  0.
         24    2    1    2    0    0  0.12377912531E+02  0.62420641583E+02  0.48045718106E+03  0.49096322945E+03  0.78461714350E+02 0.  0.
        -11    1    5    5    0    0  0.32011418688E+02  0.43477989503E+02  0.43194251947E+03  0.43530380957E+03  0.00000000000E+00 0.  1.
         12    1    5    5    0    0 -0.19633506157E+02  0.18942652079E+02  0.48514661597E+02  0.55659419882E+02  0.00000000000E+00 0. -1.
         13    1    3    3    0    0  0.21308203496E+01  0.49268493305E+02 -0.38974231943E+03  0.39284984457E+03  0.00000000000E+00 0. -1.
        -14    1    3    3    0    0  0.61778527377E+01 -0.23554375977E+02 -0.59665264486E+03  0.59714935578E+03  0.00000000000E+00 0.  1.
          5    1    4    4  501    0 -0.48885531383E+02 -0.78523989203E+02 -0.13401905301E+02  0.93556910619E+02  0.41800000000E+01 0.  1.
         -5    1    4    4    0  501  0.28198945764E+02 -0.96107697070E+01 -0.83472433254E+02  0.88728050525E+02  0.41800000000E+01 0.  1.
</event>
<event>
11    1  0.8551154E-009  0.1251371E+03  0.7561462E-02  0.1125393E+00
         22   -1    0    0    0    0  0.00000000000E+00  0.00000000000E+00  0.11031942866E+04  0.11031942866E+04  0.00000000000E+00 0. -1.
         22   -1    0    0    0    0 -0.00000000000E+00 -0.00000000000E+00 -0.87866767344E+03  0.87866767344E+03  0.00000000000E+00 0. -1.
         24    2    1    2    0    0  0.29523008973E+02  0.19195769178E+02 -0.83284758530E+03  0.83744077693E+03  0.80198933407E+02 0.  0.
         25    2    1    2    0    0 -0.24810863592E+02 -0.16856396405E+02  0.58754837085E+02  0.14141727859E+03  0.12508796405E+03 0.  0.
        -24    2    1    2    0    0 -0.47121453806E+01 -0.23393727722E+01  0.99861936138E+03  0.10030039045E+04  0.93533558716E+02 0.  0.
        -13    1    3    3    0    0  0.54671243313E+02  0.38713583976E+01 -0.42290485426E+03  0.42644161150E+03  0.00000000000E+00 0.  1.
         14    1    3    3    0    0 -0.25148234340E+02  0.15324410780E+02 -0.40994273103E+03  0.41099916543E+03  0.00000000000E+00 0. -1.
         13    1    5    5    0    0  0.11052168750E+02 -0.41724930749E+02  0.29900262642E+03  0.30210211996E+03  0.00000000000E+00 0. -1.
        -14    1    5    5    0    0 -0.15764314131E+02  0.39385557976E+02  0.69961673496E+03  0.70090178457E+03  0.00000000000E+00 0.  1.
          5    1    4    4  501    0 -0.71190797592E+02  0.83798754393E+01  0.50564493343E+02  0.87821366200E+02  0.41800000000E+01 0.  1.
         -5    1    4    4    0  501  0.46379934000E+02 -0.25236271845E+02  0.81903437422E+01  0.53595912392E+02  0.41800000000E+01 0.  1.
</event>
<event>
11    1  0.8551154E-009  0.1454811E+03  0.7561462E-02  0.1101588E+00
         22   -1    0    0    0    0  0.00000000000E+00  0.00000000000E+00  0.67965029131E+03  0.67965029131E+03  0.00000000000E+00 0. -1.
         22   -1    0    0    0    0 -0.00000000000E+00 -0.00000000000E+00 -0.11053843827E+04  0.11053843827E+04  0.00000000000E+00 0. -1.
         24    2    1    2    0    0  0.63306419119E+01  0.64169503253E+02 -0.69907647615E+03  0.70674043654E+03  0.81340782813E+02 0.  0.
         25    2    1    2    0    0  0.59651486447E+02 -0.29226085212E+02 -0.38541535991E+03  0.41061656617E+03  0.12509396813E+03 0.  0.
        -24    2    1    2    0    0 -0.65982128359E+02 -0.34943418041E+02  0.65875774465E+03  0.66767767132E+03  0.79101345865E+02 0.  0.
        -11    1    3    3    0    0 -0.59053601037E+01  0.46309039289E+02 -0.14689747515E+03  0.15413717463E+03  0.00000000000E+00 0.  1.
         12    1    3    3    0    0  0.12236002016E+02  0.17860463964E+02 -0.55217900100E+03  0.55260326190E+03  0.00000000000E+00 0. -1.
         13    1    5    5    0    0 -0.45308568739E+02 -0.60278099262E+02  0.49185404817E+03  0.49760096499E+03  0.00000000000E+00 0. -1.
        -14    1    5    5    0    0 -0.20673559619E+02  0.25334681221E+02  0.16690369648E+03  0.17007670633E+03  0.00000000000E+00 0.  1.
          5    1    4    4  501    0  0.33228130623E+02  0.83308118384E+01 -0.35195963676E+03  0.35364752141E+03  0.41800000000E+01 0.  1.
         -5    1    4    4    0  501  0.26423355824E+02 -0.37556897050E+02 -0.33455723152E+02  0.56969044758E+02  0.41800000000E+01 0.  1.
</event>
<event>
11    1  0.8551154E-009  0.1362687E+03  0.7561462E-02  0.1111798E+00
         22   -1    0    0    0    0  0.00000000000E+00  0.00000000000E+00  0.92275824185E+03  0.92275824185E+03  0.00000000000E+00 0. -1.
         22   -1    0    0    0    0 -0.00000000000E+00 -0.00000000000E+00 -0.74819165986E+03  0.74819165986E+03  0.00000000000E+00 0.  1.
         24    2    1    2    0    0 -0.38202740849E+02 -0.17824099718E+02 -0.72939058351E+03  0.73520605230E+03  0.82098526698E+02 0.  0.
         25    2    1    2    0    0 -0.24687368143E+02  0.30849439332E+02  0.38659543493E+03  0.40824622246E+03  0.12509114193E+03 0.  0.
        -24    2    1    2    0    0  0.62890108992E+02 -0.13025339614E+02  0.51736173058E+03  0.52749762696E+03  0.80409955197E+02 0.  0.
        -11    1    3    3    0    0 -0.52047251398E+02  0.58795903761E+01 -0.62750710749E+03  0.62968933286E+03  0.00000000000E+00 0.  1.
         12    1    3    3    0    0  0.13844510549E+02 -0.23703690094E+02 -0.10188347602E+03  0.10551671944E+03  0.00000000000E+00 0. -1.
         13    1    5    5    0    0  0.48513293296E+02 -0.27998733223E+02  0.48980492500E+03  0.49299729537E+03  0.00000000000E+00 0. -1.
        -14    1    5    5    0    0  0.14376815696E+02  0.14973393608E+02  0.27556805577E+02  0.34500331582E+02  0.00000000000E+00 0.  1.
          5    1    4    4  501    0 -0.39430843958E+01 -0.26026210573E+02  0.12818883330E+02  0.29575458089E+02  0.41800000000E+01 0. -1.
         -5    1    4    4    0  501 -0.20744283747E+02  0.56875649906E+02  0.37377655160E+03  0.37867076437E+03  0.41800000000E+01 0. -1.
</event>
<event>
11    1  0.8551154E-009  0.3138890E+03  0.7561462E-02  0.9944786E-01
         22   -1    0    0    0    0  0.00000000000E+00  0.00000000000E+00  0.45309297247E+03  0.45309297247E+03  0.00000000000E+00 0. -1.
         22   -1    0    0    0    0 -0.00000000000E+00 -0.00000000000E+00 -0.99938922979E+03  0.99938922979E+03  0.00000000000E+00 0. -1.
         24    2    1    2    0    0 -0.27662874658E+03 -0.98734837620E+01 -0.73320462946E+03  0.78781340507E+03  0.80249507367E+02 0.  0.
         25    2    1    2    0    0  0.39872436664E+03  0.14129758209E+03  0.12366666833E+03  0.45813641317E+03  0.12509756577E+03 0.  0.
        -24    2    1    2    0    0 -0.12209562006E+03 -0.13142409833E+03  0.63241703809E+02  0.20653238401E+03  0.80476571039E+02 0.  0.
        -13    1    3    3    0    0 -0.73265244396E+02  0.20778287310E+02 -0.13184064035E+03  0.15225468041E+03  0.00000000000E+00 0.  1.
         14    1    3    3    0    0 -0.20336350218E+03 -0.30651771072E+02 -0.60136398911E+03  0.63555872466E+03  0.00000000000E+00 0. -1.
         11    1    5    5    0    0 -0.12202716023E+03 -0.10933396734E+03  0.76442646940E+02  0.18079829235E+03  0.00000000000E+00 0. -1.
        -12    1    5    5    0    0 -0.68459831580E-01 -0.22090130991E+02 -0.13200943131E+02  0.25734091658E+02  0.00000000000E+00 0.  1.
          5    1    4    4  501    0  0.21370456704E+03  0.14094712147E+03  0.69192781911E+02  0.26521848822E+03  0.41800000000E+01 0. -1.
         -5    1    4    4    0  501  0.18501979959E+03  0.35046061628E+00  0.54473886422E+02  0.19291792495E+03  0.41800000000E+01 0. -1.
</event>
<event>
11    1  0.8551154E-009  0.1478574E+03  0.7561462E-02  0.1099088E+00
         22   -1    0    0    0    0  0.00000000000E+00  0.00000000000E+00  0.43139216303E+03  0.43139216303E+03  0.00000000000E+00 0. -1.
         22   -1    0    0    0    0 -0.00000000000E+00 -0.00000000000E+00 -0.45887139203E+03  0.45887139203E+03  0.00000000000E+00 0.  1.
         24    2    1    2    0    0 -0.14466523699E+02 -0.74336208691E+02 -0.37129192289E+03  0.38732424117E+03  0.80169966697E+02 0.  0.
         25    2    1    2    0    0  0.65054031000E+02  0.11165936868E+03  0.42299142526E+02  0.18475940681E+03  0.12508788664E+03 0.  0.
        -24    2    1    2    0    0 -0.50587507301E+02 -0.37323159990E+02  0.30151355136E+03  0.31817990708E+03  0.79849342187E+02 0.  0.
        -11    1    3    3    0    0  0.38836602721E+01 -0.35002000888E+02 -0.31125468866E+03  0.31324064886E+03  0.00000000000E+00 0.  1.
         12    1    3    3    0    0 -0.18350183971E+02 -0.39334207804E+02 -0.60037234230E+02  0.74083592309E+02  0.00000000000E+00 0. -1.
         11    1    5    5    0    0 -0.96179030137E+00 -0.43740068206E+02  0.20329397024E+03  0.20794844780E+03  0.00000000000E+00 0. -1.
        -12    1    5    5    0    0 -0.49625717000E+02  0.64169082157E+01  0.98219581126E+02  0.11023145928E+03  0.00000000000E+00 0.  1.
          5    1    4    4  501    0  0.20594427470E+02  0.10669895482E+03  0.72430019891E+02  0.13066130867E+03  0.41800000000E+01 0.  1.
         -5    1    4    4    0  501  0.44459603530E+02  0.49604138662E+01 -0.30130877365E+02  0.54098098142E+02  0.41800000000E+01 0.  1.
</event>
<event>
11    1  0.8551154E-009  0.1489970E+03  0.7561462E-02  0.1097908E+00
         22   -1    0    0    0    0  0.00000000000E+00  0.00000000000E+00  0.32809803321E+04  0.32809803321E+04  0.00000000000E+00 0.  1.
         22   -1    0    0    0    0 -0.00000000000E+00 -0.00000000000E+00 -0.39333909551E+03  0.39333909551E+03  0.00000000000E+00 0. -1.
        -24    2    1    2    0    0 -0.41066667157E+02 -0.69121572134E+02 -0.37213214983E+03  0.38963973992E+03  0.82900706247E+02 0.  0.
         25    2    1    2    0    0  0.41709152227E+02  0.11855939280E+03  0.66621073112E+03  0.68940580556E+03  0.12509054115E+03 0.  0.
         24    2    1    2    0    0 -0.64248507067E+00 -0.49437820663E+02  0.25935626553E+04  0.25952738821E+04  0.80216989341E+02 0.  0.
        -13    1    5    5    0    0 -0.22286602814E+02 -0.39971711574E+02  0.23745259186E+04  0.23749668984E+04  0.00000000000E+00 0.  1.
         14    1    5    5    0    0  0.21644117744E+02 -0.94661090899E+01  0.21903673664E+03  0.22030698367E+03  0.00000000000E+00 0. -1.
         13    1    3    3    0    0 -0.30512724551E+02 -0.17900726259E+02 -0.29080732620E+03  0.29295112789E+03  0.00000000000E+00 0. -1.
        -14    1    3    3    0    0 -0.10553942606E+02 -0.51220845875E+02 -0.81324823638E+02  0.96688612031E+02  0.00000000000E+00 0.  1.
          5    1    4    4  501    0  0.50347737890E+02 -0.72611141970E+01  0.20236984728E+03  0.20870708176E+03  0.41800000000E+01 0.  1.
         -5    1    4    4    0  501 -0.86385856623E+01  0.12582050699E+03  0.46384088384E+03  0.48069872380E+03  0.41800000000E+01 0.  1.
</event>
<event>
11    1  0.8551154E-009  0.1283856E+03  0.7561462E-02  0.1121269E+00
         22   -1    0    0    0    0  0.00000000000E+00  0.00000000000E+00  0.69492441793E+03  0.69492441793E+03  0.00000000000E+00 0. -1.
         22   -1    0    0    0    0 -0.00000000000E+00 -0.00000000000E+00 -0.62102644971E+03  0.62102644971E+03  0.00000000000E+00 0. -1.
        -24    2    1    2    0    0  0.81573369883E+00 -0.30066383880E+02 -0.58794535846E+03  0.59382014637E+03  0.77704368243E+02 0.  0.
         25    2    1    2    0    0  0.25152580163E+02  0.13686539218E+02  0.12689858108E+03  0.18046258789E+03  0.12507406647E+03 0.  0.
         24    2    1    2    0    0 -0.25968313862E+02  0.16379844661E+02  0.53494474559E+03  0.54166813339E+03  0.79346286980E+02 0.  0.
        -13    1    5    5    0    0 -0.15926066190E+02 -0.20827039308E+02  0.64182462395E+02  0.69331043766E+02  0.00000000000E+00 0.  1.
         14    1    5    5    0    0 -0.10042247672E+02  0.37206883970E+02  0.47076228320E+03  0.47233708962E+03  0.00000000000E+00 0. -1.
         13    1    3    3    0    0  0.11213454364E+02  0.23973046229E+02 -0.25346929070E+03  0.25484726766E+03  0.00000000000E+00 0. -1.
        -14    1    3    3    0    0 -0.10397720665E+02 -0.54039430109E+02 -0.33447606775E+03  0.33897287871E+03  0.00000000000E+00 0.  1.
          5    1    4    4  501    0  0.35841635148E+02 -0.48814430096E+01  0.14660194058E+03  0.15105645527E+03  0.41800000000E+01 0.  1.
         -5    1    4    4    0  501 -0.10689054985E+02  0.18567982228E+02 -0.19703359496E+02  0.29406132624E+02  0.41800000000E+01 0.  1.
</event>
<event>
11    1  0.8551154E-009  0.1492973E+03  0.7561462E-02  0.1097599E+00
         22   -1    0    0    0    0  0.00000000000E+00  0.00000000000E+00  0.19825008033E+03  0.19825008033E+03  0.00000000000E+00 0.  1.
         22   -1    0    0    0    0 -0.00000000000E+00 -0.00000000000E+00 -0.71445324280E+03  0.71445324280E+03  0.00000000000E+00 0. -1.
         24    2    1    2    0    0  0.40369321588E+02  0.68371874379E+02 -0.56012294991E+03  0.57136898652E+03  0.80127426079E+02 0.  0.
         25    2    1    2    0    0 -0.72543341588E+02 -0.72688029651E+02 -0.86810110876E+02  0.18364161202E+03  0.12506862217E+03 0.  0.
        -24    2    1    2    0    0  0.32174020000E+02  0.43161552726E+01  0.13072989831E+03  0.15769272459E+03  0.81993245550E+02 0.  0.
        -11    1    3    3    0    0  0.58774620906E+02  0.53851989093E+02 -0.30764064441E+03  0.31780065904E+03  0.00000000000E+00 0.  1.
         12    1    3    3    0    0 -0.18405299318E+02  0.14519885285E+02 -0.25248230549E+03  0.25356832748E+03  0.00000000000E+00 0. -1.
         13    1    5    5    0    0 -0.27406878769E+02  0.62607875857E+01  0.34626039203E+02  0.44601536475E+02  0.00000000000E+00 0. -1.
        -14    1    5    5    0    0  0.59580898769E+02 -0.19446323131E+01  0.96103859111E+02  0.11309118811E+03  0.00000000000E+00 0.  1.
          5    1    4    4  501    0  0.23288534911E+02  0.11019502163E+02  0.51333785340E+01  0.26600925950E+02  0.41800000000E+01 0. -1.
         -5    1    4    4    0  501 -0.95831876499E+02 -0.83707531814E+02 -0.91943489410E+02  0.15704068607E+03  0.41800000000E+01 0. -1.
</event>
<event>
11    1  0.8551154E-009  0.2661228E+03  0.7561462E-02  0.1015644E+00
         22   -1    0    0    0    0  0.00000000000E+00  0.00000000000E+00  0.18395687199E+04  0.18395687199E+04  0.00000000000E+00 0. -1.
         22   -1    0    0    0    0 -0.00000000000E+00 -0.00000000000E+00 -0.28548960802E+03  0.28548960802E+03  0.00000000000E+00 0.  1.
        -24    2    1    2    0    0  0.25002001704E+02  0.22786819889E+03 -0.15490599373E+03  0.28809299635E+03  0.80328646818E+02 0.  0.
         25    2    1    2    0    0 -0.41396225741E+02 -0.26084974584E+03  0.27855389690E+03  0.40372743178E+03  0.12508928123E+03 0.  0.
         24    2    1    2    0    0  0.16394224037E+02  0.32981546952E+02  0.14304312087E+04  0.14332378998E+04  0.81736659528E+02 0.  0.
        -11    1    5    5    0    0 -0.10609310387E+02  0.39516628984E-01  0.24958080915E+02  0.27119454851E+02  0.00000000000E+00 0.  1.
         12    1    5    5    0    0  0.27003534424E+02  0.32942030323E+02  0.14054731278E+04  0.14061184449E+04  0.00000000000E+00 0. -1.
         13    1    3    3    0    0  0.33955611093E+01  0.17067890935E+01 -0.27210430503E+02  0.27474542624E+02  0.00000000000E+00 0. -1.
        -14    1    3    3    0    0  0.21606440595E+02  0.22616140979E+03 -0.12769556323E+03  0.26061845373E+03  0.00000000000E+00 0.  1.
          5    1    4    4  501    0  0.17576451089E+02 -0.11565625494E+03  0.51680562922E+02  0.12795957925E+03  0.41800000000E+01 0.  1.
         -5    1    4    4    0  501 -0.58972676831E+02 -0.14519349090E+03  0.22687333398E+03  0.27576785252E+03  0.41800000000E+01 0.  1.
</event>
<event>
11    1  0.8551154E-009  0.1637399E+03  0.7561462E-02  0.1083612E+00
         22   -1    0    0    0    0  0.00000000000E+00  0.00000000000E+00  0.88118612287E+03  0.88118612287E+03  0.00000000000E+00 0.  1.
         22   -1    0    0    0    0 -0.00000000000E+00 -0.00000000000E+00 -0.58766577218E+03  0.58766577218E+03  0.00000000000E+00 0. -1.
        -24    2    1    2    0    0  0.96987612366E+02  0.45257902364E+02 -0.42167737737E+03  0.44414878449E+03  0.89450866362E+02 0.  0.
         25    2    1    2    0    0 -0.78815551502E+02 -0.66801469702E+02 -0.10948439572E+03  0.19572593146E+03  0.12508988699E+03 0.  0.
         24    2    1    2    0    0 -0.18172060865E+02  0.21543567338E+02  0.82468212378E+03  0.82897717910E+03  0.79424234962E+02 0.  0.
        -13    1    5    5    0    0 -0.33304138338E+02  0.33265279390E+02  0.76164199589E+03  0.76309519350E+03  0.00000000000E+00 0.  1.
         14    1    5    5    0    0  0.15132077473E+02 -0.11721712053E+02  0.63040127890E+02  0.65881985599E+02  0.00000000000E+00 0. -1.
         13    1    3    3    0    0  0.41222419743E+02 -0.23773856912E+02 -0.19493003240E+03  0.20065443353E+03  0.00000000000E+00 0. -1.
        -14    1    3    3    0    0  0.55765192624E+02  0.69031759276E+02 -0.22674734497E+03  0.24349435096E+03  0.00000000000E+00 0.  1.
          5    1    4    4  501    0 -0.88756410502E+02 -0.10227728698E+02 -0.23920463062E+02  0.92584922058E+02  0.41800000000E+01 0.  1.
         -5    1    4    4    0  501  0.99408590000E+01 -0.56573741004E+02 -0.85563932661E+02  0.10314100941E+03  0.41800000000E+01 0.  1.
</event>
<event>
11    1  0.8551154E-009  0.1553550E+03  0.7561462E-02  0.1091529E+00
         22   -1    0    0    0    0  0.00000000000E+00  0.00000000000E+00  0.94283027902E+03  0.94283027902E+03  0.00000000000E+00 0. -1.
         22   -1    0    0    0    0 -0.00000000000E+00 -0.00000000000E+00 -0.29380063058E+03  0.29380063058E+03  0.00000000000E+00 0. -1.
        -24    2    1    2    0    0  0.12153039688E+03  0.27947305763E+02 -0.16503952787E+03  0.22243801064E+03  0.81792013988E+02 0.  0.
         25    2    1    2    0    0 -0.42945643668E+02  0.15440716543E+02 -0.49641398381E+02  0.14210574005E+03  0.12508808451E+03 0.  0.
         24    2    1    2    0    0 -0.78584753217E+02 -0.43388022306E+02  0.86371057468E+03  0.87208715890E+03  0.80510694878E+02 0.  0.
        -13    1    5    5    0    0  0.50830471707E+01  0.16053084331E+02  0.85931687476E+02  0.87565939712E+02  0.00000000000E+00 0.  1.
         14    1    5    5    0    0 -0.83667800387E+02 -0.59441106636E+02  0.77777888721E+03  0.78452121919E+03  0.00000000000E+00 0. -1.
         13    1    3    3    0    0  0.95060102608E+01 -0.50750968859E+01 -0.72860917938E+02  0.73653473796E+02  0.00000000000E+00 0. -1.
        -14    1    3    3    0    0  0.11202438662E+03  0.33022402649E+02 -0.92178609928E+02  0.14878453684E+03  0.00000000000E+00 0.  1.
          5    1    4    4  501    0  0.17755920751E+02 -0.32170639697E+02 -0.53168957383E+02  0.64765988061E+02  0.41800000000E+01 0.  1.
         -5    1    4    4    0  501 -0.60701564419E+02  0.47611356240E+02  0.35275590020E+01  0.77339751994E+02  0.41800000000E+01 0.  1.
</event>
<event>
11    1  0.8551154E-009  0.1716973E+03  0.7561462E-02  0.1076564E+00
         22   -1    0    0    0    0  0.00000000000E+00  0.00000000000E+00  0.94198312257E+03  0.94198312257E+03  0.00000000000E+00 0. -1.
         22   -1    0    0    0    0 -0.00000000000E+00 -0.00000000000E+00 -0.32826715718E+03  0.32826715718E+03  0.00000000000E+00 0. -1.
         24    2    1    2    0    0 -0.47281054252E+01  0.92283564244E+01 -0.19587144682E+03  0.21366374934E+03  0.84729313457E+02 0.  0.
         25    2    1    2    0    0 -0.77147334554E+02  0.75860675101E+02 -0.59544163356E+02  0.17578070700E+03  0.12508715485E+03 0.  0.
        -24    2    1    2    0    0  0.81875439979E+02 -0.85089031525E+02  0.86913157557E+03  0.88080582341E+03  0.80532427912E+02 0.  0.
        -13    1    3    3    0    0 -0.22533283308E+02  0.35861508782E+02 -0.56239142931E+02  0.70403393856E+02  0.00000000000E+00 0.  1.
         14    1    3    3    0    0  0.17805177883E+02 -0.26633152357E+02 -0.13963230389E+03  0.14326035548E+03  0.00000000000E+00 0. -1.
         13    1    5    5    0    0  0.66878555532E+02 -0.13265731560E+02  0.47987908613E+03  0.48469852293E+03  0.00000000000E+00 0. -1.
        -14    1    5    5    0    0  0.14996884446E+02 -0.71823299965E+02  0.38925248944E+03  0.39610730049E+03  0.00000000000E+00 0.  1.
          5    1    4    4  501    0 -0.54562278496E+02  0.32811140498E+02  0.32498362454E+02  0.71604672596E+02  0.41800000000E+01 0. -1.
         -5    1    4    4    0  501 -0.22585056058E+02  0.43049534603E+02 -0.92042525810E+02  0.10417603440E+03  0.41800000000E+01 0. -1.
</event>
<event>
11    1  0.8551154E-009  0.1457267E+03  0.7561462E-02  0.1101327E+00
         22   -1    0    0    0    0  0.00000000000E+00  0.00000000000E+00  0.94098089286E+03  0.94098089286E+03  0.00000000000E+00 0. -1.
         22   -1    0    0    0    0 -0.00000000000E+00 -0.00000000000E+00 -0.47538448207E+03  0.47538448207E+03  0.00000000000E+00 0. -1.
        -24    2    1    2    0    0 -0.42498841886E+02 -0.23915390216E+02 -0.36985790900E+03  0.38202295902E+03  0.82271324984E+02 0.  0.
         25    2    1    2    0    0  0.10001922485E+03  0.69006170396E+02 -0.16777270978E+02  0.17519661172E+03  0.12508668611E+03 0.  0.
         24    2    1    2    0    0 -0.57520382968E+02 -0.45090780179E+02  0.85223159078E+03  0.85914580420E+03  0.80567087814E+02 0.  0.
        -13    1    5    5    0    0  0.98046278338E+00  0.41053317749E+01  0.80727439945E+00  0.42972954527E+01  0.00000000000E+00 0.  1.
         14    1    5    5    0    0 -0.58500845751E+02 -0.49196111954E+02  0.85142431638E+03  0.85484850874E+03  0.00000000000E+00 0. -1.
         13    1    3    3    0    0  0.15457238103E+02 -0.10363050225E+02 -0.21988395433E+03  0.22067005323E+03  0.00000000000E+00 0. -1.
        -14    1    3    3    0    0 -0.57956079989E+02 -0.13552339991E+02 -0.14997395467E+03  0.16135290579E+03  0.00000000000E+00 0.  1.
          5    1    4    4  501    0  0.64993873272E+02  0.31658063596E+02 -0.70358678206E+02  0.10096659127E+03  0.41800000000E+01 0.  1.
         -5    1    4    4    0  501  0.35025351582E+02  0.37348106799E+02  0.53581407228E+02  0.74230020447E+02  0.41800000000E+01 0.  1.
</event>
<event>
11    1  0.8551154E-009  0.3127847E+03  0.7561462E-02  0.9949211E-01
         22   -1    0    0    0    0  0.00000000000E+00  0.00000000000E+00  0.72702950828E+03  0.72702950828E+03  0.00000000000E+00 0.  1.
         22   -1    0    0    0    0 -0.00000000000E+00 -0.00000000000E+00 -0.68563253205E+03  0.68563253205E+03  0.00000000000E+00 0.  1.
        -24    2    1    2    0    0  0.30564518859E+03  0.49906377350E+02 -0.45987603686E+03  0.56006846252E+03  0.79253300362E+02 0.  0.
         25    2    1    2    0    0 -0.13569506001E+03 -0.31258709450E+03  0.22273382822E+03  0.42588955480E+03  0.12509082179E+03 0.  0.
         24    2    1    2    0    0 -0.16995012858E+03  0.26268071715E+03  0.27853918487E+03  0.42670402301E+03  0.81289854065E+02 0.  0.
        -13    1    5    5    0    0 -0.58629407357E+02  0.13507940711E+03  0.86957998363E+02  0.17101329513E+03  0.00000000000E+00 0.  1.
         14    1    5    5    0    0 -0.11132072123E+03  0.12760131004E+03  0.19158118651E+03  0.25569072788E+03  0.00000000000E+00 0. -1.
         11    1    3    3    0    0  0.10520025877E+03 -0.27495136878E+01 -0.10223978161E+03  0.14672296076E+03  0.00000000000E+00 0. -1.
        -12    1    3    3    0    0  0.20044492982E+03  0.52655891038E+02 -0.35763625526E+03  0.41334550176E+03  0.00000000000E+00 0.  1.
          5    1    4    4  501    0 -0.10628873788E+03 -0.20022651388E+03  0.76908466710E+02  0.23941666047E+03  0.41800000000E+01 0.  1.
         -5    1    4    4    0  501 -0.29406322123E+02 -0.11236058062E+03  0.14582536151E+03  0.18647289433E+03  0.41800000000E+01 0.  1.
</event>
<event>
11    1  0.8551154E-009  0.1395653E+03  0.7561462E-02  0.1108045E+00
         22   -1    0    0    0    0  0.00000000000E+00  0.00000000000E+00  0.78599709364E+03  0.78599709364E+03  0.00000000000E+00 0. -1.
         22   -1    0    0    0    0 -0.00000000000E+00 -0.00000000000E+00 -0.30107288452E+03  0.30107288452E+03  0.00000000000E+00 0. -1.
         24    2    1    2    0    0 -0.50990554696E+02  0.33306846314E+02 -0.20678600333E+03  0.22723662956E+03  0.71879426550E+02 0.  0.
         25    2    1    2    0    0  0.78343513409E+02 -0.20036149908E+01 -0.14178522793E+02  0.14828489769E+03  0.12508261193E+03 0.  0.
        -24    2    1    2    0    0 -0.27352958713E+02 -0.31303231323E+02  0.70588873524E+03  0.71154845091E+03  0.79336087728E+02 0.  0.
        -13    1    3    3    0    0 -0.45485858642E+02  0.53817759228E+02 -0.13376178039E+03  0.15118706439E+03  0.00000000000E+00 0.  1.
         14    1    3    3    0    0 -0.55046960538E+01 -0.20510912914E+02 -0.73024222937E+02  0.76049565171E+02  0.00000000000E+00 0. -1.
         13    1    5    5    0    0 -0.23498247193E+01  0.14902878243E+02  0.45343819217E+03  0.45368911335E+03  0.00000000000E+00 0. -1.
        -14    1    5    5    0    0 -0.25003133994E+02 -0.46206109566E+02  0.25245054307E+03  0.25785933756E+03  0.00000000000E+00 0.  1.
          5    1    4    4  501    0  0.64291431296E+02 -0.43609362403E+02 -0.49121906864E+02  0.92008688509E+02  0.41800000000E+01 0.  1.
         -5    1    4    4    0  501  0.14052082114E+02  0.41605747413E+02  0.34943384070E+02  0.56276209181E+02  0.41800000000E+01 0.  1.
</event>
<event>
11    1  0.8551154E-009  0.1309409E+03  0.7561462E-02  0.1118118E+00
         22   -1    0    0    0    0  0.00000000000E+00  0.00000000000E+00  0.42065200051E+03  0.42065200051E+03  0.00000000000E+00 0.  1.
         22   -1    0    0    0    0 -0.00000000000E+00 -0.00000000000E+00 -0.21912974880E+04  0.21912974880E+04  0.00000000000E+00 0. -1.
         24    2    1    2    0    0  0.30545578308E+02  0.17680785222E+02 -0.14698173012E+04  0.14724607992E+04  0.80822422080E+02 0.  0.
         25    2    1    2    0    0 -0.59682791233E+02 -0.64171987593E+01 -0.70879040152E+03  0.72224211818E+03  0.12508648201E+03 0.  0.
        -24    2    1    2    0    0  0.29137212925E+02 -0.11263586463E+02  0.40796221524E+03  0.41724657106E+03  0.81766046985E+02 0.  0.
        -11    1    3    3    0    0 -0.89717897704E+01 -0.27053323469E+02 -0.47885433901E+03  0.47970183793E+03  0.00000000000E+00 0.  1.
         12    1    3    3    0    0  0.39517368078E+02  0.44734108692E+02 -0.99096296217E+03  0.99275896131E+03  0.00000000000E+00 0. -1.
         13    1    5    5    0    0 -0.24923153303E+02 -0.23817536044E+01  0.60250624572E+02  0.65245490895E+02  0.00000000000E+00 0. -1.
        -14    1    5    5    0    0  0.54060366228E+02 -0.88818328584E+01  0.34771159067E+03  0.35200108016E+03  0.00000000000E+00 0.  1.
          5    1    4    4  501    0 -0.72253041961E+02  0.30748059319E+02 -0.25772176356E+03  0.26945115520E+03  0.41800000000E+01 0.  1.
         -5    1    4    4    0  501  0.12570250728E+02 -0.37165258078E+02 -0.45106863796E+03  0.45279096298E+03  0.41800000000E+01 0.  1.
</event>
<event>
11    1  0.8551154E-009  0.2105951E+03  0.7561462E-02  0.1047274E+00
         22   -1    0    0    0    0  0.00000000000E+00  0.00000000000E+00  0.86366264627E+03  0.86366264627E+03  0.00000000000E+00 0.  1.
         22   -1    0    0    0    0 -0.00000000000E+00 -0.00000000000E+00 -0.19871625686E+04  0.19871625686E+04  0.00000000000E+00 0.  1.
        -24    2    1    2    0    0 -0.82056907543E+02  0.14713003377E+03 -0.18911786225E+04  0.19003349627E+04  0.79597771697E+02 0.  0.
         25    2    1    2    0    0  0.34267427425E+02 -0.22358265180E+03  0.11223243806E+03  0.28176633824E+03  0.12503075800E+03 0.  0.
         24    2    1    2    0    0  0.47789480118E+02  0.76452618028E+02  0.65544626212E+03  0.66872391395E+03  0.97226711131E+02 0.  0.
        -11    1    5    5    0    0  0.62841729336E+02  0.53951901664E+02  0.61167970593E+03  0.61726165707E+03  0.00000000000E+00 0.  1.
         12    1    5    5    0    0 -0.15052249218E+02  0.22500716363E+02  0.43766556187E+02  0.51462256886E+02  0.00000000000E+00 0. -1.
         11    1    3    3    0    0 -0.23060343012E+02  0.14000265994E+02 -0.66389423890E+03  0.66444213240E+03  0.00000000000E+00 0. -1.
        -12    1    3    3    0    0 -0.58996564531E+02  0.13312976777E+03 -0.12272843836E+04  0.12358928303E+04  0.00000000000E+00 0.  1.
          5    1    4    4  501    0 -0.32974963380E+02 -0.33377986310E+02  0.54187258549E+02  0.71799509533E+02  0.41800000000E+01 0.  1.
         -5    1    4    4    0  501  0.67242390805E+02 -0.19020466549E+03  0.58045179512E+02  0.20996682871E+03  0.41800000000E+01 0.  1.
</event>
<event>
11    1  0.8551154E-009  0.1315501E+03  0.7561462E-02  0.1117379E+00
         22   -1    0    0    0    0  0.00000000000E+00  0.00000000000E+00  0.18360066532E+04  0.18360066532E+04  0.00000000000E+00 0. -1.
         22   -1    0    0    0    0 -0.00000000000E+00 -0.00000000000E+00 -0.41540949806E+03  0.41540949806E+03  0.00000000000E+00 0. -1.
        -24    2    1    2    0    0  0.31943945738E+02 -0.17851379194E+02 -0.19474291854E+03  0.21159296463E+03  0.74213819138E+02 0.  0.
         25    2    1    2    0    0 -0.35473052373E+02 -0.22783782086E+02 -0.19048897160E+03  0.23175779115E+03  0.12509271476E+03 0.  0.
         24    2    1    2    0    0  0.35291066353E+01  0.40635161280E+02  0.18058290453E+04  0.18080653955E+04  0.80114059967E+02 0.  0.
        -13    1    5    5    0    0 -0.30505969782E+02 -0.28911828383E+01  0.41015328879E+03  0.41129635719E+03  0.00000000000E+00 0.  1.
         14    1    5    5    0    0  0.34035076417E+02  0.43526344118E+02  0.13956757565E+04  0.13967690383E+04  0.00000000000E+00 0. -1.
         13    1    3    3    0    0  0.29250967553E+02 -0.23640838565E+02 -0.19988636891E+03  0.20339387608E+03  0.00000000000E+00 0. -1.
        -14    1    3    3    0    0  0.26929781854E+01  0.57894593708E+01  0.51434503714E+01  0.81990885491E+01  0.00000000000E+00 0.  1.
          5    1    4    4  501    0 -0.55739707177E+02  0.28791064941E+02 -0.48895806964E+02  0.79649938576E+02  0.41800000000E+01 0.  1.
         -5    1    4    4    0  501  0.20266654803E+02 -0.51574847027E+02 -0.14159316464E+03  0.15210785258E+03  0.41800000000E+01 0.  1.
</event>
<event>
11    1  0.8551154E-009  0.1730833E+03  0.7561462E-02  0.1075379E+00
         22   -1    0    0    0    0  0.00000000000E+00  0.00000000000E+00  0.93351538355E+03  0.93351538355E+03  0.00000000000E+00 0. -1.
         22   -1    0    0    0    0 -0.00000000000E+00 -0.00000000000E+00 -0.26791428087E+03  0.26791428087E+03  0.00000000000E+00 0.  1.
         24    2    1    2    0    0 -0.51581196614E+01 -0.21453709729E+02 -0.21182179420E+03  0.22850580687E+03  0.82822481325E+02 0.  0.
         25    2    1    2    0    0 -0.10805643667E+03 -0.22739102785E+02  0.13204250631E+03  0.21278550693E+03  0.12509671532E+03 0.  0.
        -24    2    1    2    0    0  0.11321455634E+03  0.44192812514E+02  0.74538039058E+03  0.76013835062E+03  0.86300897948E+02 0.  0.
        -13    1    3    3    0    0  0.20952253046E+02  0.13908753865E+02 -0.15311154996E+03  0.15516313052E+03  0.00000000000E+00 0.  1.
         14    1    3    3    0    0 -0.26110372707E+02 -0.35362463594E+02 -0.58710244238E+02  0.73342676341E+02  0.00000000000E+00 0. -1.
         13    1    5    5    0    0  0.11480886812E+03  0.12730203127E+02  0.52806008453E+03  0.54054656335E+03  0.00000000000E+00 0. -1.
        -14    1    5    5    0    0 -0.15943117832E+01  0.31462609387E+02  0.21732030604E+03  0.21959178727E+03  0.00000000000E+00 0.  1.
          5    1    4    4  501    0 -0.99276716686E+02 -0.67566658105E+02  0.10475834756E+03  0.15941425139E+03  0.41800000000E+01 0.  1.
         -5    1    4    4    0  501 -0.87797199884E+01  0.44827555320E+02  0.27284158755E+02  0.53371255541E+02  0.41800000000E+01 0.  1.
</event>
<event>
11    1  0.8551154E-009  0.1589232E+03  0.7561462E-02  0.1088094E+00
         22   -1    0    0    0    0  0.00000000000E+00  0.00000000000E+00  0.30703685380E+04  0.30703685380E+04  0.00000000000E+00 0. -1.
         22   -1    0    0    0    0 -0.00000000000E+00 -0.00000000000E+00 -0.12241318208E+03  0.12241318208E+03  0.00000000000E+00 0.  1.
        -24    2    1    2    0    0  0.74178677972E+02 -0.82826839589E+02  0.39087708379E+01  0.13804525228E+03  0.81721793701E+02 0.  0.
         25    2    1    2    0    0 -0.63551899871E+02  0.48955617897E+02  0.46094407036E+02  0.15558931559E+03  0.12509134368E+03 0.  0.
         24    2    1    2    0    0 -0.10626778101E+02  0.33871221691E+02  0.28979521780E+04  0.28991471522E+04  0.75280780245E+02 0.  0.
        -11    1    5    5    0    0 -0.18620622983E+02  0.42146402812E+02  0.91324594140E+03  0.91440756578E+03  0.00000000000E+00 0.  1.
         12    1    5    5    0    0  0.79938448822E+01 -0.82751811210E+01  0.19847062366E+04  0.19847395864E+04  0.00000000000E+00 0. -1.
         11    1    3    3    0    0 -0.14697809197E+01  0.22948702933E+01  0.22495132762E+02  0.22659604665E+02  0.00000000000E+00 0. -1.
        -12    1    3    3    0    0  0.75648458891E+02 -0.85121709882E+02 -0.18586361924E+02  0.11538564761E+03  0.00000000000E+00 0.  1.
          5    1    4    4  501    0 -0.59969835116E+02  0.82954593502E+02  0.58421363491E+01  0.10261310182E+03  0.41800000000E+01 0. -1.
         -5    1    4    4    0  501 -0.35820647546E+01 -0.33998975605E+02  0.40252270687E+02  0.52976213771E+02  0.41800000000E+01 0. -1.
</event>
<event>
11    1  0.8551154E-009  0.1367809E+03  0.7561462E-02  0.1111207E+00
         22   -1    0    0    0    0  0.00000000000E+00  0.00000000000E+00  0.15092328578E+04  0.15092328578E+04  0.00000000000E+00 0. -1.
         22   -1    0    0    0    0 -0.00000000000E+00 -0.00000000000E+00 -0.45229531153E+03  0.45229531153E+03  0.00000000000E+00 0.  1.
         24    2    1    2    0    0  0.40916586793E+02  0.41851178626E+02 -0.38522050270E+03  0.39767944609E+03  0.79551353927E+02 0.  0.
         25    2    1    2    0    0 -0.82981750883E+01 -0.20472885052E+02  0.81434130778E+01  0.12728889775E+03  0.12509256406E+03 0.  0.
        -24    2    1    2    0    0 -0.32618411705E+02 -0.21378293574E+02  0.14340146359E+04  0.14365598255E+04  0.76060265875E+02 0.  0.
        -11    1    3    3    0    0  0.35710351664E+02  0.25349700762E+01 -0.31504500092E+03  0.31707255935E+03  0.00000000000E+00 0.  1.
         12    1    3    3    0    0  0.52062351294E+01  0.39316208550E+02 -0.70175501783E+02  0.80606886737E+02  0.00000000000E+00 0. -1.
         13    1    5    5    0    0 -0.48455268041E+02 -0.21284155938E+02  0.13516907658E+04  0.13527264522E+04  0.00000000000E+00 0. -1.
        -14    1    5    5    0    0  0.15836856336E+02 -0.94137636097E-01  0.82323870120E+02  0.83833373259E+02  0.00000000000E+00 0.  1.
          5    1    4    4  501    0  0.19888207497E+02 -0.66346902085E+02  0.19555995615E+02  0.72092729025E+02  0.41800000000E+01 0.  1.
         -5    1    4    4    0  501 -0.28186382585E+02  0.45874017033E+02 -0.11412582537E+02  0.55196168727E+02  0.41800000000E+01 0.  1.
</event>
<event>
11    1  0.8551154E-009  0.1903997E+03  0.7561462E-02  0.1061528E+00
         22   -1    0    0    0    0  0.00000000000E+00  0.00000000000E+00  0.71360971897E+03  0.71360971897E+03  0.00000000000E+00 0.  1.
         22   -1    0    0    0    0 -0.00000000000E+00 -0.00000000000E+00 -0.16733606716E+04  0.16733606716E+04  0.00000000000E+00 0.  1.
        -24    2    1    2    0    0  0.10922400316E+03 -0.96649971988E+02 -0.15279650294E+04  0.15370120870E+04  0.80361212218E+02 0.  0.
         25    2    1    2    0    0 -0.10191570716E+03  0.60087293069E+02 -0.83991180071E+02  0.19156342269E+03  0.12507890481E+03 0.  0.
         24    2    1    2    0    0 -0.73082960075E+01  0.36562678919E+02  0.65220525682E+03  0.65839488093E+03  0.81987081490E+02 0.  0.
        -13    1    5    5    0    0 -0.38796225090E+02 -0.20559320505E+01  0.34411134017E+03  0.34629754312E+03  0.00000000000E+00 0.  1.
         14    1    5    5    0    0  0.31487929082E+02  0.38618610969E+02  0.30809391665E+03  0.31209733781E+03  0.00000000000E+00 0. -1.
         11    1    3    3    0    0  0.50547981830E+02 -0.17155167375E+02 -0.27339642026E+03  0.27855879244E+03  0.00000000000E+00 0. -1.
        -12    1    3    3    0    0  0.58676021334E+02 -0.79494804613E+02 -0.12545686091E+04  0.12584532945E+04  0.00000000000E+00 0.  1.
          5    1    4    4  501    0 -0.25280946832E+02  0.18403211494E+02  0.32943203183E+02  0.45612843608E+02  0.41800000000E+01 0.  1.
         -5    1    4    4    0  501 -0.76634760323E+02  0.41684081575E+02 -0.11693438325E+03  0.14595057908E+03  0.41800000000E+01 0.  1.
</event>
<event>
11    1  0.8551154E-009  0.5038056E+03  0.7561462E-02  0.9385058E-01
         22   -1    0    0    0    0  0.00000000000E+00  0.00000000000E+00  0.14981611995E+03  0.14981611995E+03  0.00000000000E+00 0. -1.
         22   -1    0    0    0    0 -0.00000000000E+00 -0.00000000000E+00 -0.29274342027E+04  0.29274342027E+04  0.00000000000E+00 0. -1.
        -24    2    1    2    0    0  0.46706189723E+03  0.13626946315E+03 -0.21121352452E+04  0.21688753771E+04  0.78669721931E+02 0.  0.
         25    2    1    2    0    0 -0.46005031160E+03 -0.18088278076E+03 -0.62861307331E+03  0.80942388530E+03  0.12509100919E+03 0.  0.
         24    2    1    2    0    0 -0.70115856325E+01  0.44613317616E+02 -0.36869764235E+02  0.98951060186E+02  0.79952625695E+02 0.  0.
        -13    1    5    5    0    0 -0.28530278066E+02 -0.90031799894E+01  0.89345433322E+00  0.29930457348E+02  0.00000000000E+00 0.  1.
         14    1    5    5    0    0  0.21518692433E+02  0.53616497605E+02 -0.37763218568E+02  0.69020602838E+02  0.00000000000E+00 0. -1.
         13    1    3    3    0    0  0.41439958456E+03  0.93442384389E+02 -0.18403375555E+04  0.18887299471E+04  0.00000000000E+00 0. -1.
        -14    1    3    3    0    0  0.52662312674E+02  0.42827078758E+02 -0.27179768965E+03  0.28014543000E+03  0.00000000000E+00 0.  1.
          5    1    4    4  501    0 -0.19274167775E+03 -0.44365565893E+02 -0.33787151487E+03  0.39152559397E+03  0.41800000000E+01 0. -1.
         -5    1    4    4    0  501 -0.26730863385E+03 -0.13651721487E+03 -0.29074155844E+03  0.41789829132E+03  0.41800000000E+01 0. -1.
</event>
<event>
11    1  0.8551154E-009  0.1579850E+03  0.7561462E-02  0.1088988E+00
         22   -1    0    0    0    0  0.00000000000E+00  0.00000000000E+00  0.30429421569E+03  0.30429421569E+03  0.00000000000E+00 0. -1.
         22   -1    0    0    0    0 -0.00000000000E+00 -0.00000000000E+00 -0.94937745645E+03  0.94937745645E+03  0.00000000000E+00 0. -1.
         24    2    1    2    0    0 -0.10987185121E+03 -0.12793811196E+00 -0.65104949665E+03  0.66518582489E+03  0.80838694300E+02 0.  0.
         25    2    1    2    0    0  0.50998126306E+02  0.68984237804E+02 -0.25755061945E+03  0.29889525866E+03  0.12508565112E+03 0.  0.
        -24    2    1    2    0    0  0.58873724907E+02 -0.68856299692E+02  0.26351687534E+03  0.28959058859E+03  0.78830577304E+02 0.  0.
        -11    1    3    3    0    0 -0.47273961645E+00 -0.16447041107E+02 -0.20375062379E+03  0.20441390691E+03  0.00000000000E+00 0.  1.
         12    1    3    3    0    0 -0.10939911160E+03  0.16319102995E+02 -0.44729887286E+03  0.46077191798E+03  0.00000000000E+00 0. -1.
         13    1    5    5    0    0  0.65877849171E+02 -0.81778483212E+02  0.23811198209E+03  0.26024013400E+03  0.00000000000E+00 0. -1.
        -14    1    5    5    0    0 -0.70041242641E+01  0.12922183521E+02  0.25404893246E+02  0.29350454587E+02  0.00000000000E+00 0.  1.
          5    1    4    4  501    0  0.37669667509E+02 -0.25102059797E+02 -0.36674214778E+02  0.58408798018E+02  0.41800000000E+01 0.  1.
         -5    1    4    4    0  501  0.13328458798E+02  0.94086297601E+02 -0.22087640467E+03  0.24048646064E+03  0.41800000000E+01 0.  1.
</event>
<event>
11    1  0.8551154E-009  0.1549085E+03  0.7561462E-02  0.1091966E+00
         22   -1    0    0    0    0  0.00000000000E+00  0.00000000000E+00  0.82231097431E+03  0.82231097431E+03  0.00000000000E+00 0.  1.
         22   -1    0    0    0    0 -0.00000000000E+00 -0.00000000000E+00 -0.15393883992E+04  0.15393883992E+04  0.00000000000E+00 0. -1.
        -24    2    1    2    0    0  0.30147515489E+02  0.16302906411E+02 -0.12965773951E+04  0.12996157273E+04  0.81935582984E+02 0.  0.
         25    2    1    2    0    0 -0.78325288434E+02 -0.93252006030E+02 -0.20432057999E+03  0.26874683595E+03  0.12508866851E+03 0.  0.
         24    2    1    2    0    0  0.48177772945E+02  0.76949099619E+02  0.78382055022E+03  0.79333681022E+03  0.82257995163E+02 0.  0.
        -13    1    5    5    0    0  0.20142295070E+02  0.62147673982E+02  0.70996494288E+03  0.71296442096E+03  0.00000000000E+00 0.  1.
         14    1    5    5    0    0  0.28035477875E+02  0.14801425637E+02  0.73855607333E+02  0.80372389259E+02  0.00000000000E+00 0. -1.
         13    1    3    3    0    0 -0.17587900548E+02  0.25115236718E+02 -0.81989635444E+03  0.82046946402E+03  0.00000000000E+00 0. -1.
        -14    1    3    3    0    0  0.47735416037E+02 -0.88123303074E+01 -0.47668104066E+03  0.47914626330E+03  0.00000000000E+00 0.  1.
          5    1    4    4  501    0 -0.91429772629E+02 -0.27563300339E+02 -0.16575802796E+03  0.19134350023E+03  0.41800000000E+01 0. -1.
         -5    1    4    4    0  501  0.13104484195E+02 -0.65688705690E+02 -0.38562552031E+02  0.77403335719E+02  0.41800000000E+01 0. -1.
</event>
<event>
11    1  0.8551154E-009  0.1470567E+03  0.7561462E-02  0.1099925E+00
         22   -1    0    0    0    0  0.00000000000E+00  0.00000000000E+00  0.28624284875E+03  0.28624284875E+03  0.00000000000E+00 0. -1.
         22   -1    0    0    0    0 -0.00000000000E+00 -0.00000000000E+00 -0.10299623127E+04  0.10299623127E+04  0.00000000000E+00 0. -1.
        -24    2    1    2    0    0 -0.40820878432E+02  0.15476719388E+02 -0.77925491736E+03  0.78458642118E+03  0.80198211324E+02 0.  0.
         25    2    1    2    0    0  0.11570134494E+03 -0.23386303097E+02 -0.20468146639E+03  0.26734135206E+03  0.12507268065E+03 0.  0.
         24    2    1    2    0    0 -0.74880466507E+02  0.79095837089E+01  0.24021691980E+03  0.26427738822E+03  0.80428375507E+02 0.  0.
        -11    1    5    5    0    0 -0.35524965834E+02 -0.80687215753E+01  0.23306235656E+02  0.43247058696E+02  0.00000000000E+00 0.  1.
         12    1    5    5    0    0 -0.39355500672E+02  0.15978305284E+02  0.21691068415E+03  0.22103032953E+03  0.00000000000E+00 0. -1.
         13    1    3    3    0    0 -0.47778681771E+02 -0.12262963275E+02 -0.66424604740E+03  0.66607506648E+03  0.00000000000E+00 0. -1.
        -14    1    3    3    0    0  0.69578033385E+01  0.27739682663E+02 -0.11500886996E+03  0.11851135469E+03  0.00000000000E+00 0.  1.
          5    1    4    4  501    0  0.12903525374E+03 -0.37523716527E+02 -0.20751636736E+03  0.24726229218E+03  0.41800000000E+01 0. -1.
         -5    1    4    4    0  501 -0.13333908797E+02  0.14137413430E+02  0.28349009742E+01  0.20079059884E+02  0.41800000000E+01 0. -1.
</event>
<event>
11    1  0.8551154E-009  0.2077068E+03  0.7561462E-02  0.1049204E+00
         22   -1    0    0    0    0  0.00000000000E+00  0.00000000000E+00  0.47104810059E+03  0.47104810059E+03  0.00000000000E+00 0.  1.
         22   -1    0    0    0    0 -0.00000000000E+00 -0.00000000000E+00 -0.95355525871E+03  0.95355525871E+03  0.00000000000E+00 0.  1.
        -24    2    1    2    0    0  0.15202054165E+02  0.24097309288E+02 -0.67536297587E+03  0.68057945711E+03  0.79129422410E+02 0.  0.
         25    2    1    2    0    0 -0.51150734545E+02 -0.18392432683E+03 -0.20414110042E+03  0.30621481191E+03  0.12509742807E+03 0.  0.
         24    2    1    2    0    0  0.35948680381E+02  0.15982701755E+03  0.39699691818E+03  0.43780909028E+03  0.85048593940E+02 0.  0.
        -11    1    5    5    0    0  0.57308463984E+01 -0.19337970746E+01  0.83751562589E+02  0.83969675524E+02  0.00000000000E+00 0.  1.
         12    1    5    5    0    0  0.30217833982E+02  0.16176081462E+03  0.31324535559E+03  0.35383941476E+03  0.00000000000E+00 0. -1.
         11    1    3    3    0    0 -0.19468146386E+02  0.39766606499E+02 -0.29272357372E+03  0.29605317483E+03  0.00000000000E+00 0. -1.
        -12    1    3    3    0    0  0.34670200550E+02 -0.15669297211E+02 -0.38263940215E+03  0.38452628228E+03  0.00000000000E+00 0.  1.
          5    1    4    4  501    0 -0.79664414789E+02 -0.17346220102E+03 -0.19778623600E+03  0.27490438650E+03  0.41800000000E+01 0.  1.
         -5    1    4    4    0  501  0.28513680244E+02 -0.10462125814E+02 -0.63548644179E+01  0.31310425410E+02  0.41800000000E+01 0.  1.
</event>
<event>
11    1  0.8551154E-009  0.1377056E+03  0.7561462E-02  0.1110148E+00
         22   -1    0    0    0    0  0.00000000000E+00  0.00000000000E+00  0.35437547455E+03  0.35437547455E+03  0.00000000000E+00 0. -1.
         22   -1    0    0    0    0 -0.00000000000E+00 -0.00000000000E+00 -0.36034675534E+03  0.36034675534E+03  0.00000000000E+00 0.  1.
        -24    2    1    2    0    0  0.25497750530E+02 -0.32212989390E+02 -0.29908680826E+03  0.31225430326E+03  0.79762265879E+02 0.  0.
         25    2    1    2    0    0 -0.23021654299E+02  0.83789273896E+02  0.85614938858E+02  0.17472109201E+03  0.12508758231E+03 0.  0.
         24    2    1    2    0    0 -0.24760962308E+01 -0.51576284506E+02  0.20750058862E+03  0.22774683462E+03  0.78395677351E+02 0.  0.
        -11    1    5    5    0    0 -0.24806636842E+02 -0.13689082389E+02  0.18832575609E+02  0.34020965773E+02  0.00000000000E+00 0.  1.
         12    1    5    5    0    0  0.22330540611E+02 -0.37887202116E+02  0.18866801301E+03  0.19372586885E+03  0.00000000000E+00 0. -1.
         13    1    3    3    0    0 -0.23852982025E+02 -0.10902912775E+02 -0.41309091776E+02  0.48931373594E+02  0.00000000000E+00 0. -1.
        -14    1    3    3    0    0  0.49350732555E+02 -0.21310076615E+02 -0.25777771649E+03  0.26332292966E+03  0.00000000000E+00 0.  1.
          5    1    4    4  501    0  0.35424702492E+02  0.39644197035E+02  0.86190561153E+02  0.10135510415E+03  0.41800000000E+01 0. -1.
         -5    1    4    4    0  501 -0.58446356791E+02  0.44145076861E+02 -0.57562229415E+00  0.73365987857E+02  0.41800000000E+01 0. -1.
</event>
<event>
11    1  0.8551154E-009  0.2556053E+03  0.7561462E-02  0.1020955E+00
         22   -1    0    0    0    0  0.00000000000E+00  0.00000000000E+00  0.77605518323E+03  0.77605518323E+03  0.00000000000E+00 0. -1.
         22   -1    0    0    0    0 -0.00000000000E+00 -0.00000000000E+00 -0.79116124008E+03  0.79116124008E+03  0.00000000000E+00 0.  1.
         24    2    1    2    0    0  0.71509445961E+02  0.47902736215E+02 -0.60532988619E+03  0.61655923281E+03  0.79452774969E+02 0.  0.
         25    2    1    2    0    0 -0.15540546231E+03 -0.24458733351E+03  0.17438300782E+00  0.31562660091E+03  0.12508516845E+03 0.  0.
        -24    2    1    2    0    0  0.83896016349E+02  0.19668459729E+03  0.59004944633E+03  0.63503058959E+03  0.96861386665E+02 0.  0.
        -11    1    3    3    0    0  0.23840859238E+02  0.56249471712E+02 -0.44226813668E+03  0.44646779767E+03  0.00000000000E+00 0.  1.
         12    1    3    3    0    0  0.47668586723E+02 -0.83467354969E+01 -0.16306174951E+03  0.17009143514E+03  0.00000000000E+00 0. -1.
         11    1    5    5    0    0  0.35796218458E+02  0.17589270245E+03  0.41137840545E+03  0.44883382727E+03  0.00000000000E+00 0. -1.
        -12    1    5    5    0    0  0.48099797891E+02  0.20791894840E+02  0.17867104088E+03  0.18619676232E+03  0.00000000000E+00 0.  1.
          5    1    4    4  501    0 -0.13245891945E+03 -0.21685207708E+03 -0.44599599257E+02  0.25802477658E+03  0.41800000000E+01 0.  1.
         -5    1    4    4    0  501 -0.22946542859E+02 -0.27735256426E+02  0.44773982264E+02  0.57601824329E+02  0.41800000000E+01 0.  1.
</event>
<event>
11    1  0.8551154E-009  0.1263214E+03  0.7561462E-02  0.1123873E+00
         22   -1    0    0    0    0  0.00000000000E+00  0.00000000000E+00  0.16696944681E+04  0.16696944681E+04  0.00000000000E+00 0. -1.
         22   -1    0    0    0    0 -0.00000000000E+00 -0.00000000000E+00 -0.83330430451E+03  0.83330430451E+03  0.00000000000E+00 0.  1.
        -24    2    1    2    0    0  0.11097302932E+02  0.18051653768E+02 -0.82395937973E+03  0.82805941292E+03  0.79525590463E+02 0.  0.
         25    2    1    2    0    0  0.74762730349E+01 -0.55064793347E+01  0.72053218135E+03  0.73136887251E+03  0.12509031675E+03 0.  0.
         24    2    1    2    0    0 -0.18573575967E+02 -0.12545174433E+02  0.93981736194E+03  0.94357048715E+03  0.81032285458E+02 0.  0.
        -11    1    5    5    0    0 -0.42759910336E+02 -0.51934049531E+01  0.28229203989E+03  0.28555941093E+03  0.00000000000E+00 0.  1.
         12    1    5    5    0    0  0.24186334370E+02 -0.73517694803E+01  0.65752532205E+03  0.65801107622E+03  0.00000000000E+00 0. -1.
         13    1    3    3    0    0 -0.10259569488E+02 -0.87374729452E+01 -0.25296933555E+02  0.28662467563E+02  0.00000000000E+00 0. -1.
        -14    1    3    3    0    0  0.21356872419E+02  0.26789126713E+02 -0.79866244618E+03  0.79939694535E+03  0.00000000000E+00 0.  1.
          5    1    4    4  501    0  0.52679068937E+02 -0.97708573793E+01  0.15597404475E+03  0.16497250981E+03  0.41800000000E+01 0. -1.
         -5    1    4    4    0  501 -0.45202795902E+02  0.42643780446E+01  0.56455813659E+03  0.56639636269E+03  0.41800000000E+01 0. -1.
</event>
<event>
11    1  0.8551154E-009  0.1893840E+03  0.7561462E-02  0.1062295E+00
         22   -1    0    0    0    0  0.00000000000E+00  0.00000000000E+00  0.15388914221E+04  0.15388914221E+04  0.00000000000E+00 0.  1.
         22   -1    0    0    0    0 -0.00000000000E+00 -0.00000000000E+00 -0.14230680720E+03  0.14230680720E+03  0.00000000000E+00 0.  1.
        -24    2    1    2    0    0  0.28580561988E+02  0.69465499578E+00 -0.83612825895E+02  0.12107216700E+03  0.82764931581E+02 0.  0.
         25    2    1    2    0    0 -0.12730168175E+03 -0.99094337162E+02  0.26649003232E+03  0.33569331925E+03  0.12509061288E+03 0.  0.
         24    2    1    2    0    0  0.98721119764E+02  0.98399682166E+02  0.12137074085E+04  0.12244327430E+04  0.81984827373E+02 0.  0.
        -11    1    5    5    0    0  0.10003143317E+02  0.18129136613E+02  0.52516581663E+03  0.52557384203E+03  0.00000000000E+00 0.  1.
         12    1    5    5    0    0  0.88717976447E+02  0.80270545553E+02  0.68854159185E+03  0.69885890102E+03  0.00000000000E+00 0. -1.
         11    1    3    3    0    0  0.46130413870E+02 -0.19836949430E+02 -0.24061806299E+02  0.55682045300E+02  0.00000000000E+00 0. -1.
        -12    1    3    3    0    0 -0.17549851882E+02  0.20531604425E+02 -0.59551019596E+02  0.65390121703E+02  0.00000000000E+00 0.  1.
          5    1    4    4  501    0 -0.34618019011E+01  0.65965173795E+01 -0.11007795375E+02  0.13933487466E+02  0.41800000000E+01 0. -1.
         -5    1    4    4    0  501 -0.12383987985E+03 -0.10569085454E+03  0.27749782770E+03  0.32175983179E+03  0.41800000000E+01 0. -1.
</event>
<event>
11    1  0.8551154E-009  0.1329982E+03  0.7561462E-02  0.1115639E+00
         22   -1    0    0    0    0  0.00000000000E+00  0.00000000000E+00  0.22263525377E+03  0.22263525377E+03  0.00000000000E+00 0. -1.
         22   -1    0    0    0    0 -0.00000000000E+00 -0.00000000000E+00 -0.89417649719E+03  0.89417649719E+03  0.00000000000E+00 0.  1.
         24    2    1    2    0    0  0.29746931855E+02  0.15848323951E+02 -0.38526510577E+03  0.39513544110E+03  0.81035583328E+02 0.  0.
         25    2    1    2    0    0 -0.32266180539E+02  0.29543846083E+02 -0.48497324607E+03  0.50275254107E+03  0.12508846033E+03 0.  0.
        -24    2    1    2    0    0  0.25192486844E+01 -0.45392170034E+02  0.19869710842E+03  0.21892376878E+03  0.79876654466E+02 0.  0.
        -11    1    3    3    0    0  0.55862552591E+02 -0.19767521971E+01 -0.23147194109E+03  0.23812557998E+03  0.00000000000E+00 0.  1.
         12    1    3    3    0    0 -0.26115620737E+02  0.17825076148E+02 -0.15379316468E+03  0.15700986112E+03  0.00000000000E+00 0. -1.
         13    1    5    5    0    0  0.22558700775E+02 -0.41508222214E+02  0.19156034122E+03  0.19729975119E+03  0.00000000000E+00 0. -1.
        -14    1    5    5    0    0 -0.20039452090E+02 -0.38839478199E+01  0.71367672037E+01  0.21624017593E+02  0.00000000000E+00 0.  1.
          5    1    4    4  501    0 -0.28972817211E+02 -0.11795879384E+02 -0.44113380368E+03  0.44226131648E+03  0.41800000000E+01 0.  1.
         -5    1    4    4    0  501 -0.32933633277E+01  0.41339725467E+02 -0.43839442386E+02  0.60491224590E+02  0.41800000000E+01 0.  1.
</event>
<event>
11    1  0.9306857E-009  0.1529320E+03  0.7561462E-02  0.1093920E+00
         22   -1    0    0    0    0  0.00000000000E+00  0.00000000000E+00  0.14995912623E+04  0.14995912623E+04  0.00000000000E+00 0.  1.
         22   -1    0    0    0    0 -0.00000000000E+00 -0.00000000000E+00 -0.79502010776E+03  0.79502010776E+03  0.00000000000E+00 0. -1.
        -24    2    1    2    0    0  0.75188415604E+01  0.81238607606E+02 -0.55945100505E+03  0.57114755636E+03  0.81042333025E+02 0.  0.
         25    2    1    2    0    0 -0.32719790248E+02 -0.12349674561E+03 -0.19327241138E+03  0.26328989118E+03  0.12508121740E+03 0.  0.
         24    2    1    2    0    0  0.25200948688E+02  0.42258138002E+02  0.14572945710E+04  0.14601739226E+04  0.77327740113E+02 0.  0.
        -13    1    5    5    0    0 -0.39864129850E+01  0.48387548457E+02  0.12264683539E+04  0.12274289672E+04  0.00000000000E+00 0.  1.
         14    1    5    5    0    0  0.29187361673E+02 -0.61294104544E+01  0.23082621708E+03  0.23274495536E+03  0.00000000000E+00 0. -1.
         13    1    3    3    0    0  0.48383180290E+01  0.91493965191E+02 -0.54774729195E+03  0.55535722812E+03  0.00000000000E+00 0. -1.
        -14    1    3    3    0    0  0.26805235314E+01 -0.10255357585E+02 -0.11703713097E+02  0.15790328237E+02  0.00000000000E+00 0.  1.
          5    1    4    4  501    0  0.29474200401E+02 -0.10080145360E+02 -0.90738775059E+00  0.31442543986E+02  0.41800000000E+01 0.  1.
         -5    1    4    4    0  501 -0.62193990649E+02 -0.11341660025E+03 -0.19236502362E+03  0.23184734719E+03  0.41800000000E+01 0.  1.
</event>
<event>
11    1  0.8551154E-009  0.2747694E+03  0.7561462E-02  0.1011473E+00
         22   -1    0    0    0    0  0.00000000000E+00  0.00000000000E+00  0.52841950112E+03  0.52841950112E+03  0.00000000000E+00 0. -1.
         22   -1    0    0    0    0 -0.00000000000E+00 -0.00000000000E+00 -0.63762945490E+03  0.63762945490E+03  0.00000000000E+00 0. -1.
         24    2    1    2    0    0 -0.37462935433E+02  0.10725808306E+03 -0.45323034669E+03  0.47416766089E+03  0.80681197048E+02 0.  0.
         25    2    1    2    0    0 -0.58674675935E+02 -0.30715265737E+03  0.97276709620E+02  0.35055933228E+03  0.12507443661E+03 0.  0.
        -24    2    1    2    0    0  0.96137611369E+02  0.19989457431E+03  0.24674368330E+03  0.34132196285E+03  0.80112145880E+02 0.  0.
        -11    1    3    3    0    0  0.32235415432E+01 -0.12401545392E+02 -0.48357446173E+02  0.50026314561E+02  0.00000000000E+00 0.  1.
         12    1    3    3    0    0 -0.40686476976E+02  0.11965962845E+03 -0.40487290052E+03  0.42414134632E+03  0.00000000000E+00 0. -1.
         13    1    5    5    0    0  0.87756646789E+02  0.20658422703E+03  0.22946897454E+03  0.32098953595E+03  0.00000000000E+00 0. -1.
        -14    1    5    5    0    0  0.83809645799E+01 -0.66896527225E+01  0.17274708760E+02  0.20332426899E+02  0.00000000000E+00 0.  1.
          5    1    4    4  501    0 -0.57552561911E+01 -0.26945588423E+03  0.62316447617E+02  0.27665937281E+03  0.41800000000E+01 0. -1.
         -5    1    4    4    0  501 -0.52919419744E+02 -0.37696773142E+02  0.34960262003E+02  0.73899959477E+02  0.41800000000E+01 0. -1.
</event>
<event>
11    1  0.8551154E-009  0.1484501E+03  0.7561462E-02  0.1098473E+00
         22   -1    0    0    0    0  0.00000000000E+00  0.00000000000E+00  0.28826466768E+03  0.28826466768E+03  0.00000000000E+00 0.  1.
         22   -1    0    0    0    0 -0.00000000000E+00 -0.00000000000E+00 -0.68634181023E+03  0.68634181023E+03  0.00000000000E+00 0.  1.
        -24    2    1    2    0    0 -0.69655608050E+02 -0.33295049633E+02 -0.40715011883E+03  0.42284601547E+03  0.84065863888E+02 0.  0.
         25    2    1    2    0    0  0.62581886045E+02  0.68188529781E+02 -0.24120991689E+03  0.28705686676E+03  0.12511295975E+03 0.  0.
         24    2    1    2    0    0  0.70737220051E+01 -0.34893480149E+02  0.25028289317E+03  0.26470359567E+03  0.78478496721E+02 0.  0.
        -11    1    5    5    0    0 -0.59326534704E+01 -0.40408385517E+02  0.24679574440E+03  0.25015230051E+03  0.00000000000E+00 0.  1.
         12    1    5    5    0    0  0.13006375475E+02  0.55149053687E+01  0.34871487685E+01  0.14551295158E+02  0.00000000000E+00 0. -1.
         13    1    3    3    0    0 -0.16668007194E+02 -0.29879728229E+02 -0.43516353159E+02  0.55356062135E+02  0.00000000000E+00 0. -1.
        -14    1    3    3    0    0 -0.52987600857E+02 -0.34153214040E+01 -0.36363376567E+03  0.36748995334E+03  0.00000000000E+00 0.  1.
          5    1    4    4  501    0  0.88493044646E+02  0.84709300392E+02 -0.20936114782E+03  0.24260306499E+03  0.41800000000E+01 0. -1.
         -5    1    4    4    0  501 -0.25911158601E+02 -0.16520770610E+02 -0.31848769066E+02  0.44453801779E+02  0.41800000000E+01 0. -1.
</event>
<event>
11    1  0.8551154E-009  0.1692505E+03  0.7561462E-02  0.1078686E+00
         22   -1    0    0    0    0  0.00000000000E+00  0.00000000000E+00  0.14227345232E+04  0.14227345232E+04  0.00000000000E+00 0. -1.
         22   -1    0    0    0    0 -0.00000000000E+00 -0.00000000000E+00 -0.19004161763E+04  0.19004161763E+04  0.00000000000E+00 0.  1.
         24    2    1    2    0    0 -0.53491277166E+02  0.23650374757E+02 -0.18066247069E+04  0.18092988358E+04  0.79049279196E+02 0.  0.
         25    2    1    2    0    0  0.14129633216E+03 -0.92669916427E+02  0.35962868569E+02  0.21329174400E+03  0.12509066012E+03 0.  0.
        -24    2    1    2    0    0 -0.87805054997E+02  0.69019541670E+02  0.12929801853E+04  0.13005601197E+04  0.84766978844E+02 0.  0.
        -11    1    3    3    0    0 -0.36533248871E+01  0.28138265075E+02 -0.12770674830E+04  0.12773826619E+04  0.00000000000E+00 0.  1.
         12    1    3    3    0    0 -0.49837952279E+02 -0.44878903183E+01 -0.52955722391E+03  0.53191617389E+03  0.00000000000E+00 0. -1.
         13    1    5    5    0    0 -0.10191074224E+03  0.62122930968E+02  0.98917397835E+03  0.99634844175E+03  0.00000000000E+00 0. -1.
        -14    1    5    5    0    0  0.14105687247E+02  0.68966107014E+01  0.30380620693E+03  0.30421167799E+03  0.00000000000E+00 0.  1.
          5    1    4    4  501    0  0.11117945233E+02 -0.18858868290E+02  0.57849233988E+02  0.61994127886E+02  0.41800000000E+01 0. -1.
         -5    1    4    4    0  501  0.13017838693E+03 -0.73811048137E+02 -0.21886365419E+02  0.15129761611E+03  0.41800000000E+01 0. -1.
</event>
<event>
11    1  0.8551154E-009  0.1338908E+03  0.7561462E-02  0.1114579E+00
         22   -1    0    0    0    0  0.00000000000E+00  0.00000000000E+00  0.22769914311E+04  0.22769914311E+04  0.00000000000E+00 0. -1.
         22   -1    0    0    0    0 -0.00000000000E+00 -0.00000000000E+00 -0.39977689244E+03  0.39977689244E+03  0.00000000000E+00 0. -1.
         24    2    1    2    0    0  0.81680861583E+01 -0.31565449090E+02 -0.36493137363E+03  0.37491862732E+03  0.79535994679E+02 0.  0.
         25    2    1    2    0    0  0.17395304499E+02  0.70962652960E+02  0.15332675658E+03  0.21093754839E+03  0.12508900952E+03 0.  0.
        -24    2    1    2    0    0 -0.25563390657E+02 -0.39397203870E+02  0.20888191558E+04  0.20909121479E+04  0.80885833715E+02 0.  0.
        -11    1    3    3    0    0  0.34906556102E+02 -0.21714863697E+02 -0.95339113504E+02  0.10382460945E+03  0.00000000000E+00 0.  1.
         12    1    3    3    0    0 -0.26738469944E+02 -0.98505853934E+01 -0.26959226012E+03  0.27109401787E+03  0.00000000000E+00 0. -1.
         11    1    5    5    0    0 -0.19857084924E+02 -0.11382497190E+02  0.18806086293E+04  0.18807479048E+04  0.00000000000E+00 0. -1.
        -12    1    5    5    0    0 -0.57063057335E+01 -0.28014706680E+02  0.20821052650E+03  0.21016424306E+03  0.00000000000E+00 0.  1.
          5    1    4    4  501    0  0.55016226053E+02  0.83193027926E+02  0.81662728059E+02  0.12897340260E+03  0.41800000000E+01 0. -1.
         -5    1    4    4    0  501 -0.37620921554E+02 -0.12230374966E+02  0.71664028522E+02  0.81964145786E+02  0.41800000000E+01 0. -1.
</event>
<event>
11    1  0.8551154E-009  0.1470088E+03  0.7561462E-02  0.1099975E+00
         22   -1    0    0    0    0  0.00000000000E+00  0.00000000000E+00  0.52286526341E+03  0.52286526341E+03  0.00000000000E+00 0. -1.
         22   -1    0    0    0    0 -0.00000000000E+00 -0.00000000000E+00 -0.33909735042E+04  0.33909735042E+04  0.00000000000E+00 0. -1.
         24    2    1    2    0    0  0.64911790562E+02  0.42788825616E+02 -0.32588835466E+04  0.32607736666E+04  0.79237051033E+02 0.  0.
         25    2    1    2    0    0 -0.63360962614E+02 -0.56231698129E+01 -0.88736936562E+02  0.16603486970E+03  0.12508837846E+03 0.  0.
        -24    2    1    2    0    0 -0.15508279481E+01 -0.37165655803E+02  0.47951224232E+03  0.48703023138E+03  0.76699183182E+02 0.  0.
        -13    1    3    3    0    0 -0.12582751704E+02  0.29350502794E+02 -0.81722936420E+03  0.81785304998E+03  0.00000000000E+00 0.  1.
         14    1    3    3    0    0  0.77494542266E+02  0.13438322822E+02 -0.24416541824E+04  0.24429206166E+04  0.00000000000E+00 0. -1.
         11    1    5    5    0    0  0.30801375008E+02 -0.23519937994E+02  0.37006307663E+03  0.37208680825E+03  0.00000000000E+00 0. -1.
        -12    1    5    5    0    0 -0.32352202956E+02 -0.13645717809E+02  0.10944916569E+03  0.11494342313E+03  0.00000000000E+00 0.  1.
          5    1    4    4  501    0 -0.95986971391E+02 -0.21361587479E+02 -0.83745477532E+02  0.12923077615E+03  0.41800000000E+01 0. -1.
         -5    1    4    4    0  501  0.32626008777E+02  0.15738417666E+02 -0.49914590304E+01  0.36804093558E+02  0.41800000000E+01 0. -1.
</event>
<event>
11    1  0.8551154E-009  0.1318318E+03  0.7561462E-02  0.1117039E+00
         22   -1    0    0    0    0  0.00000000000E+00  0.00000000000E+00  0.10375444262E+04  0.10375444262E+04  0.00000000000E+00 0.  1.
         22   -1    0    0    0    0 -0.00000000000E+00 -0.00000000000E+00 -0.21743940852E+03  0.21743940852E+03  0.00000000000E+00 0.  1.
         24    2    1    2    0    0  0.23779532648E+02  0.39042319756E+01 -0.17114939221E+03  0.18910667701E+03  0.76736638138E+02 0.  0.
         25    2    1    2    0    0 -0.64121949589E+02 -0.75735389144E+00  0.10381541772E+03  0.17474831073E+03  0.12508850123E+03 0.  0.
        -24    2    1    2    0    0  0.40342416942E+02 -0.31468780842E+01  0.88743899222E+03  0.89112884704E+03  0.70180080252E+02 0.  0.
        -11    1    3    3    0    0  0.66285530189E+01  0.57574496356E+01 -0.17162488301E+03  0.17184931309E+03  0.00000000000E+00 0.  1.
         12    1    3    3    0    0  0.17150979629E+02 -0.18532176599E+01  0.47549079305E+00  0.17257363918E+02  0.00000000000E+00 0. -1.
         13    1    5    5    0    0  0.94059010232E+01 -0.23912741258E+02  0.11695996386E+03  0.11974941885E+03  0.00000000000E+00 0. -1.
        -14    1    5    5    0    0  0.30936515918E+02  0.20765863174E+02  0.77047902836E+03  0.77137942819E+03  0.00000000000E+00 0.  1.
          5    1    4    4  501    0  0.45979558911E+01  0.41674642353E+02  0.80040138949E+02  0.90453376148E+02  0.41800000000E+01 0.  1.
         -5    1    4    4    0  501 -0.68719905480E+02 -0.42431996244E+02  0.23775278775E+02  0.84294934577E+02  0.41800000000E+01 0.  1.
</event>
<event>
11    1  0.8551154E-009  0.1544239E+03  0.7561462E-02  0.1092442E+00
         22   -1    0    0    0    0  0.00000000000E+00  0.00000000000E+00  0.23644256672E+04  0.23644256672E+04  0.00000000000E+00 0. -1.
         22   -1    0    0    0    0 -0.00000000000E+00 -0.00000000000E+00 -0.67583898410E+02  0.67583898410E+02  0.00000000000E+00 0.  1.
         24    2    1    2    0    0  0.13277969814E+02  0.87900396391E+01 -0.27603547130E+02  0.86568796256E+02  0.80489945905E+02 0.  0.
         25    2    1    2    0    0  0.68106244296E+02  0.38287408733E+02  0.65390225009E+03  0.67032697572E+03  0.12508283466E+03 0.  0.
        -24    2    1    2    0    0 -0.81384214111E+02 -0.47077448372E+02  0.16705430658E+04  0.16751137936E+04  0.80326896994E+02 0.  0.
        -11    1    3    3    0    0 -0.64176662355E+01 -0.29472930098E+02 -0.31184348274E+02  0.43385523228E+02  0.00000000000E+00 0.  1.
         12    1    3    3    0    0  0.19695636050E+02  0.38262969738E+02  0.35808011446E+01  0.43183273028E+02  0.00000000000E+00 0. -1.
         11    1    5    5    0    0 -0.94085249208E+02 -0.46465361976E+02  0.12560041462E+04  0.12603798949E+04  0.00000000000E+00 0. -1.
        -12    1    5    5    0    0  0.12701035098E+02 -0.61208639599E+00  0.41453891957E+03  0.41473389876E+03  0.00000000000E+00 0.  1.
          5    1    4    4  501    0  0.25069946770E+02 -0.45777648827E+02  0.20522636766E+03  0.21180044794E+03  0.41800000000E+01 0. -1.
         -5    1    4    4    0  501  0.43036297526E+02  0.84065057559E+02  0.44867588243E+03  0.45852652779E+03  0.41800000000E+01 0. -1.
</event>
<event>
11    1  0.8551154E-009  0.4574292E+03  0.7561462E-02  0.9494025E-01
         22   -1    0    0    0    0  0.00000000000E+00  0.00000000000E+00  0.76918806636E+03  0.76918806636E+03  0.00000000000E+00 0.  1.
         22   -1    0    0    0    0 -0.00000000000E+00 -0.00000000000E+00 -0.11439300246E+04  0.11439300246E+04  0.00000000000E+00 0.  1.
        -24    2    1    2    0    0 -0.36948561065E+02  0.44569431135E+03 -0.97153361301E+03  0.10735528984E+04  0.92895904772E+02 0.  0.
         25    2    1    2    0    0  0.37846158394E+02 -0.38643001018E+03  0.25101076796E+03  0.47897433711E+03  0.12509806356E+03 0.  0.
         24    2    1    2    0    0 -0.89759732900E+00 -0.59264301178E+02  0.34578088679E+03  0.36059085547E+03  0.83356345321E+02 0.  0.
        -11    1    5    5    0    0  0.38616334342E+02 -0.47157912116E+02  0.20489187013E+03  0.21376568574E+03  0.00000000000E+00 0.  1.
         12    1    5    5    0    0 -0.39513931671E+02 -0.12106389063E+02  0.14088901665E+03  0.14682516973E+03  0.00000000000E+00 0. -1.
         11    1    3    3    0    0  0.66887542361E+01  0.39000938277E+01 -0.33432885895E+01  0.84337265600E+01  0.00000000000E+00 0. -1.
        -12    1    3    3    0    0 -0.43637315301E+02  0.44179421753E+03 -0.96819032443E+03  0.10651191718E+04  0.00000000000E+00 0.  1.
          5    1    4    4  501    0  0.58479244955E+02 -0.33718576573E+03  0.17072115189E+03  0.38246208544E+03  0.41800000000E+01 0.  1.
         -5    1    4    4    0  501 -0.20633086561E+02 -0.49244244446E+02  0.80289616074E+02  0.96512251665E+02  0.41800000000E+01 0.  1.
</event>
<event>
11    1  0.8551154E-009  0.1434902E+03  0.7561462E-02  0.1103722E+00
         22   -1    0    0    0    0  0.00000000000E+00  0.00000000000E+00  0.98670758388E+03  0.98670758388E+03  0.00000000000E+00 0. -1.
         22   -1    0    0    0    0 -0.00000000000E+00 -0.00000000000E+00 -0.22127201619E+03  0.22127201619E+03  0.00000000000E+00 0.  1.
        -24    2    1    2    0    0  0.66890476332E+02  0.14269889676E+02 -0.14754881482E+03  0.18147479086E+03  0.80526277608E+02 0.  0.
         25    2    1    2    0    0 -0.82184810831E+02 -0.67292246332E+01  0.48125031613E+02  0.15735891187E+03  0.12508470283E+03 0.  0.
         24    2    1    2    0    0  0.15294334498E+02 -0.75406650428E+01  0.86485935090E+03  0.86914589735E+03  0.84511039132E+02 0.  0.
        -11    1    5    5    0    0  0.30929438301E+02  0.29348672666E+02  0.32211147332E+03  0.32492118426E+03  0.00000000000E+00 0.  1.
         12    1    5    5    0    0 -0.15635103802E+02 -0.36889337709E+02  0.54274787758E+03  0.54422471308E+03  0.00000000000E+00 0. -1.
         13    1    3    3    0    0  0.54488519346E+02  0.45746392382E+02 -0.90082895623E+02  0.11478963037E+03  0.00000000000E+00 0. -1.
        -14    1    3    3    0    0  0.12401956987E+02 -0.31476502706E+02 -0.57465919201E+02  0.66685160488E+02  0.00000000000E+00 0.  1.
          5    1    4    4  501    0 -0.38823059100E+02 -0.15031441650E+02 -0.40516580871E+02  0.58242938468E+02  0.41800000000E+01 0. -1.
         -5    1    4    4    0  501 -0.43361751731E+02  0.83022170170E+01  0.88641612484E+02  0.99115973406E+02  0.41800000000E+01 0. -1.
</event>
<event>
11    1  0.8551154E-009  0.1713026E+03  0.7561462E-02  0.1076904E+00
         22   -1    0    0    0    0  0.00000000000E+00  0.00000000000E+00  0.10579396162E+04  0.10579396162E+04  0.00000000000E+00 0. -1.
         22   -1    0    0    0    0 -0.00000000000E+00 -0.00000000000E+00 -0.16620656163E+03  0.16620656163E+03  0.00000000000E+00 0. -1.
        -24    2    1    2    0    0 -0.19660348796E+02 -0.10143237918E+02 -0.11554331353E+03  0.13900423884E+03  0.74043949948E+02 0.  0.
         25    2    1    2    0    0  0.10787065179E+02 -0.10832689387E+03  0.17630739480E+03  0.24203933601E+03  0.12509063115E+03 0.  0.
         24    2    1    2    0    0  0.88732836162E+01  0.11847013178E+03  0.83096897332E+03  0.84310260302E+03  0.78731552200E+02 0.  0.
        -11    1    5    5    0    0  0.13999828373E+02 -0.60729552334E+01  0.50929320114E+02  0.53166452082E+02  0.00000000000E+00 0.  1.
         12    1    5    5    0    0 -0.51265447566E+01  0.12454308702E+03  0.78003965321E+03  0.78993615094E+03  0.00000000000E+00 0. -1.
         11    1    3    3    0    0 -0.10275584490E+02  0.26611710932E+02 -0.86923645939E+02  0.91484922357E+02  0.00000000000E+00 0. -1.
        -12    1    3    3    0    0 -0.93847643059E+01 -0.36754948850E+02 -0.28619667589E+02  0.47519316482E+02  0.00000000000E+00 0.  1.
          5    1    4    4  501    0  0.63940917897E+02 -0.50152749788E+02  0.58386979439E+02  0.10015114109E+03  0.41800000000E+01 0.  1.
         -5    1    4    4    0  501 -0.53153852718E+02 -0.58174144077E+02  0.11792041536E+03  0.14188819492E+03  0.41800000000E+01 0.  1.
</event>
<event>
11    1  0.8551154E-009  0.1623763E+03  0.7561462E-02  0.1084863E+00
         22   -1    0    0    0    0  0.00000000000E+00  0.00000000000E+00  0.58930515666E+03  0.58930515666E+03  0.00000000000E+00 0. -1.
         22   -1    0    0    0    0 -0.00000000000E+00 -0.00000000000E+00 -0.15696548073E+03  0.15696548073E+03  0.00000000000E+00 0.  1.
         24    2    1    2    0    0  0.53570649912E+01  0.20138905685E+02 -0.83336721698E+02  0.11886812163E+03  0.82160498343E+02 0.  0.
         25    2    1    2    0    0  0.97807949077E+02  0.64691562956E+00  0.94535065604E+02  0.18480198512E+03  0.12509229262E+03 0.  0.
        -24    2    1    2    0    0 -0.10316501407E+03 -0.20785821314E+02  0.42114133202E+03  0.44260053064E+03  0.86372088581E+02 0.  0.
        -13    1    3    3    0    0 -0.15943543008E+02  0.21319119065E+01 -0.88970392519E+02  0.90412788680E+02  0.00000000000E+00 0.  1.
         14    1    3    3    0    0  0.21300608000E+02  0.18006993778E+02  0.56336708209E+01  0.28455332945E+02  0.00000000000E+00 0. -1.
         13    1    5    5    0    0 -0.10980448898E+03  0.33161570663E+01  0.31680555022E+03  0.33531146618E+03  0.00000000000E+00 0. -1.
        -14    1    5    5    0    0  0.66394749076E+01 -0.24101978381E+02  0.10433578180E+03  0.10728906446E+03  0.00000000000E+00 0.  1.
          5    1    4    4  501    0  0.14496367307E+02 -0.52914328176E+02  0.13226442618E+02  0.56590476016E+02  0.41800000000E+01 0. -1.
         -5    1    4    4    0  501  0.83311581770E+02  0.53561243805E+02  0.81308622986E+02  0.12821150910E+03  0.41800000000E+01 0. -1.
</event>
<event>
11    1  0.8551154E-009  0.1641857E+03  0.7561462E-02  0.1083205E+00
         22   -1    0    0    0    0  0.00000000000E+00  0.00000000000E+00  0.17527435346E+03  0.17527435346E+03  0.00000000000E+00 0. -1.
         22   -1    0    0    0    0 -0.00000000000E+00 -0.00000000000E+00 -0.35691890959E+03  0.35691890959E+03  0.00000000000E+00 0.  1.
         24    2    1    2    0    0 -0.86472238326E+02 -0.72307639005E+02 -0.15100217622E+03  0.20441068708E+03  0.79222655274E+02 0.  0.
         25    2    1    2    0    0  0.60642788220E+02  0.77515286517E+02 -0.12380046345E+03  0.20164362268E+03  0.12508968147E+03 0.  0.
        -24    2    1    2    0    0  0.25829450106E+02 -0.52076475130E+01  0.93158083546E+02  0.12613895330E+03  0.80859921617E+02 0.  0.
        -13    1    3    3    0    0 -0.71352706808E+02 -0.87387211382E+02 -0.10694320650E+03  0.15544961531E+03  0.00000000000E+00 0.  1.
         14    1    3    3    0    0 -0.15119531518E+02  0.15079572377E+02 -0.44058969717E+02  0.48961071771E+02  0.00000000000E+00 0. -1.
         13    1    5    5    0    0  0.58975908898E+01 -0.36717322122E+02  0.76987700604E+02  0.85498826696E+02  0.00000000000E+00 0. -1.
        -14    1    5    5    0    0  0.19931859217E+02  0.31509674609E+02  0.16170382942E+02  0.40640126603E+02  0.00000000000E+00 0.  1.
          5    1    4    4  501    0  0.55780149288E+02  0.64278678989E+02 -0.87507537476E+01  0.85657584126E+02  0.41800000000E+01 0.  1.
         -5    1    4    4    0  501  0.48626389317E+01  0.13236607529E+02 -0.11504970970E+03  0.11598603855E+03  0.41800000000E+01 0.  1.
</event>
<event>
11    1  0.8551154E-009  0.2472040E+03  0.7561462E-02  0.1025399E+00
         22   -1    0    0    0    0  0.00000000000E+00  0.00000000000E+00  0.45026944846E+03  0.45026944846E+03  0.00000000000E+00 0.  1.
         22   -1    0    0    0    0 -0.00000000000E+00 -0.00000000000E+00 -0.60402682941E+03  0.60402682941E+03  0.00000000000E+00 0. -1.
         24    2    1    2    0    0 -0.21484543319E+03  0.10110378493E+02 -0.49206437374E+03  0.54306188030E+03  0.80796522328E+02 0.  0.
         25    2    1    2    0    0  0.20105074887E+03  0.23027404458E+02  0.10147086132E+03  0.25864192529E+03  0.12509054657E+03 0.  0.
        -24    2    1    2    0    0  0.13794684317E+02 -0.33137782951E+02  0.23683613147E+03  0.25259247227E+03  0.80144855758E+02 0.  0.
        -11    1    3    3    0    0 -0.91165228261E+02 -0.50926788125E+01 -0.12068191515E+03  0.15133128846E+03  0.00000000000E+00 0.  1.
         12    1    3    3    0    0 -0.12368020493E+03  0.15203057306E+02 -0.37138245859E+03  0.39173059185E+03  0.00000000000E+00 0. -1.
         13    1    5    5    0    0  0.15934820424E+01  0.18746196833E+02  0.13948032580E+02  0.23420219759E+02  0.00000000000E+00 0. -1.
        -14    1    5    5    0    0  0.12201202275E+02 -0.51883979784E+02  0.22288809889E+03  0.22917225251E+03  0.00000000000E+00 0.  1.
          5    1    4    4  501    0  0.43853761011E+01  0.33661982033E+02 -0.52360729221E+01  0.34601292138E+02  0.41800000000E+01 0.  1.
         -5    1    4    4    0  501  0.19666537277E+03 -0.10634577576E+02  0.10670693425E+03  0.22404063315E+03  0.41800000000E+01 0.  1.
</event>
<event>
11    1  0.8551154E-009  0.1355683E+03  0.7561462E-02  0.1112611E+00
         22   -1    0    0    0    0  0.00000000000E+00  0.00000000000E+00  0.40748236042E+03  0.40748236042E+03  0.00000000000E+00 0. -1.
         22   -1    0    0    0    0 -0.00000000000E+00 -0.00000000000E+00 -0.13163328196E+03  0.13163328196E+03  0.00000000000E+00 0. -1.
        -24    2    1    2    0    0 -0.90695120570E+01 -0.40911475050E+02 -0.31699043989E+02  0.96664332759E+02  0.81136668642E+02 0.  0.
         25    2    1    2    0    0  0.58140154627E+02  0.50794635168E+02  0.31653811185E+02  0.15035329134E+03  0.12507508111E+03 0.  0.
         24    2    1    2    0    0 -0.49070642569E+02 -0.98831601180E+01  0.27589431127E+03  0.29209801827E+03  0.81841166128E+02 0.  0.
        -13    1    5    5    0    0 -0.37313174415E+02 -0.41737989248E+02  0.11818449461E+03  0.13077426161E+03  0.00000000000E+00 0.  1.
         14    1    5    5    0    0 -0.11757468155E+02  0.31854829130E+02  0.15770981665E+03  0.16132375667E+03  0.00000000000E+00 0. -1.
         13    1    3    3    0    0 -0.42979434768E+02 -0.36000630820E+02 -0.26486094697E+02  0.62006374227E+02  0.00000000000E+00 0. -1.
        -14    1    3    3    0    0  0.33909922711E+02 -0.49108442293E+01 -0.52129492920E+01  0.34657958532E+02  0.00000000000E+00 0.  1.
          5    1    4    4  501    0 -0.93594003905E+01 -0.35725277693E+02  0.83144682942E+01  0.38085385976E+02  0.41800000000E+01 0. -1.
         -5    1    4    4    0  501  0.67499555017E+02  0.86519912861E+02  0.23339342891E+02  0.11226790537E+03  0.41800000000E+01 0. -1.
</event>
<event>
11    1  0.8551154E-009  0.1722018E+03  0.7561462E-02  0.1076131E+00
         22   -1    0    0    0    0  0.00000000000E+00  0.00000000000E+00  0.11678710481E+04  0.11678710481E+04  0.00000000000E+00 0.  1.
         22   -1    0    0    0    0 -0.00000000000E+00 -0.00000000000E+00 -0.59449505499E+03  0.59449505499E+03  0.00000000000E+00 0. -1.
         24    2    1    2    0    0 -0.10430568558E+02 -0.40752392791E+01 -0.50725274072E+03  0.51304743121E+03  0.76071804036E+02 0.  0.
         25    2    1    2    0    0  0.84772785688E+00  0.12184620181E+03  0.16401432825E+02  0.17539604550E+03  0.12509016844E+03 0.  0.
        -24    2    1    2    0    0  0.95828407009E+01 -0.11777096253E+03  0.10642273010E+04  0.10739226264E+04  0.82269245787E+02 0.  0.
        -13    1    3    3    0    0  0.96841466563E+01  0.29686542797E+02 -0.12756573949E+03  0.13133198929E+03  0.00000000000E+00 0.  1.
         14    1    3    3    0    0 -0.20114715214E+02 -0.33761782076E+02 -0.37968700123E+03  0.38171544192E+03  0.00000000000E+00 0. -1.
         11    1    5    5    0    0 -0.25924743781E+02 -0.65289162954E+01  0.23441173964E+03  0.23593130943E+03  0.00000000000E+00 0. -1.
        -12    1    5    5    0    0  0.35507584482E+02 -0.11124204624E+03  0.82981556140E+03  0.83799131699E+03  0.00000000000E+00 0.  1.
          5    1    4    4  501    0  0.42111723850E+02  0.11335704167E+03  0.39356017488E+02  0.12723829885E+03  0.41800000000E+01 0.  1.
         -5    1    4    4    0  501 -0.41263995993E+02  0.84891601441E+01 -0.22954584663E+02  0.48157746649E+02  0.41800000000E+01 0.  1.
</event>
<event>
11    1  0.8551154E-009  0.1313775E+03  0.7561462E-02  0.1117588E+00
         22   -1    0    0    0    0  0.00000000000E+00  0.00000000000E+00  0.71354180442E+03  0.71354180442E+03  0.00000000000E+00 0.  1.
         22   -1    0    0    0    0 -0.00000000000E+00 -0.00000000000E+00 -0.70086805714E+02  0.70086805714E+02  0.00000000000E+00 0.  1.
         24    2    1    2    0    0  0.43577456989E+02 -0.22998333058E+02  0.13872736498E+02  0.10563542032E+03  0.92403848014E+02 0.  0.
         25    2    1    2    0    0 -0.14271488321E+02 -0.95468165857E+01  0.18598366650E+03  0.22479419467E+03  0.12509072175E+03 0.  0.
        -24    2    1    2    0    0 -0.29305968668E+02  0.32545149644E+02  0.44359859571E+03  0.45319899514E+03  0.81802130257E+02 0.  0.
        -11    1    3    3    0    0  0.29447498192E+02  0.75829750329E+01 -0.34944643530E+02  0.46322616200E+02  0.00000000000E+00 0.  1.
         12    1    3    3    0    0  0.14129958797E+02 -0.30581308091E+02  0.48817380029E+02  0.59312804124E+02  0.00000000000E+00 0. -1.
         11    1    5    5    0    0  0.90022306488E+01  0.49468996593E+02  0.26792785864E+03  0.27260513424E+03  0.00000000000E+00 0. -1.
        -12    1    5    5    0    0 -0.38308199317E+02 -0.16923846950E+02  0.17567073707E+03  0.18059386090E+03  0.00000000000E+00 0.  1.
          5    1    4    4  501    0  0.42135465426E+02 -0.36557440031E+02  0.49871376124E+02  0.74943114593E+02  0.41800000000E+01 0.  1.
         -5    1    4    4    0  501 -0.56406953748E+02  0.27010623446E+02  0.13611229038E+03  0.14985108008E+03  0.41800000000E+01 0.  1.
</event>
<event>
11    1  0.8551154E-009  0.1279070E+03  0.7561462E-02  0.1121868E+00
         22   -1    0    0    0    0  0.00000000000E+00  0.00000000000E+00  0.39000684220E+03  0.39000684220E+03  0.00000000000E+00 0. -1.
         22   -1    0    0    0    0 -0.00000000000E+00 -0.00000000000E+00 -0.26593641038E+03  0.26593641038E+03  0.00000000000E+00 0. -1.
        -24    2    1    2    0    0  0.34020231126E+02  0.52606942061E+01 -0.18075159552E+03  0.19928622526E+03  0.76542858997E+02 0.  0.
         25    2    1    2    0    0 -0.55431761586E+02  0.70152729286E+01 -0.35396364395E+01  0.13704214746E+03  0.12508447909E+03 0.  0.
         24    2    1    2    0    0  0.21411530460E+02 -0.12275967135E+02  0.30836166378E+03  0.31961487986E+03  0.80359210603E+02 0.  0.
        -13    1    5    5    0    0  0.18233174655E+02 -0.10649557986E+02  0.14232859822E+02  0.25464407356E+02  0.00000000000E+00 0.  1.
         14    1    5    5    0    0  0.31783558045E+01 -0.16264091489E+01  0.29412880396E+03  0.29415047250E+03  0.00000000000E+00 0. -1.
         11    1    3    3    0    0  0.33570685614E+02 -0.27953241408E+02 -0.14030188415E+03  0.14694554547E+03  0.00000000000E+00 0. -1.
        -12    1    3    3    0    0  0.44954551213E+00  0.33213935614E+02 -0.40449711370E+02  0.52340679782E+02  0.00000000000E+00 0.  1.
          5    1    4    4  501    0 -0.34635555793E+02 -0.54837679894E+02 -0.22796651326E+02  0.68876357140E+02  0.41800000000E+01 0.  1.
         -5    1    4    4    0  501 -0.20796205792E+02  0.61852952822E+02  0.19257014886E+02  0.68165790324E+02  0.41800000000E+01 0.  1.
</event>
<event>
11    1  0.8551154E-009  0.7106678E+03  0.7561462E-02  0.9016730E-01
         22   -1    0    0    0    0  0.00000000000E+00  0.00000000000E+00  0.70724736650E+03  0.70724736650E+03  0.00000000000E+00 0.  1.
         22   -1    0    0    0    0 -0.00000000000E+00 -0.00000000000E+00 -0.17852619848E+03  0.17852619848E+03  0.00000000000E+00 0. -1.
        -24    2    1    2    0    0  0.14316343006E+03 -0.10828040215E+03  0.22246829153E+03  0.29720699511E+03  0.81359965670E+02 0.  0.
         25    2    1    2    0    0 -0.28664176205E+03  0.95472738933E+02  0.14375970952E+03  0.35720078394E+03  0.12508797836E+03 0.  0.
         24    2    1    2    0    0  0.14347833200E+03  0.12807663216E+02  0.16249316697E+03  0.23136578593E+03  0.79850044435E+02 0.  0.
        -13    1    5    5    0    0  0.10937139880E+03  0.38299704079E+02  0.14427324862E+03  0.18505064301E+03  0.00000000000E+00 0.  1.
         14    1    5    5    0    0  0.34106933194E+02 -0.25492040863E+02  0.18219918347E+02  0.46315142922E+02  0.00000000000E+00 0. -1.
         13    1    3    3    0    0  0.21220217292E+01  0.33797717994E+01 -0.55094461083E+01  0.68029280502E+01  0.00000000000E+00 0. -1.
        -14    1    3    3    0    0  0.14104140833E+03 -0.11166017395E+03  0.22797773763E+03  0.29040406706E+03  0.00000000000E+00 0.  1.
          5    1    4    4  501    0 -0.23913366179E+03  0.96175817303E+02  0.16384642752E+03  0.30544691887E+03  0.41800000000E+01 0.  1.
         -5    1    4    4    0  501 -0.47508100263E+02 -0.70307836993E+00 -0.20086717996E+02  0.51753865070E+02  0.41800000000E+01 0.  1.
</event>
<event>
11    1  0.8677196E-009  0.1799455E+03  0.7561462E-02  0.1069687E+00
         22   -1    0    0    0    0  0.00000000000E+00  0.00000000000E+00  0.45186066601E+03  0.45186066601E+03  0.00000000000E+00 0. -1.
         22   -1    0    0    0    0 -0.00000000000E+00 -0.00000000000E+00 -0.11416344295E+04  0.11416344295E+04  0.00000000000E+00 0. -1.
        -24    2    1    2    0    0  0.87526100144E+01 -0.30591209177E+02 -0.94187689509E+03  0.94582354985E+03  0.80235102523E+02 0.  0.
         25    2    1    2    0    0 -0.13554856186E+03  0.61484067491E+01 -0.13700224226E+03  0.22984477833E+03  0.12509113563E+03 0.  0.
         24    2    1    2    0    0  0.12679595185E+03  0.24442802428E+02  0.38910537387E+03  0.41782676732E+03  0.80632199046E+02 0.  0.
        -11    1    5    5    0    0  0.15163712383E+02 -0.58987939665E+01  0.55268438497E+01  0.17183711660E+02  0.00000000000E+00 0.  1.
         12    1    5    5    0    0  0.11163223947E+03  0.30341596394E+02  0.38357853002E+03  0.40064305566E+03  0.00000000000E+00 0. -1.
         11    1    3    3    0    0 -0.10957833488E+02  0.18168792477E+02 -0.55293246147E+03  0.55333939502E+03  0.00000000000E+00 0. -1.
        -12    1    3    3    0    0  0.19710443502E+02 -0.48760001654E+02 -0.38894443362E+03  0.39248415483E+03  0.00000000000E+00 0.  1.
          5    1    4    4  501    0 -0.11262645115E+03  0.51473919487E+02 -0.12790211607E+03  0.17807499988E+03  0.41800000000E+01 0.  1.
         -5    1    4    4    0  501 -0.22922110712E+02 -0.45325512737E+02 -0.91001261910E+01  0.51769778453E+02  0.41800000000E+01 0.  1.
</event>
<event>
11    1  0.8551154E-009  0.2267044E+03  0.7561462E-02  0.1037097E+00
         22   -1    0    0    0    0  0.00000000000E+00  0.00000000000E+00  0.32792076210E+03  0.32792076210E+03  0.00000000000E+00 0. -1.
         22   -1    0    0    0    0 -0.00000000000E+00 -0.00000000000E+00 -0.12358549492E+04  0.12358549492E+04  0.00000000000E+00 0.  1.
        -24    2    1    2    0    0 -0.11672366744E+03 -0.14310948956E+03 -0.77799345932E+03  0.80374254314E+03  0.81384964033E+02 0.  0.
         25    2    1    2    0    0  0.33480501854E+02  0.22263447568E+03 -0.38820344157E+03  0.46586316991E+03  0.12505809556E+03 0.  0.
         24    2    1    2    0    0  0.83243165587E+02 -0.79524986118E+02  0.25826271375E+03  0.29416999830E+03  0.81133905060E+02 0.  0.
        -11    1    5    5    0    0  0.45930685255E+02  0.15331607405E+00  0.48986541195E+02  0.67151564182E+02  0.00000000000E+00 0.  1.
         12    1    5    5    0    0  0.37312480332E+02 -0.79678302192E+02  0.20927617256E+03  0.22701843412E+03  0.00000000000E+00 0. -1.
         11    1    3    3    0    0 -0.12343214863E+03 -0.10224163611E+03 -0.60676154824E+03  0.62757344103E+03  0.00000000000E+00 0. -1.
        -12    1    3    3    0    0  0.67084811886E+01 -0.40867853454E+02 -0.17123191108E+03  0.17616910211E+03  0.00000000000E+00 0.  1.
          5    1    4    4  501    0  0.39155695520E+02  0.27709352843E+02 -0.15249167657E+03  0.15991297806E+03  0.41800000000E+01 0. -1.
         -5    1    4    4    0  501 -0.56751936663E+01  0.19492512284E+03 -0.23571176500E+03  0.30595019185E+03  0.41800000000E+01 0. -1.
</event>
<event>
11    1  0.8551154E-009  0.1271964E+03  0.7561462E-02  0.1122763E+00
         22   -1    0    0    0    0  0.00000000000E+00  0.00000000000E+00  0.79133217527E+03  0.79133217527E+03  0.00000000000E+00 0. -1.
         22   -1    0    0    0    0 -0.00000000000E+00 -0.00000000000E+00 -0.58358169170E+03  0.58358169170E+03  0.00000000000E+00 0.  1.
        -24    2    1    2    0    0 -0.85776811888E+01 -0.17142535027E+02 -0.26798402130E+03  0.28035832967E+03  0.80111885652E+02 0.  0.
         25    2    1    2    0    0  0.25419471204E+02  0.13183190405E+01 -0.29380456715E+03  0.32033696592E+03  0.12508701202E+03 0.  0.
         24    2    1    2    0    0 -0.16841790015E+02  0.15824215987E+02  0.76953907202E+03  0.77421857138E+03  0.81792182973E+02 0.  0.
        -13    1    5    5    0    0  0.17656644383E+02 -0.19184673230E+02  0.11887506150E+03  0.12170081769E+03  0.00000000000E+00 0.  1.
         14    1    5    5    0    0 -0.34498434398E+02  0.35008889217E+02  0.65066401052E+03  0.65251775369E+03  0.00000000000E+00 0. -1.
         11    1    3    3    0    0  0.19768549362E+02 -0.40103488830E+02 -0.12363521273E+03  0.13147148431E+03  0.00000000000E+00 0. -1.
        -12    1    3    3    0    0 -0.28346230551E+02  0.22960953802E+02 -0.14434880858E+03  0.14888684537E+03  0.00000000000E+00 0.  1.
          5    1    4    4  501    0  0.11221287933E+01  0.55193058470E+02 -0.21337873093E+03  0.22044384339E+03  0.41800000000E+01 0. -1.
         -5    1    4    4    0  501  0.24297342411E+02 -0.53874739430E+02 -0.80425836223E+02  0.99893122531E+02  0.41800000000E+01 0. -1.
</event>
<event>
11    1  0.8551154E-009  0.2345054E+03  0.7561462E-02  0.1032493E+00
         22   -1    0    0    0    0  0.00000000000E+00  0.00000000000E+00  0.90143683960E+03  0.90143683960E+03  0.00000000000E+00 0.  1.
         22   -1    0    0    0    0 -0.00000000000E+00 -0.00000000000E+00 -0.60899499744E+03  0.60899499744E+03  0.00000000000E+00 0.  1.
        -24    2    1    2    0    0  0.19640338836E+03  0.24468538294E+02 -0.55861024577E+03  0.59712141977E+03  0.73045074741E+02 0.  0.
         25    2    1    2    0    0 -0.21218597037E+03 -0.27987898349E+02  0.67512516591E+03  0.71919992548E+03  0.12509330395E+03 0.  0.
         24    2    1    2    0    0  0.15782582008E+02  0.35193600549E+01  0.17592692202E+03  0.19411049179E+03  0.80418439069E+02 0.  0.
        -13    1    5    5    0    0  0.44503032465E+02 -0.11576381725E+02  0.12988368697E+03  0.13778354275E+03  0.00000000000E+00 0.  1.
         14    1    5    5    0    0 -0.28720450457E+02  0.15095741779E+02  0.46043235054E+02  0.56326949044E+02  0.00000000000E+00 0. -1.
         11    1    3    3    0    0  0.98156817446E+02 -0.16373843704E+02 -0.33536911234E+03  0.34982181905E+03  0.00000000000E+00 0. -1.
        -12    1    3    3    0    0  0.98246570911E+02  0.40842381997E+02 -0.22324113343E+03  0.24729960072E+03  0.00000000000E+00 0.  1.
          5    1    4    4  501    0 -0.20771236532E+03 -0.55984776158E+02  0.54456832950E+03  0.58553467853E+03  0.41800000000E+01 0.  1.
         -5    1    4    4    0  501 -0.44736050473E+01  0.27996877809E+02  0.13055683641E+03  0.13366524695E+03  0.41800000000E+01 0.  1.
</event>
<event>
11    1  0.8551154E-009  0.1456063E+03  0.7561462E-02  0.1101455E+00
         22   -1    0    0    0    0  0.00000000000E+00  0.00000000000E+00  0.39389315374E+03  0.39389315374E+03  0.00000000000E+00 0. -1.
         22   -1    0    0    0    0 -0.00000000000E+00 -0.00000000000E+00 -0.36727122635E+03  0.36727122635E+03  0.00000000000E+00 0.  1.
         24    2    1    2    0    0 -0.25486685464E+02  0.60828270647E+02 -0.19045634355E+03  0.21672551365E+03  0.79666051874E+02 0.  0.
         25    2    1    2    0    0  0.57055022434E+02 -0.85623754067E+02 -0.11594810361E+03  0.19919835933E+03  0.12509724530E+03 0.  0.
        -24    2    1    2    0    0 -0.31568336970E+02  0.24795483421E+02  0.33302637456E+03  0.34524050711E+03  0.81688834639E+02 0.  0.
        -11    1    3    3    0    0 -0.86006518291E+01  0.77060435628E+02 -0.12384348992E+03  0.14611465343E+03  0.00000000000E+00 0.  1.
         12    1    3    3    0    0 -0.16886033635E+02 -0.16232164982E+02 -0.66612853636E+02  0.70610860223E+02  0.00000000000E+00 0. -1.
         11    1    5    5    0    0 -0.25311575709E+02 -0.27764579721E+02  0.15668382796E+03  0.16112532296E+03  0.00000000000E+00 0. -1.
        -12    1    5    5    0    0 -0.62567612613E+01  0.52560063142E+02  0.17634254659E+03  0.18411518416E+03  0.00000000000E+00 0.  1.
          5    1    4    4  501    0  0.44963902677E+02  0.24291110505E+02 -0.38835437649E+02  0.64323201187E+02  0.41800000000E+01 0. -1.
         -5    1    4    4    0  501  0.12091119757E+02 -0.10991486457E+03 -0.77112665965E+02  0.13487515814E+03  0.41800000000E+01 0. -1.
</event>
<event>
11    1  0.8551154E-009  0.1342742E+03  0.7561462E-02  0.1114126E+00
         22   -1    0    0    0    0  0.00000000000E+00  0.00000000000E+00  0.69113842101E+03  0.69113842101E+03  0.00000000000E+00 0.  1.
         22   -1    0    0    0    0 -0.00000000000E+00 -0.00000000000E+00 -0.53336863590E+03  0.53336863590E+03  0.00000000000E+00 0. -1.
         24    2    1    2    0    0 -0.81223408515E+01 -0.48276101252E+02 -0.47789153150E+03  0.48705684427E+03  0.80296321776E+02 0.  0.
         25    2    1    2    0    0  0.48547354589E+02  0.37084662245E+02  0.54299624987E+02  0.14942747342E+03  0.12509197708E+03 0.  0.
        -24    2    1    2    0    0 -0.40425013737E+02  0.11191439007E+02  0.58136169162E+03  0.58802273922E+03  0.77652400564E+02 0.  0.
        -13    1    3    3    0    0 -0.41437610093E+02 -0.42230652935E+02 -0.26812209035E+03  0.27457232000E+03  0.00000000000E+00 0.  1.
         14    1    3    3    0    0  0.33315269242E+02 -0.60454483167E+01 -0.20976944115E+03  0.21248452426E+03  0.00000000000E+00 0. -1.
         13    1    5    5    0    0  0.19599242315E+01 -0.11345927967E+02  0.11961836067E+02  0.16602918614E+02  0.00000000000E+00 0. -1.
        -14    1    5    5    0    0 -0.42384937969E+02  0.22537366974E+02  0.56939985556E+03  0.57141982061E+03  0.00000000000E+00 0.  1.
          5    1    4    4  501    0  0.25884382866E+02  0.55015070874E+02  0.86594139628E+02  0.10588992737E+03  0.41800000000E+01 0.  1.
         -5    1    4    4    0  501  0.22662971722E+02 -0.17930408629E+02 -0.32294514641E+02  0.43537546058E+02  0.41800000000E+01 0.  1.
</event>
<event>
11    1  0.8551154E-009  0.1426703E+03  0.7561462E-02  0.1104613E+00
         22   -1    0    0    0    0  0.00000000000E+00  0.00000000000E+00  0.23803484294E+03  0.23803484294E+03  0.00000000000E+00 0. -1.
         22   -1    0    0    0    0 -0.00000000000E+00 -0.00000000000E+00 -0.67248839479E+03  0.67248839479E+03  0.00000000000E+00 0. -1.
         24    2    1    2    0    0 -0.27818007005E+02 -0.28825917618E+02 -0.56752754346E+03  0.57326437446E+03  0.70283393472E+02 0.  0.
         25    2    1    2    0    0 -0.22834312214E+02  0.74944791761E+02 -0.22619739401E+02  0.14932216780E+03  0.12508928635E+03 0.  0.
        -24    2    1    2    0    0  0.50652319219E+02 -0.46118874143E+02  0.15569373101E+03  0.18793669546E+03  0.79919056740E+02 0.  0.
        -11    1    3    3    0    0 -0.11306381705E+02 -0.27208172152E+02 -0.76821610957E+02  0.82278057884E+02  0.00000000000E+00 0.  1.
         12    1    3    3    0    0 -0.16511625300E+02 -0.16177454665E+01 -0.49070593251E+03  0.49098631658E+03  0.00000000000E+00 0. -1.
         13    1    5    5    0    0 -0.58053836827E+01 -0.20525087537E+02  0.10701370435E+03  0.10911880964E+03  0.00000000000E+00 0. -1.
        -14    1    5    5    0    0  0.56457702901E+02 -0.25593786606E+02  0.48680026659E+02  0.78817885821E+02  0.00000000000E+00 0.  1.
          5    1    4    4  501    0 -0.61129180677E+01  0.68041114134E+02 -0.70323964177E+02  0.98132019839E+02  0.41800000000E+01 0.  1.
         -5    1    4    4    0  501 -0.16721394146E+02  0.69036776269E+01  0.47704224777E+02  0.51190147963E+02  0.41800000000E+01 0.  1.
</event>
<event>
11    1  0.8551154E-009  0.1502777E+03  0.7561462E-02  0.1096595E+00
         22   -1    0    0    0    0  0.00000000000E+00  0.00000000000E+00  0.66942304783E+02  0.66942304783E+02  0.00000000000E+00 0.  1.
         22   -1    0    0    0    0 -0.00000000000E+00 -0.00000000000E+00 -0.28696046331E+04  0.28696046331E+04  0.00000000000E+00 0. -1.
         24    2    1    2    0    0 -0.58454217958E+02  0.18940223020E+02 -0.23048381676E+04  0.23072208876E+04  0.84933018983E+02 0.  0.
         25    2    1    2    0    0  0.28928022740E+02  0.63184796293E+02 -0.49100524647E+03  0.51143160029E+03  0.12508789204E+03 0.  0.
        -24    2    1    2    0    0  0.29526195218E+02 -0.82125019314E+02 -0.68189142492E+01  0.11789444999E+03  0.78970176305E+02 0.  0.
        -11    1    3    3    0    0 -0.17534101837E+02 -0.22293642807E+01 -0.81023208884E+02  0.82928735491E+02  0.00000000000E+00 0.  1.
         12    1    3    3    0    0 -0.40920116121E+02  0.21169587301E+02 -0.22238149587E+04  0.22242921521E+04  0.00000000000E+00 0. -1.
         11    1    5    5    0    0 -0.26812321831E+02 -0.21066680135E+02 -0.70270631208E+01  0.34815014433E+02  0.00000000000E+00 0. -1.
        -12    1    5    5    0    0  0.56338517049E+02 -0.61058339179E+02  0.20814887158E+00  0.83079435557E+02  0.00000000000E+00 0.  1.
          5    1    4    4  501    0 -0.63302152762E+01  0.49972429040E+02 -0.45918147318E+03  0.46195499024E+03  0.41800000000E+01 0. -1.
         -5    1    4    4    0  501  0.35258238017E+02  0.13212367254E+02 -0.31823773286E+02  0.49476610056E+02  0.41800000000E+01 0. -1.
</event>
<event>
11    1  0.8551154E-009  0.1476554E+03  0.7561462E-02  0.1099299E+00
         22   -1    0    0    0    0  0.00000000000E+00  0.00000000000E+00  0.30901349783E+02  0.30901349783E+02  0.00000000000E+00 0. -1.
         22   -1    0    0    0    0 -0.00000000000E+00 -0.00000000000E+00 -0.18322335498E+04  0.18322335498E+04  0.00000000000E+00 0. -1.
        -24    2    1    2    0    0 -0.11172525436E+02 -0.69783388307E+02 -0.95737912065E+03  0.96334291154E+03  0.80375605521E+02 0.  0.
         25    2    1    2    0    0  0.11410309265E+02  0.99021397820E+02 -0.78097331488E+03  0.79718350224E+03  0.12508711085E+03 0.  0.
         24    2    1    2    0    0 -0.23778382887E+00 -0.29238009513E+02 -0.62979764516E+02  0.10260848583E+03  0.75545568262E+02 0.  0.
        -13    1    5    5    0    0  0.32155381309E+02 -0.34076354009E+02 -0.27519625346E+02  0.54336877246E+02  0.00000000000E+00 0.  1.
         14    1    5    5    0    0 -0.32393165138E+02  0.48383444954E+01 -0.35460139170E+02  0.48271608582E+02  0.00000000000E+00 0. -1.
         13    1    3    3    0    0 -0.13595275313E+02  0.71828644853E+01 -0.43962097853E+03  0.43988979281E+03  0.00000000000E+00 0. -1.
        -14    1    3    3    0    0  0.24227498768E+01 -0.76966252792E+02 -0.51775814212E+03  0.52345311874E+03  0.00000000000E+00 0.  1.
          5    1    4    4  501    0 -0.54813116332E+02  0.50227688355E+02 -0.29336044428E+03  0.30266337913E+03  0.41800000000E+01 0.  1.
         -5    1    4    4    0  501  0.66223425597E+02  0.48793709465E+02 -0.48761287061E+03  0.49452012311E+03  0.41800000000E+01 0.  1.
</event>
<event>
11    1  0.8551154E-009  0.1485392E+03  0.7561462E-02  0.1098381E+00
         22   -1    0    0    0    0  0.00000000000E+00  0.00000000000E+00  0.16362439813E+04  0.16362439813E+04  0.00000000000E+00 0. -1.
         22   -1    0    0    0    0 -0.00000000000E+00 -0.00000000000E+00 -0.21790690098E+03  0.21790690098E+03  0.00000000000E+00 0. -1.
        -24    2    1    2    0    0  0.58832821998E+02 -0.54700607659E+02 -0.16725555102E+03  0.20375293028E+03  0.84186577476E+02 0.  0.
         25    2    1    2    0    0 -0.78676636862E+02  0.28720758281E+02  0.15149323100E+03  0.21357155387E+03  0.12509082476E+03 0.  0.
         24    2    1    2    0    0  0.19843814864E+02  0.25979849378E+02  0.14340994003E+04  0.14368263981E+04  0.82220914544E+02 0.  0.
        -13    1    5    5    0    0  0.39770233547E+02  0.27344850842E+02  0.46053152271E+03  0.46305366401E+03  0.00000000000E+00 0.  1.
         14    1    5    5    0    0 -0.19926418683E+02 -0.13650014643E+01  0.97356787761E+03  0.97377273412E+03  0.00000000000E+00 0. -1.
         13    1    3    3    0    0  0.71106801921E+02 -0.45746580853E+02 -0.16848506553E+03  0.18851032928E+03  0.00000000000E+00 0. -1.
        -14    1    3    3    0    0 -0.12273979923E+02 -0.89540268064E+01  0.12295145101E+01  0.15242600996E+02  0.00000000000E+00 0.  1.
          5    1    4    4  501    0 -0.13195032204E+02  0.52054406782E+02  0.85107362015E+01  0.54531414533E+02  0.41800000000E+01 0.  1.
         -5    1    4    4    0  501 -0.65481604659E+02 -0.23333648500E+02  0.14298249480E+03  0.15904013933E+03  0.41800000000E+01 0.  1.
</event>
<event>
11    1  0.8551154E-009  0.3096477E+03  0.7561462E-02  0.9961888E-01
         22   -1    0    0    0    0  0.00000000000E+00  0.00000000000E+00  0.96451873215E+03  0.96451873215E+03  0.00000000000E+00 0. -1.
         22   -1    0    0    0    0 -0.00000000000E+00 -0.00000000000E+00 -0.14822375268E+03  0.14822375268E+03  0.00000000000E+00 0. -1.
         24    2    1    2    0    0 -0.11749888395E+03 -0.27970344539E+03  0.16927975688E+03  0.35658354984E+03  0.80350400367E+02 0.  0.
         25    2    1    2    0    0  0.56888302271E+02  0.24415640425E+03  0.41395942391E+03  0.49985990166E+03  0.12509551539E+03 0.  0.
        -24    2    1    2    0    0  0.60610581678E+02  0.35547041133E+02  0.23305579867E+03  0.25629903333E+03  0.80230632835E+02 0.  0.
        -13    1    3    3    0    0 -0.50292466474E+02 -0.20339383278E+03  0.91819701797E+02  0.22875585464E+03  0.00000000000E+00 0.  1.
         14    1    3    3    0    0 -0.67206417474E+02 -0.76309612608E+02  0.77460055086E+02  0.12782769520E+03  0.00000000000E+00 0. -1.
         13    1    5    5    0    0  0.34503403625E+02  0.43220720562E+02  0.21859770040E+03  0.22548496661E+03  0.00000000000E+00 0. -1.
        -14    1    5    5    0    0  0.26107178053E+02 -0.76736794290E+01  0.14458098270E+02  0.30814066714E+02  0.00000000000E+00 0.  1.
          5    1    4    4  501    0 -0.57255066617E+01  0.43436517276E+02  0.17988102838E+03  0.18518684950E+03  0.41800000000E+01 0.  1.
         -5    1    4    4    0  501  0.62613808932E+02  0.20071988698E+03  0.23407839554E+03  0.31467305216E+03  0.41800000000E+01 0.  1.
</event>
<event>
11    1  0.8551154E-009  0.1852407E+03  0.7561462E-02  0.1065481E+00
         22   -1    0    0    0    0  0.00000000000E+00  0.00000000000E+00  0.96865750575E+03  0.96865750575E+03  0.00000000000E+00 0. -1.
         22   -1    0    0    0    0 -0.00000000000E+00 -0.00000000000E+00 -0.31501444141E+03  0.31501444141E+03  0.00000000000E+00 0. -1.
        -24    2    1    2    0    0 -0.20561337949E+02  0.60134562734E+02 -0.25383452247E+03  0.27315579200E+03  0.78378489723E+02 0.  0.
         25    2    1    2    0    0  0.13129435197E+03  0.24841214046E+02  0.15112204631E+03  0.23736262271E+03  0.12509136262E+03 0.  0.
         24    2    1    2    0    0 -0.11073301402E+03 -0.84975776780E+02  0.75635554049E+03  0.77315353246E+03  0.78803541091E+02 0.  0.
        -11    1    5    5    0    0 -0.15327213231E+02 -0.41347953550E+02  0.37663306351E+03  0.37920580331E+03  0.00000000000E+00 0.  1.
         12    1    5    5    0    0 -0.95405800787E+02 -0.43627823231E+02  0.37972247698E+03  0.39394772916E+03  0.00000000000E+00 0. -1.
         11    1    3    3    0    0  0.27552111233E+02  0.23020032103E+02 -0.13491963064E+03  0.13961499721E+03  0.00000000000E+00 0. -1.
        -12    1    3    3    0    0 -0.48113449182E+02  0.37114530631E+02 -0.11891489183E+03  0.13354079479E+03  0.00000000000E+00 0.  1.
          5    1    4    4  501    0  0.93094965036E+02 -0.44803004075E+02  0.81577758867E+02  0.13170567501E+03  0.41800000000E+01 0. -1.
         -5    1    4    4    0  501  0.38199386932E+02  0.69644218121E+02  0.69544287448E+02  0.10565694770E+03  0.41800000000E+01 0. -1.
</event>
<event>
11    1  0.8551154E-009  0.1831070E+03  0.7561462E-02  0.1067157E+00
         22   -1    0    0    0    0  0.00000000000E+00  0.00000000000E+00  0.85809948674E+03  0.85809948674E+03  0.00000000000E+00 0.  1.
         22   -1    0    0    0    0 -0.00000000000E+00 -0.00000000000E+00 -0.75347793696E+03  0.75347793696E+03  0.00000000000E+00 0. -1.
         24    2    1    2    0    0  0.20920034261E+02 -0.13317933926E+03 -0.69916628236E+03  0.71721155796E+03  0.85933370944E+02 0.  0.
         25    2    1    2    0    0  0.73449553739E+02  0.11863940140E+03  0.18649215660E+03  0.26436856240E+03  0.12506505429E+03 0.  0.
        -24    2    1    2    0    0 -0.94369587999E+02  0.14539937859E+02  0.61729567555E+03  0.62999730334E+03  0.82009891088E+02 0.  0.
        -11    1    3    3    0    0  0.13529273163E+02  0.46787419365E+01 -0.22967774948E+02  0.27063823538E+02  0.00000000000E+00 0.  1.
         12    1    3    3    0    0  0.73907610980E+01 -0.13785808120E+03 -0.67619850741E+03  0.69014773442E+03  0.00000000000E+00 0. -1.
         11    1    5    5    0    0  0.13874717419E+02 -0.69122758934E+01  0.72709951816E+02  0.74343960310E+02  0.00000000000E+00 0. -1.
        -12    1    5    5    0    0 -0.10824430542E+03  0.21452213752E+02  0.54458572373E+03  0.55565334303E+03  0.00000000000E+00 0.  1.
          5    1    4    4  501    0  0.14096979079E+02  0.12458838820E+03  0.14416613138E+03  0.19110818175E+03  0.41800000000E+01 0. -1.
         -5    1    4    4    0  501  0.59352574660E+02 -0.59489868002E+01  0.42326025213E+02  0.73260380650E+02  0.41800000000E+01 0. -1.
</event>
<event>
11    1  0.8551154E-009  0.2175678E+03  0.7561462E-02  0.1042752E+00
         22   -1    0    0    0    0  0.00000000000E+00  0.00000000000E+00  0.11289272656E+03  0.11289272656E+03  0.00000000000E+00 0. -1.
         22   -1    0    0    0    0 -0.00000000000E+00 -0.00000000000E+00 -0.30547936990E+04  0.30547936990E+04  0.00000000000E+00 0. -1.
        -24    2    1    2    0    0  0.45335601378E+02 -0.43439523749E+02 -0.24039960166E+04  0.24061875450E+04  0.81236354199E+02 0.  0.
         25    2    1    2    0    0 -0.20781013703E+03  0.89019291993E+02 -0.51097908076E+03  0.57258692752E+03  0.12508669470E+03 0.  0.
         24    2    1    2    0    0  0.16247453565E+03 -0.45579768244E+02 -0.26925875115E+02  0.18891195300E+03  0.80543362406E+02 0.  0.
        -11    1    5    5    0    0  0.29244534677E+02  0.20294199992E+02  0.74383860818E+01  0.36365188701E+02  0.00000000000E+00 0.  1.
         12    1    5    5    0    0  0.13323000097E+03 -0.65873968235E+02 -0.34364261197E+02  0.15254676430E+03  0.00000000000E+00 0. -1.
         11    1    3    3    0    0  0.58712331935E+02 -0.54588841038E+02 -0.21963402743E+04  0.21978029211E+04  0.00000000000E+00 0. -1.
        -12    1    3    3    0    0 -0.13376730557E+02  0.11149317289E+02 -0.20765574226E+03  0.20838462393E+03  0.00000000000E+00 0.  1.
          5    1    4    4  501    0 -0.83070007791E+02  0.39031751854E+02 -0.35482607565E+03  0.36652847121E+03  0.41800000000E+01 0. -1.
         -5    1    4    4    0  501 -0.12474012924E+03  0.49987540140E+02 -0.15615300512E+03  0.20605845631E+03  0.41800000000E+01 0. -1.
</event>
<event>
11    1  0.8551154E-009  0.1667137E+03  0.7561462E-02  0.1080927E+00
         22   -1    0    0    0    0  0.00000000000E+00  0.00000000000E+00  0.43580989388E+03  0.43580989388E+03  0.00000000000E+00 0.  1.
         22   -1    0    0    0    0 -0.00000000000E+00 -0.00000000000E+00 -0.24309125523E+04  0.24309125523E+04  0.00000000000E+00 0.  1.
        -24    2    1    2    0    0  0.10298584242E+03 -0.36818633862E+02 -0.21212474992E+04  0.21256325322E+04  0.81615032607E+02 0.  0.
         25    2    1    2    0    0 -0.12961286326E+03 -0.71090898162E+01 -0.27534745039E+03  0.32910993271E+03  0.12508835233E+03 0.  0.
         24    2    1    2    0    0  0.26627020841E+02  0.43927723678E+02  0.40149229117E+03  0.41197998127E+03  0.76764587913E+02 0.  0.
        -11    1    5    5    0    0  0.33600635189E+02  0.30760331356E+02  0.39126422545E+03  0.39390721597E+03  0.00000000000E+00 0.  1.
         12    1    5    5    0    0 -0.69736143481E+01  0.13167392322E+02  0.10228065714E+02  0.18072765308E+02  0.00000000000E+00 0. -1.
         11    1    3    3    0    0  0.53970832845E+02  0.23317253778E+02 -0.95329210579E+03  0.95510333686E+03  0.00000000000E+00 0. -1.
        -12    1    3    3    0    0  0.49015009580E+02 -0.60135887639E+02 -0.11679553934E+04  0.11705291953E+04  0.00000000000E+00 0.  1.
          5    1    4    4  501    0 -0.69955712832E+02 -0.35408490478E+02 -0.24318316545E+03  0.25554468751E+03  0.41800000000E+01 0.  1.
         -5    1    4    4    0  501 -0.59657150432E+02  0.28299400662E+02 -0.32164284939E+02  0.73565245199E+02  0.41800000000E+01 0.  1.
</event>
<event>
11    1  0.8551154E-009  0.1315047E+03  0.7561462E-02  0.1117434E+00
         22   -1    0    0    0    0  0.00000000000E+00  0.00000000000E+00  0.37347993398E+03  0.37347993398E+03  0.00000000000E+00 0. -1.
         22   -1    0    0    0    0 -0.00000000000E+00 -0.00000000000E+00 -0.18564289884E+03  0.18564289884E+03  0.00000000000E+00 0.  1.
        -24    2    1    2    0    0  0.12289785784E+02 -0.35424278703E+02 -0.90546432766E+02  0.12664659786E+03  0.80217117295E+02 0.  0.
         25    2    1    2    0    0 -0.16752967507E+02  0.48755098689E+02 -0.70890442961E+01  0.13547938630E+03  0.12508672189E+03 0.  0.
         24    2    1    2    0    0  0.44631817229E+01 -0.13330819985E+02  0.28547251219E+03  0.29699684866E+03  0.80715191538E+02 0.  0.
        -13    1    5    5    0    0  0.36495150770E+02 -0.14643638385E+02  0.81162829722E+02  0.90187233594E+02  0.00000000000E+00 0.  1.
         14    1    5    5    0    0 -0.32031969047E+02  0.13128183996E+01  0.20430968247E+03  0.20680961507E+03  0.00000000000E+00 0. -1.
         11    1    3    3    0    0  0.37637325454E+01  0.25468695225E+02 -0.17321123965E+02  0.31029686665E+02  0.00000000000E+00 0. -1.
        -12    1    3    3    0    0  0.85260532384E+01 -0.60892973929E+02 -0.73225308802E+02  0.95616911197E+02  0.00000000000E+00 0.  1.
          5    1    4    4  501    0 -0.67036356723E+02  0.54887008071E+01  0.62755405000E+01  0.67682004756E+02  0.41800000000E+01 0. -1.
         -5    1    4    4    0  501  0.50283389216E+02  0.43266397882E+02 -0.13364584796E+02  0.67797381539E+02  0.41800000000E+01 0. -1.
</event>
<event>
11    1  0.8551154E-009  0.2681332E+03  0.7561462E-02  0.1014660E+00
         22   -1    0    0    0    0  0.00000000000E+00  0.00000000000E+00  0.41846589022E+04  0.41846589022E+04  0.00000000000E+00 0.  1.
         22   -1    0    0    0    0 -0.00000000000E+00 -0.00000000000E+00 -0.14636093577E+04  0.14636093577E+04  0.00000000000E+00 0.  1.
        -24    2    1    2    0    0 -0.67024498705E+02  0.53675865316E+02 -0.12962126954E+04  0.13015187978E+04  0.80065268903E+02 0.  0.
         25    2    1    2    0    0 -0.16736640677E+03 -0.72567923972E+01 -0.92981092269E+02  0.22881616246E+03  0.12508867868E+03 0.  0.
         24    2    1    2    0    0  0.23439090547E+03 -0.46419072918E+02  0.41102433322E+04  0.41179332997E+04  0.78616687046E+02 0.  0.
        -13    1    5    5    0    0  0.19703738530E+03 -0.42236987258E+02  0.38132673715E+04  0.38185881869E+04  0.00000000000E+00 0.  1.
         14    1    5    5    0    0  0.37353520170E+02 -0.41820856602E+01  0.29697596074E+03  0.29934511281E+03  0.00000000000E+00 0. -1.
         13    1    3    3    0    0 -0.63358000726E+02  0.62636294450E+02 -0.75782838883E+03  0.76304744843E+03  0.00000000000E+00 0. -1.
        -14    1    3    3    0    0 -0.36664979791E+01 -0.89604291339E+01 -0.53838430662E+03  0.53847134939E+03  0.00000000000E+00 0.  1.
          5    1    4    4  501    0 -0.13361418718E+03  0.34512793148E+02 -0.10520945784E+03  0.17358106558E+03  0.41800000000E+01 0. -1.
         -5    1    4    4    0  501 -0.33752219581E+02 -0.41769585545E+02  0.12228365569E+02  0.55235096883E+02  0.41800000000E+01 0. -1.
</event>
<event>
11    1  0.8551154E-009  0.1882633E+03  0.7561462E-02  0.1063148E+00
         22   -1    0    0    0    0  0.00000000000E+00  0.00000000000E+00  0.77979311830E+03  0.77979311830E+03  0.00000000000E+00 0.  1.
         22   -1    0    0    0    0 -0.00000000000E+00 -0.00000000000E+00 -0.47296942847E+03  0.47296942847E+03  0.00000000000E+00 0. -1.
        -24    2    1    2    0    0 -0.42905239508E+01 -0.13897279957E+03 -0.33285100420E+03  0.36963424454E+03  0.80671160429E+02 0.  0.
         25    2    1    2    0    0  0.87767419599E+02  0.14241789560E+03 -0.23197773695E+02  0.21017025442E+03  0.12508965667E+03 0.  0.
         24    2    1    2    0    0 -0.83476895648E+02 -0.34450960285E+01  0.66287246773E+03  0.67295804782E+03  0.80575212429E+02 0.  0.
        -13    1    5    5    0    0 -0.21837044625E+02 -0.30851637048E+02  0.39175907867E+03  0.39357827143E+03  0.00000000000E+00 0.  1.
         14    1    5    5    0    0 -0.61639851023E+02  0.27406541019E+02  0.27111338906E+03  0.27937977638E+03  0.00000000000E+00 0. -1.
         11    1    3    3    0    0 -0.32816754610E+02 -0.47852373103E+02 -0.76053528437E+02  0.95660483913E+02  0.00000000000E+00 0. -1.
        -12    1    3    3    0    0  0.28526230659E+02 -0.91120426472E+02 -0.25679747576E+03  0.27397376063E+03  0.00000000000E+00 0.  1.
          5    1    4    4  501    0  0.48454573387E+02  0.15045236619E+03 -0.44888636015E+02  0.16436612247E+03  0.41800000000E+01 0. -1.
         -5    1    4    4    0  501  0.39312846213E+02 -0.80344705853E+01  0.21690862320E+02  0.45804131944E+02  0.41800000000E+01 0. -1.
</event>
<event>
11    1  0.8551154E-009  0.1367544E+03  0.7561462E-02  0.1111238E+00
         22   -1    0    0    0    0  0.00000000000E+00  0.00000000000E+00  0.91419502649E+03  0.91419502649E+03  0.00000000000E+00 0. -1.
         22   -1    0    0    0    0 -0.00000000000E+00 -0.00000000000E+00 -0.10307767457E+03  0.10307767457E+03  0.00000000000E+00 0.  1.
         24    2    1    2    0    0 -0.13475239554E+02 -0.55570850508E+02 -0.47322219506E+02  0.11937287514E+03  0.93492188729E+02 0.  0.
         25    2    1    2    0    0  0.16285048361E+02  0.38655937334E+02  0.24319172831E+03  0.27667494316E+03  0.12508926078E+03 0.  0.
        -24    2    1    2    0    0 -0.28098088071E+01  0.16914913174E+02  0.61524784311E+03  0.62122488276E+03  0.84240353720E+02 0.  0.
        -11    1    3    3    0    0 -0.24661706948E+02 -0.71306153451E+02 -0.59894865946E+02  0.96333598896E+02  0.00000000000E+00 0.  1.
         12    1    3    3    0    0  0.11186467393E+02  0.15735302943E+02  0.12572646440E+02  0.23039276246E+02  0.00000000000E+00 0. -1.
         11    1    5    5    0    0  0.75257827087E+00 -0.20267609778E+02  0.49254943487E+03  0.49296682259E+03  0.00000000000E+00 0. -1.
        -12    1    5    5    0    0 -0.35623870779E+01  0.37182522952E+02  0.12269840824E+03  0.12825806018E+03  0.00000000000E+00 0.  1.
          5    1    4    4  501    0 -0.39056911507E+02 -0.78799415820E+00  0.21548834325E+02  0.44809462528E+02  0.41800000000E+01 0.  1.
         -5    1    4    4    0  501  0.55341959868E+02  0.39443931493E+02  0.22164289399E+03  0.23186548063E+03  0.41800000000E+01 0.  1.
</event>
<event>
11    1  0.8551154E-009  0.1388316E+03  0.7561462E-02  0.1108870E+00
         22   -1    0    0    0    0  0.00000000000E+00  0.00000000000E+00  0.56395668078E+03  0.56395668078E+03  0.00000000000E+00 0. -1.
         22   -1    0    0    0    0 -0.00000000000E+00 -0.00000000000E+00 -0.34709627382E+03  0.34709627382E+03  0.00000000000E+00 0. -1.
        -24    2    1    2    0    0  0.46334183269E+02  0.27788354282E+02 -0.28103627181E+03  0.29562071912E+03  0.74102458297E+02 0.  0.
         25    2    1    2    0    0  0.17951112723E+02 -0.16060378048E+02  0.23928905436E+02  0.12959382365E+03  0.12506713566E+03 0.  0.
         24    2    1    2    0    0 -0.64285295992E+02 -0.11727976235E+02  0.47396777334E+03  0.48583841182E+03  0.84400044601E+02 0.  0.
        -11    1    5    5    0    0 -0.59713374497E+02  0.28092975954E+02  0.26786125728E+03  0.27587054128E+03  0.00000000000E+00 0.  1.
         12    1    5    5    0    0 -0.45719214957E+01 -0.39820952189E+02  0.20610651606E+03  0.20996787054E+03  0.00000000000E+00 0. -1.
         11    1    3    3    0    0 -0.13130136630E+02 -0.10475163344E+02 -0.97457207501E+02  0.98894068724E+02  0.00000000000E+00 0. -1.
        -12    1    3    3    0    0  0.59464319900E+02  0.38263517626E+02 -0.18357906431E+03  0.19672665040E+03  0.00000000000E+00 0.  1.
          5    1    4    4  501    0 -0.13947776403E+01 -0.43098844587E+02 -0.39005079285E+02  0.58295149193E+02  0.41800000000E+01 0.  1.
         -5    1    4    4    0  501  0.19345890363E+02  0.27038466539E+02  0.62933984721E+02  0.71298674459E+02  0.41800000000E+01 0.  1.
</event>
<event>
11    1  0.8551154E-009  0.1370709E+03  0.7561462E-02  0.1110874E+00
         22   -1    0    0    0    0  0.00000000000E+00  0.00000000000E+00  0.32070018645E+03  0.32070018645E+03  0.00000000000E+00 0. -1.
         22   -1    0    0    0    0 -0.00000000000E+00 -0.00000000000E+00 -0.26287041803E+03  0.26287041803E+03  0.00000000000E+00 0. -1.
        -24    2    1    2    0    0 -0.51321044039E+02 -0.42619691691E+01 -0.13833897465E+03  0.16860607170E+03  0.81475895607E+02 0.  0.
         25    2    1    2    0    0  0.68994454989E+02  0.23565037028E+02 -0.51214811705E+02  0.15358305990E+03  0.12509697663E+03 0.  0.
         24    2    1    2    0    0 -0.17673410950E+02 -0.19303067859E+02  0.24738355477E+03  0.26138147287E+03  0.80229005388E+02 0.  0.
        -11    1    5    5    0    0  0.22914640820E+02  0.99869047347E+01  0.33962083381E+02  0.42169208407E+02  0.00000000000E+00 0.  1.
         12    1    5    5    0    0 -0.40588051770E+02 -0.29289972594E+02  0.21342147139E+03  0.21921226446E+03  0.00000000000E+00 0. -1.
         13    1    3    3    0    0 -0.28926941027E+02 -0.42415858777E+02 -0.63377697077E+02  0.81563505808E+02  0.00000000000E+00 0. -1.
        -14    1    3    3    0    0 -0.22394103012E+02  0.38153889608E+02 -0.74961277569E+02  0.87042565890E+02  0.00000000000E+00 0.  1.
          5    1    4    4  501    0  0.47226221704E+02  0.31554406552E+02  0.33213393130E+02  0.65928737834E+02  0.41800000000E+01 0. -1.
         -5    1    4    4    0  501  0.21768233285E+02 -0.79893695232E+01 -0.84428204835E+02  0.87654322069E+02  0.41800000000E+01 0. -1.
</event>
<event>
11    1  0.8551154E-009  0.2099484E+03  0.7561462E-02  0.1047703E+00
         22   -1    0    0    0    0  0.00000000000E+00  0.00000000000E+00  0.54020909220E+03  0.54020909220E+03  0.00000000000E+00 0.  1.
         22   -1    0    0    0    0 -0.00000000000E+00 -0.00000000000E+00 -0.95185385346E+03  0.95185385346E+03  0.00000000000E+00 0. -1.
         24    2    1    2    0    0 -0.67773751677E+02 -0.13857905681E+02 -0.84270206242E+03  0.84926313912E+03  0.79471947823E+02 0.  0.
         25    2    1    2    0    0  0.21765114381E+03  0.49830134573E+02  0.11195446884E+03  0.27934999262E+03  0.12509017774E+03 0.  0.
        -24    2    1    2    0    0 -0.14987739214E+03 -0.35972228892E+02  0.31910283232E+03  0.36344981392E+03  0.80696441805E+02 0.  0.
        -13    1    3    3    0    0 -0.24705505633E+02  0.22610041613E+02 -0.12706216221E+03  0.13140155652E+03  0.00000000000E+00 0.  1.
         14    1    3    3    0    0 -0.43068246044E+02 -0.36467947294E+02 -0.71563990021E+03  0.71786158260E+03  0.00000000000E+00 0. -1.
         13    1    5    5    0    0 -0.32483606851E+02  0.22475347941E+02  0.47001984298E+02  0.61396355813E+02  0.00000000000E+00 0. -1.
        -14    1    5    5    0    0 -0.11739378528E+03 -0.58447576833E+02  0.27210084802E+03  0.30205345811E+03  0.00000000000E+00 0.  1.
          5    1    4    4  501    0  0.94156248749E+01  0.10071133080E+02  0.59090091250E+02  0.60820991419E+02  0.41800000000E+01 0.  1.
         -5    1    4    4    0  501  0.20823551894E+03  0.39759001493E+02  0.52864377594E+02  0.21852900120E+03  0.41800000000E+01 0.  1.
</event>
<event>
11    1  0.8551154E-009  0.1618993E+03  0.7561462E-02  0.1085304E+00
         22   -1    0    0    0    0  0.00000000000E+00  0.00000000000E+00  0.17053194798E+04  0.17053194798E+04  0.00000000000E+00 0. -1.
         22   -1    0    0    0    0 -0.00000000000E+00 -0.00000000000E+00 -0.10630701609E+04  0.10630701609E+04  0.00000000000E+00 0.  1.
        -24    2    1    2    0    0  0.85093721063E+02  0.15299046703E+02 -0.10047213374E+04  0.10116426652E+04  0.80504124415E+02 0.  0.
         25    2    1    2    0    0 -0.15422619414E+03 -0.86455214407E+02  0.17283089336E+03  0.27709269637E+03  0.12509844773E+03 0.  0.
         24    2    1    2    0    0  0.69132473081E+02  0.71156167704E+02  0.14741397630E+04  0.14796542791E+04  0.80288516069E+02 0.  0.
        -11    1    5    5    0    0  0.32989993954E+02  0.45595559465E+02  0.33806839176E+03  0.34272077884E+03  0.00000000000E+00 0.  1.
         12    1    5    5    0    0  0.36142479127E+02  0.25560608240E+02  0.11360713712E+04  0.11369335003E+04  0.00000000000E+00 0. -1.
         11    1    3    3    0    0  0.87123497892E+01 -0.27308605507E+02 -0.17601975576E+03  0.17833849666E+03  0.00000000000E+00 0. -1.
        -12    1    3    3    0    0  0.76381371274E+02  0.42607652210E+02 -0.82870158165E+03  0.83330416856E+03  0.00000000000E+00 0.  1.
          5    1    4    4  501    0 -0.45140581929E+02 -0.29280622628E+02  0.13928777203E+03  0.14937731701E+03  0.41800000000E+01 0.  1.
         -5    1    4    4    0  501 -0.10908561222E+03 -0.57174591779E+02  0.33543121327E+02  0.12771537936E+03  0.41800000000E+01 0.  1.
</event>
<event>
11    1  0.8551154E-009  0.1648725E+03  0.7561462E-02  0.1082582E+00
         22   -1    0    0    0    0  0.00000000000E+00  0.00000000000E+00  0.65818374720E+03  0.65818374720E+03  0.00000000000E+00 0.  1.
         22   -1    0    0    0    0 -0.00000000000E+00 -0.00000000000E+00 -0.27720433608E+03  0.27720433608E+03  0.00000000000E+00 0. -1.
         24    2    1    2    0    0 -0.69872450603E+02 -0.64021470229E+02 -0.20554848822E+03  0.24090687139E+03  0.82492615872E+02 0.  0.
         25    2    1    2    0    0  0.24272802658E+02  0.15428570845E+03  0.18515547013E+03  0.27262528378E+03  0.12509495775E+03 0.  0.
        -24    2    1    2    0    0  0.45599647945E+02 -0.90264238225E+02  0.40137242921E+03  0.42185592811E+03  0.81459416658E+02 0.  0.
        -11    1    3    3    0    0 -0.19003579026E+02 -0.25302581890E+02 -0.15825213642E+03  0.16138492912E+03  0.00000000000E+00 0.  1.
         12    1    3    3    0    0 -0.50868871578E+02 -0.38718888339E+02 -0.47296351800E+02  0.79521942276E+02  0.00000000000E+00 0. -1.
         13    1    5    5    0    0  0.40864598493E+02 -0.41604705548E+02  0.94004782605E+02  0.11062443711E+03  0.00000000000E+00 0. -1.
        -14    1    5    5    0    0  0.47350494521E+01 -0.48659532677E+02  0.30736764660E+03  0.31123149100E+03  0.00000000000E+00 0.  1.
          5    1    4    4  501    0  0.47182105968E+02  0.14031614625E+03  0.89161697050E+02  0.17286426075E+03  0.41800000000E+01 0. -1.
         -5    1    4    4    0  501 -0.22909303310E+02  0.13969562203E+02  0.95993773078E+02  0.99761023031E+02  0.41800000000E+01 0. -1.
</event>
<event>
11    1  0.8551154E-009  0.1338666E+03  0.7561462E-02  0.1114607E+00
         22   -1    0    0    0    0  0.00000000000E+00  0.00000000000E+00  0.25567765024E+04  0.25567765024E+04  0.00000000000E+00 0.  1.
         22   -1    0    0    0    0 -0.00000000000E+00 -0.00000000000E+00 -0.62420887873E+03  0.62420887873E+03  0.00000000000E+00 0. -1.
         24    2    1    2    0    0  0.14237433680E+02 -0.51863477818E+02 -0.44197015644E+03  0.45302433654E+03  0.83671413669E+02 0.  0.
         25    2    1    2    0    0  0.21328229103E+00  0.23038176808E+02 -0.15300954060E+03  0.19897439023E+03  0.12509230741E+03 0.  0.
        -24    2    1    2    0    0 -0.14450715971E+02  0.28825301009E+02  0.25275473207E+04  0.25289866544E+04  0.78983025818E+02 0.  0.
        -13    1    3    3    0    0 -0.10352139367E+02 -0.41034486978E+02 -0.84107852430E+02  0.94154802062E+02  0.00000000000E+00 0.  1.
         14    1    3    3    0    0  0.24589573048E+02 -0.10828990839E+02 -0.35786230401E+03  0.35886953447E+03  0.00000000000E+00 0. -1.
         11    1    5    5    0    0 -0.17199109633E+02  0.17220638054E+01  0.11556737688E+03  0.11685287106E+03  0.00000000000E+00 0. -1.
        -12    1    5    5    0    0  0.27483936618E+01  0.27103237204E+02  0.24119799439E+04  0.24121337833E+04  0.00000000000E+00 0.  1.
          5    1    4    4  501    0 -0.28555490317E+02  0.44277286236E+02 -0.15414437009E+03  0.16295353121E+03  0.41800000000E+01 0.  1.
         -5    1    4    4    0  501  0.28768772608E+02 -0.21239109428E+02  0.11348294892E+01  0.36020859021E+02  0.41800000000E+01 0.  1.
</event>
<event>
11    1  0.8551154E-009  0.1354138E+03  0.7561462E-02  0.1112791E+00
         22   -1    0    0    0    0  0.00000000000E+00  0.00000000000E+00  0.38332645497E+03  0.38332645497E+03  0.00000000000E+00 0. -1.
         22   -1    0    0    0    0 -0.00000000000E+00 -0.00000000000E+00 -0.77390691048E+03  0.77390691048E+03  0.00000000000E+00 0. -1.
         24    2    1    2    0    0  0.46676527262E+02 -0.48673592741E+01 -0.54061304932E+03  0.54837594694E+03  0.79065293897E+02 0.  0.
         25    2    1    2    0    0 -0.37034554745E+02 -0.46452375351E+02 -0.20154951579E+03  0.24453825774E+03  0.12508945104E+03 0.  0.
        -24    2    1    2    0    0 -0.96419725169E+01  0.51319734625E+02  0.35158210960E+03  0.36431916077E+03  0.79948660527E+02 0.  0.
        -13    1    3    3    0    0  0.31564428020E+02 -0.39423857442E+02 -0.22987531838E+03  0.23535763352E+03  0.00000000000E+00 0.  1.
         14    1    3    3    0    0  0.15112099242E+02  0.34556498168E+02 -0.31073773094E+03  0.31301831342E+03  0.00000000000E+00 0. -1.
         13    1    5    5    0    0 -0.32958017187E+02  0.45464730390E+02  0.31857116322E+03  0.32348239309E+03  0.00000000000E+00 0. -1.
        -14    1    5    5    0    0  0.23316044670E+02  0.58550042352E+01  0.33010946382E+02  0.40836767682E+02  0.00000000000E+00 0.  1.
          5    1    4    4  501    0 -0.78645712962E+02 -0.43569736140E+02 -0.99251139204E+02  0.13398407035E+03  0.41800000000E+01 0. -1.
         -5    1    4    4    0  501  0.41611158216E+02 -0.28826392112E+01 -0.10229837659E+03  0.11055418739E+03  0.41800000000E+01 0. -1.
</event>
<event>
11    1  0.8551154E-009  0.1445130E+03  0.7561462E-02  0.1102621E+00
         22   -1    0    0    0    0  0.00000000000E+00  0.00000000000E+00  0.49364381118E+03  0.49364381118E+03  0.00000000000E+00 0. -1.
         22   -1    0    0    0    0 -0.00000000000E+00 -0.00000000000E+00 -0.24527328027E+03  0.24527328027E+03  0.00000000000E+00 0. -1.
        -24    2    1    2    0    0 -0.16725714492E+02 -0.71448489525E+02 -0.20557476222E+03  0.23218355170E+03  0.79142799043E+02 0.  0.
         25    2    1    2    0    0  0.17641999353E+02  0.51487494587E+02  0.21842309463E+03  0.25752381408E+03  0.12509062439E+03 0.  0.
         24    2    1    2    0    0 -0.91628486156E+00  0.19960994938E+02  0.23552219850E+03  0.24920972568E+03  0.78965185301E+02 0.  0.
        -11    1    5    5    0    0  0.24471452458E+02 -0.14990749458E+02  0.41628048437E+02  0.50561536481E+02  0.00000000000E+00 0.  1.
         12    1    5    5    0    0 -0.25387737320E+02  0.34951744396E+02  0.19389415006E+03  0.19864818919E+03  0.00000000000E+00 0. -1.
         13    1    3    3    0    0 -0.90014125434E+01 -0.36026308425E+02 -0.18847572109E+03  0.19209897909E+03  0.00000000000E+00 0. -1.
        -14    1    3    3    0    0 -0.77243019482E+01 -0.35422181100E+02 -0.17099041132E+02  0.40084572619E+02  0.00000000000E+00 0.  1.
          5    1    4    4  501    0  0.33051848156E+02  0.88802935131E+02  0.16649690346E+03  0.19161700659E+03  0.41800000000E+01 0.  1.
         -5    1    4    4    0  501 -0.15409848802E+02 -0.37315440544E+02  0.51926191167E+02  0.65906807480E+02  0.41800000000E+01 0.  1.
</event>
<event>
11    1  0.8551154E-009  0.1334969E+03  0.7561462E-02  0.1115046E+00
         22   -1    0    0    0    0  0.00000000000E+00  0.00000000000E+00  0.35163449098E+03  0.35163449098E+03  0.00000000000E+00 0.  1.
         22   -1    0    0    0    0 -0.00000000000E+00 -0.00000000000E+00 -0.20173492884E+03  0.20173492884E+03  0.00000000000E+00 0.  1.
         24    2    1    2    0    0  0.13819404620E+02 -0.14346483839E+02 -0.14217982268E+03  0.16376369238E+03  0.78782278604E+02 0.  0.
         25    2    1    2    0    0  0.35589263725E+02  0.10117719832E+02  0.70667007203E+02  0.14836130190E+03  0.12509310951E+03 0.  0.
        -24    2    1    2    0    0 -0.49408668344E+02  0.42287640078E+01  0.22141237761E+03  0.24124442555E+03  0.81953236333E+02 0.  0.
        -13    1    3    3    0    0  0.22895072144E+02  0.26840603913E+02 -0.90020572928E+02  0.96686637635E+02  0.00000000000E+00 0.  1.
         14    1    3    3    0    0 -0.90756675245E+01 -0.41187087753E+02 -0.52159249752E+02  0.67077054745E+02  0.00000000000E+00 0. -1.
         11    1    5    5    0    0  0.21265731368E+02  0.99620563991E+01  0.38855201758E+02  0.45400447156E+02  0.00000000000E+00 0. -1.
        -12    1    5    5    0    0 -0.70674399713E+02 -0.57332923914E+01  0.18255717585E+03  0.19584397839E+03  0.00000000000E+00 0.  1.
          5    1    4    4  501    0  0.50172772233E+02  0.10211376953E+02 -0.20962737895E+02  0.55484124512E+02  0.41800000000E+01 0.  1.
         -5    1    4    4    0  501 -0.14583508509E+02 -0.93657121677E-01  0.91629745098E+02  0.92877177384E+02  0.41800000000E+01 0.  1.
</event>
<event>
11    1  0.8551154E-009  0.1336936E+03  0.7561462E-02  0.1114812E+00
         22   -1    0    0    0    0  0.00000000000E+00  0.00000000000E+00  0.29042681891E+03  0.29042681891E+03  0.00000000000E+00 0.  1.
         22   -1    0    0    0    0 -0.00000000000E+00 -0.00000000000E+00 -0.19704732412E+03  0.19704732412E+03  0.00000000000E+00 0.  1.
         24    2    1    2    0    0  0.17862063366E+02  0.41212522346E+02 -0.80424958716E+02  0.12196958075E+03  0.79942975542E+02 0.  0.
         25    2    1    2    0    0 -0.19205890617E+02 -0.83697307392E+02 -0.17631174033E+02  0.15274964102E+03  0.12508992380E+03 0.  0.
        -24    2    1    2    0    0  0.13438272515E+01  0.42484785046E+02  0.19143562753E+03  0.21275492125E+03  0.82524506642E+02 0.  0.
        -11    1    3    3    0    0 -0.28005612135E+02  0.35590717853E+02 -0.43817255078E+02  0.63015596093E+02  0.00000000000E+00 0.  1.
         12    1    3    3    0    0  0.45867675500E+02  0.56218044927E+01 -0.36607703638E+02  0.58953984659E+02  0.00000000000E+00 0. -1.
         13    1    5    5    0    0  0.12390347265E+02 -0.11690124016E+02  0.42254054211E+01  0.17550890456E+02  0.00000000000E+00 0. -1.
        -14    1    5    5    0    0 -0.11046520013E+02  0.54174909062E+02  0.18721022211E+03  0.19520403080E+03  0.00000000000E+00 0.  1.
          5    1    4    4  501    0 -0.11848837434E+02 -0.94256921976E+02 -0.57174158314E+02  0.11095548237E+03  0.41800000000E+01 0. -1.
         -5    1    4    4    0  501 -0.73570531826E+01  0.10559614585E+02  0.39542984281E+02  0.41794158653E+02  0.41800000000E+01 0. -1.
</event>
<event>
11    1  0.8551154E-009  0.2021256E+03  0.7561462E-02  0.1053031E+00
         22   -1    0    0    0    0  0.00000000000E+00  0.00000000000E+00  0.17817836640E+04  0.17817836640E+04  0.00000000000E+00 0. -1.
         22   -1    0    0    0    0 -0.00000000000E+00 -0.00000000000E+00 -0.12702482420E+03  0.12702482420E+03  0.00000000000E+00 0.  1.
         24    2    1    2    0    0 -0.56661371895E+02  0.11183888204E+02 -0.80708795017E+02  0.12771039983E+03  0.80376900975E+02 0.  0.
         25    2    1    2    0    0 -0.66338361834E+01  0.14491472943E+03  0.58598978385E+03  0.61650373523E+03  0.12509413331E+03 0.  0.
        -24    2    1    2    0    0  0.63295208079E+02 -0.15609861763E+03  0.11494778510E+04  0.11645943531E+04  0.81287241994E+02 0.  0.
        -13    1    3    3    0    0  0.67645151412E+01  0.28049146628E+02 -0.43696905389E+02  0.52363468489E+02  0.00000000000E+00 0.  1.
         14    1    3    3    0    0 -0.63425887036E+02 -0.16865258424E+02 -0.37011889628E+02  0.75346931337E+02  0.00000000000E+00 0. -1.
         13    1    5    5    0    0  0.50697488562E+02 -0.13741690319E+03  0.11056892377E+04  0.11153485244E+04  0.00000000000E+00 0. -1.
        -14    1    5    5    0    0  0.12597719517E+02 -0.18681714445E+02  0.43788613276E+02  0.49245828699E+02  0.00000000000E+00 0.  1.
          5    1    4    4  501    0  0.20821081021E+02  0.12323459523E+03  0.55703927908E+03  0.57090324374E+03  0.41800000000E+01 0. -1.
         -5    1    4    4    0  501 -0.27454917204E+02  0.21680134200E+02  0.28950504767E+02  0.45600491487E+02  0.41800000000E+01 0. -1.
</event>
<event>
11    1  0.8551154E-009  0.1297688E+03  0.7561462E-02  0.1119553E+00
         22   -1    0    0    0    0  0.00000000000E+00  0.00000000000E+00  0.25626130385E+03  0.25626130385E+03  0.00000000000E+00 0.  1.
         22   -1    0    0    0    0 -0.00000000000E+00 -0.00000000000E+00 -0.29444166827E+03  0.29444166827E+03  0.00000000000E+00 0.  1.
        -24    2    1    2    0    0  0.12159977410E+02  0.21047975425E+01 -0.23947122871E+03  0.25307657020E+03  0.80925804177E+02 0.  0.
         25    2    1    2    0    0 -0.42544737624E+02  0.88081771561E+00  0.10418715656E+03  0.16826556472E+03  0.12508999217E+03 0.  0.
         24    2    1    2    0    0  0.30384760215E+02 -0.29856152581E+01  0.97103707728E+02  0.12936083721E+03  0.79830749700E+02 0.  0.
        -13    1    5    5    0    0  0.38258916187E+02 -0.28560309988E+02  0.89669906614E+02  0.10158803141E+03  0.00000000000E+00 0.  1.
         14    1    5    5    0    0 -0.78741559722E+01  0.25574694730E+02  0.74338011139E+01  0.27772805797E+02  0.00000000000E+00 0. -1.
         11    1    3    3    0    0  0.45517619955E+02 -0.82071647817E+01 -0.11988600214E+03  0.12849850112E+03  0.00000000000E+00 0. -1.
        -12    1    3    3    0    0 -0.33357642545E+02  0.10311962324E+02 -0.11958522656E+03  0.12457806908E+03  0.00000000000E+00 0.  1.
          5    1    4    4  501    0 -0.23774238545E+02  0.25049388345E+02  0.12583098532E+03  0.13055112232E+03  0.41800000000E+01 0. -1.
         -5    1    4    4    0  501 -0.18770499080E+02 -0.24168570629E+02 -0.21643828758E+02  0.37714442396E+02  0.41800000000E+01 0. -1.
</event>
<event>
11    1  0.8551154E-009  0.1679268E+03  0.7561462E-02  0.1079850E+00
         22   -1    0    0    0    0  0.00000000000E+00  0.00000000000E+00  0.25738290587E+04  0.25738290587E+04  0.00000000000E+00 0. -1.
         22   -1    0    0    0    0 -0.00000000000E+00 -0.00000000000E+00 -0.87182892065E+03  0.87182892065E+03  0.00000000000E+00 0. -1.
        -24    2    1    2    0    0 -0.66304390792E+01 -0.59889847125E+02 -0.77630990779E+03  0.78275932435E+03  0.80151920810E+02 0.  0.
         25    2    1    2    0    0  0.11816357601E+03  0.49680216837E+02 -0.17926251475E+01  0.17911712159E+03  0.12509586366E+03 0.  0.
         24    2    1    2    0    0 -0.11153313693E+03  0.10209630288E+02  0.24801026709E+04  0.24837815334E+04  0.75614614448E+02 0.  0.
        -11    1    5    5    0    0 -0.55761075329E+01 -0.20237117601E+02  0.66703081099E+03  0.66736102427E+03  0.00000000000E+00 0.  1.
         12    1    5    5    0    0 -0.10595702940E+03  0.30446747889E+02  0.18130718600E+04  0.18164205091E+04  0.00000000000E+00 0. -1.
         11    1    3    3    0    0 -0.12181183346E+02 -0.74513847400E+02 -0.72967761176E+03  0.73357352174E+03  0.00000000000E+00 0. -1.
        -12    1    3    3    0    0  0.55507442668E+01  0.14624000275E+02 -0.46632296026E+02  0.49185802612E+02  0.00000000000E+00 0.  1.
          5    1    4    4  501    0  0.12040662059E+02  0.58535380075E+02 -0.32569972251E+02  0.68188296326E+02  0.41800000000E+01 0.  1.
         -5    1    4    4    0  501  0.10612291395E+03 -0.88551632379E+01  0.30777347103E+02  0.11092882527E+03  0.41800000000E+01 0.  1.
</event>
<event>
11    1  0.8551154E-009  0.2055824E+03  0.7561462E-02  0.1050645E+00
         22   -1    0    0    0    0  0.00000000000E+00  0.00000000000E+00  0.90552282800E+03  0.90552282800E+03  0.00000000000E+00 0.  1.
         22   -1    0    0    0    0 -0.00000000000E+00 -0.00000000000E+00 -0.99835352497E+03  0.99835352497E+03  0.00000000000E+00 0. -1.
        -24    2    1    2    0    0 -0.15460079868E+03 -0.66056160723E+02 -0.88250900285E+03  0.90205743055E+03  0.81367343395E+02 0.  0.
         25    2    1    2    0    0  0.10805047050E+03  0.63915637691E+02 -0.27553579798E+02  0.17934543497E+03  0.12508186267E+03 0.  0.
         24    2    1    2    0    0  0.46550328177E+02  0.21405230327E+01  0.81723188568E+03  0.82247348746E+03  0.80144667321E+02 0.  0.
        -11    1    5    5    0    0  0.10047985520E+02 -0.60565528413E+01  0.68367825296E+03  0.68377890975E+03  0.00000000000E+00 0.  1.
         12    1    5    5    0    0  0.36502342657E+02  0.81970758741E+01  0.13355363272E+03  0.13869457771E+03  0.00000000000E+00 0. -1.
         11    1    3    3    0    0 -0.11270641777E+03 -0.52086012154E+01 -0.54569526256E+03  0.55723710009E+03  0.00000000000E+00 0. -1.
        -12    1    3    3    0    0 -0.41894380906E+02 -0.60847559508E+02 -0.33681374029E+03  0.34482033046E+03  0.00000000000E+00 0.  1.
          5    1    4    4  501    0  0.13173413318E+03  0.36234642703E+02 -0.36742246722E+02  0.14154255993E+03  0.41800000000E+01 0.  1.
         -5    1    4    4    0  501 -0.23683662684E+02  0.27680994988E+02  0.91886669237E+01  0.37802875043E+02  0.41800000000E+01 0.  1.
</event>
<event>
11    1  0.8551154E-009  0.1290605E+03  0.7561462E-02  0.1120429E+00
         22   -1    0    0    0    0  0.00000000000E+00  0.00000000000E+00  0.51247944396E+03  0.51247944396E+03  0.00000000000E+00 0.  1.
         22   -1    0    0    0    0 -0.00000000000E+00 -0.00000000000E+00 -0.23472478705E+03  0.23472478705E+03  0.00000000000E+00 0.  1.
        -24    2    1    2    0    0  0.22427861628E+02  0.23193380811E+02 -0.20403104118E+03  0.22145883554E+03  0.79839890930E+02 0.  0.
         25    2    1    2    0    0 -0.52885185286E+01 -0.16310276986E+02  0.26355518566E+03  0.29223922088E+03  0.12509369597E+03 0.  0.
         24    2    1    2    0    0 -0.17139343099E+02 -0.68831038250E+01  0.21823051243E+03  0.23350617458E+03  0.80990387167E+02 0.  0.
        -13    1    5    5    0    0 -0.54990114247E+01  0.77503738188E+01  0.21415866737E+03  0.21436940600E+03  0.00000000000E+00 0.  1.
         14    1    5    5    0    0 -0.11640331675E+02 -0.14633477644E+02  0.40718450584E+01  0.19136768579E+02  0.00000000000E+00 0. -1.
         11    1    3    3    0    0  0.27878393083E+02  0.50796126693E+02 -0.13443148678E+03  0.14638741724E+03  0.00000000000E+00 0. -1.
        -12    1    3    3    0    0 -0.54505314550E+01 -0.27602745882E+02 -0.69599554396E+02  0.75071418299E+02  0.00000000000E+00 0.  1.
          5    1    4    4  501    0  0.18449261611E+02  0.26979946425E+01 -0.66980781625E+01  0.20248236470E+02  0.41800000000E+01 0. -1.
         -5    1    4    4    0  501 -0.23737780139E+02 -0.19008271628E+02  0.27025326382E+03  0.27199098441E+03  0.41800000000E+01 0. -1.
</event>
<event>
11    1  0.8551154E-009  0.1477211E+03  0.7561462E-02  0.1099230E+00
         22   -1    0    0    0    0  0.00000000000E+00  0.00000000000E+00  0.35342585927E+04  0.35342585927E+04  0.00000000000E+00 0.  1.
         22   -1    0    0    0    0 -0.00000000000E+00 -0.00000000000E+00 -0.15169117075E+03  0.15169117075E+03  0.00000000000E+00 0. -1.
        -24    2    1    2    0    0  0.76737357242E+02 -0.39083386425E+01 -0.11176737098E+03  0.15758016627E+03  0.80222605790E+02 0.  0.
         25    2    1    2    0    0 -0.11207432780E+03 -0.10935383197E+02  0.41605508484E+03  0.44880839844E+03  0.12508759862E+03 0.  0.
         24    2    1    2    0    0  0.35336970555E+02  0.14843721840E+02  0.30782797081E+04  0.30795611987E+04  0.80138492381E+02 0.  0.
        -13    1    5    5    0    0  0.27114503431E+01  0.44124397417E+02  0.17499587370E+04  0.17505170366E+04  0.00000000000E+00 0.  1.
         14    1    5    5    0    0  0.32625520212E+02 -0.29280675577E+02  0.13283209711E+04  0.13290441621E+04  0.00000000000E+00 0. -1.
         11    1    3    3    0    0  0.42378056681E+02 -0.17708106761E+02 -0.11145982651E+03  0.12055193760E+03  0.00000000000E+00 0. -1.
        -12    1    3    3    0    0  0.34359300561E+02  0.13799768118E+02 -0.30754446790E+00  0.37028228674E+02  0.00000000000E+00 0.  1.
          5    1    4    4  501    0 -0.10946515899E+02  0.12428222537E+02  0.26462081817E+03  0.26517152324E+03  0.41800000000E+01 0. -1.
         -5    1    4    4    0  501 -0.10112781190E+03 -0.23363605734E+02  0.15143426667E+03  0.18363687520E+03  0.41800000000E+01 0. -1.
</event>
<event>
11    1  0.8551154E-009  0.1554270E+03  0.7561462E-02  0.1091459E+00
         22   -1    0    0    0    0  0.00000000000E+00  0.00000000000E+00  0.70108444785E+03  0.70108444785E+03  0.00000000000E+00 0. -1.
         22   -1    0    0    0    0 -0.00000000000E+00 -0.00000000000E+00 -0.68797884744E+03  0.68797884744E+03  0.00000000000E+00 0.  1.
        -24    2    1    2    0    0  0.74160162284E+02 -0.55733841819E+02 -0.62794547448E+03  0.63967287839E+03  0.79119413720E+02 0.  0.
         25    2    1    2    0    0 -0.74404338315E+02  0.38189313771E+02  0.59349616761E+02  0.16175375936E+03  0.12508985735E+03 0.  0.
         24    2    1    2    0    0  0.24417603106E+00  0.17544528048E+02  0.58170145813E+03  0.58763665754E+03  0.81439454811E+02 0.  0.
        -11    1    5    5    0    0  0.38508930922E+01  0.40415133192E+02  0.15251008143E+03  0.15782121944E+03  0.00000000000E+00 0.  1.
         12    1    5    5    0    0 -0.36067170611E+01 -0.22870605143E+02  0.42919137670E+03  0.42981543809E+03  0.00000000000E+00 0. -1.
         11    1    3    3    0    0  0.44858554802E+02 -0.71650957159E+02 -0.51556869443E+03  0.52245308715E+03  0.00000000000E+00 0. -1.
        -12    1    3    3    0    0  0.29301607482E+02  0.15917115340E+02 -0.11237678005E+03  0.11721979123E+03  0.00000000000E+00 0.  1.
          5    1    4    4  501    0 -0.37751115279E+02  0.46837721680E+02  0.93158296219E+02  0.11097233633E+03  0.41800000000E+01 0. -1.
         -5    1    4    4    0  501 -0.36653223036E+02 -0.86484079092E+01 -0.33808679457E+02  0.50781423030E+02  0.41800000000E+01 0. -1.
</event>
<event>
11    1  0.8551154E-009  0.1946275E+03  0.7561462E-02  0.1058389E+00
         22   -1    0    0    0    0  0.00000000000E+00  0.00000000000E+00  0.13083821935E+04  0.13083821935E+04  0.00000000000E+00 0.  1.
         22   -1    0    0    0    0 -0.00000000000E+00 -0.00000000000E+00 -0.31981326276E+03  0.31981326276E+03  0.00000000000E+00 0.  1.
         24    2    1    2    0    0  0.39515193358E+02 -0.76695016840E+02 -0.27276789960E+03  0.29719584186E+03  0.80495125659E+02 0.  0.
         25    2    1    2    0    0 -0.15983843063E+03  0.13362814394E+03  0.52099765954E+03  0.57488339331E+03  0.12509016707E+03 0.  0.
        -24    2    1    2    0    0  0.12032323727E+03 -0.56933127103E+02  0.74033917078E+03  0.75611622108E+03  0.76750176570E+02 0.  0.
        -11    1    3    3    0    0  0.17135759488E+02 -0.86244923813E+02 -0.16778063696E+03  0.18942587805E+03  0.00000000000E+00 0.  1.
         12    1    3    3    0    0  0.22379433870E+02  0.95499069731E+01 -0.10498726264E+03  0.10776996381E+03  0.00000000000E+00 0. -1.
         13    1    5    5    0    0 -0.23841436848E+01  0.23724427162E+00 -0.94292159179E+00  0.25747868033E+01  0.00000000000E+00 0. -1.
        -14    1    5    5    0    0  0.12270738095E+03 -0.57170371374E+02  0.74128209237E+03  0.75354143428E+03  0.00000000000E+00 0.  1.
          5    1    4    4  501    0 -0.99104833063E+02  0.37664140452E+02  0.13053020433E+03  0.16821403644E+03  0.41800000000E+01 0. -1.
         -5    1    4    4    0  501 -0.60733597564E+02  0.95964003491E+02  0.39046745522E+03  0.40666935688E+03  0.41800000000E+01 0. -1.
</event>
<event>
11    1  0.8551154E-009  0.2308855E+03  0.7561462E-02  0.1034605E+00
         22   -1    0    0    0    0  0.00000000000E+00  0.00000000000E+00  0.72802583141E+03  0.72802583141E+03  0.00000000000E+00 0. -1.
         22   -1    0    0    0    0 -0.00000000000E+00 -0.00000000000E+00 -0.33536995637E+03  0.33536995637E+03  0.00000000000E+00 0. -1.
        -24    2    1    2    0    0 -0.18741001071E+03 -0.42857776538E+02 -0.25121296550E+03  0.32647593536E+03  0.80742065926E+02 0.  0.
         25    2    1    2    0    0  0.21748832821E+03  0.44886060234E+01  0.36272338083E+03  0.44106379640E+03  0.12509077104E+03 0.  0.
         24    2    1    2    0    0 -0.30078317496E+02  0.38369170515E+02  0.28114545971E+03  0.29585605602E+03  0.78173767581E+02 0.  0.
        -13    1    5    5    0    0  0.20516712716E+02 -0.39764242113E+01  0.32767574656E+02  0.38864654881E+02  0.00000000000E+00 0.  1.
         14    1    5    5    0    0 -0.50595030212E+02  0.42345594726E+02  0.24837788505E+03  0.25699140114E+03  0.00000000000E+00 0. -1.
         13    1    3    3    0    0 -0.18189794877E+03 -0.27939616263E+02 -0.19530384787E+03  0.26834880084E+03  0.00000000000E+00 0. -1.
        -14    1    3    3    0    0 -0.55120619468E+01 -0.14918160275E+02 -0.55909117631E+02  0.58127134517E+02  0.00000000000E+00 0.  1.
          5    1    4    4  501    0  0.11610757660E+03  0.64648649091E+02  0.19477936217E+03  0.23583233345E+03  0.41800000000E+01 0. -1.
         -5    1    4    4    0  501  0.10138075161E+03 -0.60160043068E+02  0.16794401866E+03  0.20523146295E+03  0.41800000000E+01 0. -1.
</event>
<event>
11    1  0.8551154E-009  0.1680078E+03  0.7561462E-02  0.1079778E+00
         22   -1    0    0    0    0  0.00000000000E+00  0.00000000000E+00  0.74307839556E+03  0.74307839556E+03  0.00000000000E+00 0.  1.
         22   -1    0    0    0    0 -0.00000000000E+00 -0.00000000000E+00 -0.15008259889E+04  0.15008259889E+04  0.00000000000E+00 0. -1.
        -24    2    1    2    0    0 -0.24905509605E+02 -0.10862132332E+03 -0.14299799445E+04  0.14365042235E+04  0.79264532174E+02 0.  0.
         25    2    1    2    0    0  0.10779744124E+03  0.13026079092E+03  0.11855557711E+03  0.24143700576E+03  0.12509292904E+03 0.  0.
         24    2    1    2    0    0 -0.82891931638E+02 -0.21639467601E+02  0.55367677406E+03  0.56596315524E+03  0.80106080101E+02 0.  0.
        -11    1    5    5    0    0 -0.48499230804E+02 -0.41169595652E+02  0.45854925769E+03  0.46294117631E+03  0.00000000000E+00 0.  1.
         12    1    5    5    0    0 -0.34392700834E+02  0.19530128051E+02  0.95127516367E+02  0.10302197893E+03  0.00000000000E+00 0. -1.
         11    1    3    3    0    0  0.22774903300E+01 -0.34678445535E+02 -0.90296042167E+03  0.90362896404E+03  0.00000000000E+00 0. -1.
        -12    1    3    3    0    0 -0.27182999935E+02 -0.73942877786E+02 -0.52701952284E+03  0.53287525943E+03  0.00000000000E+00 0.  1.
          5    1    4    4  501    0  0.69429272941E+02  0.10598161740E+02  0.86841679482E+02  0.11176625013E+03  0.41800000000E+01 0. -1.
         -5    1    4    4    0  501  0.38368168302E+02  0.11966262918E+03  0.31713897623E+02  0.12967075562E+03  0.41800000000E+01 0. -1.
</event>
<event>
11    1  0.8551154E-009  0.1348107E+03  0.7561462E-02  0.1113496E+00
         22   -1    0    0    0    0  0.00000000000E+00  0.00000000000E+00  0.12526457928E+04  0.12526457928E+04  0.00000000000E+00 0.  1.
         22   -1    0    0    0    0 -0.00000000000E+00 -0.00000000000E+00 -0.51861955800E+03  0.51861955800E+03  0.00000000000E+00 0.  1.
        -24    2    1    2    0    0 -0.55415499180E+02  0.38565301249E+01 -0.41918057700E+03  0.42975682786E+03  0.76764735318E+02 0.  0.
         25    2    1    2    0    0  0.60509756725E+02 -0.53584178234E+02 -0.31813947478E+02  0.15230686424E+03  0.12511018673E+03 0.  0.
         24    2    1    2    0    0 -0.50942575443E+01  0.49727648109E+02  0.11850207593E+04  0.11892016587E+04  0.86183494274E+02 0.  0.
        -11    1    5    5    0    0  0.30672681724E+02  0.51886039420E+02  0.88470087455E+03  0.88675171944E+03  0.00000000000E+00 0.  1.
         12    1    5    5    0    0 -0.35766939269E+02 -0.21583913105E+01  0.30031988473E+03  0.30244993926E+03  0.00000000000E+00 0. -1.
         11    1    3    3    0    0 -0.76624838477E+01  0.85192948067E+01 -0.45008017235E+01  0.12310534467E+02  0.00000000000E+00 0. -1.
        -12    1    3    3    0    0 -0.47753015333E+02 -0.46627646818E+01 -0.41467977528E+03  0.41744629340E+03  0.00000000000E+00 0.  1.
          5    1    4    4  501    0  0.58419767860E+02 -0.55540923223E+02 -0.74187891728E+02  0.10963110466E+03  0.41800000000E+01 0. -1.
         -5    1    4    4    0  501  0.20899888646E+01  0.19567449886E+01  0.42373944250E+02  0.42675759580E+02  0.41800000000E+01 0. -1.
</event>
<event>
11    1  0.8551154E-009  0.1338026E+03  0.7561462E-02  0.1114683E+00
         22   -1    0    0    0    0  0.00000000000E+00  0.00000000000E+00  0.41051143062E+02  0.41051143062E+02  0.00000000000E+00 0.  1.
         22   -1    0    0    0    0 -0.00000000000E+00 -0.00000000000E+00 -0.14628137757E+04  0.14628137757E+04  0.00000000000E+00 0.  1.
        -24    2    1    2    0    0  0.12455265251E+02 -0.13652623853E+02 -0.84208084122E+03  0.84610565067E+03  0.80331196776E+02 0.  0.
         25    2    1    2    0    0 -0.51352138961E+01 -0.34954473211E+02 -0.54325799327E+03  0.55859255164E+03  0.12509278904E+03 0.  0.
         24    2    1    2    0    0 -0.73200513551E+01  0.48607097064E+02 -0.36423798144E+02  0.99166716453E+02  0.78045573507E+02 0.  0.
        -13    1    5    5    0    0 -0.16765439833E+02  0.16901848822E+02  0.21748701404E+02  0.32245286154E+02  0.00000000000E+00 0.  1.
         14    1    5    5    0    0  0.94453884777E+01  0.31705248243E+02 -0.58172499549E+02  0.66921430300E+02  0.00000000000E+00 0. -1.
         13    1    3    3    0    0  0.20759848035E+02  0.64183918085E+00 -0.54077478200E+02  0.57928895177E+02  0.00000000000E+00 0. -1.
        -14    1    3    3    0    0 -0.83045827837E+01 -0.14294463034E+02 -0.78800336302E+03  0.78817675549E+03  0.00000000000E+00 0.  1.
          5    1    4    4  501    0 -0.10459892267E+02 -0.54256541383E+02 -0.95835502992E+02  0.11070274460E+03  0.41800000000E+01 0. -1.
         -5    1    4    4    0  501  0.53246783713E+01  0.19302068171E+02 -0.44742249028E+03  0.44788980704E+03  0.41800000000E+01 0. -1.
</event>
<event>
11    1  0.8551154E-009  0.4341053E+03  0.7561462E-02  0.9554164E-01
         22   -1    0    0    0    0  0.00000000000E+00  0.00000000000E+00  0.10705525044E+04  0.10705525044E+04  0.00000000000E+00 0. -1.
         22   -1    0    0    0    0 -0.00000000000E+00 -0.00000000000E+00 -0.60037676087E+03  0.60037676087E+03  0.00000000000E+00 0. -1.
        -24    2    1    2    0    0  0.45309109178E+02  0.86290256047E+02 -0.27422157627E+03  0.30164555519E+03  0.79332492807E+02 0.  0.
         25    2    1    2    0    0  0.33514558835E+03 -0.25560041166E+03 -0.74557247461E+02  0.44593911772E+03  0.12509507478E+03 0.  0.
         24    2    1    2    0    0 -0.38045469752E+03  0.16931015561E+03  0.81895456723E+03  0.92334459233E+03  0.92016016752E+02 0.  0.
        -13    1    5    5    0    0 -0.20541989051E+03  0.42650161406E+02  0.37867536814E+03  0.43291038578E+03  0.00000000000E+00 0.  1.
         14    1    5    5    0    0 -0.17503480702E+03  0.12665999421E+03  0.44027919909E+03  0.49043420655E+03  0.00000000000E+00 0. -1.
         13    1    3    3    0    0  0.10782256117E+02  0.42875674241E+02 -0.21884167272E+03  0.22326275598E+03  0.00000000000E+00 0. -1.
        -14    1    3    3    0    0  0.34526853061E+02  0.43414581806E+02 -0.55379903542E+02  0.78382799210E+02  0.00000000000E+00 0.  1.
          5    1    4    4  501    0  0.22015483306E+03 -0.22311492269E+03 -0.18866872025E+02  0.31404116053E+03  0.41800000000E+01 0.  1.
         -5    1    4    4    0  501  0.11499075528E+03 -0.32485488973E+02 -0.55690375436E+02  0.13189795719E+03  0.41800000000E+01 0.  1.
</event>
<event>
11    1  0.8551154E-009  0.1295635E+03  0.7561462E-02  0.1119806E+00
         22   -1    0    0    0    0  0.00000000000E+00  0.00000000000E+00  0.15651392192E+04  0.15651392192E+04  0.00000000000E+00 0. -1.
         22   -1    0    0    0    0 -0.00000000000E+00 -0.00000000000E+00 -0.10217176182E+03  0.10217176182E+03  0.00000000000E+00 0.  1.
        -24    2    1    2    0    0 -0.22544222287E+02  0.25857675249E+02 -0.70885503472E+02  0.11236264630E+03  0.80148289769E+02 0.  0.
         25    2    1    2    0    0 -0.53470888393E+01 -0.31879318213E+02  0.46398863320E+03  0.48164145391E+03  0.12509259013E+03 0.  0.
         24    2    1    2    0    0  0.27891311126E+02  0.60216429634E+01  0.10698643277E+04  0.10733068808E+04  0.81017253614E+02 0.  0.
        -11    1    5    5    0    0  0.17851540058E+02 -0.24335360318E+02  0.15653151853E+03  0.15941456501E+03  0.00000000000E+00 0.  1.
         12    1    5    5    0    0  0.10039771068E+02  0.30357003281E+02  0.91333280912E+03  0.91389231579E+03  0.00000000000E+00 0. -1.
         11    1    3    3    0    0 -0.39074685567E+02 -0.13890661549E+02 -0.21044350671E+02  0.46504260296E+02  0.00000000000E+00 0. -1.
        -12    1    3    3    0    0  0.16530463280E+02  0.39748336798E+02 -0.49841152800E+02  0.65858386003E+02  0.00000000000E+00 0.  1.
          5    1    4    4  501    0 -0.36501744399E+02  0.28197978804E+02  0.86565102128E+02  0.98175825228E+02  0.41800000000E+01 0.  1.
         -5    1    4    4    0  501  0.31154655560E+02 -0.60077297017E+02  0.37742353107E+03  0.38346562869E+03  0.41800000000E+01 0.  1.
</event>
<event>
11    1  0.8551154E-009  0.2482955E+03  0.7561462E-02  0.1024811E+00
         22   -1    0    0    0    0  0.00000000000E+00  0.00000000000E+00  0.50633986685E+03  0.50633986685E+03  0.00000000000E+00 0.  1.
         22   -1    0    0    0    0 -0.00000000000E+00 -0.00000000000E+00 -0.15830047400E+03  0.15830047400E+03  0.00000000000E+00 0. -1.
        -24    2    1    2    0    0  0.16648799414E+03  0.13174956977E+03  0.96187417621E+02  0.24620448640E+03  0.79299612168E+02 0.  0.
         25    2    1    2    0    0 -0.15693318141E+03 -0.15170672066E+03  0.18616049429E+03  0.31296477682E+03  0.12509304288E+03 0.  0.
         24    2    1    2    0    0 -0.95548127287E+01  0.19957150897E+02  0.65691480942E+02  0.10547107762E+03  0.79493365935E+02 0.  0.
        -11    1    5    5    0    0  0.12988695752E+02 -0.21711722198E+02  0.10431811020E+01  0.25321795453E+02  0.00000000000E+00 0.  1.
         12    1    5    5    0    0 -0.22543508481E+02  0.41668873095E+02  0.64648299840E+02  0.80149282166E+02  0.00000000000E+00 0. -1.
         11    1    3    3    0    0  0.55068458566E+02  0.49821277973E+02 -0.56212041176E+01  0.74473436898E+02  0.00000000000E+00 0. -1.
        -12    1    3    3    0    0  0.11141953557E+03  0.81928291795E+02  0.10180862174E+03  0.17173104950E+03  0.00000000000E+00 0.  1.
          5    1    4    4  501    0 -0.43717918958E+02 -0.95782957898E+02  0.25203209940E+02  0.10834346152E+03  0.41800000000E+01 0.  1.
         -5    1    4    4    0  501 -0.11321526245E+03 -0.55923762766E+02  0.16095728435E+03  0.20462131531E+03  0.41800000000E+01 0.  1.
</event>
<event>
11    1  0.8551154E-009  0.1386624E+03  0.7561462E-02  0.1109061E+00
         22   -1    0    0    0    0  0.00000000000E+00  0.00000000000E+00  0.31473301157E+02  0.31473301157E+02  0.00000000000E+00 0.  1.
         22   -1    0    0    0    0 -0.00000000000E+00 -0.00000000000E+00 -0.34711055692E+04  0.34711055692E+04  0.00000000000E+00 0.  1.
         24    2    1    2    0    0  0.19169105722E+02 -0.17908319028E+02 -0.25610468435E+04  0.25624464122E+04  0.80514087290E+02 0.  0.
         25    2    1    2    0    0 -0.34489072892E+01  0.74086930151E+02 -0.79579067654E+03  0.80896992612E+03  0.12509505310E+03 0.  0.
        -24    2    1    2    0    0 -0.15720198433E+02 -0.56178611123E+02 -0.82794747926E+02  0.13116253197E+03  0.83339537571E+02 0.  0.
        -13    1    3    3    0    0  0.58251911855E+00  0.10427672441E+02 -0.21438732672E+04  0.21438987060E+04  0.00000000000E+00 0.  1.
         14    1    3    3    0    0  0.18586586603E+02 -0.28335991469E+02 -0.41717357630E+03  0.41854770622E+03  0.00000000000E+00 0. -1.
         11    1    5    5    0    0  0.28156078550E+02 -0.12907301878E+02 -0.55937146528E+02  0.63940030988E+02  0.00000000000E+00 0. -1.
        -12    1    5    5    0    0 -0.43876276983E+02 -0.43271309244E+02 -0.26857601398E+02  0.67222500983E+02  0.00000000000E+00 0.  1.
          5    1    4    4  501    0  0.24094860950E+02 -0.27182200490E+02 -0.13410759596E+03  0.13900271236E+03  0.41800000000E+01 0.  1.
         -5    1    4    4    0  501 -0.27543768239E+02  0.10126913064E+03 -0.66168308058E+03  0.66996721376E+03  0.41800000000E+01 0.  1.
</event>
<event>
11    1  0.8551154E-009  0.1742039E+03  0.7561462E-02  0.1074430E+00
         22   -1    0    0    0    0  0.00000000000E+00  0.00000000000E+00  0.57375842878E+03  0.57375842878E+03  0.00000000000E+00 0.  1.
         22   -1    0    0    0    0 -0.00000000000E+00 -0.00000000000E+00 -0.10506927140E+04  0.10506927140E+04  0.00000000000E+00 0.  1.
        -24    2    1    2    0    0  0.11229662399E+03  0.40631549416E+02 -0.93461460740E+03  0.94563621707E+03  0.80386168565E+02 0.  0.
         25    2    1    2    0    0 -0.13495852380E+03 -0.69225312624E+02 -0.15718286368E+02  0.19725582440E+03  0.12512732986E+03 0.  0.
         24    2    1    2    0    0  0.22661899818E+02  0.28593763207E+02  0.47339860855E+03  0.48155910131E+03  0.80385076202E+02 0.  0.
        -11    1    5    5    0    0  0.76804139116E+01  0.29703299901E+02  0.46116791342E+03  0.46218732041E+03  0.00000000000E+00 0.  1.
         12    1    5    5    0    0  0.14981485906E+02 -0.11095366932E+01  0.12230695133E+02  0.19371780895E+02  0.00000000000E+00 0. -1.
         13    1    3    3    0    0 -0.11955267922E+02 -0.22377321767E+01 -0.99619534781E+02  0.10035929248E+03  0.00000000000E+00 0. -1.
        -14    1    3    3    0    0  0.12425189191E+03  0.42869281593E+02 -0.83499507262E+03  0.84527692459E+03  0.00000000000E+00 0.  1.
          5    1    4    4  501    0  0.14270549130E+02 -0.29735803949E+02 -0.26416140618E+02  0.42463531343E+02  0.41800000000E+01 0.  1.
         -5    1    4    4    0  501 -0.14922907294E+03 -0.39489508675E+02  0.10697854250E+02  0.15479229306E+03  0.41800000000E+01 0.  1.
</event>
<event>
11    1  0.8551154E-009  0.2399400E+03  0.7561462E-02  0.1029399E+00
         22   -1    0    0    0    0  0.00000000000E+00  0.00000000000E+00  0.15861689227E+04  0.15861689227E+04  0.00000000000E+00 0.  1.
         22   -1    0    0    0    0 -0.00000000000E+00 -0.00000000000E+00 -0.63611980402E+02  0.63611980402E+02  0.00000000000E+00 0. -1.
         24    2    1    2    0    0  0.95264164962E+02 -0.12934870516E+02  0.13898507861E+03  0.18850599753E+03  0.83516986460E+02 0.  0.
         25    2    1    2    0    0 -0.36770494696E+01 -0.19200576495E+03  0.60119906495E+03  0.64340310390E+03  0.12508998343E+03 0.  0.
        -24    2    1    2    0    0 -0.91587115493E+02  0.20494063546E+03  0.78237279877E+03  0.81787180170E+03  0.80113818832E+02 0.  0.
        -13    1    3    3    0    0  0.37196669167E+02  0.33844419329E+02  0.38287333943E+02  0.63205671085E+02  0.00000000000E+00 0.  1.
         14    1    3    3    0    0  0.58067495795E+02 -0.46779289845E+02  0.10069774466E+03  0.12530032644E+03  0.00000000000E+00 0. -1.
         13    1    5    5    0    0 -0.28953369695E+02  0.15356759710E+03  0.47758152224E+03  0.50249916904E+03  0.00000000000E+00 0. -1.
        -14    1    5    5    0    0 -0.62633745798E+02  0.51373038361E+02  0.30479127653E+03  0.31537263266E+03  0.00000000000E+00 0.  1.
          5    1    4    4  501    0 -0.31629995970E+02 -0.67338388062E+02  0.38578684729E+03  0.39291714024E+03  0.41800000000E+01 0. -1.
         -5    1    4    4    0  501  0.27952946501E+02 -0.12466737688E+03  0.21541221766E+03  0.25048596366E+03  0.41800000000E+01 0. -1.
</event>
<event>
11    1  0.8551154E-009  0.1552426E+03  0.7561462E-02  0.1091639E+00
         22   -1    0    0    0    0  0.00000000000E+00  0.00000000000E+00  0.43235006505E+03  0.43235006505E+03  0.00000000000E+00 0.  1.
         22   -1    0    0    0    0 -0.00000000000E+00 -0.00000000000E+00 -0.29602373701E+04  0.29602373701E+04  0.00000000000E+00 0.  1.
         24    2    1    2    0    0 -0.24113438145E+02 -0.22548410862E+02 -0.25979488774E+04  0.25994607720E+04  0.82268141209E+02 0.  0.
         25    2    1    2    0    0 -0.92715072619E+01  0.10788144875E+03 -0.33307683106E+03  0.37190302030E+03  0.12508922133E+03 0.  0.
        -24    2    1    2    0    0  0.33384945407E+02 -0.85333037884E+02  0.40313840337E+03  0.42122364284E+03  0.80700081062E+02 0.  0.
        -11    1    3    3    0    0  0.93171132162E+01 -0.30310519068E+01 -0.20954899736E+04  0.20955128788E+04  0.00000000000E+00 0.  1.
         12    1    3    3    0    0 -0.33430551361E+02 -0.19517358955E+02 -0.50245890376E+03  0.50394789317E+03  0.00000000000E+00 0. -1.
         13    1    5    5    0    0 -0.54533448985E+01  0.12954557227E+02  0.25980515898E+02  0.29538901974E+02  0.00000000000E+00 0. -1.
        -14    1    5    5    0    0  0.38838290306E+02 -0.98287595110E+02  0.37715788747E+03  0.39168474087E+03  0.00000000000E+00 0.  1.
          5    1    4    4  501    0  0.48189717598E+02  0.85861000991E+02 -0.15731773011E+03  0.18563593666E+03  0.41800000000E+01 0.  1.
         -5    1    4    4    0  501 -0.57461224860E+02  0.22020447754E+02 -0.17575910096E+03  0.18626708365E+03  0.41800000000E+01 0.  1.
</event>
<event>
11    1  0.8551154E-009  0.1656221E+03  0.7561462E-02  0.1081906E+00
         22   -1    0    0    0    0  0.00000000000E+00  0.00000000000E+00  0.91747848351E+03  0.91747848351E+03  0.00000000000E+00 0. -1.
         22   -1    0    0    0    0 -0.00000000000E+00 -0.00000000000E+00 -0.42452539548E+02  0.42452539548E+02  0.00000000000E+00 0. -1.
        -24    2    1    2    0    0  0.11672507942E+03 -0.30042773343E+01  0.18574000380E+03  0.23304218301E+03  0.78584605380E+02 0.  0.
         25    2    1    2    0    0 -0.93027272341E+02 -0.13174741230E+02  0.37984356845E+03  0.41079955608E+03  0.12508993398E+03 0.  0.
         24    2    1    2    0    0 -0.23697807077E+02  0.16179018564E+02  0.30944237171E+03  0.31608928396E+03  0.57745193066E+02 0.  0.
        -13    1    5    5    0    0 -0.21886705218E+02 -0.81926103990E+00  0.36181266462E+02  0.42294007811E+02  0.00000000000E+00 0.  1.
         14    1    5    5    0    0 -0.18111018591E+01  0.16998279604E+02  0.27326110525E+03  0.27379527615E+03  0.00000000000E+00 0. -1.
         11    1    3    3    0    0  0.72700936721E+02  0.35906981360E+02  0.94481635614E+02  0.12450508816E+03  0.00000000000E+00 0. -1.
        -12    1    3    3    0    0  0.44024142697E+02 -0.38911258694E+02  0.91258368190E+02  0.10853709485E+03  0.00000000000E+00 0.  1.
          5    1    4    4  501    0 -0.56499356228E+02 -0.25152594534E+02  0.52648619404E+02  0.81327607804E+02  0.41800000000E+01 0. -1.
         -5    1    4    4    0  501 -0.36527916113E+02  0.11977853303E+02  0.32719494904E+03  0.32947194828E+03  0.41800000000E+01 0. -1.
</event>
<event>
11    1  0.8551154E-009  0.1628367E+03  0.7561462E-02  0.1084439E+00
         22   -1    0    0    0    0  0.00000000000E+00  0.00000000000E+00  0.39848694843E+04  0.39848694843E+04  0.00000000000E+00 0.  1.
         22   -1    0    0    0    0 -0.00000000000E+00 -0.00000000000E+00 -0.50473700249E+03  0.50473700249E+03  0.00000000000E+00 0.  1.
         24    2    1    2    0    0 -0.19861955440E+02  0.74983972682E+02 -0.47885691043E+03  0.49144337888E+03  0.78711883125E+02 0.  0.
         25    2    1    2    0    0 -0.69698742303E+02 -0.14948333991E+02  0.26371305207E+03  0.30045467006E+03  0.12508823911E+03 0.  0.
        -24    2    1    2    0    0  0.89560697743E+02 -0.60035638691E+02  0.36952763401E+04  0.36977084378E+04  0.79718659485E+02 0.  0.
        -11    1    3    3    0    0 -0.31781851360E+02  0.33854835827E+02 -0.39055878484E+03  0.39330954781E+03  0.00000000000E+00 0.  1.
         12    1    3    3    0    0  0.11919895920E+02  0.41129136855E+02 -0.88298125588E+02  0.98133831065E+02  0.00000000000E+00 0. -1.
         13    1    5    5    0    0  0.74717543056E+02 -0.44778008061E+02  0.16325399951E+04  0.16348622623E+04  0.00000000000E+00 0. -1.
        -14    1    5    5    0    0  0.14843154687E+02 -0.15257630630E+02  0.20627363451E+04  0.20628461755E+04  0.00000000000E+00 0.  1.
          5    1    4    4  501    0 -0.18442660467E+02 -0.67620414558E+02  0.13548498614E+03  0.15259851264E+03  0.41800000000E+01 0. -1.
         -5    1    4    4    0  501 -0.51256081836E+02  0.52672080566E+02  0.12822806593E+03  0.14785615743E+03  0.41800000000E+01 0. -1.
</event>
<event>
11    1  0.8551154E-009  0.1846058E+03  0.7561462E-02  0.1065977E+00
         22   -1    0    0    0    0  0.00000000000E+00  0.00000000000E+00  0.82265695951E+03  0.82265695951E+03  0.00000000000E+00 0.  1.
         22   -1    0    0    0    0 -0.00000000000E+00 -0.00000000000E+00 -0.48382991224E+03  0.48382991224E+03  0.00000000000E+00 0.  1.
        -24    2    1    2    0    0  0.14172136191E+02 -0.45139207271E+02 -0.41766112846E+03  0.42386366695E+03  0.54600297255E+02 0.  0.
         25    2    1    2    0    0 -0.12378691412E+03  0.11521492115E+03  0.15394120019E+03  0.26066025733E+03  0.12509275948E+03 0.  0.
         24    2    1    2    0    0  0.10961477793E+03 -0.70075713884E+02  0.60254697554E+03  0.62196294746E+03  0.82758957606E+02 0.  0.
        -11    1    5    5    0    0  0.27431070888E+02 -0.59876325924E+02  0.35127364758E+03  0.35739447889E+03  0.00000000000E+00 0.  1.
         12    1    5    5    0    0  0.82183707042E+02 -0.10199387959E+02  0.25127332796E+03  0.26456846857E+03  0.00000000000E+00 0. -1.
         11    1    3    3    0    0 -0.13604100964E+02 -0.27035493458E+02 -0.10007033391E+03  0.10454693299E+03  0.00000000000E+00 0. -1.
        -12    1    3    3    0    0  0.27776237155E+02 -0.18103713813E+02 -0.31759079455E+03  0.31931673396E+03  0.00000000000E+00 0.  1.
          5    1    4    4  501    0  0.12734761540E+02 -0.67789915964E+01  0.45301543335E+02  0.47726628909E+02  0.41800000000E+01 0.  1.
         -5    1    4    4    0  501 -0.13652167566E+03  0.12199391275E+03  0.10863965685E+03  0.21293362843E+03  0.41800000000E+01 0.  1.
</event>
<event>
11    1  0.8551154E-009  0.3593998E+03  0.7561462E-02  0.9777783E-01
         22   -1    0    0    0    0  0.00000000000E+00  0.00000000000E+00  0.36311733562E+02  0.36311733562E+02  0.00000000000E+00 0. -1.
         22   -1    0    0    0    0 -0.00000000000E+00 -0.00000000000E+00 -0.28298309615E+04  0.28298309615E+04  0.00000000000E+00 0. -1.
         24    2    1    2    0    0  0.14497040720E+03 -0.53800989575E+02 -0.95240672889E+03  0.96820731015E+03  0.80223766805E+02 0.  0.
         25    2    1    2    0    0  0.11951236076E+03  0.59707205788E+02 -0.79860345341E+03  0.81930628951E+03  0.12508863036E+03 0.  0.
        -24    2    1    2    0    0 -0.26448276796E+03 -0.59062162132E+01 -0.10425090456E+04  0.10786290954E+04  0.81422338753E+02 0.  0.
        -13    1    3    3    0    0  0.14231643065E+03 -0.68984038701E+02 -0.88866564522E+03  0.90262915587E+03  0.00000000000E+00 0.  1.
         14    1    3    3    0    0  0.26539765463E+01  0.15183049126E+02 -0.63741083671E+02  0.65578154288E+02  0.00000000000E+00 0. -1.
         11    1    5    5    0    0 -0.26828068033E+03 -0.77530768774E+01 -0.10390978683E+04  0.10732003604E+04  0.00000000000E+00 0. -1.
        -12    1    5    5    0    0  0.37979123733E+01  0.18468606642E+01 -0.34111773004E+01  0.54287349616E+01  0.00000000000E+00 0.  1.
          5    1    4    4  501    0  0.22304059495E+02  0.18288313729E+02 -0.24676216439E+02  0.38187976468E+02  0.41800000000E+01 0.  1.
         -5    1    4    4    0  501  0.97208301266E+02  0.41418892059E+02 -0.77392723697E+03  0.78111831305E+03  0.41800000000E+01 0.  1.
</event>
<event>
11    1  0.8551154E-009  0.3198130E+03  0.7561462E-02  0.9921379E-01
         22   -1    0    0    0    0  0.00000000000E+00  0.00000000000E+00  0.92266133042E+03  0.92266133042E+03  0.00000000000E+00 0. -1.
         22   -1    0    0    0    0 -0.00000000000E+00 -0.00000000000E+00 -0.50894263111E+03  0.50894263111E+03  0.00000000000E+00 0.  1.
        -24    2    1    2    0    0  0.91125974035E+01 -0.72383024475E+02 -0.69206422351E+02  0.13232248021E+03  0.86007954353E+02 0.  0.
         25    2    1    2    0    0 -0.18360577755E+03 -0.16925007999E+03 -0.32821278616E+03  0.43096122373E+03  0.12508905721E+03 0.  0.
         24    2    1    2    0    0  0.17449318015E+03  0.24163310446E+03  0.81113790782E+03  0.86832025759E+03  0.84858335756E+02 0.  0.
        -13    1    5    5    0    0  0.93657974548E+02  0.95345442248E+02  0.25915602432E+03  0.29158946225E+03  0.00000000000E+00 0.  1.
         14    1    5    5    0    0  0.80835205603E+02  0.14628766222E+03  0.55198188350E+03  0.57673079534E+03  0.00000000000E+00 0. -1.
         13    1    3    3    0    0  0.74572080222E+01 -0.51510278334E+02 -0.89262626276E+02  0.10332828836E+03  0.00000000000E+00 0. -1.
        -14    1    3    3    0    0  0.16553893813E+01 -0.20872746141E+02  0.20056203925E+02  0.28994191855E+02  0.00000000000E+00 0.  1.
          5    1    4    4  501    0 -0.98655997211E+02 -0.72510438276E+02 -0.66803565388E+02  0.13953837534E+03  0.41800000000E+01 0.  1.
         -5    1    4    4    0  501 -0.84949780343E+02 -0.96739641711E+02 -0.26140922077E+03  0.29142284839E+03  0.41800000000E+01 0.  1.
</event>
<event>
11    1  0.8551154E-009  0.1522844E+03  0.7561462E-02  0.1094567E+00
         22   -1    0    0    0    0  0.00000000000E+00  0.00000000000E+00  0.87330220387E+02  0.87330220387E+02  0.00000000000E+00 0. -1.
         22   -1    0    0    0    0 -0.00000000000E+00 -0.00000000000E+00 -0.96037394393E+03  0.96037394393E+03  0.00000000000E+00 0.  1.
         24    2    1    2    0    0 -0.13714230413E+01 -0.50505841210E+02 -0.37461662186E+03  0.38653477402E+03  0.80739069553E+02 0.  0.
         25    2    1    2    0    0  0.13801526455E+02  0.13209833795E+03 -0.51419060734E+03  0.54560050044E+03  0.12508985723E+03 0.  0.
        -24    2    1    2    0    0 -0.12430103414E+02 -0.81592496737E+02  0.15763505659E+02  0.11556888986E+03  0.79346311813E+02 0.  0.
        -13    1    3    3    0    0  0.16262613524E+02 -0.23284422906E+02 -0.33081563288E+03  0.33203255851E+03  0.00000000000E+00 0.  1.
         14    1    3    3    0    0 -0.17634036565E+02 -0.27221418305E+02 -0.43800988980E+02  0.54502215512E+02  0.00000000000E+00 0. -1.
         11    1    5    5    0    0  0.26426780491E+02 -0.46793095721E+02  0.29936924046E+02  0.61515753719E+02  0.00000000000E+00 0. -1.
        -12    1    5    5    0    0 -0.38856883905E+02 -0.34799401017E+02 -0.14173418387E+02  0.54053136142E+02  0.00000000000E+00 0.  1.
          5    1    4    4  501    0  0.67341397747E+02  0.59094073570E+02 -0.21422662950E+03  0.23224447156E+03  0.41800000000E+01 0.  1.
         -5    1    4    4    0  501 -0.53539871291E+02  0.73004264377E+02 -0.29996397784E+03  0.31335602888E+03  0.41800000000E+01 0.  1.
</event>
<event>
11    1  0.8551154E-009  0.1979662E+03  0.7561462E-02  0.1055971E+00
         22   -1    0    0    0    0  0.00000000000E+00  0.00000000000E+00  0.75146191668E+03  0.75146191668E+03  0.00000000000E+00 0.  1.
         22   -1    0    0    0    0 -0.00000000000E+00 -0.00000000000E+00 -0.52223259799E+03  0.52223259799E+03  0.00000000000E+00 0.  1.
         24    2    1    2    0    0  0.14985949386E+03  0.22332910115E+02 -0.45970938409E+03  0.49060095094E+03  0.79999677961E+02 0.  0.
         25    2    1    2    0    0 -0.18815461227E+03 -0.69879574280E+02  0.30699302141E+03  0.38752813363E+03  0.12509207067E+03 0.  0.
        -24    2    1    2    0    0  0.38295118407E+02  0.47546664166E+02  0.38194568137E+03  0.39556543010E+03  0.82839028264E+02 0.  0.
        -13    1    3    3    0    0  0.10593276189E+03 -0.20518862786E+02 -0.32811132867E+03  0.34539805699E+03  0.00000000000E+00 0.  1.
         14    1    3    3    0    0  0.43926731972E+02  0.42851772900E+02 -0.13159805542E+03  0.14520289395E+03  0.00000000000E+00 0. -1.
         13    1    5    5    0    0  0.94578582341E+01 -0.23064265148E+02  0.66196006776E+02  0.70734169411E+02  0.00000000000E+00 0. -1.
        -14    1    5    5    0    0  0.28837260173E+02  0.70610929313E+02  0.31574967460E+03  0.32483126069E+03  0.00000000000E+00 0.  1.
          5    1    4    4  501    0  0.88224093372E+00 -0.40030183911E+02  0.87316574923E+02  0.96150146278E+02  0.41800000000E+01 0.  1.
         -5    1    4    4    0  501 -0.18903685320E+03 -0.29849390369E+02  0.21967644648E+03  0.29137798735E+03  0.41800000000E+01 0.  1.
</event>
<event>
11    1  0.8551154E-009  0.1466285E+03  0.7561462E-02  0.1100374E+00
         22   -1    0    0    0    0  0.00000000000E+00  0.00000000000E+00  0.39892876333E+03  0.39892876333E+03  0.00000000000E+00 0. -1.
         22   -1    0    0    0    0 -0.00000000000E+00 -0.00000000000E+00 -0.40025054348E+03  0.40025054348E+03  0.00000000000E+00 0. -1.
        -24    2    1    2    0    0  0.75375501268E+02 -0.21867551716E+02 -0.21697450546E+03  0.24415327139E+03  0.79832499016E+02 0.  0.
         25    2    1    2    0    0 -0.76072874909E+02 -0.12550336810E+02 -0.13106990685E+03  0.19690632605E+03  0.12509271564E+03 0.  0.
         24    2    1    2    0    0  0.69737364105E+00  0.34417888526E+02  0.34672263217E+03  0.35811970936E+03  0.82753037386E+02 0.  0.
        -13    1    5    5    0    0  0.74625051427E+01 -0.20585728909E+02  0.33426025234E+02  0.39959484239E+02  0.00000000000E+00 0.  1.
         14    1    5    5    0    0 -0.67651315016E+01  0.55003617434E+02  0.31329660693E+03  0.31816022512E+03  0.00000000000E+00 0. -1.
         11    1    3    3    0    0  0.82175858036E+02  0.35074675804E+01 -0.13510836683E+03  0.15817536079E+03  0.00000000000E+00 0. -1.
        -12    1    3    3    0    0 -0.68003567687E+01 -0.25375019297E+02 -0.81866138637E+02  0.85977910603E+02  0.00000000000E+00 0.  1.
          5    1    4    4  501    0  0.72972430037E+01 -0.86484010009E+01  0.20523248137E+02  0.23805896526E+02  0.41800000000E+01 0. -1.
         -5    1    4    4    0  501 -0.83370117912E+02 -0.39019358086E+01 -0.15159315499E+03  0.17310042953E+03  0.41800000000E+01 0. -1.
</event>
<event>
11    1  0.8551154E-009  0.1687937E+03  0.7561462E-02  0.1079086E+00
         22   -1    0    0    0    0  0.00000000000E+00  0.00000000000E+00  0.35720814104E+03  0.35720814104E+03  0.00000000000E+00 0.  1.
         22   -1    0    0    0    0 -0.00000000000E+00 -0.00000000000E+00 -0.22143413645E+03  0.22143413645E+03  0.00000000000E+00 0. -1.
        -24    2    1    2    0    0  0.45422511419E+00  0.15261695378E+01 -0.11974847184E+03  0.14479903411E+03  0.81391205029E+02 0.  0.
         25    2    1    2    0    0 -0.59255143046E+02 -0.98007916026E+02  0.35563738022E+02  0.17328357979E+03  0.12508275653E+03 0.  0.
         24    2    1    2    0    0  0.58800917932E+02  0.96481746488E+02  0.21995873842E+03  0.26055966360E+03  0.82117089162E+02 0.  0.
        -11    1    5    5    0    0  0.78213784236E+02  0.83862990143E+02  0.16513483444E+03  0.20104703605E+03  0.00000000000E+00 0.  1.
         12    1    5    5    0    0 -0.19412866304E+02  0.12618756345E+02  0.54823903975E+02  0.59512627542E+02  0.00000000000E+00 0. -1.
         11    1    3    3    0    0  0.22561245739E+02 -0.20824203065E+02 -0.10623201443E+03  0.11057982697E+03  0.00000000000E+00 0. -1.
        -12    1    3    3    0    0 -0.22107020625E+02  0.22350372603E+02 -0.13516457416E+02  0.34219207143E+02  0.00000000000E+00 0.  1.
          5    1    4    4  501    0 -0.75097013660E+02 -0.11944427675E+03  0.38043622447E+02  0.14618921409E+03  0.41800000000E+01 0. -1.
         -5    1    4    4    0  501  0.15841870614E+02  0.21436360723E+02 -0.24798844257E+01  0.27094365694E+02  0.41800000000E+01 0. -1.
</event>
<event>
11    1  0.8551154E-009  0.1358852E+03  0.7561462E-02  0.1112242E+00
         22   -1    0    0    0    0  0.00000000000E+00  0.00000000000E+00  0.10289622009E+04  0.10289622009E+04  0.00000000000E+00 0.  1.
         22   -1    0    0    0    0 -0.00000000000E+00 -0.00000000000E+00 -0.95335914213E+02  0.95335914213E+02  0.00000000000E+00 0. -1.
         24    2    1    2    0    0  0.44323353626E+01 -0.18483903015E+02 -0.24532937812E+02  0.79762029887E+02  0.73476636467E+02 0.  0.
         25    2    1    2    0    0 -0.44527085638E+02  0.51795516060E+02  0.84879710917E+02  0.16588378793E+03  0.12508968356E+03 0.  0.
        -24    2    1    2    0    0  0.40094750275E+02 -0.33311613044E+02  0.87327951355E+03  0.87865229726E+03  0.81826023595E+02 0.  0.
        -13    1    3    3    0    0 -0.25994389196E+02 -0.18068198689E+01  0.12597852600E+02  0.28942680558E+02  0.00000000000E+00 0.  1.
         14    1    3    3    0    0  0.30426724559E+02 -0.16677083147E+02 -0.37130790412E+02  0.50819349330E+02  0.00000000000E+00 0. -1.
         13    1    5    5    0    0 -0.44079709692E+01  0.10640653416E+02  0.19968995500E+02  0.23052429253E+02  0.00000000000E+00 0. -1.
        -14    1    5    5    0    0  0.44502721245E+02 -0.43952266460E+02  0.85331051805E+03  0.85559986801E+03  0.00000000000E+00 0.  1.
          5    1    4    4  501    0 -0.88435594804E+01 -0.39161638011E+01 -0.30801843760E+02  0.32554122047E+02  0.41800000000E+01 0. -1.
         -5    1    4    4    0  501 -0.35683526158E+02  0.55711679861E+02  0.11568155468E+03  0.13332966588E+03  0.41800000000E+01 0. -1.
</event>
<event>
11    1  0.8551154E-009  0.1410187E+03  0.7561462E-02  0.1106426E+00
         22   -1    0    0    0    0  0.00000000000E+00  0.00000000000E+00  0.86385312824E+03  0.86385312824E+03  0.00000000000E+00 0. -1.
         22   -1    0    0    0    0 -0.00000000000E+00 -0.00000000000E+00 -0.12247455037E+04  0.12247455037E+04  0.00000000000E+00 0. -1.
        -24    2    1    2    0    0 -0.30969936476E+02 -0.10768332633E+02 -0.11734174713E+04  0.11767802788E+04  0.82632733294E+02 0.  0.
         25    2    1    2    0    0  0.85995881838E+02 -0.20916093248E+02  0.81742970182E+02  0.17366936513E+03  0.12508541307E+03 0.  0.
         24    2    1    2    0    0 -0.55025945362E+02  0.31684425882E+02  0.73078212566E+03  0.73814898802E+03  0.82399367897E+02 0.  0.
        -11    1    5    5    0    0  0.12302478613E+02  0.32039595371E+02  0.17771322417E+03  0.18099689692E+03  0.00000000000E+00 0.  1.
         12    1    5    5    0    0 -0.67328423975E+02 -0.35516948942E+00  0.55306890149E+03  0.55715209110E+03  0.00000000000E+00 0. -1.
         11    1    3    3    0    0 -0.14660604777E+02 -0.46963447521E+02 -0.65316844826E+03  0.65501871771E+03  0.00000000000E+00 0. -1.
        -12    1    3    3    0    0 -0.16309331699E+02  0.36195114888E+02 -0.52024902307E+03  0.52176156110E+03  0.00000000000E+00 0.  1.
          5    1    4    4  501    0  0.11754215695E+03 -0.15910360612E+02  0.51138409770E+02  0.12923586031E+03  0.41800000000E+01 0.  1.
         -5    1    4    4    0  501 -0.31546275116E+02 -0.50057326364E+01  0.30604560412E+02  0.44433504824E+02  0.41800000000E+01 0.  1.
</event>
<event>
11    1  0.8551154E-009  0.1505999E+03  0.7561462E-02  0.1096267E+00
         22   -1    0    0    0    0  0.00000000000E+00  0.00000000000E+00  0.23558917967E+03  0.23558917967E+03  0.00000000000E+00 0. -1.
         22   -1    0    0    0    0 -0.00000000000E+00 -0.00000000000E+00 -0.11838215445E+04  0.11838215445E+04  0.00000000000E+00 0. -1.
        -24    2    1    2    0    0  0.20844465008E+02  0.12803302623E+02 -0.98789681848E+03  0.99141074282E+03  0.79729045670E+02 0.  0.
         25    2    1    2    0    0  0.59188850518E+02 -0.41871047233E+02 -0.14828644208E+03  0.20710157845E+03  0.12508273370E+03 0.  0.
         24    2    1    2    0    0 -0.80033315526E+02  0.29067744610E+02  0.18795089574E+03  0.22089840289E+03  0.78868877370E+02 0.  0.
        -11    1    5    5    0    0 -0.51181926012E+01  0.24297667420E+02  0.82777081612E+01  0.26174281078E+02  0.00000000000E+00 0.  1.
         12    1    5    5    0    0 -0.74915122925E+02  0.47700771901E+01  0.17967318758E+03  0.19472412181E+03  0.00000000000E+00 0. -1.
         13    1    3    3    0    0 -0.20255962802E+02  0.21641600379E+02 -0.68137026635E+03  0.68201473794E+03  0.00000000000E+00 0. -1.
        -14    1    3    3    0    0  0.41100427810E+02 -0.88382977562E+01 -0.30652655213E+03  0.30939600488E+03  0.00000000000E+00 0.  1.
          5    1    4    4  501    0  0.65958018790E+02  0.23029720986E+02 -0.11268619216E+03  0.13265171916E+03  0.41800000000E+01 0. -1.
         -5    1    4    4    0  501 -0.67691682720E+01 -0.64900768219E+02 -0.35600249922E+02  0.74449859295E+02  0.41800000000E+01 0. -1.
</event>
<event>
11    1  0.8551154E-009  0.1585626E+03  0.7561462E-02  0.1088437E+00
         22   -1    0    0    0    0  0.00000000000E+00  0.00000000000E+00  0.78626393268E+03  0.78626393268E+03  0.00000000000E+00 0.  1.
         22   -1    0    0    0    0 -0.00000000000E+00 -0.00000000000E+00 -0.29296981325E+04  0.29296981325E+04  0.00000000000E+00 0. -1.
        -24    2    1    2    0    0 -0.88840675287E+02  0.39059998192E+02 -0.27820108502E+04  0.27848165154E+04  0.78742011662E+02 0.  0.
         25    2    1    2    0    0  0.92350828041E+02 -0.66604087684E+02 -0.94031903214E+02  0.19352990579E+03  0.12508815163E+03 0.  0.
         24    2    1    2    0    0 -0.35101527545E+01  0.27544089491E+02  0.73260855362E+03  0.73761564403E+03  0.81182186748E+02 0.  0.
        -11    1    5    5    0    0  0.12304856266E+02  0.53490521907E+02  0.43120761104E+03  0.43468684043E+03  0.00000000000E+00 0.  1.
         12    1    5    5    0    0 -0.15815009020E+02 -0.25946432415E+02  0.30140094258E+03  0.30292880361E+03  0.00000000000E+00 0. -1.
         11    1    3    3    0    0 -0.38405470104E+02  0.57981353490E+02 -0.17809089067E+04  0.17822663525E+04  0.00000000000E+00 0. -1.
        -12    1    3    3    0    0 -0.50435205183E+02 -0.18921355297E+02 -0.10011019435E+04  0.10025501628E+04  0.00000000000E+00 0.  1.
          5    1    4    4  501    0 -0.10817887912E+02 -0.64284202533E+02 -0.44090505850E+02  0.78809456921E+02  0.41800000000E+01 0. -1.
         -5    1    4    4    0  501  0.10316871595E+03 -0.23198851511E+01 -0.49941397364E+02  0.11472044887E+03  0.41800000000E+01 0. -1.
</event>
<event>
11    1  0.8551154E-009  0.1636820E+03  0.7561462E-02  0.1083664E+00
         22   -1    0    0    0    0  0.00000000000E+00  0.00000000000E+00  0.23294361664E+04  0.23294361664E+04  0.00000000000E+00 0. -1.
         22   -1    0    0    0    0 -0.00000000000E+00 -0.00000000000E+00 -0.15371529483E+04  0.15371529483E+04  0.00000000000E+00 0.  1.
        -24    2    1    2    0    0 -0.85042043730E+02  0.65969171770E+02 -0.11994227755E+04  0.12069823930E+04  0.81286049691E+02 0.  0.
         25    2    1    2    0    0  0.45202153793E+02 -0.93614036716E+02 -0.31313668355E+03  0.35285868462E+03  0.12509135122E+03 0.  0.
         24    2    1    2    0    0  0.39839889937E+02  0.27644864946E+02  0.23048426771E+04  0.23067480371E+04  0.80220227150E+02 0.  0.
        -13    1    5    5    0    0  0.21213611453E+02 -0.37272407377E+01  0.14441756076E+03  0.14601486736E+03  0.00000000000E+00 0.  1.
         14    1    5    5    0    0  0.18626278484E+02  0.31372105684E+02  0.21604251164E+04  0.21607331697E+04  0.00000000000E+00 0. -1.
         11    1    3    3    0    0 -0.44249690717E+02 -0.10813820565E+02 -0.31152627538E+03  0.31483899710E+03  0.00000000000E+00 0. -1.
        -12    1    3    3    0    0 -0.40792353013E+02  0.76782992335E+02 -0.88789650012E+03  0.89214339593E+03  0.00000000000E+00 0.  1.
          5    1    4    4  501    0  0.17372025249E+02 -0.20723539051E+02 -0.25244041044E+03  0.25391905316E+03  0.41800000000E+01 0. -1.
         -5    1    4    4    0  501  0.27830128544E+02 -0.72890497665E+02 -0.60696273105E+02  0.98939631460E+02  0.41800000000E+01 0. -1.
</event>
<event>
11    1  0.8551154E-009  0.1418703E+03  0.7561462E-02  0.1105488E+00
         22   -1    0    0    0    0  0.00000000000E+00  0.00000000000E+00  0.13672335736E+04  0.13672335736E+04  0.00000000000E+00 0.  1.
         22   -1    0    0    0    0 -0.00000000000E+00 -0.00000000000E+00 -0.17629851184E+03  0.17629851184E+03  0.00000000000E+00 0.  1.
        -24    2    1    2    0    0  0.37408487310E+01 -0.58817526255E+02 -0.95131575488E+02  0.13730756603E+03  0.79560390216E+02 0.  0.
         25    2    1    2    0    0 -0.68519749390E+02  0.40357431820E+02  0.37035484232E+02  0.15278296652E+03  0.12508928574E+03 0.  0.
         24    2    1    2    0    0  0.64778900659E+02  0.18460094435E+02  0.12490311531E+04  0.12534415529E+04  0.80621487509E+02 0.  0.
        -13    1    5    5    0    0  0.32312620190E+02 -0.25713988308E+02  0.80183040068E+03  0.80289308508E+03  0.00000000000E+00 0.  1.
         14    1    5    5    0    0  0.32466280468E+02  0.44174082743E+02  0.44720075237E+03  0.45054846785E+03  0.00000000000E+00 0. -1.
         11    1    3    3    0    0  0.27901872845E+02 -0.48548497047E+02 -0.22978202183E+02  0.60526596215E+02  0.00000000000E+00 0. -1.
        -12    1    3    3    0    0 -0.24161024114E+02 -0.10269029208E+02 -0.72153373304E+02  0.76780969819E+02  0.00000000000E+00 0.  1.
          5    1    4    4  501    0 -0.48335001636E+02  0.19715277139E+02 -0.42896232476E+02  0.67694340210E+02  0.41800000000E+01 0.  1.
         -5    1    4    4    0  501 -0.20184747754E+02  0.20642154681E+02  0.79931716709E+02  0.85088626313E+02  0.41800000000E+01 0.  1.
</event>
<event>
11    1  0.8551154E-009  0.1476868E+03  0.7561462E-02  0.1099266E+00
         22   -1    0    0    0    0  0.00000000000E+00  0.00000000000E+00  0.40767170197E+03  0.40767170197E+03  0.00000000000E+00 0.  1.
         22   -1    0    0    0    0 -0.00000000000E+00 -0.00000000000E+00 -0.45562012529E+03  0.45562012529E+03  0.00000000000E+00 0.  1.
        -24    2    1    2    0    0 -0.11774344146E+02  0.37439091496E+02 -0.40490348561E+03  0.41435141211E+03  0.78739693331E+02 0.  0.
         25    2    1    2    0    0  0.85578709319E+02 -0.42310901240E+02  0.15254901607E+03  0.21915342705E+03  0.12507235678E+03 0.  0.
         24    2    1    2    0    0 -0.73804365173E+02  0.48718097449E+01  0.20440604621E+03  0.22978698809E+03  0.74494357631E+02 0.  0.
        -13    1    5    5    0    0 -0.41704808522E+02 -0.25628668054E+02  0.15900173059E+03  0.16636607230E+03  0.00000000000E+00 0.  1.
         14    1    5    5    0    0 -0.32099556651E+02  0.30500477799E+02  0.45404315619E+02  0.63420915793E+02  0.00000000000E+00 0. -1.
         11    1    3    3    0    0 -0.11814327625E+01 -0.13634006699E+02 -0.12621184066E+02  0.18616557396E+02  0.00000000000E+00 0. -1.
        -12    1    3    3    0    0 -0.10592911384E+02  0.51073098194E+02 -0.39228230154E+03  0.39573485471E+03  0.00000000000E+00 0.  1.
          5    1    4    4  501    0 -0.23469895027E+02 -0.19618537317E+02  0.82209043274E+00  0.30884805515E+02  0.41800000000E+01 0. -1.
         -5    1    4    4    0  501  0.10904860435E+03 -0.22692363923E+02  0.15172692564E+03  0.18826862154E+03  0.41800000000E+01 0. -1.
</event>
<event>
11    1  0.8551154E-009  0.1628790E+03  0.7561462E-02  0.1084400E+00
         22   -1    0    0    0    0  0.00000000000E+00  0.00000000000E+00  0.43261167623E+03  0.43261167623E+03  0.00000000000E+00 0. -1.
         22   -1    0    0    0    0 -0.00000000000E+00 -0.00000000000E+00 -0.14715995531E+04  0.14715995531E+04  0.00000000000E+00 0. -1.
         24    2    1    2    0    0 -0.57358988490E+02 -0.26374660064E+02 -0.13528238201E+04  0.13567803869E+04  0.82067373271E+02 0.  0.
         25    2    1    2    0    0  0.14006352800E+03 -0.30512159268E+02 -0.16000613643E+02  0.19096302437E+03  0.12514820534E+03 0.  0.
        -24    2    1    2    0    0 -0.82704539515E+02  0.56886819332E+02  0.32983655696E+03  0.35646781799E+03  0.90559372167E+02 0.  0.
        -13    1    3    3    0    0 -0.31769594401E+02 -0.94535588902E+01 -0.15232486008E+03  0.15588951185E+03  0.00000000000E+00 0.  1.
         14    1    3    3    0    0 -0.25589394089E+02 -0.16921101174E+02 -0.12004989601E+04  0.12008908751E+04  0.00000000000E+00 0. -1.
         13    1    5    5    0    0 -0.22976385824E+01  0.11893995870E+01  0.16337506829E+03  0.16339555304E+03  0.00000000000E+00 0. -1.
        -14    1    5    5    0    0 -0.80406900933E+02  0.55697419745E+02  0.16646148867E+03  0.19307226495E+03  0.00000000000E+00 0.  1.
          5    1    4    4  501    0  0.12281143149E+03  0.42893734100E+00  0.35869042409E+02  0.12801129753E+03  0.41800000000E+01 0.  1.
         -5    1    4    4    0  501  0.17252096514E+02 -0.30941096609E+02 -0.51869656052E+02  0.62951726843E+02  0.41800000000E+01 0.  1.
</event>
<event>
11    1  0.8551154E-009  0.1830127E+03  0.7561462E-02  0.1067232E+00
         22   -1    0    0    0    0  0.00000000000E+00  0.00000000000E+00  0.49542561697E+03  0.49542561697E+03  0.00000000000E+00 0. -1.
         22   -1    0    0    0    0 -0.00000000000E+00 -0.00000000000E+00 -0.25135192463E+03  0.25135192463E+03  0.00000000000E+00 0.  1.
        -24    2    1    2    0    0 -0.17557271800E+02  0.75792552125E+02 -0.91489039046E+02  0.14442238063E+03  0.80217273762E+02 0.  0.
         25    2    1    2    0    0  0.90735295092E+02  0.43500431752E+02 -0.62942694078E+02  0.17244432432E+03  0.12510028343E+03 0.  0.
         24    2    1    2    0    0 -0.73178023292E+02 -0.11929298388E+03  0.39850542547E+03  0.42991083666E+03  0.80192981323E+02 0.  0.
        -11    1    5    5    0    0 -0.31966147362E+02 -0.33441742058E+02  0.47860756574E+02  0.66564530411E+02  0.00000000000E+00 0.  1.
         12    1    5    5    0    0 -0.41211875930E+02 -0.85851241820E+02  0.35064466889E+03  0.36334630625E+03  0.00000000000E+00 0. -1.
         13    1    3    3    0    0 -0.10016651483E+02  0.92391840110E+02 -0.70686426010E+02  0.11676110760E+03  0.00000000000E+00 0. -1.
        -14    1    3    3    0    0 -0.75406203175E+01 -0.16599287985E+02 -0.20802613036E+02  0.27661273028E+02  0.00000000000E+00 0.  1.
          5    1    4    4  501    0  0.47268796994E+02  0.86867778181E+02 -0.37491336129E+02  0.10584622213E+03  0.41800000000E+01 0. -1.
         -5    1    4    4    0  501  0.43466498098E+02 -0.43367346428E+02 -0.25451357949E+02  0.66598102185E+02  0.41800000000E+01 0. -1.
</event>
<event>
11    1  0.8551154E-009  0.1477734E+03  0.7561462E-02  0.1099176E+00
         22   -1    0    0    0    0  0.00000000000E+00  0.00000000000E+00  0.10540785171E+04  0.10540785171E+04  0.00000000000E+00 0. -1.
         22   -1    0    0    0    0 -0.00000000000E+00 -0.00000000000E+00 -0.22791788808E+03  0.22791788808E+03  0.00000000000E+00 0.  1.
         24    2    1    2    0    0  0.68334640397E+02 -0.27107162566E+02 -0.17246097799E+03  0.20449497674E+03  0.81676099598E+02 0.  0.
         25    2    1    2    0    0 -0.86101844488E+02 -0.50327449561E+02  0.14377159386E+03  0.21508572030E+03  0.12508083816E+03 0.  0.
        -24    2    1    2    0    0  0.17767204091E+02  0.77434612127E+02  0.85485001315E+03  0.86241570813E+03  0.81734423369E+02 0.  0.
        -13    1    3    3    0    0  0.39077264248E+02  0.23224159033E+02 -0.43118827381E+02  0.62654827576E+02  0.00000000000E+00 0.  1.
         14    1    3    3    0    0  0.29257376148E+02 -0.50331321599E+02 -0.12934215061E+03  0.14184014917E+03  0.00000000000E+00 0. -1.
         11    1    5    5    0    0  0.24489711519E+02  0.61034079419E+02  0.82559465301E+03  0.82820977772E+03  0.00000000000E+00 0. -1.
        -12    1    5    5    0    0 -0.67225074275E+01  0.16400532708E+02  0.29255360134E+02  0.34205930418E+02  0.00000000000E+00 0.  1.
          5    1    4    4  501    0 -0.42560015371E+02 -0.39922217727E+02 -0.59062266152E+01  0.58800461643E+02  0.41800000000E+01 0. -1.
         -5    1    4    4    0  501 -0.43541829116E+02 -0.10405231835E+02  0.14967782048E+03  0.15628525866E+03  0.41800000000E+01 0. -1.
</event>
<event>
11    1  0.8551154E-009  0.1470681E+03  0.7561462E-02  0.1099913E+00
         22   -1    0    0    0    0  0.00000000000E+00  0.00000000000E+00  0.92467772919E+03  0.92467772919E+03  0.00000000000E+00 0.  1.
         22   -1    0    0    0    0 -0.00000000000E+00 -0.00000000000E+00 -0.22649237526E+04  0.22649237526E+04  0.00000000000E+00 0.  1.
        -24    2    1    2    0    0  0.22606194080E+01  0.42629771312E+02 -0.20881010944E+04  0.20900445041E+04  0.79356415639E+02 0.  0.
         25    2    1    2    0    0  0.38301083091E+02 -0.10765312549E+03 -0.13069844445E+03  0.21397704892E+03  0.12509166914E+03 0.  0.
         24    2    1    2    0    0 -0.40561702499E+02  0.65023354174E+02  0.87855351545E+03  0.88557992881E+03  0.80760401849E+02 0.  0.
        -11    1    5    5    0    0 -0.49934680907E+02  0.76932243404E+02  0.63913808161E+03  0.64568531793E+03  0.00000000000E+00 0.  1.
         12    1    5    5    0    0  0.93729784078E+01 -0.11908889230E+02  0.23941543384E+03  0.23989461088E+03  0.00000000000E+00 0. -1.
         13    1    3    3    0    0 -0.31069152477E+00 -0.17156942394E+02 -0.14342195098E+03  0.14444484492E+03  0.00000000000E+00 0. -1.
        -14    1    3    3    0    0  0.25713109327E+01  0.59786713706E+02 -0.19446791434E+04  0.19455996592E+04  0.00000000000E+00 0.  1.
          5    1    4    4  501    0 -0.30043446905E+01 -0.12417806387E+03 -0.89061977845E+02  0.15290103313E+03  0.41800000000E+01 0. -1.
         -5    1    4    4    0  501  0.41305427782E+02  0.16524938389E+02 -0.41636466609E+02  0.61076015789E+02  0.41800000000E+01 0. -1.
</event>
<event>
11    1  0.8551154E-009  0.5615491E+03  0.7561462E-02  0.9265615E-01
         22   -1    0    0    0    0  0.00000000000E+00  0.00000000000E+00  0.42771145373E+03  0.42771145373E+03  0.00000000000E+00 0. -1.
         22   -1    0    0    0    0 -0.00000000000E+00 -0.00000000000E+00 -0.19745278841E+04  0.19745278841E+04  0.00000000000E+00 0.  1.
        -24    2    1    2    0    0 -0.87546029722E+02  0.65062150782E+02 -0.99988862780E+03  0.10089346027E+04  0.79210944197E+02 0.  0.
         25    2    1    2    0    0 -0.21892222541E+03  0.41926883880E+03 -0.64160564329E+03  0.80685771536E+03  0.12509305080E+03 0.  0.
         24    2    1    2    0    0  0.30646825514E+03 -0.48433098958E+03  0.94677840692E+02  0.58644701982E+03  0.80354929319E+02 0.  0.
        -13    1    5    5    0    0  0.36564996083E+02 -0.23486095489E+02  0.17433984420E+02  0.46824560144E+02  0.00000000000E+00 0.  1.
         14    1    5    5    0    0  0.26990325905E+03 -0.46084489409E+03  0.77243856272E+02  0.53962245968E+03  0.00000000000E+00 0. -1.
         13    1    3    3    0    0 -0.33034237623E+02  0.72609191886E+02 -0.59065565042E+03  0.59601799719E+03  0.00000000000E+00 0. -1.
        -14    1    3    3    0    0 -0.54511792098E+02 -0.75470411038E+01 -0.40923297738E+03  0.41291660549E+03  0.00000000000E+00 0.  1.
          5    1    4    4  501    0 -0.10003393570E+03  0.25689112933E+03 -0.27974167450E+03  0.39277565794E+03  0.41800000000E+01 0.  1.
         -5    1    4    4    0  501 -0.11888828971E+03  0.16237770947E+03 -0.36186396879E+03  0.41408205742E+03  0.41800000000E+01 0.  1.
</event>
<event>
11    1  0.8551154E-009  0.1354544E+03  0.7561462E-02  0.1112743E+00
         22   -1    0    0    0    0  0.00000000000E+00  0.00000000000E+00  0.96140934567E+03  0.96140934567E+03  0.00000000000E+00 0. -1.
         22   -1    0    0    0    0 -0.00000000000E+00 -0.00000000000E+00 -0.63486111424E+03  0.63486111424E+03  0.00000000000E+00 0. -1.
        -24    2    1    2    0    0  0.76881773377E+01 -0.50752694314E+02 -0.57600166612E+03  0.58395201069E+03  0.81160873361E+02 0.  0.
         25    2    1    2    0    0 -0.15477121009E+01  0.68368543097E+02  0.43106239455E+02  0.14892911515E+03  0.12508029566E+03 0.  0.
         24    2    1    2    0    0 -0.61404652368E+01 -0.17615848783E+02  0.85944365810E+03  0.86338933407E+03  0.80310131991E+02 0.  0.
        -11    1    5    5    0    0  0.35149918154E+02  0.43125873497E+01  0.40621926147E+03  0.40775998276E+03  0.00000000000E+00 0.  1.
         12    1    5    5    0    0 -0.41290383391E+02 -0.21928436133E+02  0.45322439663E+03  0.45562935131E+03  0.00000000000E+00 0. -1.
         11    1    3    3    0    0 -0.93471176662E+01 -0.40229743897E+02 -0.54785579223E+03  0.54941038394E+03  0.00000000000E+00 0. -1.
        -12    1    3    3    0    0  0.17035295004E+02 -0.10522950417E+02 -0.28145873886E+02  0.34541626744E+02  0.00000000000E+00 0.  1.
          5    1    4    4  501    0 -0.57310465452E+02  0.15900272068E+02 -0.25668015743E+01  0.59677206473E+02  0.41800000000E+01 0. -1.
         -5    1    4    4    0  501  0.55762753351E+02  0.52468271029E+02  0.45673041030E+02  0.89251908680E+02  0.41800000000E+01 0. -1.
</event>
<event>
11    1  0.8551154E-009  0.1499883E+03  0.7561462E-02  0.1096891E+00
         22   -1    0    0    0    0  0.00000000000E+00  0.00000000000E+00  0.10154259238E+03  0.10154259238E+03  0.00000000000E+00 0.  1.
         22   -1    0    0    0    0 -0.00000000000E+00 -0.00000000000E+00 -0.21584256822E+04  0.21584256822E+04  0.00000000000E+00 0. -1.
         24    2    1    2    0    0  0.51962729149E+02 -0.67667636738E+02 -0.19488863381E+04  0.19530439076E+04  0.94570143927E+02 0.  0.
         25    2    1    2    0    0  0.23181123861E+02  0.69859968680E+02 -0.12895320638E+03  0.19414998991E+03  0.12509000528E+03 0.  0.
        -24    2    1    2    0    0 -0.75143853010E+02 -0.21923319419E+01  0.20956454602E+02  0.11277437708E+03  0.81409349407E+02 0.  0.
        -11    1    3    3    0    0  0.69458222658E+01  0.12519779850E+02 -0.52151095911E+02  0.54080737228E+02  0.00000000000E+00 0.  1.
         12    1    3    3    0    0  0.45016906883E+02 -0.80187416588E+02 -0.18967352421E+04  0.18989631704E+04  0.00000000000E+00 0. -1.
         13    1    5    5    0    0 -0.17300958153E+02 -0.57334786073E+00 -0.30675429507E+02  0.35222632727E+02  0.00000000000E+00 0. -1.
        -14    1    5    5    0    0 -0.57842894857E+02 -0.16189840812E+01  0.51631884109E+02  0.77551744349E+02  0.00000000000E+00 0.  1.
          5    1    4    4  501    0 -0.50011408636E+01  0.63260967982E+01 -0.12401329728E+03  0.12434549132E+03  0.41800000000E+01 0. -1.
         -5    1    4    4    0  501  0.28182264724E+02  0.63533871882E+02 -0.49399090988E+01  0.69804498588E+02  0.41800000000E+01 0. -1.
</event>
<event>
11    1  0.8551154E-009  0.1775212E+03  0.7561462E-02  0.1071666E+00
         22   -1    0    0    0    0  0.00000000000E+00  0.00000000000E+00  0.17165073627E+04  0.17165073627E+04  0.00000000000E+00 0.  1.
         22   -1    0    0    0    0 -0.00000000000E+00 -0.00000000000E+00 -0.50887918513E+03  0.50887918513E+03  0.00000000000E+00 0. -1.
         24    2    1    2    0    0  0.33679318043E+02  0.46359351622E+02 -0.36053312560E+03  0.37405743510E+03  0.81555773251E+02 0.  0.
         25    2    1    2    0    0  0.87160258626E+02 -0.83274341281E+02 -0.84129980823E+02  0.19302070399E+03  0.12509041488E+03 0.  0.
        -24    2    1    2    0    0 -0.12083957667E+03  0.36914989659E+02  0.16522912840E+04  0.16583084088E+04  0.62891745183E+02 0.  0.
        -13    1    3    3    0    0  0.33688559346E+02 -0.10005571134E+02 -0.21746883057E+03  0.22029008774E+03  0.00000000000E+00 0.  1.
         14    1    3    3    0    0 -0.92413033767E-02  0.56364922756E+02 -0.14306429502E+03  0.15376734736E+03  0.00000000000E+00 0. -1.
         13    1    5    5    0    0 -0.45069303314E+02  0.32965419844E+02  0.42177374786E+03  0.42545394039E+03  0.00000000000E+00 0. -1.
        -14    1    5    5    0    0 -0.75770273354E+02  0.39495698145E+01  0.12305175362E+04  0.12328544684E+04  0.00000000000E+00 0.  1.
          5    1    4    4  501    0  0.75536832685E+02  0.11079067231E+02 -0.22705480548E+02  0.79759451288E+02  0.41800000000E+01 0.  1.
         -5    1    4    4    0  501  0.11623425941E+02 -0.94353408512E+02 -0.61424500275E+02  0.11326125270E+03  0.41800000000E+01 0.  1.
</event>
<event>
11    1  0.8551154E-009  0.1533235E+03  0.7561462E-02  0.1093530E+00
         22   -1    0    0    0    0  0.00000000000E+00  0.00000000000E+00  0.11401566679E+03  0.11401566679E+03  0.00000000000E+00 0. -1.
         22   -1    0    0    0    0 -0.00000000000E+00 -0.00000000000E+00 -0.23099075646E+04  0.23099075646E+04  0.00000000000E+00 0. -1.
        -24    2    1    2    0    0 -0.58955896880E+02  0.31625448795E+02 -0.18082334962E+04  0.18112963981E+04  0.81303739143E+02 0.  0.
         25    2    1    2    0    0 -0.14801068646E+02 -0.84403424745E+02 -0.45143527020E+03  0.47621926280E+03  0.12509185963E+03 0.  0.
         24    2    1    2    0    0  0.73756965525E+02  0.52777975949E+02  0.63776868638E+02  0.13640757049E+03  0.79460251736E+02 0.  0.
        -13    1    5    5    0    0  0.16124579977E+02 -0.14620778415E+02 -0.70882035178E+01  0.22891305555E+02  0.00000000000E+00 0.  1.
         14    1    5    5    0    0  0.57632385548E+02  0.67398754365E+02  0.70865072156E+02  0.11351626494E+03  0.00000000000E+00 0. -1.
         13    1    3    3    0    0 -0.54641201140E+02 -0.15775321846E+02 -0.87065995023E+03  0.87251548443E+03  0.00000000000E+00 0. -1.
        -14    1    3    3    0    0 -0.43146957392E+01  0.47400770641E+02 -0.93757354598E+03  0.93878091362E+03  0.00000000000E+00 0.  1.
          5    1    4    4  501    0  0.37358356526E+02 -0.29589006215E+02 -0.32732453409E+03  0.33080202404E+03  0.41800000000E+01 0.  1.
         -5    1    4    4    0  501 -0.52159425171E+02 -0.54814418530E+02 -0.12411073611E+03  0.14541723876E+03  0.41800000000E+01 0.  1.
</event>
<event>
11    1  0.8551154E-009  0.7157091E+03  0.7561462E-02  0.9009470E-01
         22   -1    0    0    0    0  0.00000000000E+00  0.00000000000E+00  0.51729362920E+03  0.51729362920E+03  0.00000000000E+00 0. -1.
         22   -1    0    0    0    0 -0.00000000000E+00 -0.00000000000E+00 -0.18804487186E+04  0.18804487186E+04  0.00000000000E+00 0. -1.
         24    2    1    2    0    0  0.79391987278E+03 -0.53830123048E+02 -0.93623293116E+03  0.12313547155E+04  0.80597069331E+02 0.  0.
         25    2    1    2    0    0 -0.61878939604E+03 -0.10400039039E+03 -0.58861399559E+03  0.86938567238E+03  0.12509441904E+03 0.  0.
        -24    2    1    2    0    0 -0.17513047673E+03  0.15783051344E+03  0.16169183733E+03  0.29700195990E+03  0.80528001804E+02 0.  0.
        -13    1    3    3    0    0  0.44903097397E+03 -0.41077631490E+02 -0.58902368478E+03  0.74179854990E+03  0.00000000000E+00 0.  1.
         14    1    3    3    0    0  0.34488889880E+03 -0.12752491557E+02 -0.34720924638E+03  0.48955616565E+03  0.00000000000E+00 0. -1.
         11    1    5    5    0    0 -0.16070689516E+03  0.10424957191E+03  0.10857925204E+03  0.22019112918E+03  0.00000000000E+00 0. -1.
        -12    1    5    5    0    0 -0.14423581568E+02  0.53580941525E+02  0.53112585282E+02  0.76810830716E+02  0.00000000000E+00 0.  1.
          5    1    4    4  501    0 -0.33315851213E+03 -0.63795090658E+01 -0.36109768658E+03  0.49136982406E+03  0.41800000000E+01 0.  1.
         -5    1    4    4    0  501 -0.28563088391E+03 -0.97620881324E+02 -0.22751630900E+03  0.37801584832E+03  0.41800000000E+01 0.  1.
</event>
<event>
11    1  0.8551154E-009  0.1531798E+03  0.7561462E-02  0.1093673E+00
         22   -1    0    0    0    0  0.00000000000E+00  0.00000000000E+00  0.28086451194E+03  0.28086451194E+03  0.00000000000E+00 0.  1.
         22   -1    0    0    0    0 -0.00000000000E+00 -0.00000000000E+00 -0.15948531535E+04  0.15948531535E+04  0.00000000000E+00 0. -1.
        -24    2    1    2    0    0 -0.20568233628E+02  0.84134365552E+02 -0.13356679721E+04  0.13407280668E+04  0.77724988880E+02 0.  0.
         25    2    1    2    0    0  0.63084952062E+02 -0.95595299513E+02 -0.21934910711E+03  0.27728452148E+03  0.12511795473E+03 0.  0.
         24    2    1    2    0    0 -0.42516718434E+02  0.11460933961E+02  0.24102843755E+03  0.25770507718E+03  0.79863475647E+02 0.  0.
        -13    1    5    5    0    0 -0.57064199488E+02  0.25195968517E+02  0.12216282839E+03  0.13716747549E+03  0.00000000000E+00 0.  1.
         14    1    5    5    0    0  0.14547481054E+02 -0.13735034556E+02  0.11886560917E+03  0.12053760169E+03  0.00000000000E+00 0. -1.
         13    1    3    3    0    0 -0.38528542348E+02  0.10329320732E+02 -0.52227892923E+03  0.52379998412E+03  0.00000000000E+00 0. -1.
        -14    1    3    3    0    0  0.17960308720E+02  0.73805044821E+02 -0.81338904282E+03  0.81692808270E+03  0.00000000000E+00 0.  1.
          5    1    4    4  501    0 -0.26248196001E+00 -0.61481518719E+02 -0.18951664056E+03  0.19928390675E+03  0.41800000000E+01 0. -1.
         -5    1    4    4    0  501  0.63347434022E+02 -0.34113780794E+02 -0.29832466549E+02  0.78000614726E+02  0.41800000000E+01 0. -1.
</event>
<event>
11    1  0.8551154E-009  0.1326986E+03  0.7561462E-02  0.1115997E+00
         22   -1    0    0    0    0  0.00000000000E+00  0.00000000000E+00  0.91825082017E+03  0.91825082017E+03  0.00000000000E+00 0. -1.
         22   -1    0    0    0    0 -0.00000000000E+00 -0.00000000000E+00 -0.89144612236E+03  0.89144612236E+03  0.00000000000E+00 0. -1.
        -24    2    1    2    0    0  0.32258688588E+02  0.30384554497E+02 -0.87416428683E+03  0.87872793028E+03  0.77689966776E+02 0.  0.
         25    2    1    2    0    0 -0.44213408051E+02 -0.66813172029E+01  0.36810969601E+03  0.39134799957E+03  0.12509613512E+03 0.  0.
         24    2    1    2    0    0  0.11954719463E+02 -0.23703237294E+02  0.53285928862E+03  0.53962101268E+03  0.80913886777E+02 0.  0.
        -13    1    5    5    0    0 -0.24533117825E+01  0.24766239736E+02  0.75982485100E+02  0.79954508387E+02  0.00000000000E+00 0.  1.
         14    1    5    5    0    0  0.14408031245E+02 -0.48469477030E+02  0.45687680352E+03  0.45966650429E+03  0.00000000000E+00 0. -1.
         11    1    3    3    0    0  0.52785821351E+02  0.40161257608E+02 -0.68438788538E+03  0.68759439149E+03  0.00000000000E+00 0. -1.
        -12    1    3    3    0    0 -0.20527132763E+02 -0.97767031113E+01 -0.18977640145E+03  0.19113353879E+03  0.00000000000E+00 0.  1.
          5    1    4    4  501    0 -0.64221679422E+02 -0.23417321420E+02  0.35556971510E+03  0.36210508109E+03  0.41800000000E+01 0.  1.
         -5    1    4    4    0  501  0.20008271371E+02  0.16736004217E+02  0.12539980908E+02  0.29242918486E+02  0.41800000000E+01 0.  1.
</event>
<event>
11    1  0.8551154E-009  0.1670685E+03  0.7561462E-02  0.1080611E+00
         22   -1    0    0    0    0  0.00000000000E+00  0.00000000000E+00  0.41882831662E+03  0.41882831662E+03  0.00000000000E+00 0.  1.
         22   -1    0    0    0    0 -0.00000000000E+00 -0.00000000000E+00 -0.23283765414E+04  0.23283765414E+04  0.00000000000E+00 0.  1.
        -24    2    1    2    0    0 -0.30048566594E+02  0.10880594527E+03 -0.22449983936E+04  0.22492537041E+04  0.79892354477E+02 0.  0.
         25    2    1    2    0    0  0.10338661363E+01 -0.50791600714E+02 -0.13133152958E+02  0.13565071132E+03  0.12509108759E+03 0.  0.
         24    2    1    2    0    0  0.29014700457E+02 -0.58014344560E+02  0.34858332177E+03  0.36230044255E+03  0.74456439850E+02 0.  0.
        -11    1    5    5    0    0  0.27880094795E+02 -0.19988679249E+02  0.29266294987E+03  0.29466667475E+03  0.00000000000E+00 0.  1.
         12    1    5    5    0    0  0.11346056625E+01 -0.38025665311E+02  0.55920371904E+02  0.67633767796E+02  0.00000000000E+00 0. -1.
         11    1    3    3    0    0  0.26436471080E+01  0.66472411118E+01 -0.88601291642E+03  0.88604179515E+03  0.00000000000E+00 0. -1.
        -12    1    3    3    0    0 -0.32692213702E+02  0.10215870416E+03 -0.13589854771E+04  0.13632119090E+04  0.00000000000E+00 0.  1.
          5    1    4    4  501    0  0.27451007685E+02 -0.60652898520E+02  0.38246293967E+02  0.76893324314E+02  0.41800000000E+01 0. -1.
         -5    1    4    4    0  501 -0.26417141549E+02  0.98612978064E+01 -0.51379446925E+02  0.58757387011E+02  0.41800000000E+01 0. -1.
</event>
<event>
11    1  0.8551154E-009  0.1758859E+03  0.7561462E-02  0.1073020E+00
         22   -1    0    0    0    0  0.00000000000E+00  0.00000000000E+00  0.48220250548E+03  0.48220250548E+03  0.00000000000E+00 0. -1.
         22   -1    0    0    0    0 -0.00000000000E+00 -0.00000000000E+00 -0.95372044456E+03  0.95372044456E+03  0.00000000000E+00 0.  1.
         24    2    1    2    0    0 -0.22990406463E+01  0.11789645810E+03 -0.78131777507E+03  0.79422916743E+03  0.80234932214E+02 0.  0.
         25    2    1    2    0    0 -0.25983497134E+02 -0.21053297117E+03 -0.57870825460E+02  0.25297315674E+03  0.12508841482E+03 0.  0.
        -24    2    1    2    0    0  0.28282537780E+02  0.92636513066E+02  0.36767066145E+03  0.38872062586E+03  0.80873878255E+02 0.  0.
        -11    1    3    3    0    0  0.25124240955E+01  0.82067346189E+02 -0.70519236673E+03  0.70995608011E+03  0.00000000000E+00 0.  1.
         12    1    3    3    0    0 -0.48114647418E+01  0.35829111911E+02 -0.76125408332E+02  0.84273087323E+02  0.00000000000E+00 0. -1.
         13    1    5    5    0    0  0.87540380825E+01  0.80297448771E+02  0.35115170113E+03  0.36032184317E+03  0.00000000000E+00 0. -1.
        -14    1    5    5    0    0  0.19528499698E+02  0.12339064295E+02  0.16518960318E+02  0.28398782687E+02  0.00000000000E+00 0.  1.
          5    1    4    4  501    0 -0.23041423491E+02 -0.19921281996E+03 -0.89011038972E+02  0.21944724261E+03  0.41800000000E+01 0. -1.
         -5    1    4    4    0  501 -0.29420736430E+01 -0.11320151207E+02  0.31140213512E+02  0.33525914130E+02  0.41800000000E+01 0. -1.
</event>
<event>
11    1  0.8551154E-009  0.1643809E+03  0.7561462E-02  0.1083028E+00
         22   -1    0    0    0    0  0.00000000000E+00  0.00000000000E+00  0.15881416233E+04  0.15881416233E+04  0.00000000000E+00 0. -1.
         22   -1    0    0    0    0 -0.00000000000E+00 -0.00000000000E+00 -0.62728572286E+02  0.62728572286E+02  0.00000000000E+00 0.  1.
        -24    2    1    2    0    0  0.85600960107E+01  0.10545274179E+03  0.40879402711E+02  0.13945931218E+03  0.81143195614E+02 0.  0.
         25    2    1    2    0    0  0.28337603292E+02 -0.11478005173E+03  0.65837192067E+03  0.68049956261E+03  0.12509431942E+03 0.  0.
         24    2    1    2    0    0 -0.36897699303E+02  0.93273099450E+01  0.82616172765E+03  0.83091132081E+03  0.80137281530E+02 0.  0.
        -13    1    5    5    0    0 -0.36756290434E+02 -0.24528224869E+02  0.25920591397E+03  0.26294555433E+03  0.00000000000E+00 0.  1.
         14    1    5    5    0    0 -0.14140886916E+00  0.33855534814E+02  0.56695581368E+03  0.56796576648E+03  0.00000000000E+00 0. -1.
         11    1    3    3    0    0 -0.31976524999E+02  0.17604015309E+02  0.13377244641E+02  0.38876087512E+02  0.00000000000E+00 0. -1.
        -12    1    3    3    0    0  0.40536621010E+02  0.87848726479E+02  0.27502158070E+02  0.10058322467E+03  0.00000000000E+00 0.  1.
          5    1    4    4  501    0 -0.35888033739E+02  0.27343665375E+01  0.18583229571E+03  0.18933183106E+03  0.41800000000E+01 0. -1.
         -5    1    4    4    0  501  0.64225637032E+02 -0.11751441827E+03  0.47253962496E+03  0.49116773155E+03  0.41800000000E+01 0. -1.
</event>
<event>
11    1  0.8551154E-009  0.1922919E+03  0.7561462E-02  0.1060112E+00
         22   -1    0    0    0    0  0.00000000000E+00  0.00000000000E+00  0.83849498754E+03  0.83849498754E+03  0.00000000000E+00 0.  1.
         22   -1    0    0    0    0 -0.00000000000E+00 -0.00000000000E+00 -0.42363938848E+03  0.42363938848E+03  0.00000000000E+00 0.  1.
        -24    2    1    2    0    0 -0.29377806993E+02 -0.13788031765E+03 -0.33685018425E+03  0.37395076516E+03  0.80604532110E+02 0.  0.
         25    2    1    2    0    0  0.10769797855E+03  0.25543284863E+03  0.41375048958E+03  0.51350044222E+03  0.12509373202E+03 0.  0.
         24    2    1    2    0    0 -0.78320171553E+02 -0.11755253098E+03  0.33795529373E+03  0.37468316864E+03  0.78873629902E+02 0.  0.
        -13    1    5    5    0    0 -0.58364029599E+02 -0.11738901710E+03  0.32611311340E+03  0.35147731651E+03  0.00000000000E+00 0.  1.
         14    1    5    5    0    0 -0.19956141954E+02 -0.16351387566E+00  0.11842180330E+02  0.23205852138E+02  0.00000000000E+00 0. -1.
         11    1    3    3    0    0  0.93337213974E+01 -0.29329328260E+02 -0.19782945848E+02  0.36588151057E+02  0.00000000000E+00 0. -1.
        -12    1    3    3    0    0 -0.38711528390E+02 -0.10855098939E+03 -0.31706723840E+03  0.33736261411E+03  0.00000000000E+00 0.  1.
          5    1    4    4  501    0  0.68756326526E+02  0.76965572370E+02  0.71789487959E+02  0.12578686239E+03  0.41800000000E+01 0.  1.
         -5    1    4    4    0  501  0.38941652019E+02  0.17846727626E+03  0.34196100162E+03  0.38771357983E+03  0.41800000000E+01 0.  1.
</event>
<event>
11    1  0.8551154E-009  0.1277930E+03  0.7561462E-02  0.1122011E+00
         22   -1    0    0    0    0  0.00000000000E+00  0.00000000000E+00  0.19224319276E+04  0.19224319276E+04  0.00000000000E+00 0.  1.
         22   -1    0    0    0    0 -0.00000000000E+00 -0.00000000000E+00 -0.16031161547E+03  0.16031161547E+03  0.00000000000E+00 0. -1.
        -24    2    1    2    0    0 -0.10233220896E+02 -0.24062231723E+02 -0.13269760822E+03  0.15698071302E+03  0.79690521559E+02 0.  0.
         25    2    1    2    0    0  0.11672074411E+02  0.23046320211E+02  0.26605115837E+03  0.29512493439E+03  0.12509251708E+03 0.  0.
         24    2    1    2    0    0 -0.14388535156E+01  0.10159115119E+01  0.16287667620E+04  0.16306378956E+04  0.78074832428E+02 0.  0.
        -13    1    5    5    0    0  0.91637664075E+01 -0.40377178314E+00  0.15986750058E+04  0.15987013204E+04  0.00000000000E+00 0.  1.
         14    1    5    5    0    0 -0.10602619923E+02  0.14196832950E+01  0.30091756138E+02  0.31936575229E+02  0.00000000000E+00 0. -1.
         13    1    3    3    0    0 -0.42719219960E+02 -0.27753772344E+02 -0.86444447205E+02  0.10033865699E+03  0.00000000000E+00 0. -1.
        -14    1    3    3    0    0  0.32485999064E+02  0.36915406216E+01 -0.46253161018E+02  0.56642056032E+02  0.00000000000E+00 0.  1.
          5    1    4    4  501    0 -0.56407493982E+02  0.17439073156E+02  0.11744151881E+03  0.13151391330E+03  0.41800000000E+01 0.  1.
         -5    1    4    4    0  501  0.68079568393E+02  0.56072470554E+01  0.14860963956E+03  0.16361102109E+03  0.41800000000E+01 0.  1.
</event>
<event>
11    1  0.8551154E-009  0.1353418E+03  0.7561462E-02  0.1112874E+00
         22   -1    0    0    0    0  0.00000000000E+00  0.00000000000E+00  0.28112641821E+04  0.28112641821E+04  0.00000000000E+00 0. -1.
         22   -1    0    0    0    0 -0.00000000000E+00 -0.00000000000E+00 -0.17685718289E+03  0.17685718289E+03  0.00000000000E+00 0.  1.
        -24    2    1    2    0    0 -0.30261757878E+02  0.11695142307E+02 -0.15284768098E+03  0.17564190625E+03  0.80219170453E+02 0.  0.
         25    2    1    2    0    0  0.77478544048E+02  0.37988836786E+01  0.45398880885E+03  0.47725345317E+03  0.12509062193E+03 0.  0.
         24    2    1    2    0    0 -0.47216786171E+02 -0.15494025986E+02  0.23332658713E+04  0.23352260056E+04  0.81739714871E+02 0.  0.
        -13    1    5    5    0    0 -0.35467893580E+02  0.14336118842E+02  0.43218982586E+03  0.43387963925E+03  0.00000000000E+00 0.  1.
         14    1    5    5    0    0 -0.11748892591E+02 -0.29830144828E+02  0.19010760455E+04  0.19013463663E+04  0.00000000000E+00 0. -1.
         13    1    3    3    0    0  0.27268661855E+02  0.49589270256E+01 -0.38234022287E+02  0.47222995848E+02  0.00000000000E+00 0. -1.
        -14    1    3    3    0    0 -0.57530419733E+02  0.67362152815E+01 -0.11461365869E+03  0.12841891040E+03  0.00000000000E+00 0.  1.
          5    1    4    4  501    0  0.73757589694E+02  0.54808349937E+02  0.23569834835E+03  0.25301249194E+03  0.41800000000E+01 0. -1.
         -5    1    4    4    0  501  0.37209543544E+01 -0.51009466258E+02  0.21829046050E+03  0.22424096123E+03  0.41800000000E+01 0. -1.
</event>
<event>
11    1  0.8551154E-009  0.1647287E+03  0.7561462E-02  0.1082712E+00
         22   -1    0    0    0    0  0.00000000000E+00  0.00000000000E+00  0.33784697340E+02  0.33784697340E+02  0.00000000000E+00 0. -1.
         22   -1    0    0    0    0 -0.00000000000E+00 -0.00000000000E+00 -0.22207973239E+04  0.22207973239E+04  0.00000000000E+00 0. -1.
        -24    2    1    2    0    0 -0.93859376702E+02 -0.40403847261E+02 -0.13092424364E+04  0.13156817660E+04  0.80378470923E+02 0.  0.
         25    2    1    2    0    0  0.89832205842E+02  0.95837094984E+02 -0.77392933729E+03  0.79490222742E+03  0.12509339731E+03 0.  0.
         24    2    1    2    0    0  0.40271708600E+01 -0.55433247722E+02 -0.10384085291E+03  0.14399802789E+03  0.82845918693E+02 0.  0.
        -13    1    5    5    0    0  0.24646990959E+02  0.13177179146E+02 -0.25421188360E+02  0.37780273043E+02  0.00000000000E+00 0.  1.
         14    1    5    5    0    0 -0.20619820099E+02 -0.68610426868E+02 -0.78419664552E+02  0.10621775485E+03  0.00000000000E+00 0. -1.
         11    1    3    3    0    0 -0.97537003223E+02 -0.93226056882E+01 -0.92869287714E+03  0.93384733122E+03  0.00000000000E+00 0. -1.
        -12    1    3    3    0    0  0.36776265217E+01 -0.31081241573E+02 -0.38054955925E+03  0.38183443475E+03  0.00000000000E+00 0.  1.
          5    1    4    4  501    0  0.54460906764E+02 -0.21506005970E+02 -0.26017663268E+03  0.26671679971E+03  0.41800000000E+01 0.  1.
         -5    1    4    4    0  501  0.35371299078E+02  0.11734310095E+03 -0.51375270462E+03  0.52818542770E+03  0.41800000000E+01 0.  1.
</event>
<event>
11    1  0.8551154E-009  0.1363072E+03  0.7561462E-02  0.1111753E+00
         22   -1    0    0    0    0  0.00000000000E+00  0.00000000000E+00  0.10257289203E+04  0.10257289203E+04  0.00000000000E+00 0. -1.
         22   -1    0    0    0    0 -0.00000000000E+00 -0.00000000000E+00 -0.61543257388E+03  0.61543257388E+03  0.00000000000E+00 0. -1.
        -24    2    1    2    0    0  0.26813909385E+02 -0.47817141001E+01 -0.48126896897E+03  0.48870471917E+03  0.80440235666E+02 0.  0.
         25    2    1    2    0    0 -0.33513904613E+02 -0.48992013989E+02 -0.90633482486E+02  0.16547981585E+03  0.12508294076E+03 0.  0.
         24    2    1    2    0    0  0.66999952283E+01  0.53773728089E+02  0.98219879785E+03  0.98697695914E+03  0.80452070268E+02 0.  0.
        -13    1    5    5    0    0 -0.13715175130E+02 -0.97403388354E+00  0.30154855209E+02  0.33141666578E+02  0.00000000000E+00 0.  1.
         14    1    5    5    0    0  0.20415170359E+02  0.54747761973E+02  0.95204394264E+03  0.95383529256E+03  0.00000000000E+00 0. -1.
         11    1    3    3    0    0  0.12114329282E+02  0.96489039164E+01 -0.45527510819E+03  0.45553845332E+03  0.00000000000E+00 0. -1.
        -12    1    3    3    0    0  0.14699580103E+02 -0.14430618017E+02 -0.25993860787E+02  0.33166265846E+02  0.00000000000E+00 0.  1.
          5    1    4    4  501    0 -0.51561198966E+02 -0.73847765303E+02 -0.26065796384E+02  0.93855995121E+02  0.41800000000E+01 0.  1.
         -5    1    4    4    0  501  0.18047294352E+02  0.24855751314E+02 -0.64567686102E+02  0.71623820726E+02  0.41800000000E+01 0.  1.
</event>
<event>
11    1  0.8551154E-009  0.2174237E+03  0.7561462E-02  0.1042843E+00
         22   -1    0    0    0    0  0.00000000000E+00  0.00000000000E+00  0.46467326144E+02  0.46467326144E+02  0.00000000000E+00 0. -1.
         22   -1    0    0    0    0 -0.00000000000E+00 -0.00000000000E+00 -0.14452757871E+04  0.14452757871E+04  0.00000000000E+00 0. -1.
         24    2    1    2    0    0 -0.18822411094E+03  0.29382641245E+02 -0.77932288847E+03  0.80653167705E+03  0.82810180770E+02 0.  0.
         25    2    1    2    0    0  0.15494812059E+03 -0.10014311492E+02 -0.37763252245E+03  0.42703961888E+03  0.12508919846E+03 0.  0.
        -24    2    1    2    0    0  0.33275990352E+02 -0.19368329753E+02 -0.24185305006E+03  0.25817181734E+03  0.81715149849E+02 0.  0.
        -11    1    3    3    0    0 -0.34277123110E+02 -0.26036801836E+02 -0.19778054734E+03  0.20241042741E+03  0.00000000000E+00 0.  1.
         12    1    3    3    0    0 -0.15394698783E+03  0.55419443081E+02 -0.58154234113E+03  0.60412124964E+03  0.00000000000E+00 0. -1.
         11    1    5    5    0    0  0.30701294639E+02 -0.49616101873E+02 -0.18091546201E+03  0.19009137659E+03  0.00000000000E+00 0. -1.
        -12    1    5    5    0    0  0.25746957128E+01  0.30247772120E+02 -0.60937588043E+02  0.68080440750E+02  0.00000000000E+00 0.  1.
          5    1    4    4  501    0  0.94074848660E+01 -0.36235622808E+02 -0.15658659596E+03  0.16105389026E+03  0.41800000000E+01 0. -1.
         -5    1    4    4    0  501  0.14554063573E+03  0.26221311316E+02 -0.22104592649E+03  0.26598572862E+03  0.41800000000E+01 0. -1.
</event>
<event>
11    1  0.8551154E-009  0.1365507E+03  0.7561462E-02  0.1111472E+00
         22   -1    0    0    0    0  0.00000000000E+00  0.00000000000E+00  0.27159507614E+04  0.27159507614E+04  0.00000000000E+00 0. -1.
         22   -1    0    0    0    0 -0.00000000000E+00 -0.00000000000E+00 -0.40004540692E+03  0.40004540692E+03  0.00000000000E+00 0. -1.
        -24    2    1    2    0    0  0.47374538084E+02  0.27341764184E+02 -0.37504430442E+03  0.38749928672E+03  0.80656977409E+02 0.  0.
         25    2    1    2    0    0 -0.43391076272E+02 -0.39438742713E+02  0.24597380388E+03  0.28211496425E+03  0.12509013123E+03 0.  0.
         24    2    1    2    0    0 -0.39834618117E+01  0.12096978530E+02  0.24449758550E+04  0.24463819173E+04  0.81947233112E+02 0.  0.
        -11    1    5    5    0    0  0.84513964380E+01 -0.31366931153E+02  0.14695455661E+04  0.14699045824E+04  0.00000000000E+00 0.  1.
         12    1    5    5    0    0 -0.12434858250E+02  0.43463909683E+02  0.97543028894E+03  0.97647733498E+03  0.00000000000E+00 0. -1.
         11    1    3    3    0    0  0.10658563420E+02  0.19734021570E+02 -0.32065063617E+03  0.32143407886E+03  0.00000000000E+00 0. -1.
        -12    1    3    3    0    0  0.36715974664E+02  0.76077426143E+01 -0.54393668256E+02  0.66065207859E+02  0.00000000000E+00 0.  1.
          5    1    4    4  501    0 -0.25240473906E+02 -0.50977956527E+02  0.25280868596E+03  0.25916314875E+03  0.41800000000E+01 0.  1.
         -5    1    4    4    0  501 -0.18150602366E+02  0.11539213813E+02 -0.68348820753E+01  0.22951815498E+02  0.41800000000E+01 0.  1.
</event>
<event>
11    1  0.8551154E-009  0.1293702E+03  0.7561462E-02  0.1120045E+00
         22   -1    0    0    0    0  0.00000000000E+00  0.00000000000E+00  0.99586435003E+02  0.99586435003E+02  0.00000000000E+00 0.  1.
         22   -1    0    0    0    0 -0.00000000000E+00 -0.00000000000E+00 -0.63180237290E+03  0.63180237290E+03  0.00000000000E+00 0. -1.
         24    2    1    2    0    0  0.33438909458E+02 -0.39606881293E+02 -0.49692276196E+03  0.50236518947E+03  0.52456520349E+02 0.  0.
         25    2    1    2    0    0 -0.21214819963E+02  0.60064503460E+02 -0.35651137519E+02  0.14481859520E+03  0.12507441284E+03 0.  0.
        -24    2    1    2    0    0 -0.12224089494E+02 -0.20457622167E+02  0.35796157377E+00  0.84205023236E+02  0.80761470597E+02 0.  0.
        -11    1    3    3    0    0  0.26127523418E+02 -0.18483825543E+02 -0.10414090612E+03  0.10894782060E+03  0.00000000000E+00 0.  1.
         12    1    3    3    0    0  0.73113860393E+01 -0.21123055750E+02 -0.39278185584E+03  0.39341736887E+03  0.00000000000E+00 0. -1.
         11    1    5    5    0    0  0.18968010270E+02  0.23087794510E+02 -0.52852767881E+01  0.30344123313E+02  0.00000000000E+00 0. -1.
        -12    1    5    5    0    0 -0.31192099764E+02 -0.43545416677E+02  0.56432383619E+01  0.53860899923E+02  0.00000000000E+00 0.  1.
          5    1    4    4  501    0 -0.30057630217E+02  0.43455078867E+02 -0.80283728585E+02  0.96201634544E+02  0.41800000000E+01 0.  1.
         -5    1    4    4    0  501  0.88428102532E+01  0.16609424593E+02  0.44632591066E+02  0.48616960660E+02  0.41800000000E+01 0.  1.
</event>
<event>
11    1  0.8551154E-009  0.1410864E+03  0.7561462E-02  0.1106351E+00
         22   -1    0    0    0    0  0.00000000000E+00  0.00000000000E+00  0.54433618388E+03  0.54433618388E+03  0.00000000000E+00 0. -1.
         22   -1    0    0    0    0 -0.00000000000E+00 -0.00000000000E+00 -0.10328529255E+04  0.10328529255E+04  0.00000000000E+00 0. -1.
        -24    2    1    2    0    0 -0.18780792629E+02  0.21993376819E+02 -0.98612971081E+03  0.98970008498E+03  0.78854453726E+02 0.  0.
         25    2    1    2    0    0 -0.45882435803E+02 -0.39380332830E+02  0.87497698572E+02  0.16419386383E+03  0.12509104338E+03 0.  0.
         24    2    1    2    0    0  0.64663228432E+02  0.17386956012E+02  0.41011527066E+03  0.42329516053E+03  0.80626412235E+02 0.  0.
        -11    1    5    5    0    0 -0.14050902235E+02  0.21584340315E+02  0.11339710623E+03  0.11628506053E+03  0.00000000000E+00 0.  1.
         12    1    5    5    0    0  0.78714130667E+02 -0.41973843035E+01  0.29671816443E+03  0.30701010000E+03  0.00000000000E+00 0. -1.
         11    1    3    3    0    0  0.10818738504E+02  0.45138100748E+02 -0.54604109765E+03  0.54801037724E+03  0.00000000000E+00 0. -1.
        -12    1    3    3    0    0 -0.29599531132E+02 -0.23144723930E+02 -0.44008861316E+03  0.44168970774E+03  0.00000000000E+00 0.  1.
          5    1    4    4  501    0 -0.40704846554E+02  0.39465573794E+02  0.53527695624E+02  0.78083946153E+02  0.41800000000E+01 0.  1.
         -5    1    4    4    0  501 -0.51775892485E+01 -0.78845906624E+02  0.33970002948E+02  0.86109917676E+02  0.41800000000E+01 0.  1.
</event>
<event>
11    1  0.2749544E-008  0.1912051E+03  0.7561462E-02  0.1060923E+00
         22   -1    0    0    0    0  0.00000000000E+00  0.00000000000E+00  0.11578388626E+04  0.11578388626E+04  0.00000000000E+00 0.  1.
         22   -1    0    0    0    0 -0.00000000000E+00 -0.00000000000E+00 -0.49986448395E+03  0.49986448395E+03  0.00000000000E+00 0.  1.
         24    2    1    2    0    0  0.33565714311E+02 -0.61932557120E+02 -0.33342482558E+03  0.34812290733E+03  0.71099546327E+02 0.  0.
         25    2    1    2    0    0 -0.14941096133E+03 -0.25267081788E+02 -0.89620667702E+02  0.21596609949E+03  0.12508969286E+03 0.  0.
        -24    2    1    2    0    0  0.11584524702E+03  0.87199638907E+02  0.10810198719E+04  0.10936143397E+04  0.79777580100E+02 0.  0.
        -13    1    3    3    0    0  0.53334354849E+02 -0.47355512124E+02 -0.28545333006E+03  0.29422899513E+03  0.00000000000E+00 0.  1.
         14    1    3    3    0    0 -0.19768640538E+02 -0.14577044995E+02 -0.47971495519E+02  0.53893912197E+02  0.00000000000E+00 0. -1.
         11    1    5    5    0    0 -0.12008739329E+02  0.12546177535E+02  0.10385170819E+03  0.10529384448E+03  0.00000000000E+00 0. -1.
        -12    1    5    5    0    0  0.12785398635E+03  0.74653461372E+02  0.97716816373E+03  0.98832049524E+03  0.00000000000E+00 0.  1.
          5    1    4    4  501    0 -0.16696533782E+01 -0.46869581924E+02 -0.19700063546E+02  0.51040281699E+02  0.41800000000E+01 0. -1.
         -5    1    4    4    0  501 -0.14774130795E+03  0.21602500136E+02 -0.69920604155E+02  0.16492581779E+03  0.41800000000E+01 0. -1.
</event>
<event>
11    1  0.8551154E-009  0.1456969E+03  0.7561462E-02  0.1101359E+00
         22   -1    0    0    0    0  0.00000000000E+00  0.00000000000E+00  0.23302055630E+03  0.23302055630E+03  0.00000000000E+00 0. -1.
         22   -1    0    0    0    0 -0.00000000000E+00 -0.00000000000E+00 -0.60569901908E+03  0.60569901908E+03  0.00000000000E+00 0. -1.
         24    2    1    2    0    0  0.16032223297E+02  0.66177970592E+02 -0.41346506329E+03  0.42649614720E+03  0.79429522493E+02 0.  0.
         25    2    1    2    0    0 -0.30964326224E+02 -0.11439534346E+03 -0.13009412229E+03  0.21589751507E+03  0.12506867017E+03 0.  0.
        -24    2    1    2    0    0  0.14932102927E+02  0.48217372863E+02  0.17088072279E+03  0.19632591310E+03  0.82436399667E+02 0.  0.
        -11    1    3    3    0    0  0.20210862076E+02  0.25561880074E+02 -0.43849003688E+02  0.54631710418E+02  0.00000000000E+00 0.  1.
         12    1    3    3    0    0 -0.41786387790E+01  0.40616090518E+02 -0.36961605960E+03  0.37186443679E+03  0.00000000000E+00 0. -1.
         11    1    5    5    0    0 -0.97225622966E+00  0.69369642853E+02  0.11160402255E+03  0.13140985686E+03  0.00000000000E+00 0. -1.
        -12    1    5    5    0    0  0.15904359157E+02 -0.21152269990E+02  0.59276700249E+02  0.64916056244E+02  0.00000000000E+00 0.  1.
          5    1    4    4  501    0 -0.20737524017E+02 -0.48612691706E+02 -0.13884453713E+03  0.14862205956E+03  0.41800000000E+01 0. -1.
         -5    1    4    4    0  501 -0.10226802207E+02 -0.65782651749E+02  0.87504148431E+01  0.67275455512E+02  0.41800000000E+01 0. -1.
</event>
<event>
11    1  0.8551154E-009  0.1607922E+03  0.7561462E-02  0.1086335E+00
         22   -1    0    0    0    0  0.00000000000E+00  0.00000000000E+00  0.47426146104E+03  0.47426146104E+03  0.00000000000E+00 0.  1.
         22   -1    0    0    0    0 -0.00000000000E+00 -0.00000000000E+00 -0.70289091626E+03  0.70289091626E+03  0.00000000000E+00 0.  1.
        -24    2    1    2    0    0  0.64143884985E+02  0.17529523816E+02 -0.64034753576E+03  0.64820551749E+03  0.75522871784E+02 0.  0.
         25    2    1    2    0    0 -0.13113737341E+03 -0.72912269024E+02  0.16608279352E+03  0.25640676187E+03  0.12509086119E+03 0.  0.
         24    2    1    2    0    0  0.66993488422E+02  0.55382745208E+02  0.24563528702E+03  0.27254009793E+03  0.79912669802E+02 0.  0.
        -11    1    5    5    0    0  0.66592762221E+02  0.73727907245E+02  0.21469393578E+03  0.23656687500E+03  0.00000000000E+00 0.  1.
         12    1    5    5    0    0  0.40072620087E+00 -0.18345162037E+02  0.30941351244E+02  0.35973222937E+02  0.00000000000E+00 0. -1.
         13    1    3    3    0    0 -0.11313940067E+02 -0.47688290405E+01 -0.25047025116E+02  0.27894451732E+02  0.00000000000E+00 0. -1.
        -14    1    3    3    0    0  0.75457825052E+02  0.22298352856E+02 -0.61530051065E+03  0.62031106576E+03  0.00000000000E+00 0.  1.
          5    1    4    4  501    0  0.20421030906E+02 -0.21364826121E+02  0.51398980997E+02  0.59437378357E+02  0.41800000000E+01 0. -1.
         -5    1    4    4    0  501 -0.15155840431E+03 -0.51547442902E+02  0.11468381252E+03  0.19696938351E+03  0.41800000000E+01 0. -1.
</event>
<event>
11    1  0.8551154E-009  0.2612905E+03  0.7561462E-02  0.1018051E+00
         22   -1    0    0    0    0  0.00000000000E+00  0.00000000000E+00  0.15558110746E+04  0.15558110746E+04  0.00000000000E+00 0. -1.
         22   -1    0    0    0    0 -0.00000000000E+00 -0.00000000000E+00 -0.12533646788E+04  0.12533646788E+04  0.00000000000E+00 0. -1.
         24    2    1    2    0    0 -0.56061406212E+02 -0.21820241405E+03 -0.91620639743E+03  0.94686015511E+03  0.79717099016E+02 0.  0.
         25    2    1    2    0    0  0.82652879811E+02  0.23185824278E+03 -0.26111245653E+03  0.38002236254E+03  0.12509011865E+03 0.  0.
        -24    2    1    2    0    0 -0.26591473599E+02 -0.13655828730E+02  0.14797652498E+04  0.14822932358E+04  0.81206245978E+02 0.  0.
        -11    1    3    3    0    0 -0.12618079266E+02 -0.10036229668E+03 -0.26491257689E+03  0.28356741688E+03  0.00000000000E+00 0.  1.
         12    1    3    3    0    0 -0.43443326946E+02 -0.11784011737E+03 -0.65129382054E+03  0.66329273823E+03  0.00000000000E+00 0. -1.
         13    1    5    5    0    0 -0.33614566862E+02  0.18107595735E+02  0.12056539024E+04  0.12062583290E+04  0.00000000000E+00 0. -1.
        -14    1    5    5    0    0  0.70230932631E+01 -0.31763424465E+02  0.27411134742E+03  0.27603490677E+03  0.00000000000E+00 0.  1.
          5    1    4    4  501    0  0.52763586610E+02  0.56604214634E+02 -0.15406033801E+03  0.17245316273E+03  0.41800000000E+01 0. -1.
         -5    1    4    4    0  501  0.29889293201E+02  0.17525402814E+03 -0.10705211852E+03  0.20756919981E+03  0.41800000000E+01 0. -1.
</event>
<event>
11    1  0.8551154E-009  0.2469547E+03  0.7561462E-02  0.1025534E+00
         22   -1    0    0    0    0  0.00000000000E+00  0.00000000000E+00  0.24753393695E+04  0.24753393695E+04  0.00000000000E+00 0.  1.
         22   -1    0    0    0    0 -0.00000000000E+00 -0.00000000000E+00 -0.29301930057E+03  0.29301930057E+03  0.00000000000E+00 0. -1.
         24    2    1    2    0    0  0.71966671332E+02 -0.19557533021E+03 -0.19430617720E+03  0.29916486947E+03  0.91191101861E+02 0.  0.
         25    2    1    2    0    0 -0.83991914992E+02  0.23593904941E+03  0.38815637007E+03  0.47857451200E+03  0.12508524729E+03 0.  0.
        -24    2    1    2    0    0  0.12025243660E+02 -0.40363719201E+02  0.19884698761E+04  0.19906192886E+04  0.82333880114E+02 0.  0.
        -13    1    3    3    0    0 -0.17028382494E+02 -0.43527109461E+02 -0.18480474881E+02  0.50260352368E+02  0.00000000000E+00 0.  1.
         14    1    3    3    0    0  0.88995053826E+02 -0.15204822075E+03 -0.17582570232E+03  0.24890451710E+03  0.00000000000E+00 0. -1.
         11    1    5    5    0    0 -0.39792621721E+01 -0.55963985722E+02  0.81147957974E+03  0.81341681231E+03  0.00000000000E+00 0. -1.
        -12    1    5    5    0    0  0.16004505832E+02  0.15600266521E+02  0.11769902964E+04  0.11772024763E+04  0.00000000000E+00 0.  1.
          5    1    4    4  501    0 -0.11192203273E+03  0.15572809847E+03  0.23454557126E+03  0.30299650074E+03  0.41800000000E+01 0.  1.
         -5    1    4    4    0  501  0.27930117734E+02  0.80210950938E+02  0.15361079881E+03  0.17557801126E+03  0.41800000000E+01 0.  1.
</event>
<event>
11    1  0.8551154E-009  0.2223583E+03  0.7561462E-02  0.1039750E+00
         22   -1    0    0    0    0  0.00000000000E+00  0.00000000000E+00  0.66092034213E+03  0.66092034213E+03  0.00000000000E+00 0.  1.
         22   -1    0    0    0    0 -0.00000000000E+00 -0.00000000000E+00 -0.10382800944E+04  0.10382800944E+04  0.00000000000E+00 0. -1.
         24    2    1    2    0    0  0.66498733685E+02  0.16354508595E+03 -0.81438127616E+03  0.83713711943E+03  0.80078817774E+02 0.  0.
         25    2    1    2    0    0 -0.11350334792E+03 -0.21422724950E+03 -0.11591707476E+03  0.29643152320E+03  0.12513414926E+03 0.  0.
        -24    2    1    2    0    0  0.47004614239E+02  0.50682163544E+02  0.55293859864E+03  0.56563179390E+03  0.97057286883E+02 0.  0.
        -11    1    3    3    0    0  0.51014378719E+02  0.38293431501E+02 -0.19994333732E+03  0.20987184631E+03  0.00000000000E+00 0.  1.
         12    1    3    3    0    0  0.15484354966E+02  0.12525165445E+03 -0.61443793884E+03  0.62726527313E+03  0.00000000000E+00 0. -1.
         13    1    5    5    0    0  0.12811853296E+02  0.16662515814E+02  0.46383391903E+03  0.46430990455E+03  0.00000000000E+00 0. -1.
        -14    1    5    5    0    0  0.34192760942E+02  0.34019647730E+02  0.89104679615E+02  0.10132188935E+03  0.00000000000E+00 0.  1.
          5    1    4    4  501    0 -0.53300218452E+02 -0.20088544572E+03 -0.10758202137E+03  0.23406674114E+03  0.41800000000E+01 0. -1.
         -5    1    4    4    0  501 -0.60203129472E+02 -0.13341803780E+02 -0.83350533942E+01  0.62364782060E+02  0.41800000000E+01 0. -1.
</event>
<event>
11    1  0.8551154E-009  0.1526108E+03  0.7561462E-02  0.1094241E+00
         22   -1    0    0    0    0  0.00000000000E+00  0.00000000000E+00  0.36314148488E+03  0.36314148488E+03  0.00000000000E+00 0.  1.
         22   -1    0    0    0    0 -0.00000000000E+00 -0.00000000000E+00 -0.21620706768E+04  0.21620706768E+04  0.00000000000E+00 0.  1.
        -24    2    1    2    0    0 -0.75241695694E+01  0.70182845996E+02 -0.20343298817E+04  0.20371898920E+04  0.81623180065E+02 0.  0.
         25    2    1    2    0    0 -0.69670869585E+02 -0.21336370456E+02 -0.68846702972E+02  0.16030026533E+03  0.12508811208E+03 0.  0.
         24    2    1    2    0    0  0.77195039154E+02 -0.48846475540E+02  0.30424739273E+03  0.32772200436E+03  0.80561677709E+02 0.  0.
        -11    1    5    5    0    0  0.77377319993E+02 -0.26574955490E+02  0.28991249659E+03  0.30123534585E+03  0.00000000000E+00 0.  1.
         12    1    5    5    0    0 -0.18228083919E+00 -0.22271520050E+02  0.14334896135E+02  0.26486658507E+02  0.00000000000E+00 0. -1.
         13    1    3    3    0    0 -0.18683467973E+02  0.58554844942E+02 -0.19669245206E+04  0.19678846032E+04  0.00000000000E+00 0. -1.
        -14    1    3    3    0    0  0.11159298403E+02  0.11628001054E+02 -0.67405361088E+02  0.69305288779E+02  0.00000000000E+00 0.  1.
          5    1    4    4  501    0  0.31030954721E+02  0.18465802435E+02 -0.19116953698E+02  0.41071113075E+02  0.41800000000E+01 0. -1.
         -5    1    4    4    0  501 -0.10070182431E+03 -0.39802172892E+02 -0.49729749274E+02  0.11922915226E+03  0.41800000000E+01 0. -1.
</event>
<event>
11    1  0.8551154E-009  0.7135479E+03  0.7561462E-02  0.9012575E-01
         22   -1    0    0    0    0  0.00000000000E+00  0.00000000000E+00  0.66919855765E+03  0.66919855765E+03  0.00000000000E+00 0.  1.
         22   -1    0    0    0    0 -0.00000000000E+00 -0.00000000000E+00 -0.17282304712E+04  0.17282304712E+04  0.00000000000E+00 0.  1.
        -24    2    1    2    0    0  0.60638451185E+03 -0.35940019502E+03 -0.13315689288E+04  0.15085411371E+04  0.75827922512E+02 0.  0.
         25    2    1    2    0    0 -0.53515121896E+03  0.44597921040E+03  0.24393876027E+03  0.74862400420E+03  0.12508995823E+03 0.  0.
         24    2    1    2    0    0 -0.71233292898E+02 -0.86579015379E+02  0.28598254920E+02  0.14026388758E+03  0.79284235849E+02 0.  0.
        -11    1    5    5    0    0 -0.64640093313E+02 -0.97149660230E+02  0.40021005833E+02  0.12336157852E+03  0.00000000000E+00 0.  1.
         12    1    5    5    0    0 -0.65931995856E+01  0.10570644851E+02 -0.11422750914E+02  0.16902309066E+02  0.00000000000E+00 0. -1.
         11    1    3    3    0    0  0.27174090532E+03 -0.20508161856E+03 -0.63728542875E+03  0.72251941676E+03  0.00000000000E+00 0. -1.
        -12    1    3    3    0    0  0.33464360653E+03 -0.15431857646E+03 -0.69428350002E+03  0.78602172033E+03  0.00000000000E+00 0.  1.
          5    1    4    4  501    0 -0.12907869878E+03  0.17667287983E+03  0.52208079708E+02  0.22498393928E+03  0.41800000000E+01 0.  1.
         -5    1    4    4    0  501 -0.40607252017E+03  0.26930633057E+03  0.19173068056E+03  0.52364006492E+03  0.41800000000E+01 0.  1.
</event>
<event>
11    1  0.8551154E-009  0.1404567E+03  0.7561462E-02  0.1107049E+00
         22   -1    0    0    0    0  0.00000000000E+00  0.00000000000E+00  0.19183779784E+03  0.19183779784E+03  0.00000000000E+00 0.  1.
         22   -1    0    0    0    0 -0.00000000000E+00 -0.00000000000E+00 -0.12712305810E+04  0.12712305810E+04  0.00000000000E+00 0.  1.
        -24    2    1    2    0    0 -0.11351982581E+02 -0.66041654286E+01 -0.51547063476E+03  0.52179956441E+03  0.79952033161E+02 0.  0.
         25    2    1    2    0    0 -0.52618197400E+02  0.10515091503E+02 -0.73150381540E+03  0.74405994137E+03  0.12509245603E+03 0.  0.
         24    2    1    2    0    0  0.63970179981E+02 -0.39109260744E+01  0.16758166700E+03  0.19720887308E+03  0.81855025726E+02 0.  0.
        -11    1    5    5    0    0 -0.85926706648E+01 -0.55117292050E+01  0.91470334201E+02  0.92038226769E+02  0.00000000000E+00 0.  1.
         12    1    5    5    0    0  0.72562850646E+02  0.16008031306E+01  0.76111332797E+02  0.10517064631E+03  0.00000000000E+00 0. -1.
         13    1    3    3    0    0 -0.32412761232E+02  0.12634322356E+02 -0.11098656972E+03  0.11631092748E+03  0.00000000000E+00 0. -1.
        -14    1    3    3    0    0  0.21060778650E+02 -0.19238487784E+02 -0.40448406504E+03  0.40548863693E+03  0.00000000000E+00 0.  1.
          5    1    4    4  501    0 -0.83060065778E+02  0.35576748138E+02 -0.39482672923E+03  0.40505591965E+03  0.41800000000E+01 0. -1.
         -5    1    4    4    0  501  0.30441868378E+02 -0.25061656635E+02 -0.33667708618E+03  0.33900402172E+03  0.41800000000E+01 0. -1.
</event>
<event>
11    1  0.8551154E-009  0.4386870E+03  0.7561462E-02  0.9542037E-01
         22   -1    0    0    0    0  0.00000000000E+00  0.00000000000E+00  0.13353704586E+04  0.13353704586E+04  0.00000000000E+00 0. -1.
         22   -1    0    0    0    0 -0.00000000000E+00 -0.00000000000E+00 -0.22462647443E+03  0.22462647443E+03  0.00000000000E+00 0. -1.
         24    2    1    2    0    0  0.70448727200E+01 -0.19610856756E+02  0.69445097931E+02  0.10871398618E+03  0.81005513572E+02 0.  0.
         25    2    1    2    0    0 -0.41835539901E+03 -0.64040190839E+02  0.15565175647E+03  0.46797301503E+03  0.12509551382E+03 0.  0.
        -24    2    1    2    0    0  0.41131052629E+03  0.83651047595E+02  0.88564712976E+03  0.98330993182E+03  0.79710330373E+02 0.  0.
        -13    1    3    3    0    0  0.34664991871E+02 -0.34051862103E+01  0.68301284354E+02  0.76670218462E+02  0.00000000000E+00 0.  1.
         14    1    3    3    0    0 -0.27620119151E+02 -0.16205670546E+02  0.11438135773E+01  0.32043767713E+02  0.00000000000E+00 0. -1.
         11    1    5    5    0    0  0.40913203474E+03  0.86137854512E+02  0.84751363635E+03  0.94503339392E+03  0.00000000000E+00 0. -1.
        -12    1    5    5    0    0  0.21784915559E+01 -0.24868069174E+01  0.38133493412E+02  0.38276537904E+02  0.00000000000E+00 0.  1.
          5    1    4    4  501    0 -0.43116339134E+02  0.97729147384E+01  0.58369195036E+02  0.73341420029E+02  0.41800000000E+01 0.  1.
         -5    1    4    4    0  501 -0.37523905988E+03 -0.73813105577E+02  0.97282561437E+02  0.39463159500E+03  0.41800000000E+01 0.  1.
</event>
<event>
11    1  0.8551154E-009  0.1399636E+03  0.7561462E-02  0.1107599E+00
         22   -1    0    0    0    0  0.00000000000E+00  0.00000000000E+00  0.22263033522E+03  0.22263033522E+03  0.00000000000E+00 0.  1.
         22   -1    0    0    0    0 -0.00000000000E+00 -0.00000000000E+00 -0.51922361311E+03  0.51922361311E+03  0.00000000000E+00 0.  1.
        -24    2    1    2    0    0 -0.47085701291E+02 -0.43268466605E+02 -0.43308873987E+03  0.44528695732E+03  0.81396525042E+02 0.  0.
         25    2    1    2    0    0  0.17076099911E+01  0.67790195357E+02  0.15679285996E+02  0.14312507250E+03  0.12506206400E+03 0.  0.
         24    2    1    2    0    0  0.45378091300E+02 -0.24521728752E+02  0.12081617598E+03  0.15344191851E+03  0.79293049029E+02 0.  0.
        -11    1    5    5    0    0  0.59047755571E+01 -0.45119875589E+02  0.84546328100E+02  0.96014327799E+02  0.00000000000E+00 0.  1.
         12    1    5    5    0    0  0.39473315743E+02  0.20598146837E+02  0.36269847884E+02  0.57427590707E+02  0.00000000000E+00 0. -1.
         11    1    3    3    0    0 -0.12390010616E+02 -0.12315258022E+02 -0.10998011532E+02  0.20643018212E+02  0.00000000000E+00 0. -1.
        -12    1    3    3    0    0 -0.34695690675E+02 -0.30953208583E+02 -0.42209072833E+03  0.42464393911E+03  0.00000000000E+00 0.  1.
          5    1    4    4  501    0  0.37052710405E+02 -0.90217602346E+01 -0.28350697272E+02  0.47702515048E+02  0.41800000000E+01 0. -1.
         -5    1    4    4    0  501 -0.35345100414E+02  0.76811955592E+02  0.44029983268E+02  0.95422557457E+02  0.41800000000E+01 0. -1.
</event>
<event>
11    1  0.8551154E-009  0.2335270E+03  0.7561462E-02  0.1033060E+00
         22   -1    0    0    0    0  0.00000000000E+00  0.00000000000E+00  0.12901010876E+04  0.12901010876E+04  0.00000000000E+00 0.  1.
         22   -1    0    0    0    0 -0.00000000000E+00 -0.00000000000E+00 -0.10157552030E+04  0.10157552030E+04  0.00000000000E+00 0.  1.
        -24    2    1    2    0    0  0.16111701208E+03  0.91667753403E+02 -0.61751856003E+03  0.64991838933E+03  0.81872292027E+02 0.  0.
         25    2    1    2    0    0 -0.21249628847E+03 -0.91569028433E+02 -0.33469490110E+03  0.42568636887E+03  0.12509455719E+03 0.  0.
         24    2    1    2    0    0  0.51379276387E+02 -0.98724970169E-01  0.12265593458E+04  0.12302515325E+04  0.80194542756E+02 0.  0.
        -11    1    5    5    0    0  0.68012693839E+02 -0.52142786341E+01  0.11353265946E+04  0.11373739014E+04  0.00000000000E+00 0.  1.
         12    1    5    5    0    0 -0.16633417453E+02  0.51155536639E+01  0.91232751145E+02  0.92877631037E+02  0.00000000000E+00 0. -1.
         13    1    3    3    0    0  0.45806099785E+02  0.10701960948E+02 -0.68414903295E+02  0.83026078665E+02  0.00000000000E+00 0. -1.
        -14    1    3    3    0    0  0.11531091230E+03  0.80965792455E+02 -0.54910365674E+03  0.56689231066E+03  0.00000000000E+00 0.  1.
          5    1    4    4  501    0  0.42943424454E+01 -0.25497070375E+02 -0.67855081300E+01  0.27056561040E+02  0.41800000000E+01 0. -1.
         -5    1    4    4    0  501 -0.21679063092E+03 -0.66071958058E+02 -0.32790939297E+03  0.39862980783E+03  0.41800000000E+01 0. -1.
</event>
<event>
11    1  0.8551154E-009  0.1970592E+03  0.7561462E-02  0.1056623E+00
         22   -1    0    0    0    0  0.00000000000E+00  0.00000000000E+00  0.22716609866E+04  0.22716609866E+04  0.00000000000E+00 0.  1.
         22   -1    0    0    0    0 -0.00000000000E+00 -0.00000000000E+00 -0.66673564393E+02  0.66673564393E+02  0.00000000000E+00 0.  1.
        -24    2    1    2    0    0 -0.52133953476E+02  0.46448179270E+02  0.15784516795E+02  0.10694862931E+03  0.79457384043E+02 0.  0.
         25    2    1    2    0    0  0.17061558162E+03 -0.11513547823E+03  0.86913161140E+03  0.90188802362E+03  0.12508554739E+03 0.  0.
         24    2    1    2    0    0 -0.11848162814E+03  0.68687298963E+02  0.13200712940E+04  0.13294978981E+04  0.78870770480E+02 0.  0.
        -13    1    5    5    0    0 -0.11876003182E+03  0.51611489171E+02  0.12702032057E+04  0.12767865424E+04  0.00000000000E+00 0.  1.
         14    1    5    5    0    0  0.27840367811E+00  0.17075809791E+02  0.49868088318E+02  0.52711355714E+02  0.00000000000E+00 0. -1.
         11    1    3    3    0    0  0.14363313760E+02 -0.10498220380E+02 -0.94423048077E+00  0.17815975542E+02  0.00000000000E+00 0. -1.
        -12    1    3    3    0    0 -0.66497267236E+02  0.56946399649E+02  0.16728747275E+02  0.89132653771E+02  0.00000000000E+00 0.  1.
          5    1    4    4  501    0  0.16747924717E+03 -0.12178892142E+03  0.86908774946E+03  0.89342757304E+03  0.41800000000E+01 0. -1.
         -5    1    4    4    0  501  0.31363344492E+01  0.66534431884E+01  0.43861942362E-01  0.84604505736E+01  0.41800000000E+01 0. -1.
</event>
<event>
11    1  0.8551154E-009  0.1410066E+03  0.7561462E-02  0.1106440E+00
         22   -1    0    0    0    0  0.00000000000E+00  0.00000000000E+00  0.11669360617E+04  0.11669360617E+04  0.00000000000E+00 0. -1.
         22   -1    0    0    0    0 -0.00000000000E+00 -0.00000000000E+00 -0.31346301518E+03  0.31346301518E+03  0.00000000000E+00 0.  1.
         24    2    1    2    0    0 -0.52278544550E+02  0.36712615687E+02 -0.22410535150E+03  0.24629930947E+03  0.79745087016E+02 0.  0.
         25    2    1    2    0    0  0.42273571268E+02 -0.64244831678E+02 -0.60003355177E+01  0.14698267856E+03  0.12511375043E+03 0.  0.
        -24    2    1    2    0    0  0.10004973282E+02  0.27532215991E+02  0.10835787336E+04  0.10871170889E+04  0.82598853918E+02 0.  0.
        -11    1    3    3    0    0 -0.45945803500E+02  0.55409426938E+02 -0.21011947994E+03  0.22210677006E+03  0.00000000000E+00 0.  1.
         12    1    3    3    0    0 -0.63327410499E+01 -0.18696811251E+02 -0.13985871562E+02  0.24192539418E+02  0.00000000000E+00 0. -1.
         11    1    5    5    0    0  0.28921111752E+02 -0.20326703335E+02  0.51640679875E+03  0.51761528897E+03  0.00000000000E+00 0. -1.
        -12    1    5    5    0    0 -0.18916138470E+02  0.47858919326E+02  0.56717193480E+03  0.56950179989E+03  0.00000000000E+00 0.  1.
          5    1    4    4  501    0  0.23122232963E+02 -0.10135418008E+03 -0.11414406817E+02  0.10466646340E+03  0.41800000000E+01 0. -1.
         -5    1    4    4    0  501  0.19151338305E+02  0.37109348403E+02  0.54140712995E+01  0.42316215164E+02  0.41800000000E+01 0. -1.
</event>
<event>
11    1  0.8551154E-009  0.1786390E+03  0.7561462E-02  0.1070749E+00
         22   -1    0    0    0    0  0.00000000000E+00  0.00000000000E+00  0.56848765011E+03  0.56848765011E+03  0.00000000000E+00 0. -1.
         22   -1    0    0    0    0 -0.00000000000E+00 -0.00000000000E+00 -0.82795092244E+03  0.82795092244E+03  0.00000000000E+00 0.  1.
        -24    2    1    2    0    0  0.32133443575E+02 -0.32692714033E+02 -0.39162151508E+03  0.40342959750E+03  0.85361919609E+02 0.  0.
         25    2    1    2    0    0 -0.13528658077E+03 -0.42016402320E+02 -0.39890216429E+03  0.44140437368E+03  0.12508815861E+03 0.  0.
         24    2    1    2    0    0  0.10315313720E+03  0.74709116354E+02  0.53106040704E+03  0.55160460137E+03  0.77591613846E+02 0.  0.
        -11    1    5    5    0    0 -0.67974999010E+01  0.28991249469E+02  0.93195949412E+02  0.97837536444E+02  0.00000000000E+00 0.  1.
         12    1    5    5    0    0  0.10995063710E+03  0.45717866884E+02  0.43786445763E+03  0.45376706492E+03  0.00000000000E+00 0. -1.
         11    1    3    3    0    0 -0.27235504976E+02 -0.23612124136E+02 -0.12282490270E+03  0.12800492905E+03  0.00000000000E+00 0. -1.
        -12    1    3    3    0    0  0.59368948551E+02 -0.90805898978E+01 -0.26879661238E+03  0.27542466845E+03  0.00000000000E+00 0.  1.
          5    1    4    4  501    0 -0.97523869598E+02  0.27345988618E+01 -0.11215469510E+03  0.14870955317E+03  0.41800000000E+01 0.  1.
         -5    1    4    4    0  501 -0.37762711176E+02 -0.44751001182E+02 -0.28674746919E+03  0.29269482051E+03  0.41800000000E+01 0.  1.
</event>
<event>
11    1  0.9756809E-009  0.1690216E+03  0.7561462E-02  0.1078886E+00
         22   -1    0    0    0    0  0.00000000000E+00  0.00000000000E+00  0.11700195317E+04  0.11700195317E+04  0.00000000000E+00 0. -1.
         22   -1    0    0    0    0 -0.00000000000E+00 -0.00000000000E+00 -0.33412451147E+03  0.33412451147E+03  0.00000000000E+00 0.  1.
        -24    2    1    2    0    0  0.11538577828E+02  0.23412586592E+02 -0.21589392776E+03  0.23090618554E+03  0.77628541714E+02 0.  0.
         25    2    1    2    0    0  0.81867704106E+02 -0.87913778732E+02 -0.35411932895E+02  0.17700829163E+03  0.12508707706E+03 0.  0.
         24    2    1    2    0    0 -0.93406281934E+02  0.64501192140E+02  0.10872008809E+04  0.10962295660E+04  0.82633943804E+02 0.  0.
        -11    1    5    5    0    0 -0.13847221129E+02 -0.12495258432E+02  0.54345057734E+02  0.57456612468E+02  0.00000000000E+00 0.  1.
         12    1    5    5    0    0 -0.79559060805E+02  0.76996450572E+02  0.10328558232E+04  0.10387729536E+04  0.00000000000E+00 0. -1.
         11    1    3    3    0    0  0.15828294180E+02 -0.26431875402E+02 -0.64929982458E+02  0.71868501834E+02  0.00000000000E+00 0. -1.
        -12    1    3    3    0    0 -0.42897163523E+01  0.49844461994E+02 -0.15096394530E+03  0.15903768371E+03  0.00000000000E+00 0.  1.
          5    1    4    4  501    0  0.24782640304E+02 -0.31759393366E+02 -0.76761176897E+02  0.86790489145E+02  0.41800000000E+01 0.  1.
         -5    1    4    4    0  501  0.57085063802E+02 -0.56154385365E+02  0.41349244002E+02  0.90217802481E+02  0.41800000000E+01 0.  1.
</event>
<event>
11    1  0.8551154E-009  0.1483756E+03  0.7561462E-02  0.1098550E+00
         22   -1    0    0    0    0  0.00000000000E+00  0.00000000000E+00  0.38114007882E+03  0.38114007882E+03  0.00000000000E+00 0. -1.
         22   -1    0    0    0    0 -0.00000000000E+00 -0.00000000000E+00 -0.16880280297E+04  0.16880280297E+04  0.00000000000E+00 0. -1.
        -24    2    1    2    0    0  0.18724689543E+02 -0.44857259989E+02 -0.14037366498E+04  0.14069284834E+04  0.81291990535E+02 0.  0.
         25    2    1    2    0    0 -0.41092616941E+00 -0.34316662005E+02 -0.25841505735E+03  0.28915515141E+03  0.12511817442E+03 0.  0.
         24    2    1    2    0    0 -0.18313763373E+02  0.79173921994E+02  0.35526375630E+03  0.37308447365E+03  0.79848507089E+02 0.  0.
        -13    1    5    5    0    0 -0.11360290721E+02 -0.80853886460E+00  0.29857606125E+01  0.11773899388E+02  0.00000000000E+00 0.  1.
         14    1    5    5    0    0 -0.69534726526E+01  0.79982460858E+02  0.35227799569E+03  0.36131057426E+03  0.00000000000E+00 0. -1.
         13    1    3    3    0    0  0.27394405857E+02 -0.49081690258E+02 -0.13820680604E+04  0.13832106092E+04  0.00000000000E+00 0. -1.
        -14    1    3    3    0    0 -0.86697163137E+01  0.42244302695E+01 -0.21668589405E+02  0.23717874249E+02  0.00000000000E+00 0.  1.
          5    1    4    4  501    0 -0.14582777837E+02 -0.72909883288E+02 -0.95631024054E+02  0.12120756434E+03  0.41800000000E+01 0.  1.
         -5    1    4    4    0  501  0.14171851667E+02  0.38593221283E+02 -0.16278403330E+03  0.16794758708E+03  0.41800000000E+01 0.  1.
</event>
<event>
11    1  0.8551154E-009  0.1347678E+03  0.7561462E-02  0.1113546E+00
         22   -1    0    0    0    0  0.00000000000E+00  0.00000000000E+00  0.49982455153E+02  0.49982455153E+02  0.00000000000E+00 0. -1.
         22   -1    0    0    0    0 -0.00000000000E+00 -0.00000000000E+00 -0.35295561790E+04  0.35295561790E+04  0.00000000000E+00 0. -1.
         24    2    1    2    0    0 -0.16993495703E+02 -0.41062157818E+02 -0.25684569230E+04  0.25700851359E+04  0.79948487779E+02 0.  0.
         25    2    1    2    0    0  0.58610774032E+02  0.65567449549E+02 -0.90376741615E+03  0.91661091236E+03  0.12508280814E+03 0.  0.
        -24    2    1    2    0    0 -0.41617278329E+02 -0.24505291730E+02 -0.73493847392E+01  0.92842585947E+02  0.78950776632E+02 0.  0.
        -11    1    3    3    0    0  0.24980314127E+02 -0.35146588799E+02 -0.17501238752E+04  0.17506549852E+04  0.00000000000E+00 0.  1.
         12    1    3    3    0    0 -0.41973809830E+02 -0.59155690192E+01 -0.81833304781E+03  0.81943015066E+03  0.00000000000E+00 0. -1.
         11    1    5    5    0    0 -0.60893979421E+02 -0.21861273092E+02 -0.22160894884E+02  0.68389306569E+02  0.00000000000E+00 0. -1.
        -12    1    5    5    0    0  0.19276701091E+02 -0.26440186378E+01  0.14811510145E+02  0.24453279377E+02  0.00000000000E+00 0.  1.
          5    1    4    4  501    0 -0.23538478215E+02 -0.22079018027E+02 -0.17574894377E+03  0.17873641663E+03  0.41800000000E+01 0. -1.
         -5    1    4    4    0  501  0.82149252247E+02  0.87646467575E+02 -0.72801847238E+03  0.73787449573E+03  0.41800000000E+01 0. -1.
</event>
<event>
11    1  0.8551154E-009  0.1440359E+03  0.7561462E-02  0.1103134E+00
         22   -1    0    0    0    0  0.00000000000E+00  0.00000000000E+00  0.11487081195E+04  0.11487081195E+04  0.00000000000E+00 0. -1.
         22   -1    0    0    0    0 -0.00000000000E+00 -0.00000000000E+00 -0.20868342029E+03  0.20868342029E+03  0.00000000000E+00 0.  1.
        -24    2    1    2    0    0  0.55103206648E+01  0.10190735046E+02 -0.10990493916E+03  0.13526391045E+03  0.77993686317E+02 0.  0.
         25    2    1    2    0    0 -0.73652040710E+02 -0.30680177039E+02 -0.17427358002E+02  0.14938595979E+03  0.12508619353E+03 0.  0.
         24    2    1    2    0    0  0.68141720045E+02  0.20489441993E+02  0.10673569964E+04  0.10727416696E+04  0.80377986128E+02 0.  0.
        -13    1    5    5    0    0  0.52026170803E+02 -0.25288312692E+02  0.65125949206E+03  0.65382348321E+03  0.00000000000E+00 0.  1.
         14    1    5    5    0    0  0.16115549242E+02  0.45777754685E+02  0.41609750432E+03  0.41891818635E+03  0.00000000000E+00 0. -1.
         13    1    3    3    0    0  0.27319717122E+02  0.19411071680E+01 -0.50533587820E+01  0.27850875671E+02  0.00000000000E+00 0. -1.
        -14    1    3    3    0    0 -0.21809396457E+02  0.82496278776E+01 -0.10485158037E+03  0.10741303478E+03  0.00000000000E+00 0.  1.
          5    1    4    4  501    0 -0.24126085720E+02  0.23148747708E+02 -0.56926204195E+02  0.66151323922E+02  0.41800000000E+01 0.  1.
         -5    1    4    4    0  501 -0.49525954990E+02 -0.53828924747E+02  0.39498846192E+02  0.83234635865E+02  0.41800000000E+01 0.  1.
</event>
<event>
11    1  0.8551154E-009  0.1869189E+03  0.7561462E-02  0.1064180E+00
         22   -1    0    0    0    0  0.00000000000E+00  0.00000000000E+00  0.23704676573E+03  0.23704676573E+03  0.00000000000E+00 0. -1.
         22   -1    0    0    0    0 -0.00000000000E+00 -0.00000000000E+00 -0.46692643130E+03  0.46692643130E+03  0.00000000000E+00 0.  1.
        -24    2    1    2    0    0  0.12135453231E+03  0.55580299114E+02 -0.20594077417E+03  0.25828545609E+03  0.80521315193E+02 0.  0.
         25    2    1    2    0    0 -0.13539927358E+03 -0.58500958036E+02 -0.18387962418E+03  0.26686084224E+03  0.12509063737E+03 0.  0.
         24    2    1    2    0    0  0.14044741270E+02  0.29206589223E+01  0.15994073278E+03  0.17882689869E+03  0.78690766212E+02 0.  0.
        -11    1    5    5    0    0  0.21477808987E+02 -0.29991535255E+02  0.40815412964E+02  0.55015328785E+02  0.00000000000E+00 0.  1.
         12    1    5    5    0    0 -0.74330677167E+01  0.32912194177E+02  0.11912531981E+03  0.12381156990E+03  0.00000000000E+00 0. -1.
         11    1    3    3    0    0 -0.65847949360E+01  0.54054190254E+01  0.22645566896E+01  0.88151174802E+01  0.00000000000E+00 0. -1.
        -12    1    3    3    0    0  0.12793932724E+03  0.50174880088E+02 -0.20820533086E+03  0.24947033861E+03  0.00000000000E+00 0.  1.
          5    1    4    4  501    0 -0.12077164769E+03  0.47524340925E+01 -0.15249432707E+03  0.19462879721E+03  0.41800000000E+01 0.  1.
         -5    1    4    4    0  501 -0.14627625886E+02 -0.63253392128E+02 -0.31385297108E+02  0.72232045031E+02  0.41800000000E+01 0.  1.
</event>
<event>
11    1  0.8551154E-009  0.1920410E+03  0.7561462E-02  0.1060299E+00
         22   -1    0    0    0    0  0.00000000000E+00  0.00000000000E+00  0.17991724648E+04  0.17991724648E+04  0.00000000000E+00 0.  1.
         22   -1    0    0    0    0 -0.00000000000E+00 -0.00000000000E+00 -0.29699508237E+04  0.29699508237E+04  0.00000000000E+00 0.  1.
         24    2    1    2    0    0 -0.69166063786E+02 -0.12813394944E+03 -0.29429336935E+04  0.29477219872E+04  0.83689522595E+02 0.  0.
         25    2    1    2    0    0  0.67287899663E+02  0.16186090598E+03  0.47459299622E+03  0.52115494543E+03  0.12504939328E+03 0.  0.
        -24    2    1    2    0    0  0.18781641231E+01 -0.33726956539E+02  0.12975623384E+04  0.13002463558E+04  0.76364446639E+02 0.  0.
        -13    1    3    3    0    0 -0.21114293240E+02 -0.77705920778E+02 -0.22150041955E+04  0.22164673716E+04  0.00000000000E+00 0.  1.
         14    1    3    3    0    0 -0.48051770546E+02 -0.50428028660E+02 -0.72792949801E+03  0.73125461558E+03  0.00000000000E+00 0. -1.
         11    1    5    5    0    0  0.36989940788E+02 -0.14194620949E+02  0.83608135278E+03  0.83701957650E+03  0.00000000000E+00 0. -1.
        -12    1    5    5    0    0 -0.35111776665E+02 -0.19532335590E+02  0.46148098563E+03  0.46322677933E+03  0.00000000000E+00 0.  1.
          5    1    4    4  501    0  0.27051798008E+02  0.13303916061E+03  0.19782616999E+03  0.23996642258E+03  0.41800000000E+01 0. -1.
         -5    1    4    4    0  501  0.40236101655E+02  0.28821745366E+02  0.27676682623E+03  0.28118852285E+03  0.41800000000E+01 0. -1.
</event>
<event>
11    1  0.8551154E-009  0.2182479E+03  0.7561462E-02  0.1042321E+00
         22   -1    0    0    0    0  0.00000000000E+00  0.00000000000E+00  0.39211387015E+03  0.39211387015E+03  0.00000000000E+00 0. -1.
         22   -1    0    0    0    0 -0.00000000000E+00 -0.00000000000E+00 -0.69592795685E+03  0.69592795685E+03  0.00000000000E+00 0. -1.
         24    2    1    2    0    0  0.10147648230E+02  0.20120116539E+02 -0.37294387330E+03  0.38225082992E+03  0.80751287852E+02 0.  0.
         25    2    1    2    0    0 -0.18108632857E+03 -0.68015807819E+02 -0.24518606788E+03  0.33642576870E+03  0.12509069291E+03 0.  0.
        -24    2    1    2    0    0  0.17093868034E+03  0.47895691280E+02  0.31431585448E+03  0.36936522837E+03  0.78244398364E+02 0.  0.
        -13    1    3    3    0    0 -0.52205174051E+00 -0.15626256243E+02 -0.12872763632E+02  0.20252418762E+02  0.00000000000E+00 0.  1.
         14    1    3    3    0    0  0.10669699970E+02  0.35746372782E+02 -0.36007110967E+03  0.36199841116E+03  0.00000000000E+00 0. -1.
         11    1    5    5    0    0  0.11809358984E+03  0.66800802726E+02  0.19558946944E+03  0.23804134885E+03  0.00000000000E+00 0. -1.
        -12    1    5    5    0    0  0.52845090492E+02 -0.18905111446E+02  0.11872638505E+03  0.13132387953E+03  0.00000000000E+00 0.  1.
          5    1    4    4  501    0  0.15013544935E+02 -0.12066927290E+02 -0.51520631392E+02  0.55162171139E+02  0.41800000000E+01 0.  1.
         -5    1    4    4    0  501 -0.19609987350E+03 -0.55948880529E+02 -0.19366543649E+03  0.28126359756E+03  0.41800000000E+01 0.  1.
</event>
<event>
11    1  0.8551154E-009  0.1341576E+03  0.7561462E-02  0.1114264E+00
         22   -1    0    0    0    0  0.00000000000E+00  0.00000000000E+00  0.18476446759E+03  0.18476446759E+03  0.00000000000E+00 0.  1.
         22   -1    0    0    0    0 -0.00000000000E+00 -0.00000000000E+00 -0.84434062400E+03  0.84434062400E+03  0.00000000000E+00 0. -1.
         24    2    1    2    0    0  0.40756281148E+02 -0.25438273085E+02 -0.74761469034E+03  0.75351733854E+03  0.80947353734E+02 0.  0.
         25    2    1    2    0    0 -0.45434867775E+02  0.35038251840E+02 -0.21711610927E+02  0.13932575524E+03  0.12509302827E+03 0.  0.
        -24    2    1    2    0    0  0.46785866268E+01 -0.95999787546E+01  0.10975014486E+03  0.13626199782E+03  0.80051164808E+02 0.  0.
        -13    1    3    3    0    0  0.13672530153E+01  0.79085307293E+01 -0.57822565455E+01  0.98918516903E+01  0.00000000000E+00 0.  1.
         14    1    3    3    0    0  0.39389028133E+02 -0.33346803815E+02 -0.74183243379E+03  0.74362548685E+03  0.00000000000E+00 0. -1.
         11    1    5    5    0    0 -0.18340437684E+01  0.23450815827E+02  0.22760405850E+01  0.23632283856E+02  0.00000000000E+00 0. -1.
        -12    1    5    5    0    0  0.65126303952E+01 -0.33050794581E+02  0.10747410428E+03  0.11262971396E+03  0.00000000000E+00 0.  1.
          5    1    4    4  501    0 -0.36181316311E+02  0.35637051152E+02 -0.71895076031E+02  0.88121855532E+02  0.41800000000E+01 0. -1.
         -5    1    4    4    0  501 -0.92535514636E+01 -0.59879931215E+00  0.50183465104E+02  0.51203899707E+02  0.41800000000E+01 0. -1.
</event>
<event>
11    1  0.8551154E-009  0.2485631E+03  0.7561462E-02  0.1024667E+00
         22   -1    0    0    0    0  0.00000000000E+00  0.00000000000E+00  0.47660181027E+03  0.47660181027E+03  0.00000000000E+00 0.  1.
         22   -1    0    0    0    0 -0.00000000000E+00 -0.00000000000E+00 -0.79643377437E+03  0.79643377437E+03  0.00000000000E+00 0. -1.
         24    2    1    2    0    0  0.17613840837E+02  0.62422527719E+02 -0.63877856677E+03  0.64688436007E+03  0.78832091042E+02 0.  0.
         25    2    1    2    0    0  0.19586546244E+03  0.35518609008E+01  0.46292619681E+01  0.23247492127E+03  0.12508902375E+03 0.  0.
        -24    2    1    2    0    0 -0.21347930327E+03 -0.65974388620E+02  0.31431734070E+03  0.39367630330E+03  0.79117686023E+02 0.  0.
        -11    1    3    3    0    0  0.24365709720E+02  0.68778634548E+02 -0.33017757063E+03  0.33814407659E+03  0.00000000000E+00 0.  1.
         12    1    3    3    0    0 -0.67518688833E+01 -0.63561068290E+01 -0.30860099614E+03  0.30874028348E+03  0.00000000000E+00 0. -1.
         11    1    5    5    0    0 -0.51138704677E+02 -0.22393718092E+02  0.29970608738E+02  0.63363105307E+02  0.00000000000E+00 0. -1.
        -12    1    5    5    0    0 -0.16234059860E+03 -0.43580670528E+02  0.28434673196E+03  0.33031319800E+03  0.00000000000E+00 0.  1.
          5    1    4    4  501    0  0.17952591270E+03  0.20867330424E+01  0.48022214240E+02  0.18589651219E+03  0.41800000000E+01 0.  1.
         -5    1    4    4    0  501  0.16339549738E+02  0.14651278584E+01 -0.43392952272E+02  0.46578409077E+02  0.41800000000E+01 0.  1.
</event>
<event>
11    1  0.8551154E-009  0.1331249E+03  0.7561462E-02  0.1115488E+00
         22   -1    0    0    0    0  0.00000000000E+00  0.00000000000E+00  0.19461516280E+04  0.19461516280E+04  0.00000000000E+00 0. -1.
         22   -1    0    0    0    0 -0.00000000000E+00 -0.00000000000E+00 -0.12600068523E+03  0.12600068523E+03  0.00000000000E+00 0.  1.
        -24    2    1    2    0    0 -0.82024349606E+00  0.43003029565E+02 -0.66654174704E+02  0.11359725875E+03  0.81311898509E+02 0.  0.
         25    2    1    2    0    0 -0.13476890011E+02 -0.60624503558E+02  0.10479770469E+03  0.17460391060E+03  0.12508800779E+03 0.  0.
         24    2    1    2    0    0  0.14297133507E+02  0.17621473994E+02  0.17820074128E+04  0.17839511439E+04  0.80102060726E+02 0.  0.
        -13    1    5    5    0    0  0.31927464983E+02 -0.22208720035E+02  0.96505968629E+03  0.96584304541E+03  0.00000000000E+00 0.  1.
         14    1    5    5    0    0 -0.17630331475E+02  0.39830194029E+02  0.81694772648E+03  0.81810809845E+03  0.00000000000E+00 0. -1.
         13    1    3    3    0    0  0.16954269825E+02 -0.31616454279E+01  0.11766252358E+02  0.20877930014E+02  0.00000000000E+00 0. -1.
        -14    1    3    3    0    0 -0.17774513321E+02  0.46164674992E+02 -0.78420427062E+02  0.92719328737E+02  0.00000000000E+00 0.  1.
          5    1    4    4  501    0  0.52175516877E+02 -0.90714137016E+01  0.23780327128E+02  0.58202675765E+02  0.41800000000E+01 0. -1.
         -5    1    4    4    0  501 -0.65652406888E+02 -0.51553089857E+02  0.81017377563E+02  0.11640123483E+03  0.41800000000E+01 0. -1.
</event>
<event>
11    1  0.8551154E-009  0.1643706E+03  0.7561462E-02  0.1083037E+00
         22   -1    0    0    0    0  0.00000000000E+00  0.00000000000E+00  0.45305914403E+03  0.45305914403E+03  0.00000000000E+00 0.  1.
         22   -1    0    0    0    0 -0.00000000000E+00 -0.00000000000E+00 -0.32840408620E+03  0.32840408620E+03  0.00000000000E+00 0.  1.
         24    2    1    2    0    0 -0.10053414271E+03 -0.32846090997E+02 -0.26543625580E+03  0.29433691392E+03  0.70652908377E+02 0.  0.
         25    2    1    2    0    0  0.96577039010E+02  0.85878721450E+02  0.17128205170E+03  0.24836783980E+03  0.12508702312E+03 0.  0.
        -24    2    1    2    0    0  0.39571036991E+01 -0.53032630453E+02  0.21880926193E+03  0.23875847650E+03  0.79372529440E+02 0.  0.
        -11    1    3    3    0    0 -0.91416454732E+02 -0.15696294364E+02 -0.25687999705E+03  0.27311293403E+03  0.00000000000E+00 0.  1.
         12    1    3    3    0    0 -0.91176879769E+01 -0.17149796633E+02 -0.85562587491E+01  0.21223979890E+02  0.00000000000E+00 0. -1.
         13    1    5    5    0    0 -0.23284646190E+02 -0.19981644745E+02  0.23071019204E+02  0.38388967192E+02  0.00000000000E+00 0. -1.
        -14    1    5    5    0    0  0.27241749889E+02 -0.33050985707E+02  0.19573824273E+03  0.20036950930E+03  0.00000000000E+00 0.  1.
          5    1    4    4  501    0  0.87717119035E+02 -0.25918239028E+01  0.62542173912E+02  0.10784250758E+03  0.41800000000E+01 0. -1.
         -5    1    4    4    0  501  0.88599199748E+01  0.88470545353E+02  0.10873987778E+03  0.14052533223E+03  0.41800000000E+01 0. -1.
</event>
<event>
11    1  0.8551154E-009  0.2408419E+03  0.7561462E-02  0.1028894E+00
         22   -1    0    0    0    0  0.00000000000E+00  0.00000000000E+00  0.79102531113E+03  0.79102531113E+03  0.00000000000E+00 0.  1.
         22   -1    0    0    0    0 -0.00000000000E+00 -0.00000000000E+00 -0.19976753494E+04  0.19976753494E+04  0.00000000000E+00 0. -1.
        -24    2    1    2    0    0 -0.12553085202E+03 -0.29486444624E+02 -0.18993756912E+04  0.19056291520E+04  0.84658154535E+02 0.  0.
         25    2    1    2    0    0  0.17097711875E+03  0.21428350378E+03  0.23865804853E+03  0.38439011934E+03  0.12508998595E+03 0.  0.
         24    2    1    2    0    0 -0.45446266736E+02 -0.18479705916E+03  0.45406760441E+03  0.49868138925E+03  0.79312183034E+02 0.  0.
        -13    1    5    5    0    0 -0.10745384258E+00 -0.10858650290E+03  0.32016269168E+03  0.33807571534E+03  0.00000000000E+00 0.  1.
         14    1    5    5    0    0 -0.45338812893E+02 -0.76210556255E+02  0.13390491273E+03  0.16060567391E+03  0.00000000000E+00 0. -1.
         11    1    3    3    0    0 -0.82878569436E+02  0.22589399112E+02 -0.11729599055E+04  0.11761012193E+04  0.00000000000E+00 0. -1.
        -12    1    3    3    0    0 -0.42652282579E+02 -0.52075843736E+02 -0.72641578576E+03  0.72952793265E+03  0.00000000000E+00 0.  1.
          5    1    4    4  501    0 -0.90838964091E+01  0.64805317526E+02  0.36095564300E+02  0.74850574586E+02  0.41800000000E+01 0.  1.
         -5    1    4    4    0  501  0.18006101516E+03  0.14947818625E+03  0.20256248423E+03  0.30953954475E+03  0.41800000000E+01 0.  1.
</event>
<event>
11    1  0.8551154E-009  0.1852857E+03  0.7561462E-02  0.1065446E+00
         22   -1    0    0    0    0  0.00000000000E+00  0.00000000000E+00  0.41314755685E+03  0.41314755685E+03  0.00000000000E+00 0.  1.
         22   -1    0    0    0    0 -0.00000000000E+00 -0.00000000000E+00 -0.50532156310E+03  0.50532156310E+03  0.00000000000E+00 0.  1.
         24    2    1    2    0    0  0.34248435129E+02 -0.50056375117E+02 -0.33855412903E+03  0.35394422012E+03  0.83540509184E+02 0.  0.
         25    2    1    2    0    0 -0.16202591796E+03  0.80531222343E+02 -0.54426647724E+02  0.22660048233E+03  0.12509133762E+03 0.  0.
        -24    2    1    2    0    0  0.12777748283E+03 -0.30474847226E+02  0.30080677051E+03  0.33792441749E+03  0.80326815716E+02 0.  0.
        -13    1    3    3    0    0  0.14062558143E+02 -0.71058523848E+02 -0.21036937390E+03  0.22249121966E+03  0.00000000000E+00 0.  1.
         14    1    3    3    0    0  0.20185876986E+02  0.21002148730E+02 -0.12818475513E+03  0.13145300046E+03  0.00000000000E+00 0. -1.
         11    1    5    5    0    0  0.59371156687E+02 -0.51393982736E+02  0.11923716570E+03  0.14277176679E+03  0.00000000000E+00 0. -1.
        -12    1    5    5    0    0  0.68406326140E+02  0.20919135510E+02  0.18156960481E+03  0.19515265071E+03  0.00000000000E+00 0.  1.
          5    1    4    4  501    0 -0.10217140771E+03  0.79708495753E+02  0.19796056070E+02  0.13115562163E+03  0.41800000000E+01 0.  1.
         -5    1    4    4    0  501 -0.59854510244E+02  0.82272659034E+00 -0.74222703795E+02  0.95444860701E+02  0.41800000000E+01 0.  1.
</event>
<event>
11    1  0.8551154E-009  0.1325648E+03  0.7561462E-02  0.1116157E+00
         22   -1    0    0    0    0  0.00000000000E+00  0.00000000000E+00  0.91048266383E+03  0.91048266383E+03  0.00000000000E+00 0. -1.
         22   -1    0    0    0    0 -0.00000000000E+00 -0.00000000000E+00 -0.25408552623E+03  0.25408552623E+03  0.00000000000E+00 0.  1.
        -24    2    1    2    0    0  0.26092813309E+02  0.10901018678E+02 -0.11965690778E+03  0.14744999829E+03  0.81388324109E+02 0.  0.
         25    2    1    2    0    0 -0.53408518521E+02  0.23240068551E+02 -0.77820454714E+02  0.15841809723E+03  0.12509076594E+03 0.  0.
         24    2    1    2    0    0  0.27315705212E+02 -0.34141087229E+02  0.85387450010E+03  0.85870009454E+03  0.79702125762E+02 0.  0.
        -11    1    5    5    0    0 -0.81685765820E+01 -0.13044987031E+02  0.29333207704E+02  0.33126038161E+02  0.00000000000E+00 0.  1.
         12    1    5    5    0    0  0.35484281794E+02 -0.21096100198E+02  0.82454129240E+03  0.82557405638E+03  0.00000000000E+00 0. -1.
         11    1    3    3    0    0 -0.11387903438E+02 -0.21155769818E+02 -0.78956136463E+01  0.25290149390E+02  0.00000000000E+00 0. -1.
        -12    1    3    3    0    0  0.37480716747E+02  0.32056788496E+02 -0.11176129413E+03  0.12215984890E+03  0.00000000000E+00 0.  1.
          5    1    4    4  501    0 -0.77744392200E+02  0.56712431033E+02 -0.56646648216E+02  0.11174437573E+03  0.41800000000E+01 0.  1.
         -5    1    4    4    0  501  0.24335873680E+02 -0.33472362482E+02 -0.21173806498E+02  0.46673721509E+02  0.41800000000E+01 0.  1.
</event>
<event>
11    1  0.8551154E-009  0.1508496E+03  0.7561462E-02  0.1096014E+00
         22   -1    0    0    0    0  0.00000000000E+00  0.00000000000E+00  0.28033486034E+03  0.28033486034E+03  0.00000000000E+00 0.  1.
         22   -1    0    0    0    0 -0.00000000000E+00 -0.00000000000E+00 -0.23515739036E+04  0.23515739036E+04  0.00000000000E+00 0. -1.
        -24    2    1    2    0    0 -0.16377093881E+02  0.42661113431E+01 -0.20721947043E+04  0.20738152743E+04  0.80202807291E+02 0.  0.
         25    2    1    2    0    0 -0.12609660420E+02  0.75379785240E+02 -0.24521195602E+03  0.28568866083E+03  0.12509193418E+03 0.  0.
         24    2    1    2    0    0  0.28986754301E+02 -0.79645896583E+02  0.24616761712E+03  0.27240482880E+03  0.80138594127E+02 0.  0.
        -13    1    5    5    0    0  0.11397653685E+02 -0.31987182773E+02  0.20276216775E+03  0.20558595050E+03  0.00000000000E+00 0.  1.
         14    1    5    5    0    0  0.17589100616E+02 -0.47658713810E+02  0.43405449361E+02  0.66818878296E+02  0.00000000000E+00 0. -1.
         13    1    3    3    0    0 -0.33235140057E+01  0.72565309066E+01 -0.20171207064E+04  0.20171364969E+04  0.00000000000E+00 0. -1.
        -14    1    3    3    0    0 -0.13053579875E+02 -0.29904195636E+01 -0.55073997966E+02  0.56678777410E+02  0.00000000000E+00 0.  1.
          5    1    4    4  501    0  0.46232226711E+01  0.85046978128E+02 -0.25066157630E+03  0.26476982628E+03  0.41800000000E+01 0. -1.
         -5    1    4    4    0  501 -0.17232883091E+02 -0.96671928887E+01  0.54496202768E+01  0.20918834555E+02  0.41800000000E+01 0. -1.
</event>
<event>
11    1  0.8551154E-009  0.1322681E+03  0.7561462E-02  0.1116513E+00
         22   -1    0    0    0    0  0.00000000000E+00  0.00000000000E+00  0.15513912897E+04  0.15513912897E+04  0.00000000000E+00 0. -1.
         22   -1    0    0    0    0 -0.00000000000E+00 -0.00000000000E+00 -0.72506651455E+03  0.72506651455E+03  0.00000000000E+00 0. -1.
        -24    2    1    2    0    0 -0.35507374434E+02 -0.23444047683E+02 -0.68970273025E+03  0.69548647962E+03  0.78747636217E+02 0.  0.
         25    2    1    2    0    0  0.48228868002E+02  0.48874086551E+02  0.13199193668E+03  0.19438181194E+03  0.12509083667E+03 0.  0.
         24    2    1    2    0    0 -0.12721493567E+02 -0.25430038868E+02  0.13840355688E+04  0.13865895127E+04  0.79167530663E+02 0.  0.
        -11    1    5    5    0    0  0.25414664340E+02 -0.33006639909E+02  0.51388365625E+03  0.51556935091E+03  0.00000000000E+00 0.  1.
         12    1    5    5    0    0 -0.38136157908E+02  0.75766010404E+01  0.87015191252E+03  0.87102016181E+03  0.00000000000E+00 0. -1.
         13    1    3    3    0    0  0.15510590881E+02 -0.14115979562E+02 -0.43770016179E+03  0.43820231736E+03  0.00000000000E+00 0. -1.
        -14    1    3    3    0    0 -0.51017965316E+02 -0.93280681207E+01 -0.25200256846E+03  0.25728416226E+03  0.00000000000E+00 0.  1.
          5    1    4    4  501    0  0.31271943970E+02  0.79876674561E+02  0.38062993974E+02  0.93938711557E+02  0.41800000000E+01 0.  1.
         -5    1    4    4    0  501  0.16956924031E+02 -0.31002588010E+02  0.93928942708E+02  0.10044310038E+03  0.41800000000E+01 0.  1.
</event>
<event>
11    1  0.8551154E-009  0.1410120E+03  0.7561462E-02  0.1106434E+00
         22   -1    0    0    0    0  0.00000000000E+00  0.00000000000E+00  0.18516016990E+03  0.18516016990E+03  0.00000000000E+00 0.  1.
         22   -1    0    0    0    0 -0.00000000000E+00 -0.00000000000E+00 -0.95453146645E+03  0.95453146645E+03  0.00000000000E+00 0.  1.
         24    2    1    2    0    0 -0.52201507160E+02 -0.36537744584E+02 -0.84800890573E+03  0.85412463407E+03  0.79685520726E+02 0.  0.
         25    2    1    2    0    0  0.10075105836E+03  0.66738403966E+02  0.63795389858E+02  0.18526405048E+03  0.12509247102E+03 0.  0.
        -24    2    1    2    0    0 -0.48549551205E+02 -0.30200659381E+02  0.14842219321E+02  0.10030295180E+03  0.81063258730E+02 0.  0.
        -11    1    3    3    0    0 -0.46358143215E+02 -0.60500880087E+02 -0.58083136521E+03  0.58581098380E+03  0.00000000000E+00 0.  1.
         12    1    3    3    0    0 -0.58433639446E+01  0.23963135503E+02 -0.26717754052E+03  0.26831365027E+03  0.00000000000E+00 0. -1.
         13    1    5    5    0    0  0.13648218779E+02 -0.34245415210E+02  0.50456067135E+01  0.37208607685E+02  0.00000000000E+00 0. -1.
        -14    1    5    5    0    0 -0.62197769983E+02  0.40447558284E+01  0.97966126074E+01  0.63094344114E+02  0.00000000000E+00 0.  1.
          5    1    4    4  501    0 -0.82641846692E+01  0.61145811700E+02  0.72749552730E+01  0.62269610653E+02  0.41800000000E+01 0. -1.
         -5    1    4    4    0  501  0.10901524303E+03  0.55925922656E+01  0.56520434585E+02  0.12299443982E+03  0.41800000000E+01 0. -1.
</event>
<event>
11    1  0.8551154E-009  0.1734637E+03  0.7561462E-02  0.1075056E+00
         22   -1    0    0    0    0  0.00000000000E+00  0.00000000000E+00  0.25597608044E+03  0.25597608044E+03  0.00000000000E+00 0.  1.
         22   -1    0    0    0    0 -0.00000000000E+00 -0.00000000000E+00 -0.48496355600E+03  0.48496355600E+03  0.00000000000E+00 0. -1.
         24    2    1    2    0    0 -0.39663581442E+01 -0.67602901760E+02 -0.36083881689E+03  0.37556328472E+03  0.79102747965E+02 0.  0.
         25    2    1    2    0    0  0.12006591812E+03  0.71436629099E+02  0.32524590195E+02  0.19032550178E+03  0.12508769320E+03 0.  0.
        -24    2    1    2    0    0 -0.11609955998E+03 -0.38337273388E+01  0.99326751127E+02  0.17505084994E+03  0.85341615182E+02 0.  0.
        -11    1    3    3    0    0  0.96275872013E+00 -0.77139709290E+02 -0.19994325261E+03  0.21430997624E+03  0.00000000000E+00 0.  1.
         12    1    3    3    0    0 -0.49291168643E+01  0.95368075300E+01 -0.16089556428E+03  0.16125330848E+03  0.00000000000E+00 0. -1.
         11    1    5    5    0    0 -0.81915466888E+02  0.12522499554E+02  0.17243555089E+02  0.84642169766E+02  0.00000000000E+00 0. -1.
        -12    1    5    5    0    0 -0.34184093091E+02 -0.16356226892E+02  0.82083196038E+02  0.90408680172E+02  0.00000000000E+00 0.  1.
          5    1    4    4  501    0  0.88697894556E+02 -0.88360135685E+00 -0.25458633747E+02  0.92378090921E+02  0.41800000000E+01 0. -1.
         -5    1    4    4    0  501  0.31368023568E+02  0.72320230456E+02  0.57983223942E+02  0.97947410862E+02  0.41800000000E+01 0. -1.
</event>
<event>
11    1  0.8551154E-009  0.1605812E+03  0.7561462E-02  0.1086532E+00
         22   -1    0    0    0    0  0.00000000000E+00  0.00000000000E+00  0.72351694861E+02  0.72351694861E+02  0.00000000000E+00 0.  1.
         22   -1    0    0    0    0 -0.00000000000E+00 -0.00000000000E+00 -0.15662348051E+04  0.15662348051E+04  0.00000000000E+00 0. -1.
        -24    2    1    2    0    0 -0.89474175403E+02  0.34412229649E+02 -0.99107495337E+03  0.99868006104E+03  0.77087427701E+02 0.  0.
         25    2    1    2    0    0 -0.22298396208E+02 -0.10068194949E+02 -0.48028417251E+03  0.49690957910E+03  0.12509059281E+03 0.  0.
         24    2    1    2    0    0  0.11177257161E+03 -0.24344034700E+02 -0.22523984348E+02  0.14299685981E+03  0.82795122174E+02 0.  0.
        -13    1    5    5    0    0  0.10766196756E+03 -0.34198723645E+02  0.54091413866E+01  0.11309248767E+03  0.00000000000E+00 0.  1.
         14    1    5    5    0    0  0.41106040525E+01  0.98546889447E+01 -0.27933125734E+02  0.29904372141E+02  0.00000000000E+00 0. -1.
         11    1    3    3    0    0 -0.87139164601E+02  0.51562531682E+02 -0.72412536287E+03  0.73116993225E+03  0.00000000000E+00 0. -1.
        -12    1    3    3    0    0 -0.23350108013E+01 -0.17150302033E+02 -0.26694959051E+03  0.26751012879E+03  0.00000000000E+00 0.  1.
          5    1    4    4  501    0  0.31840956977E+02  0.14982268387E+02 -0.43763815822E+02  0.56312155726E+02  0.41800000000E+01 0. -1.
         -5    1    4    4    0  501 -0.54139353185E+02 -0.25050463337E+02 -0.43652035669E+03  0.44059742337E+03  0.41800000000E+01 0. -1.
</event>
<event>
11    1  0.8551154E-009  0.1953119E+03  0.7561462E-02  0.1057889E+00
         22   -1    0    0    0    0  0.00000000000E+00  0.00000000000E+00  0.19530233899E+04  0.19530233899E+04  0.00000000000E+00 0.  1.
         22   -1    0    0    0    0 -0.00000000000E+00 -0.00000000000E+00 -0.95764866046E+03  0.95764866046E+03  0.00000000000E+00 0.  1.
         24    2    1    2    0    0 -0.29495689300E+02  0.55286032095E+02 -0.90410107744E+03  0.90984204333E+03  0.80543432704E+02 0.  0.
         25    2    1    2    0    0  0.13841408720E+03  0.49796004071E+02  0.15428169133E+03  0.24716192746E+03  0.12509227213E+03 0.  0.
        -24    2    1    2    0    0 -0.10891839790E+03 -0.10508203617E+03  0.17451941156E+04  0.17536680796E+04  0.82120525427E+02 0.  0.
        -11    1    3    3    0    0 -0.18838748528E+02  0.65579026680E+02 -0.86987334210E+03  0.87254520713E+03  0.00000000000E+00 0.  1.
         12    1    3    3    0    0 -0.10656940772E+02 -0.10292994585E+02 -0.34227735333E+02  0.37296836195E+02  0.00000000000E+00 0. -1.
         13    1    5    5    0    0 -0.52837337904E+02 -0.85897961429E+02  0.75555438111E+03  0.76225498809E+03  0.00000000000E+00 0. -1.
        -14    1    5    5    0    0 -0.56081059994E+02 -0.19184074737E+02  0.98963973445E+03  0.99141309151E+03  0.00000000000E+00 0.  1.
          5    1    4    4  501    0  0.32612000270E+02  0.32405982736E+02  0.12887232392E+03  0.13689133848E+03  0.41800000000E+01 0. -1.
         -5    1    4    4    0  501  0.10580208693E+03  0.17390021335E+02  0.25409367409E+02  0.11027058897E+03  0.41800000000E+01 0. -1.
</event>
<event>
11    1  0.8551154E-009  0.1981976E+03  0.7561462E-02  0.1055806E+00
         22   -1    0    0    0    0  0.00000000000E+00  0.00000000000E+00  0.11891294163E+04  0.11891294163E+04  0.00000000000E+00 0. -1.
         22   -1    0    0    0    0 -0.00000000000E+00 -0.00000000000E+00 -0.35638107133E+03  0.35638107133E+03  0.00000000000E+00 0.  1.
        -24    2    1    2    0    0 -0.86296627513E+01  0.23513923799E+02 -0.28781358387E+03  0.29964995614E+03  0.79536541669E+02 0.  0.
         25    2    1    2    0    0  0.15492602575E+03  0.23210850270E+02  0.12661902005E+03  0.23711219245E+03  0.12509595735E+03 0.  0.
         24    2    1    2    0    0 -0.14629636300E+03 -0.46724774069E+02  0.99394290875E+03  0.10087483390E+04  0.77877308963E+02 0.  0.
        -13    1    5    5    0    0 -0.46100483908E+02  0.21274896493E+02  0.26594564999E+03  0.27074889582E+03  0.00000000000E+00 0.  1.
         14    1    5    5    0    0 -0.10019587909E+03 -0.67999670562E+02  0.72799725876E+03  0.73799944319E+03  0.00000000000E+00 0. -1.
         11    1    3    3    0    0 -0.32025339684E+02  0.38106760954E+02 -0.12550300622E+03  0.13501389626E+03  0.00000000000E+00 0. -1.
        -12    1    3    3    0    0  0.23395676933E+02 -0.14592837156E+02 -0.16231057765E+03  0.16463605988E+03  0.00000000000E+00 0.  1.
          5    1    4    4  501    0  0.12996738902E+03 -0.21108771556E+02  0.41956264057E+02  0.13825665604E+03  0.41800000000E+01 0. -1.
         -5    1    4    4    0  501  0.24958636729E+02  0.44319621827E+02  0.84662755991E+02  0.98855536407E+02  0.41800000000E+01 0. -1.
</event>
<event>
11    1  0.8551154E-009  0.1498239E+03  0.7561462E-02  0.1097059E+00
         22   -1    0    0    0    0  0.00000000000E+00  0.00000000000E+00  0.35743002652E+04  0.35743002652E+04  0.00000000000E+00 0.  1.
         22   -1    0    0    0    0 -0.00000000000E+00 -0.00000000000E+00 -0.90267181181E+02  0.90267181181E+02  0.00000000000E+00 0.  1.
        -24    2    1    2    0    0 -0.80657116780E+02  0.20231909794E+02 -0.44990114628E+02  0.12543670695E+03  0.82433951589E+02 0.  0.
         25    2    1    2    0    0  0.45693906389E+02 -0.60466470662E+02  0.13396068752E+04  0.13475671532E+04  0.12508607091E+03 0.  0.
         24    2    1    2    0    0  0.34963210391E+02  0.40234560868E+02  0.21894163235E+04  0.21915635863E+04  0.81030051017E+02 0.  0.
        -13    1    5    5    0    0 -0.15794194604E+02  0.29754949716E+02  0.14220866982E+04  0.14224856382E+04  0.00000000000E+00 0.  1.
         14    1    5    5    0    0  0.50757404995E+02  0.10479611152E+02  0.76732962529E+03  0.76907794810E+03  0.00000000000E+00 0. -1.
         11    1    3    3    0    0 -0.35226786291E+02  0.17694130627E+01  0.22629991495E+02  0.41906727503E+02  0.00000000000E+00 0. -1.
        -12    1    3    3    0    0 -0.45430330489E+02  0.18462496732E+02 -0.67620106123E+02  0.83529979445E+02  0.00000000000E+00 0.  1.
          5    1    4    4  501    0  0.22214965405E+02  0.87237428588E+01  0.99405910487E+03  0.99435435573E+03  0.41800000000E+01 0. -1.
         -5    1    4    4    0  501  0.23478940983E+02 -0.69190213521E+02  0.34554777032E+03  0.35321279746E+03  0.41800000000E+01 0. -1.
</event>
<event>
11    1  0.8551154E-009  0.1515576E+03  0.7561462E-02  0.1095298E+00
         22   -1    0    0    0    0  0.00000000000E+00  0.00000000000E+00  0.71021110563E+03  0.71021110563E+03  0.00000000000E+00 0.  1.
         22   -1    0    0    0    0 -0.00000000000E+00 -0.00000000000E+00 -0.13607071940E+04  0.13607071940E+04  0.00000000000E+00 0.  1.
        -24    2    1    2    0    0 -0.41185945908E+02  0.76444283009E+02 -0.12955618619E+04  0.13007603285E+04  0.77180849874E+02 0.  0.
         25    2    1    2    0    0  0.65060124690E+02 -0.14199493049E+02  0.28590053098E+02  0.14456077668E+03  0.12508389821E+03 0.  0.
         24    2    1    2    0    0 -0.23874178782E+02 -0.62244789960E+02  0.61647572040E+03  0.62559719450E+03  0.82976777662E+02 0.  0.
        -13    1    5    5    0    0 -0.43628119416E+02 -0.44197022094E+02  0.23126554057E+03  0.23945884786E+03  0.00000000000E+00 0.  1.
         14    1    5    5    0    0  0.19753940633E+02 -0.18047767866E+02  0.38521017984E+03  0.38613834664E+03  0.00000000000E+00 0. -1.
         13    1    3    3    0    0 -0.41068423497E+01 -0.16023810577E+02 -0.19023549230E+03  0.19095332202E+03  0.00000000000E+00 0. -1.
        -14    1    3    3    0    0 -0.37079103558E+02  0.92468093586E+02 -0.11053263696E+04  0.11098070065E+04  0.00000000000E+00 0.  1.
          5    1    4    4  501    0  0.75412383899E+02  0.37272705978E+02 -0.83687441415E+00  0.84228587873E+02  0.41800000000E+01 0.  1.
         -5    1    4    4    0  501 -0.10352259209E+02 -0.51472199027E+02  0.29426927512E+02  0.60332188807E+02  0.41800000000E+01 0.  1.
</event>
<event>
11    1  0.8551154E-009  0.1335237E+03  0.7561462E-02  0.1115014E+00
         22   -1    0    0    0    0  0.00000000000E+00  0.00000000000E+00  0.54412214070E+03  0.54412214070E+03  0.00000000000E+00 0.  1.
         22   -1    0    0    0    0 -0.00000000000E+00 -0.00000000000E+00 -0.22492727182E+03  0.22492727182E+03  0.00000000000E+00 0.  1.
        -24    2    1    2    0    0  0.61121617598E+01  0.84398273268E+01 -0.16959594374E+03  0.18736418932E+03  0.78955469090E+02 0.  0.
         25    2    1    2    0    0 -0.21510848277E+02  0.36311268528E+02  0.63673707673E+02  0.14657460630E+03  0.12509416193E+03 0.  0.
         24    2    1    2    0    0  0.15398686517E+02 -0.44751095854E+02  0.42511710495E+03  0.43511061690E+03  0.79730269640E+02 0.  0.
        -13    1    5    5    0    0  0.99356303798E+00 -0.37218768360E+01  0.33528624048E+03  0.33530836940E+03  0.00000000000E+00 0.  1.
         14    1    5    5    0    0  0.14405123479E+02 -0.41029219018E+02  0.89830864465E+02  0.99802247501E+02  0.00000000000E+00 0. -1.
         13    1    3    3    0    0 -0.22187282394E+02  0.12925743055E+01 -0.87401986242E+01  0.23881736126E+02  0.00000000000E+00 0. -1.
        -14    1    3    3    0    0  0.28299444154E+02  0.71472530213E+01 -0.16085574511E+03  0.16348245319E+03  0.00000000000E+00 0.  1.
          5    1    4    4  501    0  0.39557471625E+02 -0.23697982607E+02  0.22307376899E+02  0.51395324740E+02  0.41800000000E+01 0. -1.
         -5    1    4    4    0  501 -0.61068319902E+02  0.60009251135E+02  0.41366330774E+02  0.95179281564E+02  0.41800000000E+01 0. -1.
</event>
<event>
11    1  0.8551154E-009  0.1721132E+03  0.7561462E-02  0.1076207E+00
         22   -1    0    0    0    0  0.00000000000E+00  0.00000000000E+00  0.16176164822E+03  0.16176164822E+03  0.00000000000E+00 0.  1.
         22   -1    0    0    0    0 -0.00000000000E+00 -0.00000000000E+00 -0.69768719512E+03  0.69768719512E+03  0.00000000000E+00 0. -1.
        -24    2    1    2    0    0 -0.63496707533E+02  0.87261703506E+02 -0.16765030562E+03  0.21530061979E+03  0.81248354695E+02 0.  0.
         25    2    1    2    0    0  0.17440816207E+03 -0.10050970774E+03 -0.43227355045E+03  0.49297950604E+03  0.12509181672E+03 0.  0.
         24    2    1    2    0    0 -0.11091145453E+03  0.13248004236E+02  0.63998309165E+02  0.15116871751E+03  0.79242269122E+02 0.  0.
        -13    1    5    5    0    0 -0.85810518744E+02  0.37135916499E+01  0.82074721332E+02  0.11880023473E+03  0.00000000000E+00 0.  1.
         14    1    5    5    0    0 -0.25100935791E+02  0.95344125866E+01 -0.18076412167E+02  0.32368482785E+02  0.00000000000E+00 0. -1.
         11    1    3    3    0    0  0.16352775903E+02  0.33060757118E+00 -0.13895418159E+02  0.21461715377E+02  0.00000000000E+00 0. -1.
        -12    1    3    3    0    0 -0.79849483436E+02  0.86931095935E+02 -0.15375488746E+03  0.19383890441E+03  0.00000000000E+00 0.  1.
          5    1    4    4  501    0  0.12436671937E+02 -0.33907843278E+02 -0.13053584739E+02  0.38630054610E+02  0.41800000000E+01 0.  1.
         -5    1    4    4    0  501  0.16197149013E+03 -0.66601864464E+02 -0.41921996571E+03  0.45434945143E+03  0.41800000000E+01 0.  1.
</event>
<event>
11    1  0.8551154E-009  0.1397546E+03  0.7561462E-02  0.1107833E+00
         22   -1    0    0    0    0  0.00000000000E+00  0.00000000000E+00  0.10571023067E+04  0.10571023067E+04  0.00000000000E+00 0. -1.
         22   -1    0    0    0    0 -0.00000000000E+00 -0.00000000000E+00 -0.25757440603E+03  0.25757440603E+03  0.00000000000E+00 0.  1.
        -24    2    1    2    0    0 -0.64727085770E+02 -0.21525462870E+01 -0.13992638324E+03  0.17475103050E+03  0.82245369771E+02 0.  0.
         25    2    1    2    0    0  0.54885421149E+02 -0.24053425430E+02 -0.49463580202E+02  0.14725793451E+03  0.12508907539E+03 0.  0.
         24    2    1    2    0    0  0.98416646215E+01  0.26205971717E+02  0.98891786411E+03  0.99266774771E+03  0.81529774164E+02 0.  0.
        -11    1    5    5    0    0 -0.22491020542E+02 -0.14909722040E+02  0.17471783121E+03  0.17678932761E+03  0.00000000000E+00 0.  1.
         12    1    5    5    0    0  0.32332685163E+02  0.41115693757E+02  0.81420003290E+03  0.81587842010E+03  0.00000000000E+00 0. -1.
         11    1    3    3    0    0  0.11576119934E+02  0.14126157213E+02 -0.50740318137E+01  0.18955228017E+02  0.00000000000E+00 0. -1.
        -12    1    3    3    0    0 -0.76303205704E+02 -0.16278703500E+02 -0.13485235142E+03  0.15579580249E+03  0.00000000000E+00 0.  1.
          5    1    4    4  501    0 -0.30693863902E+02  0.19556737318E+02 -0.33808557582E+02  0.49850478649E+02  0.41800000000E+01 0. -1.
         -5    1    4    4    0  501  0.85579285051E+02 -0.43610162748E+02 -0.15655022620E+02  0.97407455864E+02  0.41800000000E+01 0. -1.
</event>
<event>
11    1  0.8551154E-009  0.1300046E+03  0.7561462E-02  0.1119263E+00
         22   -1    0    0    0    0  0.00000000000E+00  0.00000000000E+00  0.18848448943E+03  0.18848448943E+03  0.00000000000E+00 0. -1.
         22   -1    0    0    0    0 -0.00000000000E+00 -0.00000000000E+00 -0.41922831389E+03  0.41922831389E+03  0.00000000000E+00 0.  1.
         24    2    1    2    0    0  0.86370168330E+01  0.12526178909E+02 -0.21722901215E+03  0.23163075610E+03  0.78948465684E+02 0.  0.
         25    2    1    2    0    0 -0.43420329037E+02 -0.95858677533E+01 -0.15803916606E+03  0.20640070493E+03  0.12509060378E+03 0.  0.
        -24    2    1    2    0    0  0.34783312204E+02 -0.29403111557E+01  0.14452435375E+03  0.16968134230E+03  0.81767627211E+02 0.  0.
        -11    1    3    3    0    0 -0.24044926596E+02  0.23633408404E+02 -0.16895157515E+03  0.17228270730E+03  0.00000000000E+00 0.  1.
         12    1    3    3    0    0  0.32681943429E+02 -0.11107229495E+02 -0.48277436995E+02  0.59348048799E+02  0.00000000000E+00 0. -1.
         13    1    5    5    0    0  0.38913553015E+02 -0.37531698973E+02  0.88866619696E+02  0.10402004197E+03  0.00000000000E+00 0. -1.
        -14    1    5    5    0    0 -0.41302408104E+01  0.34591387817E+02  0.55657734052E+02  0.65661300323E+02  0.00000000000E+00 0.  1.
          5    1    4    4  501    0 -0.24776553323E+02 -0.50241454090E+02 -0.17469893575E+02  0.58828147049E+02  0.41800000000E+01 0.  1.
         -5    1    4    4    0  501 -0.18643775715E+02  0.40655586337E+02 -0.14056927248E+03  0.14757255788E+03  0.41800000000E+01 0.  1.
</event>
<event>
11    1  0.8551154E-009  0.1501197E+03  0.7561462E-02  0.1096757E+00
         22   -1    0    0    0    0  0.00000000000E+00  0.00000000000E+00  0.20396274920E+03  0.20396274920E+03  0.00000000000E+00 0. -1.
         22   -1    0    0    0    0 -0.00000000000E+00 -0.00000000000E+00 -0.85256035125E+03  0.85256035125E+03  0.00000000000E+00 0. -1.
         24    2    1    2    0    0  0.41004874175E+02 -0.22591141248E+02 -0.61142336041E+03  0.61832387955E+03  0.79335584650E+02 0.  0.
         25    2    1    2    0    0 -0.66370395516E+02  0.98630260788E+02 -0.18426372426E+03  0.25245522593E+03  0.12509022056E+03 0.  0.
        -24    2    1    2    0    0  0.25365521340E+02 -0.76039119539E+02  0.14708948262E+03  0.18574399497E+03  0.80250597478E+02 0.  0.
        -13    1    3    3    0    0  0.11208796177E+02  0.81605346892E+01 -0.15233441600E+02  0.20598281024E+02  0.00000000000E+00 0.  1.
         14    1    3    3    0    0  0.29796077998E+02 -0.30751675938E+02 -0.59618991882E+03  0.59772559853E+03  0.00000000000E+00 0. -1.
         11    1    5    5    0    0  0.41906617027E+02 -0.83120373898E+02  0.10714377472E+03  0.14193290516E+03  0.00000000000E+00 0. -1.
        -12    1    5    5    0    0 -0.16541095687E+02  0.70812543590E+01  0.39945707904E+02  0.43811089803E+02  0.00000000000E+00 0.  1.
          5    1    4    4  501    0  0.85786132033E+01  0.96840058295E+02 -0.98357535153E+02  0.13835919419E+03  0.41800000000E+01 0. -1.
         -5    1    4    4    0  501 -0.74949008719E+02  0.17902024924E+01 -0.85906189109E+02  0.11409603175E+03  0.41800000000E+01 0. -1.
</event>
<event>
11    1  0.8551154E-009  0.1306728E+03  0.7561462E-02  0.1118445E+00
         22   -1    0    0    0    0  0.00000000000E+00  0.00000000000E+00  0.20878478736E+03  0.20878478736E+03  0.00000000000E+00 0. -1.
         22   -1    0    0    0    0 -0.00000000000E+00 -0.00000000000E+00 -0.13251102464E+04  0.13251102464E+04  0.00000000000E+00 0.  1.
         24    2    1    2    0    0  0.13265937602E+02  0.18603239070E+02 -0.10417199317E+04  0.10449626515E+04  0.79021904363E+02 0.  0.
         25    2    1    2    0    0 -0.22252269888E+02  0.18627590927E+02 -0.25681205099E+03  0.28712772885E+03  0.12509097684E+03 0.  0.
        -24    2    1    2    0    0  0.89863322856E+01 -0.37230829998E+02  0.18220652367E+03  0.20180465336E+03  0.77839655576E+02 0.  0.
        -13    1    3    3    0    0 -0.50513082019E+00 -0.24294399019E+02 -0.68193076387E+03  0.68236356856E+03  0.00000000000E+00 0.  1.
         14    1    3    3    0    0  0.13771068423E+02  0.42897638090E+02 -0.35978916784E+03  0.36259908297E+03  0.00000000000E+00 0. -1.
         13    1    5    5    0    0 -0.27478498998E+02 -0.37715027829E+02  0.13000847437E+03  0.13812926786E+03  0.00000000000E+00 0. -1.
        -14    1    5    5    0    0  0.36464831284E+02  0.48419783199E+00  0.52198049298E+02  0.63675385500E+02  0.00000000000E+00 0.  1.
          5    1    4    4  501    0 -0.90552970062E+00  0.33382107891E+02 -0.50906642326E+01  0.34037808003E+02  0.41800000000E+01 0. -1.
         -5    1    4    4    0  501 -0.21346740187E+02 -0.14754516964E+02 -0.25172138675E+03  0.25308992085E+03  0.41800000000E+01 0. -1.
</event>
<event>
11    1  0.8551154E-009  0.1525938E+03  0.7561462E-02  0.1094258E+00
         22   -1    0    0    0    0  0.00000000000E+00  0.00000000000E+00  0.15720160795E+03  0.15720160795E+03  0.00000000000E+00 0.  1.
         22   -1    0    0    0    0 -0.00000000000E+00 -0.00000000000E+00 -0.10316115014E+04  0.10316115014E+04  0.00000000000E+00 0.  1.
        -24    2    1    2    0    0 -0.66359486582E+01 -0.31890607747E+02 -0.87131303853E+03  0.87556824472E+03  0.79826645783E+02 0.  0.
         25    2    1    2    0    0  0.74030333824E+02  0.79132640927E+02 -0.70349008008E+02  0.17982993929E+03  0.12508940383E+03 0.  0.
         24    2    1    2    0    0 -0.67394385166E+02 -0.47242033180E+02  0.67252153122E+02  0.13341492530E+03  0.80640420028E+02 0.  0.
        -13    1    5    5    0    0 -0.52015845398E+02 -0.33610272091E+02  0.85743497007E+02  0.10576977754E+03  0.00000000000E+00 0.  1.
         14    1    5    5    0    0 -0.15378539768E+02 -0.13631761089E+02 -0.18491343885E+02  0.27645147757E+02  0.00000000000E+00 0. -1.
         13    1    3    3    0    0  0.56830763354E+00  0.22629809320E+01  0.10133411981E+01  0.25437996479E+01  0.00000000000E+00 0. -1.
        -14    1    3    3    0    0 -0.72042562917E+01 -0.34153588679E+02 -0.87232637972E+03  0.87302444507E+03  0.00000000000E+00 0.  1.
          5    1    4    4  501    0  0.79022589467E+02  0.10624498445E+03 -0.39484446973E+02  0.13823552481E+03  0.41800000000E+01 0. -1.
         -5    1    4    4    0  501 -0.49922556432E+01 -0.27112343525E+02 -0.30864561035E+02  0.41594414477E+02  0.41800000000E+01 0. -1.
</event>
<event>
11    1  0.8551154E-009  0.1030591E+04  0.7561462E-02  0.8650450E-01
         22   -1    0    0    0    0  0.00000000000E+00  0.00000000000E+00  0.19090725625E+04  0.19090725625E+04  0.00000000000E+00 0.  1.
         22   -1    0    0    0    0 -0.00000000000E+00 -0.00000000000E+00 -0.97474516099E+03  0.97474516099E+03  0.00000000000E+00 0.  1.
        -24    2    1    2    0    0 -0.83681895680E+03  0.49626323532E+03 -0.11320497372E+03  0.98277590305E+03  0.80560190859E+02 0.  0.
         25    2    1    2    0    0  0.10304217000E+04 -0.43440150905E+03  0.36289082652E+03  0.11822899778E+04  0.12508512599E+03 0.  0.
         24    2    1    2    0    0 -0.19360274319E+03 -0.61861726266E+02  0.68464154873E+03  0.71875184267E+03  0.81001640379E+02 0.  0.
        -13    1    5    5    0    0 -0.19690200273E+02 -0.23055597563E+02  0.41587803817E+02  0.51466591029E+02  0.00000000000E+00 0.  1.
         14    1    5    5    0    0 -0.17391254291E+03 -0.38806128702E+02  0.64305374492E+03  0.66728525164E+03  0.00000000000E+00 0. -1.
         13    1    3    3    0    0 -0.18083345294E+03  0.12253215171E+03 -0.56756845648E+02  0.22569050807E+03  0.00000000000E+00 0. -1.
        -14    1    3    3    0    0 -0.65598550386E+03  0.37373108361E+03 -0.56448128075E+02  0.75708539498E+03  0.00000000000E+00 0.  1.
          5    1    4    4  501    0  0.82820429930E+03 -0.34935767313E+03  0.34253257227E+03  0.96193512288E+03  0.41800000000E+01 0.  1.
         -5    1    4    4    0  501  0.20221740068E+03 -0.85043835926E+02  0.20358254244E+02  0.22035485491E+03  0.41800000000E+01 0.  1.
</event>
<event>
11    1  0.8551154E-009  0.1760394E+03  0.7561462E-02  0.1072892E+00
         22   -1    0    0    0    0  0.00000000000E+00  0.00000000000E+00  0.35231924241E+03  0.35231924241E+03  0.00000000000E+00 0.  1.
         22   -1    0    0    0    0 -0.00000000000E+00 -0.00000000000E+00 -0.15564734122E+04  0.15564734122E+04  0.00000000000E+00 0.  1.
        -24    2    1    2    0    0 -0.10714269909E+03 -0.34141986333E+02 -0.13773795053E+04  0.13843677947E+04  0.81576076388E+02 0.  0.
         25    2    1    2    0    0  0.13363874221E+03 -0.87409042850E+02 -0.90085615959E+02  0.22195367061E+03  0.12509340311E+03 0.  0.
         24    2    1    2    0    0 -0.26496043120E+02  0.12155102918E+03  0.26331095150E+03  0.30247118926E+03  0.81728025540E+02 0.  0.
        -13    1    5    5    0    0 -0.22936483758E+02  0.10723651812E+03  0.26578066348E+03  0.28751541556E+03  0.00000000000E+00 0.  1.
         14    1    5    5    0    0 -0.35595593612E+01  0.14314511062E+02 -0.24697119795E+01  0.14955773703E+02  0.00000000000E+00 0. -1.
         11    1    3    3    0    0 -0.23669636078E+01 -0.56309197505E+01 -0.53299601656E+03  0.53303101546E+03  0.00000000000E+00 0. -1.
        -12    1    3    3    0    0 -0.10477573548E+03 -0.28511066582E+02 -0.84438348873E+03  0.85133677924E+03  0.00000000000E+00 0.  1.
          5    1    4    4  501    0  0.11130855088E+02 -0.34981272134E+02 -0.80159361253E+02  0.88264267581E+02  0.41800000000E+01 0. -1.
         -5    1    4    4    0  501  0.12250788712E+03 -0.52427770716E+02 -0.99262547057E+01  0.13368940303E+03  0.41800000000E+01 0. -1.
</event>
<event>
11    1  0.8551154E-009  0.2469103E+03  0.7561462E-02  0.1025558E+00
         22   -1    0    0    0    0  0.00000000000E+00  0.00000000000E+00  0.45240393233E+03  0.45240393233E+03  0.00000000000E+00 0.  1.
         22   -1    0    0    0    0 -0.00000000000E+00 -0.00000000000E+00 -0.45512230291E+03  0.45512230291E+03  0.00000000000E+00 0.  1.
        -24    2    1    2    0    0  0.12512881870E+03  0.83432468584E+02 -0.28049599501E+03  0.32819365251E+03  0.80092897611E+02 0.  0.
         25    2    1    2    0    0 -0.23212279525E+03  0.78962166869E+02  0.23828399089E+03  0.36406457553E+03  0.12509092284E+03 0.  0.
         24    2    1    2    0    0  0.10699397655E+03 -0.16239463545E+03  0.39493633542E+02  0.21526800720E+03  0.83431643833E+02 0.  0.
        -11    1    5    5    0    0  0.10570273213E+03 -0.89259466112E+02  0.22392966562E+02  0.14014908070E+03  0.00000000000E+00 0.  1.
         12    1    5    5    0    0  0.12912444124E+01 -0.73135169341E+02  0.17100666980E+02  0.75118926495E+02  0.00000000000E+00 0. -1.
         13    1    3    3    0    0  0.35522210708E+02  0.62970397462E+02 -0.81189536220E+02  0.10871448478E+03  0.00000000000E+00 0. -1.
        -14    1    3    3    0    0  0.89606607993E+02  0.20462071122E+02 -0.19930645879E+03  0.21947916773E+03  0.00000000000E+00 0.  1.
          5    1    4    4  501    0 -0.23722879672E+03  0.81561707094E+02  0.24750685630E+03  0.35243003614E+03  0.41800000000E+01 0. -1.
         -5    1    4    4    0  501  0.51060014775E+01 -0.25995402246E+01 -0.92228654126E+01  0.11634539393E+02  0.41800000000E+01 0. -1.
</event>
<event>
11    1  0.8551154E-009  0.1392572E+03  0.7561462E-02  0.1108391E+00
         22   -1    0    0    0    0  0.00000000000E+00  0.00000000000E+00  0.50869339426E+03  0.50869339426E+03  0.00000000000E+00 0. -1.
         22   -1    0    0    0    0 -0.00000000000E+00 -0.00000000000E+00 -0.20656249622E+03  0.20656249622E+03  0.00000000000E+00 0. -1.
        -24    2    1    2    0    0  0.41292341471E+02 -0.13872694648E+02 -0.15240825079E+03  0.17528504284E+03  0.74826881643E+02 0.  0.
         25    2    1    2    0    0 -0.14304931386E+02  0.69366504088E+02  0.11311215163E+03  0.18291510104E+03  0.12508889796E+03 0.  0.
         24    2    1    2    0    0 -0.26987410085E+02 -0.55493809440E+02  0.34142699720E+03  0.35705574659E+03  0.84312090297E+02 0.  0.
        -13    1    5    5    0    0  0.13025729349E+02 -0.35294598481E+02  0.52021479399E+02  0.64199786805E+02  0.00000000000E+00 0.  1.
         14    1    5    5    0    0 -0.40013139433E+02 -0.20199210960E+02  0.28940551780E+03  0.29285595979E+03  0.00000000000E+00 0. -1.
         13    1    3    3    0    0  0.58754322319E+02  0.46659569902E+01 -0.86916919974E+02  0.10501615363E+03  0.00000000000E+00 0. -1.
        -14    1    3    3    0    0 -0.17461980848E+02 -0.18538651638E+02 -0.65491330812E+02  0.70268889213E+02  0.00000000000E+00 0.  1.
          5    1    4    4  501    0 -0.48343209079E+02  0.58359480982E+02  0.12391655773E+03  0.14531235517E+03  0.41800000000E+01 0. -1.
         -5    1    4    4    0  501  0.34038277693E+02  0.11007023107E+02 -0.10804406106E+02  0.37602745874E+02  0.41800000000E+01 0. -1.
</event>
<event>
11    1  0.8551154E-009  0.1376641E+03  0.7561462E-02  0.1110195E+00
         22   -1    0    0    0    0  0.00000000000E+00  0.00000000000E+00  0.34119730074E+03  0.34119730074E+03  0.00000000000E+00 0.  1.
         22   -1    0    0    0    0 -0.00000000000E+00 -0.00000000000E+00 -0.62494984638E+03  0.62494984638E+03  0.00000000000E+00 0. -1.
        -24    2    1    2    0    0 -0.12755873522E+02  0.31847210647E+02 -0.46536621669E+03  0.47330240167E+03  0.79199057127E+02 0.  0.
         25    2    1    2    0    0  0.31608578225E+02  0.23863428747E+02 -0.11846242766E+03  0.17677316428E+03  0.12508732706E+03 0.  0.
         24    2    1    2    0    0 -0.18852704703E+02 -0.55710639394E+02  0.30007609872E+03  0.31607158117E+03  0.79977994392E+02 0.  0.
        -13    1    5    5    0    0 -0.32731496649E+02 -0.23295213851E+02  0.25828946836E+03  0.26139523203E+03  0.00000000000E+00 0.  1.
         14    1    5    5    0    0  0.13878791946E+02 -0.32415425543E+02  0.41786630353E+02  0.54676349140E+02  0.00000000000E+00 0. -1.
         11    1    3    3    0    0 -0.15088851629E+01  0.12563411299E+02 -0.43710323492E+03  0.43728635243E+03  0.00000000000E+00 0. -1.
        -12    1    3    3    0    0 -0.11246988359E+02  0.19283799347E+02 -0.28262981769E+02  0.36016049241E+02  0.00000000000E+00 0.  1.
          5    1    4    4  501    0  0.76949151329E+02 -0.27746932171E+01 -0.82507414451E+02  0.11293279706E+03  0.41800000000E+01 0. -1.
         -5    1    4    4    0  501 -0.45340573104E+02  0.26638121964E+02 -0.35955013212E+02  0.63840367216E+02  0.41800000000E+01 0. -1.
</event>
<event>
11    1  0.8551154E-009  0.1524470E+03  0.7561462E-02  0.1094404E+00
         22   -1    0    0    0    0  0.00000000000E+00  0.00000000000E+00  0.18489215338E+04  0.18489215338E+04  0.00000000000E+00 0.  1.
         22   -1    0    0    0    0 -0.00000000000E+00 -0.00000000000E+00 -0.18308032222E+03  0.18308032222E+03  0.00000000000E+00 0. -1.
        -24    2    1    2    0    0 -0.25692671704E+02  0.82131743710E+02 -0.12764012116E+03  0.17354312713E+03  0.80121655882E+02 0.  0.
         25    2    1    2    0    0  0.29231079347E+02 -0.91894197066E+02  0.16682686606E+03  0.22973500827E+03  0.12509185157E+03 0.  0.
         24    2    1    2    0    0 -0.35384076430E+01  0.97624533554E+01  0.16266544667E+04  0.16287237207E+04  0.81414853110E+02 0.  0.
        -11    1    5    5    0    0  0.37706389952E+02  0.14532638491E+02  0.85067058177E+03  0.85162985394E+03  0.00000000000E+00 0.  1.
         12    1    5    5    0    0 -0.41244797595E+02 -0.47701851354E+01  0.77598388495E+03  0.77709386672E+03  0.00000000000E+00 0. -1.
         11    1    3    3    0    0 -0.41186029331E+02  0.33610077384E+02 -0.10523149567E+03  0.11789653937E+03  0.00000000000E+00 0. -1.
        -12    1    3    3    0    0  0.15493357627E+02  0.48521666326E+02 -0.22408625489E+02  0.55646587766E+02  0.00000000000E+00 0.  1.
          5    1    4    4  501    0 -0.64503662275E+01 -0.95251549871E+01  0.13323968205E+03  0.13380067666E+03  0.41800000000E+01 0.  1.
         -5    1    4    4    0  501  0.35681445575E+02 -0.82369042079E+02  0.33587184011E+02  0.95934331608E+02  0.41800000000E+01 0.  1.
</event>
<event>
11    1  0.8551154E-009  0.2155750E+03  0.7561462E-02  0.1044025E+00
         22   -1    0    0    0    0  0.00000000000E+00  0.00000000000E+00  0.52465685366E+03  0.52465685366E+03  0.00000000000E+00 0.  1.
         22   -1    0    0    0    0 -0.00000000000E+00 -0.00000000000E+00 -0.88133579572E+03  0.88133579572E+03  0.00000000000E+00 0. -1.
         24    2    1    2    0    0 -0.10096446872E+03 -0.21018652307E+02 -0.66043925356E+03  0.67317120814E+03  0.79648352997E+02 0.  0.
         25    2    1    2    0    0  0.16985847586E+03  0.17590024205E+03 -0.96222818551E+02  0.29103011186E+03  0.12508756221E+03 0.  0.
        -24    2    1    2    0    0 -0.68894007144E+02 -0.15488158975E+03  0.39998313005E+03  0.44179132938E+03  0.80364067433E+02 0.  0.
        -11    1    3    3    0    0 -0.66902696517E+02 -0.45806952565E+02 -0.31900994153E+03  0.32915283760E+03  0.00000000000E+00 0.  1.
         12    1    3    3    0    0 -0.34061772204E+02  0.24788300259E+02 -0.34142931204E+03  0.34401837055E+03  0.00000000000E+00 0. -1.
         13    1    5    5    0    0 -0.61591294243E+01  0.74140604613E+01  0.50239616833E+02  0.51155862493E+02  0.00000000000E+00 0. -1.
        -14    1    5    5    0    0 -0.62734877719E+02 -0.16229565021E+03  0.34974351321E+03  0.39063546689E+03  0.00000000000E+00 0.  1.
          5    1    4    4  501    0  0.39153587005E+02  0.68087295672E+02  0.25141008890E+02  0.82573760574E+02  0.41800000000E+01 0. -1.
         -5    1    4    4    0  501  0.13070488886E+03  0.10781294638E+03 -0.12136382744E+03  0.20845635128E+03  0.41800000000E+01 0. -1.
</event>
<event>
11    1  0.8551154E-009  0.1457743E+03  0.7561462E-02  0.1101277E+00
         22   -1    0    0    0    0  0.00000000000E+00  0.00000000000E+00  0.26615106493E+04  0.26615106493E+04  0.00000000000E+00 0. -1.
         22   -1    0    0    0    0 -0.00000000000E+00 -0.00000000000E+00 -0.12068854503E+03  0.12068854503E+03  0.00000000000E+00 0.  1.
        -24    2    1    2    0    0  0.21400271977E+02 -0.40403190801E+02 -0.54452009551E+02  0.10192385961E+03  0.73027818989E+02 0.  0.
         25    2    1    2    0    0  0.43527324728E+02  0.97761388040E+00  0.64939808231E+02  0.14751717686E+03  0.12509418471E+03 0.  0.
         24    2    1    2    0    0 -0.64927596705E+02  0.39425576921E+02  0.25303343056E+04  0.25327581578E+04  0.80636339511E+02 0.  0.
        -11    1    5    5    0    0  0.14849276295E+02 -0.66562631844E+01  0.22726189048E+03  0.22784374846E+03  0.00000000000E+00 0.  1.
         12    1    5    5    0    0 -0.79776873000E+02  0.46081840105E+02  0.23030724151E+04  0.23049144094E+04  0.00000000000E+00 0. -1.
         11    1    3    3    0    0 -0.87284665726E+01 -0.24117667176E+02  0.11113107715E+02  0.27952623523E+02  0.00000000000E+00 0. -1.
        -12    1    3    3    0    0  0.30128738550E+02 -0.16285523625E+02 -0.65565117266E+02  0.73971236088E+02  0.00000000000E+00 0.  1.
          5    1    4    4  501    0  0.17983625983E+02 -0.11541940081E+02 -0.36269307135E+02  0.42303217659E+02  0.41800000000E+01 0. -1.
         -5    1    4    4    0  501  0.25543698745E+02  0.12519553961E+02  0.10120911537E+03  0.10521395920E+03  0.41800000000E+01 0. -1.
</event>
<event>
11    1  0.8551154E-009  0.1272122E+03  0.7561462E-02  0.1122742E+00
         22   -1    0    0    0    0  0.00000000000E+00  0.00000000000E+00  0.19338799307E+04  0.19338799307E+04  0.00000000000E+00 0.  1.
         22   -1    0    0    0    0 -0.00000000000E+00 -0.00000000000E+00 -0.31799300783E+03  0.31799300783E+03  0.00000000000E+00 0. -1.
        -24    2    1    2    0    0 -0.21471183491E+02 -0.73533222617E+01 -0.30155579584E+03  0.31545904118E+03  0.89796578929E+02 0.  0.
         25    2    1    2    0    0  0.64867734181E+02  0.13726943636E+02  0.63101016681E+03  0.64669672594E+03  0.12508626143E+03 0.  0.
         24    2    1    2    0    0 -0.43396550690E+02 -0.63736213745E+01  0.12864325519E+04  0.12897171715E+04  0.80856589312E+02 0.  0.
        -11    1    5    5    0    0 -0.42574209363E+02 -0.51122742907E+01  0.12872768815E+04  0.12879908650E+04  0.00000000000E+00 0.  1.
         12    1    5    5    0    0 -0.82234132725E+00 -0.12613470838E+01 -0.84432954812E+00  0.17263064937E+01  0.00000000000E+00 0. -1.
         11    1    3    3    0    0 -0.74690028929E+01 -0.24347398452E+02 -0.28898274228E+03  0.29010275275E+03  0.00000000000E+00 0. -1.
        -12    1    3    3    0    0 -0.14002180598E+02  0.16994076190E+02 -0.12573053555E+02  0.25356288426E+02  0.00000000000E+00 0.  1.
          5    1    4    4  501    0  0.75598245680E+01  0.52368205397E+02  0.12264071469E+03  0.13363306920E+03  0.41800000000E+01 0.  1.
         -5    1    4    4    0  501  0.57307909613E+02 -0.38641261761E+02  0.50836945212E+03  0.51306365673E+03  0.41800000000E+01 0.  1.
</event>
<event>
11    1  0.8551154E-009  0.1534352E+03  0.7561462E-02  0.1093419E+00
         22   -1    0    0    0    0  0.00000000000E+00  0.00000000000E+00  0.16202781338E+04  0.16202781338E+04  0.00000000000E+00 0. -1.
         22   -1    0    0    0    0 -0.00000000000E+00 -0.00000000000E+00 -0.73639952554E+03  0.73639952554E+03  0.00000000000E+00 0. -1.
        -24    2    1    2    0    0  0.13460445650E+02  0.89262168338E+02 -0.70139093766E+03  0.71178068324E+03  0.80830534531E+02 0.  0.
         25    2    1    2    0    0  0.41155113482E+02 -0.47254937982E+02  0.14780524808E+03  0.20351987841E+03  0.12508867663E+03 0.  0.
         24    2    1    2    0    0 -0.54615559132E+02 -0.42007230356E+02  0.14374642978E+04  0.14413770977E+04  0.80727092509E+02 0.  0.
        -13    1    5    5    0    0 -0.55264683227E+02  0.53383273468E+01  0.94913771908E+03  0.95076027090E+03  0.00000000000E+00 0.  1.
         14    1    5    5    0    0  0.64912409526E+00 -0.47345557703E+02  0.48832657876E+03  0.49061682678E+03  0.00000000000E+00 0. -1.
         11    1    3    3    0    0 -0.12267552332E+02 -0.56028011173E+01 -0.22240820051E+03  0.22281672261E+03  0.00000000000E+00 0. -1.
        -12    1    3    3    0    0  0.25727997982E+02  0.94864969455E+02 -0.47898273715E+03  0.48896396063E+03  0.00000000000E+00 0.  1.
          5    1    4    4  501    0  0.71309424297E+02  0.12623080858E+02  0.71353665148E+02  0.10175064665E+03  0.41800000000E+01 0. -1.
         -5    1    4    4    0  501 -0.30154310816E+02 -0.59878018840E+02  0.76451582931E+02  0.10176923176E+03  0.41800000000E+01 0. -1.
</event>
<event>
11    1  0.8551154E-009  0.2058652E+03  0.7561462E-02  0.1050452E+00
         22   -1    0    0    0    0  0.00000000000E+00  0.00000000000E+00  0.63096148353E+03  0.63096148353E+03  0.00000000000E+00 0.  1.
         22   -1    0    0    0    0 -0.00000000000E+00 -0.00000000000E+00 -0.88389102035E+03  0.88389102035E+03  0.00000000000E+00 0.  1.
         24    2    1    2    0    0  0.11784515062E+03  0.96314801857E+02 -0.62191989336E+03  0.64520040842E+03  0.79593923654E+02 0.  0.
         25    2    1    2    0    0 -0.19488401681E+03 -0.13070725913E+03 -0.17183366324E+03  0.31660331720E+03  0.12508671010E+03 0.  0.
        -24    2    1    2    0    0  0.77038866197E+02  0.34392457269E+02  0.54082401979E+03  0.55304877826E+03  0.79085414153E+02 0.  0.
        -11    1    3    3    0    0  0.11663628759E+03  0.62996507524E+02 -0.41633222500E+03  0.43692688761E+03  0.00000000000E+00 0.  1.
         12    1    3    3    0    0  0.12088630245E+01  0.33318294333E+02 -0.20558766836E+03  0.20827352081E+03  0.00000000000E+00 0. -1.
         11    1    5    5    0    0  0.74652130765E+01 -0.14121956490E+02  0.21181258800E+02  0.26529319360E+02  0.00000000000E+00 0. -1.
        -12    1    5    5    0    0  0.69573653120E+02  0.48514413759E+02  0.51964276099E+03  0.52651945890E+03  0.00000000000E+00 0.  1.
          5    1    4    4  501    0 -0.17693478320E+03 -0.80325165685E+02 -0.17677926732E+03  0.26272881742E+03  0.41800000000E+01 0. -1.
         -5    1    4    4    0  501 -0.17949233608E+02 -0.50382093442E+02  0.49456040825E+01  0.53874499779E+02  0.41800000000E+01 0. -1.
</event>
<event>
11    1  0.8551154E-009  0.1472225E+03  0.7561462E-02  0.1099751E+00
         22   -1    0    0    0    0  0.00000000000E+00  0.00000000000E+00  0.14140280561E+03  0.14140280561E+03  0.00000000000E+00 0.  1.
         22   -1    0    0    0    0 -0.00000000000E+00 -0.00000000000E+00 -0.73596937009E+03  0.73596937009E+03  0.00000000000E+00 0.  1.
        -24    2    1    2    0    0  0.22014371032E+01  0.82182440960E+02 -0.40471832468E+03  0.42091130518E+03  0.81305624502E+02 0.  0.
         25    2    1    2    0    0  0.54739430667E+02 -0.62274041857E+02 -0.28286867607E+03  0.32021474766E+03  0.12509330581E+03 0.  0.
         24    2    1    2    0    0 -0.56940867770E+02 -0.19908399102E+02  0.93020436266E+02  0.13624612287E+03  0.79193419269E+02 0.  0.
        -11    1    5    5    0    0 -0.30880098759E+02  0.11199663334E+02  0.89703957265E+02  0.95529120729E+02  0.00000000000E+00 0.  1.
         12    1    5    5    0    0 -0.26060769012E+02 -0.31108062436E+02  0.33164790007E+01  0.40717002137E+02  0.00000000000E+00 0. -1.
         13    1    3    3    0    0  0.40314760319E+02  0.29562353574E+02 -0.15400965195E+03  0.16192030615E+03  0.00000000000E+00 0. -1.
        -14    1    3    3    0    0 -0.38113323216E+02  0.52620087385E+02 -0.25070867273E+03  0.25899099904E+03  0.00000000000E+00 0.  1.
          5    1    4    4  501    0 -0.29460540031E+02 -0.35919065681E+02 -0.17335491647E+03  0.17952019988E+03  0.41800000000E+01 0. -1.
         -5    1    4    4    0  501  0.84199970698E+02 -0.26354976176E+02 -0.10951375959E+03  0.14069454778E+03  0.41800000000E+01 0. -1.
</event>
<event>
11    1  0.8551154E-009  0.1833002E+03  0.7561462E-02  0.1067004E+00
         22   -1    0    0    0    0  0.00000000000E+00  0.00000000000E+00  0.15653847267E+03  0.15653847267E+03  0.00000000000E+00 0. -1.
         22   -1    0    0    0    0 -0.00000000000E+00 -0.00000000000E+00 -0.12232738074E+04  0.12232738074E+04  0.00000000000E+00 0. -1.
         24    2    1    2    0    0 -0.64877017876E+02 -0.11395506203E+03 -0.56984706624E+03  0.59006606478E+03  0.79104350615E+02 0.  0.
         25    2    1    2    0    0  0.12019802517E+02  0.14548927570E+03 -0.60896794581E+03  0.63859307286E+03  0.12509016221E+03 0.  0.
        -24    2    1    2    0    0  0.52857215359E+02 -0.31534213662E+02  0.11207967734E+03  0.15115314241E+03  0.80604755078E+02 0.  0.
        -11    1    3    3    0    0 -0.50664616494E+01 -0.11022741197E+02 -0.55366223400E+01  0.13335068207E+02  0.00000000000E+00 0.  1.
         12    1    3    3    0    0 -0.59810556227E+02 -0.10293232084E+03 -0.56431044390E+03  0.57673099657E+03  0.00000000000E+00 0. -1.
         13    1    5    5    0    0  0.20897252354E+02 -0.32963761206E+02  0.11258394876E+03  0.11915725000E+03  0.00000000000E+00 0. -1.
        -14    1    5    5    0    0  0.31959963005E+02  0.14295475442E+01 -0.50427142218E+00  0.31995892410E+02  0.00000000000E+00 0.  1.
          5    1    4    4  501    0  0.18192523649E+02  0.32217207334E+02 -0.27865362458E+02  0.46506635979E+02  0.41800000000E+01 0. -1.
         -5    1    4    4    0  501 -0.61727211318E+01  0.11327206836E+03 -0.58110258336E+03  0.59208643688E+03  0.41800000000E+01 0. -1.
</event>
<event>
11    1  0.8551154E-009  0.1316196E+03  0.7561462E-02  0.1117295E+00
         22   -1    0    0    0    0  0.00000000000E+00  0.00000000000E+00  0.60213340877E+03  0.60213340877E+03  0.00000000000E+00 0. -1.
         22   -1    0    0    0    0 -0.00000000000E+00 -0.00000000000E+00 -0.86987811633E+02  0.86987811633E+02  0.00000000000E+00 0. -1.
         24    2    1    2    0    0  0.32636949017E+02 -0.50002668028E+02  0.21186398661E+02  0.11281466027E+03  0.93342631373E+02 0.  0.
         25    2    1    2    0    0 -0.18492169515E+02 -0.23069309784E+01  0.76701947017E+02  0.14791375016E+03  0.12509199233E+03 0.  0.
        -24    2    1    2    0    0 -0.14144779502E+02  0.52309599006E+02  0.41725725146E+03  0.42839280998E+03  0.80501036095E+02 0.  0.
        -13    1    3    3    0    0 -0.32207170647E+02 -0.13655279604E+02 -0.17328673796E+01  0.35025295595E+02  0.00000000000E+00 0.  1.
         14    1    3    3    0    0  0.64844119664E+02 -0.36347388423E+02  0.22919266040E+02  0.77789364671E+02  0.00000000000E+00 0. -1.
         11    1    5    5    0    0 -0.22810213635E+02  0.71478886016E+02  0.29840600353E+03  0.30769413374E+03  0.00000000000E+00 0. -1.
        -12    1    5    5    0    0  0.86654341322E+01 -0.19169287010E+02  0.11885124792E+03  0.12069867624E+03  0.00000000000E+00 0.  1.
          5    1    4    4  501    0  0.41577148800E+02 -0.14328772822E+02 -0.63487041149E+01  0.44629042975E+02  0.41800000000E+01 0.  1.
         -5    1    4    4    0  501 -0.60069318315E+02  0.12021841844E+02  0.83050651132E+02  0.10328470718E+03  0.41800000000E+01 0.  1.
</event>
<event>
11    1  0.8551154E-009  0.1997998E+03  0.7561462E-02  0.1054665E+00
         22   -1    0    0    0    0  0.00000000000E+00  0.00000000000E+00  0.63093230313E+03  0.63093230313E+03  0.00000000000E+00 0. -1.
         22   -1    0    0    0    0 -0.00000000000E+00 -0.00000000000E+00 -0.83185875680E+03  0.83185875680E+03  0.00000000000E+00 0. -1.
        -24    2    1    2    0    0  0.65254916918E+02  0.35621266961E+02 -0.66802224105E+03  0.67721317101E+03  0.82685461928E+02 0.  0.
         25    2    1    2    0    0 -0.42535501614E+02  0.12238512359E+03 -0.89380164674E+02  0.20105597782E+03  0.12508918820E+03 0.  0.
         24    2    1    2    0    0 -0.22719415304E+02 -0.15800639055E+03  0.55647595206E+03  0.58452191111E+03  0.80735296228E+02 0.  0.
        -13    1    5    5    0    0 -0.17931779110E+02 -0.19693753457E+02  0.20593500058E+03  0.20765022777E+03  0.00000000000E+00 0.  1.
         14    1    5    5    0    0 -0.47876361941E+01 -0.13831263709E+03  0.35054095148E+03  0.37687168334E+03  0.00000000000E+00 0. -1.
         11    1    3    3    0    0  0.82900984154E+02  0.40925801273E+02 -0.53675628591E+03  0.54466026553E+03  0.00000000000E+00 0. -1.
        -12    1    3    3    0    0 -0.17646067236E+02 -0.53045343118E+01 -0.13126595513E+03  0.13255290548E+03  0.00000000000E+00 0.  1.
          5    1    4    4  501    0  0.20465154328E+02 -0.32269670681E+01  0.15032485983E+02  0.25936150311E+02  0.41800000000E+01 0.  1.
         -5    1    4    4    0  501 -0.63000655941E+02  0.12561209066E+03 -0.10441265066E+03  0.17511982751E+03  0.41800000000E+01 0.  1.
</event>
<event>
11    1  0.8551154E-009  0.1690661E+03  0.7561462E-02  0.1078847E+00
         22   -1    0    0    0    0  0.00000000000E+00  0.00000000000E+00  0.14375741402E+03  0.14375741402E+03  0.00000000000E+00 0. -1.
         22   -1    0    0    0    0 -0.00000000000E+00 -0.00000000000E+00 -0.10695570463E+04  0.10695570463E+04  0.00000000000E+00 0. -1.
         24    2    1    2    0    0  0.29980988461E+02  0.28821020421E+02 -0.69974089742E+03  0.70554534130E+03  0.80171031088E+02 0.  0.
         25    2    1    2    0    0 -0.12868924755E+03 -0.75856952491E+02 -0.29707167438E+03  0.35526717155E+03  0.12509190136E+03 0.  0.
        -24    2    1    2    0    0  0.98708259089E+02  0.47035932070E+02  0.71012939499E+02  0.15250194748E+03  0.79109462715E+02 0.  0.
        -11    1    3    3    0    0  0.23098090713E+01 -0.47427747201E+01 -0.89955483104E+00  0.53514791306E+01  0.00000000000E+00 0.  1.
         12    1    3    3    0    0  0.27671179389E+02  0.33563795141E+02 -0.69884134259E+03  0.70019386217E+03  0.00000000000E+00 0. -1.
         11    1    5    5    0    0  0.47052989670E+01  0.40113583147E+02  0.26127087982E+02  0.48102641484E+02  0.00000000000E+00 0. -1.
        -12    1    5    5    0    0  0.94002960122E+02  0.69223489227E+01  0.44885851516E+02  0.10439930600E+03  0.00000000000E+00 0.  1.
          5    1    4    4  501    0 -0.49082557711E+02 -0.99236590571E+02 -0.15197207422E+03  0.18806908869E+03  0.41800000000E+01 0. -1.
         -5    1    4    4    0  501 -0.79606689839E+02  0.23379638080E+02 -0.14509960016E+03  0.16719808286E+03  0.41800000000E+01 0. -1.
</event>
<event>
11    1  0.8551154E-009  0.1648999E+03  0.7561462E-02  0.1082557E+00
         22   -1    0    0    0    0  0.00000000000E+00  0.00000000000E+00  0.10084831964E+03  0.10084831964E+03  0.00000000000E+00 0. -1.
         22   -1    0    0    0    0 -0.00000000000E+00 -0.00000000000E+00 -0.75232907755E+03  0.75232907755E+03  0.00000000000E+00 0. -1.
        -24    2    1    2    0    0  0.39943483899E+02  0.51819174253E+02 -0.46893728315E+03  0.48007722159E+03  0.79317428288E+02 0.  0.
         25    2    1    2    0    0 -0.47257051315E+02 -0.14268099650E+03 -0.14943824060E+03  0.24610666624E+03  0.12508240384E+03 0.  0.
         24    2    1    2    0    0  0.73135674154E+01  0.90861822248E+02 -0.33105234164E+02  0.12699350936E+03  0.81988022789E+02 0.  0.
        -13    1    5    5    0    0 -0.14706504416E+01  0.83403698907E+01 -0.42628112343E+02  0.43461253370E+02  0.00000000000E+00 0.  1.
         14    1    5    5    0    0  0.87842178571E+01  0.82521452357E+02  0.95228781787E+01  0.83532255993E+02  0.00000000000E+00 0. -1.
         11    1    3    3    0    0  0.51705067605E+02  0.24115206042E+02 -0.40948912963E+03  0.41344443939E+03  0.00000000000E+00 0. -1.
        -12    1    3    3    0    0 -0.11761583706E+02  0.27703968212E+02 -0.59448153523E+02  0.66632782197E+02  0.00000000000E+00 0.  1.
          5    1    4    4  501    0  0.82549117081E+01 -0.95517010483E+01  0.19705746432E+02  0.23773249729E+02  0.41800000000E+01 0.  1.
         -5    1    4    4    0  501 -0.55511963023E+02 -0.13312929545E+03 -0.16914398703E+03  0.22233341651E+03  0.41800000000E+01 0.  1.
</event>
<event>
11    1  0.8551154E-009  0.1466455E+03  0.7561462E-02  0.1100357E+00
         22   -1    0    0    0    0  0.00000000000E+00  0.00000000000E+00  0.10136079471E+04  0.10136079471E+04  0.00000000000E+00 0.  1.
         22   -1    0    0    0    0 -0.00000000000E+00 -0.00000000000E+00 -0.58735771720E+02  0.58735771720E+02  0.00000000000E+00 0.  1.
         24    2    1    2    0    0 -0.19969671575E+02 -0.47696440410E+02  0.20273949691E+02  0.10071489468E+03  0.84016181553E+02 0.  0.
         25    2    1    2    0    0  0.88035044747E+02  0.19668686645E+02  0.52094637182E+03  0.54329603529E+03  0.12509369810E+03 0.  0.
        -24    2    1    2    0    0 -0.68065373172E+02  0.28027753765E+02  0.41365185384E+03  0.42833278883E+03  0.83322696775E+02 0.  0.
        -13    1    3    3    0    0  0.40473931724E+01 -0.27201536015E+02 -0.30410205255E+02  0.41001043117E+02  0.00000000000E+00 0.  1.
         14    1    3    3    0    0 -0.24017064747E+02 -0.20494904395E+02  0.50684154946E+02  0.59713851558E+02  0.00000000000E+00 0. -1.
         11    1    5    5    0    0 -0.37855441231E+02  0.14855756871E+02  0.56226540475E+02  0.69391294820E+02  0.00000000000E+00 0. -1.
        -12    1    5    5    0    0 -0.30209931941E+02  0.13171996894E+02  0.35742531337E+03  0.35894149401E+03  0.00000000000E+00 0.  1.
          5    1    4    4  501    0  0.18745227679E+02  0.54969423157E+02  0.35790587892E+03  0.36261151610E+03  0.41800000000E+01 0. -1.
         -5    1    4    4    0  501  0.69289817068E+02 -0.35300736512E+02  0.16304049290E+03  0.18068451919E+03  0.41800000000E+01 0. -1.
</event>
<event>
11    1  0.8551154E-009  0.1681574E+03  0.7561462E-02  0.1079646E+00
         22   -1    0    0    0    0  0.00000000000E+00  0.00000000000E+00  0.80285464161E+02  0.80285464161E+02  0.00000000000E+00 0. -1.
         22   -1    0    0    0    0 -0.00000000000E+00 -0.00000000000E+00 -0.27877198933E+04  0.27877198933E+04  0.00000000000E+00 0.  1.
         24    2    1    2    0    0  0.35099710319E+02  0.47979358644E+01 -0.21018304769E+04  0.21038141556E+04  0.84188108823E+02 0.  0.
         25    2    1    2    0    0  0.41782883634E+02  0.80930047300E+02 -0.60415309417E+03  0.62365405040E+03  0.12509169222E+03 0.  0.
        -24    2    1    2    0    0 -0.76882593953E+02 -0.85727983164E+02 -0.14508579853E+01  0.14053715142E+03  0.80550391615E+02 0.  0.
        -13    1    3    3    0    0  0.44318604464E+02 -0.12724402669E+02 -0.19667406579E+04  0.19672810842E+04  0.00000000000E+00 0.  1.
         14    1    3    3    0    0 -0.92188941451E+01  0.17522338534E+02 -0.13508981909E+03  0.13653307138E+03  0.00000000000E+00 0. -1.
         13    1    5    5    0    0 -0.66181437135E+02 -0.30811554267E+02  0.26917638463E+02  0.77806771929E+02  0.00000000000E+00 0. -1.
        -14    1    5    5    0    0 -0.10701156818E+02 -0.54916428897E+02 -0.28368496448E+02  0.62730379488E+02  0.00000000000E+00 0.  1.
          5    1    4    4  501    0  0.63918959563E+02  0.92883663853E+02 -0.33913088697E+03  0.35740766542E+03  0.41800000000E+01 0.  1.
         -5    1    4    4    0  501 -0.22136075929E+02 -0.11953616554E+02 -0.26502220719E+03  0.26624638497E+03  0.41800000000E+01 0.  1.
</event>
<event>
11    1  0.8551154E-009  0.1443964E+03  0.7561462E-02  0.1102746E+00
         22   -1    0    0    0    0  0.00000000000E+00  0.00000000000E+00  0.13278398837E+04  0.13278398837E+04  0.00000000000E+00 0. -1.
         22   -1    0    0    0    0 -0.00000000000E+00 -0.00000000000E+00 -0.56334431235E+03  0.56334431235E+03  0.00000000000E+00 0. -1.
         24    2    1    2    0    0 -0.70291541424E+02  0.13497717209E+02 -0.53699678152E+03  0.54799021405E+03  0.82490254982E+02 0.  0.
         25    2    1    2    0    0  0.10812445420E+03 -0.14328061982E+02  0.34757100006E+03  0.38516199553E+03  0.12509185331E+03 0.  0.
        -24    2    1    2    0    0 -0.37832912780E+02  0.83034477363E+00  0.95392135286E+03  0.95803198651E+03  0.80170574201E+02 0.  0.
        -13    1    3    3    0    0 -0.99177117271E+01 -0.31092935957E+02 -0.12365737627E+03  0.12789166657E+03  0.00000000000E+00 0.  1.
         14    1    3    3    0    0 -0.60373829697E+02  0.44590653166E+02 -0.41333940525E+03  0.42009854748E+03  0.00000000000E+00 0. -1.
         11    1    5    5    0    0 -0.63207364508E+02  0.19768534061E+01  0.67271718425E+03  0.67568297956E+03  0.00000000000E+00 0. -1.
        -12    1    5    5    0    0  0.25374451728E+02 -0.11465086325E+01  0.28120416861E+03  0.28234900696E+03  0.00000000000E+00 0.  1.
          5    1    4    4  501    0  0.90016172703E+02  0.16820524988E+02  0.10287278588E+03  0.13779014436E+03  0.41800000000E+01 0.  1.
         -5    1    4    4    0  501  0.18108281501E+02 -0.31148586971E+02  0.24469821417E+03  0.24737185117E+03  0.41800000000E+01 0.  1.
</event>
<event>
11    1  0.8551154E-009  0.1384933E+03  0.7561462E-02  0.1109253E+00
         22   -1    0    0    0    0  0.00000000000E+00  0.00000000000E+00  0.35066139874E+03  0.35066139874E+03  0.00000000000E+00 0.  1.
         22   -1    0    0    0    0 -0.00000000000E+00 -0.00000000000E+00 -0.28351446059E+03  0.28351446059E+03  0.00000000000E+00 0.  1.
         24    2    1    2    0    0  0.19587541424E+02  0.98092467947E+02 -0.21038824269E+03  0.24498708285E+03  0.75826473302E+02 0.  0.
         25    2    1    2    0    0  0.28279740695E+02 -0.24371186461E+02  0.74022670968E+02  0.15006749421E+03  0.12508876264E+03 0.  0.
        -24    2    1    2    0    0 -0.47867282119E+02 -0.73721281486E+02  0.20351250987E+03  0.23912128227E+03  0.89641184274E+02 0.  0.
        -11    1    3    3    0    0  0.87013915175E+01  0.10891595040E+03 -0.17357853333E+03  0.20510462134E+03  0.00000000000E+00 0.  1.
         12    1    3    3    0    0  0.10886149907E+02 -0.10823482450E+02 -0.36809709368E+02  0.39882461507E+02  0.00000000000E+00 0. -1.
         13    1    5    5    0    0 -0.21836324408E+02 -0.90070757225E+02  0.13205215136E+03  0.16132990129E+03  0.00000000000E+00 0. -1.
        -14    1    5    5    0    0 -0.26030957711E+02  0.16349475739E+02  0.71460358510E+02  0.77791380979E+02  0.00000000000E+00 0.  1.
          5    1    4    4  501    0  0.55763829964E+02  0.28001938766E+02  0.64806403987E+02  0.90061399637E+02  0.41800000000E+01 0.  1.
         -5    1    4    4    0  501 -0.27484089269E+02 -0.52373125228E+02  0.92162669808E+01  0.60006094575E+02  0.41800000000E+01 0.  1.
</event>
<event>
11    1  0.8551154E-009  0.1623724E+03  0.7561462E-02  0.1084867E+00
         22   -1    0    0    0    0  0.00000000000E+00  0.00000000000E+00  0.79730993640E+03  0.79730993640E+03  0.00000000000E+00 0. -1.
         22   -1    0    0    0    0 -0.00000000000E+00 -0.00000000000E+00 -0.16494942489E+03  0.16494942489E+03  0.00000000000E+00 0. -1.
         24    2    1    2    0    0  0.97930278979E+02  0.31223020375E+02 -0.64392314226E+02  0.14530929244E+03  0.80020021212E+02 0.  0.
         25    2    1    2    0    0 -0.94965382796E+02 -0.48721455390E+02  0.60267026938E+02  0.17513508665E+03  0.12509188581E+03 0.  0.
        -24    2    1    2    0    0 -0.29648961834E+01  0.17498435016E+02  0.63648579880E+03  0.64181498220E+03  0.80605914594E+02 0.  0.
        -11    1    3    3    0    0 -0.85745756298E+01  0.13392680608E+02 -0.26427210709E+02  0.30842903673E+02  0.00000000000E+00 0.  1.
         12    1    3    3    0    0  0.10650485461E+03  0.17830339767E+02 -0.37965103517E+02  0.11446638876E+03  0.00000000000E+00 0. -1.
         13    1    5    5    0    0  0.35813660098E+02  0.24133031266E+02  0.32839665662E+03  0.33122407148E+03  0.00000000000E+00 0. -1.
        -14    1    5    5    0    0 -0.38778556282E+02 -0.66345962508E+01  0.30808914218E+03  0.31059091072E+03  0.00000000000E+00 0.  1.
          5    1    4    4  501    0 -0.12404885935E+03 -0.44998407828E+02  0.35996846146E+02  0.13684378519E+03  0.41800000000E+01 0.  1.
         -5    1    4    4    0  501  0.29083476556E+02 -0.37230475622E+01  0.24270180792E+02  0.38291301459E+02  0.41800000000E+01 0.  1.
</event>
<event>
11    1  0.8551154E-009  0.1867564E+03  0.7561462E-02  0.1064305E+00
         22   -1    0    0    0    0  0.00000000000E+00  0.00000000000E+00  0.14235325746E+03  0.14235325746E+03  0.00000000000E+00 0. -1.
         22   -1    0    0    0    0 -0.00000000000E+00 -0.00000000000E+00 -0.14186715802E+04  0.14186715802E+04  0.00000000000E+00 0. -1.
         24    2    1    2    0    0  0.24025930641E+02 -0.10902766521E+02 -0.10984993760E+04  0.11014878498E+04  0.76671301743E+02 0.  0.
         25    2    1    2    0    0 -0.15192731459E+03 -0.32835211391E+02 -0.22312694325E+03  0.29932116320E+03  0.12508983137E+03 0.  0.
        -24    2    1    2    0    0  0.12790138395E+03  0.43737977912E+02  0.45307996536E+02  0.16021582464E+03  0.73106232208E+02 0.  0.
        -11    1    3    3    0    0 -0.19840679859E+02  0.12811929101E+02 -0.60836907021E+03  0.60882733487E+03  0.00000000000E+00 0.  1.
         12    1    3    3    0    0  0.43866610500E+02 -0.23714695623E+02 -0.49013030577E+03  0.49266051490E+03  0.00000000000E+00 0. -1.
         13    1    5    5    0    0  0.12352413931E+03  0.21812156975E+02  0.53548588752E+02  0.13638707616E+03  0.00000000000E+00 0. -1.
        -14    1    5    5    0    0  0.43772446376E+01  0.21925820938E+02 -0.82405922163E+01  0.23828748488E+02  0.00000000000E+00 0.  1.
          5    1    4    4  501    0 -0.40330702605E+02 -0.66808799497E+02 -0.59011312732E+02  0.97927466490E+02  0.41800000000E+01 0.  1.
         -5    1    4    4    0  501 -0.11159661199E+03  0.33973588105E+02 -0.16411563052E+03  0.20139369671E+03  0.41800000000E+01 0.  1.
</event>
<event>
11    1  0.8551154E-009  0.1398743E+03  0.7561462E-02  0.1107699E+00
         22   -1    0    0    0    0  0.00000000000E+00  0.00000000000E+00  0.19913908454E+03  0.19913908454E+03  0.00000000000E+00 0. -1.
         22   -1    0    0    0    0 -0.00000000000E+00 -0.00000000000E+00 -0.91426331438E+03  0.91426331438E+03  0.00000000000E+00 0. -1.
        -24    2    1    2    0    0 -0.45080960105E+02  0.42434201671E+02 -0.40297569410E+03  0.41547974556E+03  0.80006590335E+02 0.  0.
         25    2    1    2    0    0  0.68431203721E+02 -0.14358335011E+02 -0.48353279782E+03  0.50432224474E+03  0.12509184042E+03 0.  0.
         24    2    1    2    0    0 -0.23350243615E+02 -0.28075866661E+02  0.17138426208E+03  0.19360040863E+03  0.82310781591E+02 0.  0.
        -11    1    5    5    0    0  0.29729252881E+02 -0.18382050404E+02  0.82823294389E+02  0.89896753820E+02  0.00000000000E+00 0.  1.
         12    1    5    5    0    0 -0.53079496496E+02 -0.96938162564E+01  0.88560967691E+02  0.10370365481E+03  0.00000000000E+00 0. -1.
         13    1    3    3    0    0 -0.23955325353E+02  0.38025197966E+01 -0.32521729228E+03  0.32612053595E+03  0.00000000000E+00 0. -1.
        -14    1    3    3    0    0 -0.21125634752E+02  0.38631681875E+02 -0.77758401819E+02  0.89359209607E+02  0.00000000000E+00 0.  1.
          5    1    4    4  501    0  0.52247049156E+02 -0.95219568650E+01 -0.59228214884E+02  0.79661004553E+02  0.41800000000E+01 0. -1.
         -5    1    4    4    0  501  0.16184154565E+02 -0.48363781456E+01 -0.42430458294E+03  0.42466124019E+03  0.41800000000E+01 0. -1.
</event>
<event>
11    1  0.8551154E-009  0.1924855E+03  0.7561462E-02  0.1059968E+00
         22   -1    0    0    0    0  0.00000000000E+00  0.00000000000E+00  0.17238531381E+04  0.17238531381E+04  0.00000000000E+00 0.  1.
         22   -1    0    0    0    0 -0.00000000000E+00 -0.00000000000E+00 -0.19852489753E+03  0.19852489753E+03  0.00000000000E+00 0.  1.
        -24    2    1    2    0    0 -0.20077973317E+02  0.14628314287E+03 -0.85229985583E+02  0.19437925475E+03  0.93366275137E+02 0.  0.
         25    2    1    2    0    0  0.63931685931E+02 -0.13301607307E+03  0.10594685510E+03  0.22057550890E+03  0.12509309678E+03 0.  0.
         24    2    1    2    0    0 -0.43853712614E+02 -0.13267069804E+02  0.15046113710E+04  0.15074232720E+04  0.79814658658E+02 0.  0.
        -13    1    5    5    0    0 -0.90301628050E+01 -0.27439967088E+02  0.12196855649E+04  0.12200276115E+04  0.00000000000E+00 0.  1.
         14    1    5    5    0    0 -0.34823549809E+02  0.14172897284E+02  0.28492580613E+03  0.28739566043E+03  0.00000000000E+00 0. -1.
         11    1    3    3    0    0 -0.31236499491E+02  0.74908259305E+01 -0.31913882997E+02  0.45280539987E+02  0.00000000000E+00 0. -1.
        -12    1    3    3    0    0  0.11158526174E+02  0.13879231694E+03 -0.53316102586E+02  0.14909871476E+03  0.00000000000E+00 0.  1.
          5    1    4    4  501    0  0.99662329285E+02 -0.10036681895E+03  0.59970899173E+02  0.15368818879E+03  0.41800000000E+01 0. -1.
         -5    1    4    4    0  501 -0.35730643354E+02 -0.32649254116E+02  0.45975955928E+02  0.66887320116E+02  0.41800000000E+01 0. -1.
</event>
<event>
11    1  0.8551154E-009  0.1752866E+03  0.7561462E-02  0.1073521E+00
         22   -1    0    0    0    0  0.00000000000E+00  0.00000000000E+00  0.68582663187E+03  0.68582663187E+03  0.00000000000E+00 0. -1.
         22   -1    0    0    0    0 -0.00000000000E+00 -0.00000000000E+00 -0.18141391872E+03  0.18141391872E+03  0.00000000000E+00 0. -1.
        -24    2    1    2    0    0 -0.62952952343E+02 -0.10768803105E+03 -0.11444208847E+03  0.18739302661E+03  0.80370197012E+02 0.  0.
         25    2    1    2    0    0  0.49743844530E+02  0.96820211885E+02  0.23781157611E+03  0.28991460790E+03  0.12509009012E+03 0.  0.
         24    2    1    2    0    0  0.13209107812E+02  0.10867819162E+02  0.38104322552E+03  0.38993291608E+03  0.81000921648E+02 0.  0.
        -11    1    5    5    0    0  0.31768247273E+02 -0.25327142669E+02  0.15367846429E+03  0.15895834699E+03  0.00000000000E+00 0.  1.
         12    1    5    5    0    0 -0.18559139461E+02  0.36194961831E+02  0.22736476123E+03  0.23097456909E+03  0.00000000000E+00 0. -1.
         11    1    3    3    0    0 -0.47611599301E+02 -0.11109900444E+03 -0.12038186804E+03  0.17059204943E+03  0.00000000000E+00 0. -1.
        -12    1    3    3    0    0 -0.15341353042E+02  0.34109733955E+01  0.59397795717E+01  0.16800977174E+02  0.00000000000E+00 0.  1.
          5    1    4    4  501    0  0.82521697655E+02  0.85596398105E+02  0.22142259896E+03  0.25136032639E+03  0.41800000000E+01 0. -1.
         -5    1    4    4    0  501 -0.32777853124E+02  0.11223813780E+02  0.16388977149E+02  0.38554281516E+02  0.41800000000E+01 0. -1.
</event>
<event>
11    1  0.8551154E-009  0.1367452E+03  0.7561462E-02  0.1111248E+00
         22   -1    0    0    0    0  0.00000000000E+00  0.00000000000E+00  0.27023399275E+04  0.27023399275E+04  0.00000000000E+00 0.  1.
         22   -1    0    0    0    0 -0.00000000000E+00 -0.00000000000E+00 -0.13385102860E+02  0.13385102860E+02  0.00000000000E+00 0.  1.
        -24    2    1    2    0    0  0.13665108801E+02  0.29570389089E+01  0.20178234895E+03  0.21752527626E+03  0.80035305870E+02 0.  0.
         25    2    1    2    0    0 -0.58049141246E+02  0.21803476185E+02  0.14918842089E+04  0.14984028325E+04  0.12508981299E+03 0.  0.
         24    2    1    2    0    0  0.44384032445E+02 -0.24760515094E+02  0.99528826684E+03  0.99979692165E+03  0.80075745306E+02 0.  0.
        -11    1    5    5    0    0  0.26137650903E+02  0.76460046382E+01  0.82700054056E+03  0.82744880946E+03  0.00000000000E+00 0.  1.
         12    1    5    5    0    0  0.18246381542E+02 -0.32406519732E+02  0.16828772628E+03  0.17234811219E+03  0.00000000000E+00 0. -1.
         11    1    3    3    0    0  0.27402733709E+02 -0.23307898681E+02  0.17118885458E+03  0.17492796199E+03  0.00000000000E+00 0. -1.
        -12    1    3    3    0    0 -0.13737624907E+02  0.26264937590E+02  0.30593494376E+02  0.42597314268E+02  0.00000000000E+00 0.  1.
          5    1    4    4  501    0 -0.90897589787E+02 -0.10936032040E+02  0.88417529998E+03  0.88891248282E+03  0.41800000000E+01 0. -1.
         -5    1    4    4    0  501  0.32848448541E+02  0.32739508225E+02  0.60770890890E+03  0.60949034966E+03  0.41800000000E+01 0. -1.
</event>
<event>
11    1  0.8551154E-009  0.1538157E+03  0.7561462E-02  0.1093042E+00
         22   -1    0    0    0    0  0.00000000000E+00  0.00000000000E+00  0.36133679104E+03  0.36133679104E+03  0.00000000000E+00 0.  1.
         22   -1    0    0    0    0 -0.00000000000E+00 -0.00000000000E+00 -0.23622875216E+04  0.23622875216E+04  0.00000000000E+00 0. -1.
         24    2    1    2    0    0  0.30184049625E+02 -0.34877286362E+01 -0.19873438156E+04  0.19889552911E+04  0.74057189176E+02 0.  0.
         25    2    1    2    0    0 -0.14927789393E+02  0.91741248758E+02 -0.34544246292E+03  0.37896757362E+03  0.12508649427E+03 0.  0.
        -24    2    1    2    0    0 -0.15256260231E+02 -0.88253520122E+02  0.33183554801E+03  0.35570144793E+03  0.91581940616E+02 0.  0.
        -11    1    3    3    0    0  0.52382113991E+02  0.43601487077E+01 -0.10489527707E+04  0.10502689236E+04  0.00000000000E+00 0.  1.
         12    1    3    3    0    0 -0.22198064366E+02 -0.78478773439E+01 -0.93839104494E+03  0.93868636746E+03  0.00000000000E+00 0. -1.
         11    1    5    5    0    0  0.50923312467E+01 -0.72301130827E+02  0.10612174839E+03  0.12851152025E+03  0.00000000000E+00 0. -1.
        -12    1    5    5    0    0 -0.20348591478E+02 -0.15952389295E+02  0.22571379962E+03  0.22718992768E+03  0.00000000000E+00 0.  1.
          5    1    4    4  501    0 -0.47010010268E+02  0.67803239034E+01 -0.46864493416E+02  0.66855568211E+02  0.41800000000E+01 0.  1.
         -5    1    4    4    0  501  0.32082220875E+02  0.84960924855E+02 -0.29857796951E+03  0.31211200541E+03  0.41800000000E+01 0.  1.
</event>
<event>
11    1  0.8551154E-009  0.1422924E+03  0.7561462E-02  0.1105025E+00
         22   -1    0    0    0    0  0.00000000000E+00  0.00000000000E+00  0.23808044535E+03  0.23808044535E+03  0.00000000000E+00 0. -1.
         22   -1    0    0    0    0 -0.00000000000E+00 -0.00000000000E+00 -0.39932026912E+03  0.39932026912E+03  0.00000000000E+00 0.  1.
        -24    2    1    2    0    0 -0.12872605260E+02 -0.54009480696E+02 -0.17602785441E+03  0.20122550485E+03  0.80144683544E+02 0.  0.
         25    2    1    2    0    0  0.47440814286E+02  0.89719547322E+02 -0.16660334165E+03  0.23174327891E+03  0.12509214940E+03 0.  0.
         24    2    1    2    0    0 -0.34568209027E+02 -0.35710066626E+02  0.18139137229E+03  0.20443193072E+03  0.80121248253E+02 0.  0.
        -11    1    5    5    0    0 -0.38391174241E+02 -0.57053256905E+02  0.10914811186E+03  0.12900490962E+03  0.00000000000E+00 0.  1.
         12    1    5    5    0    0  0.38229652148E+01  0.21343190279E+02  0.72243260428E+02  0.75427021097E+02  0.00000000000E+00 0. -1.
         13    1    3    3    0    0  0.32207875176E+02 -0.12891683432E+02 -0.83167085486E+02  0.90112745121E+02  0.00000000000E+00 0. -1.
        -14    1    3    3    0    0 -0.45080480435E+02 -0.41117797264E+02 -0.92860768926E+02  0.11111275972E+03  0.00000000000E+00 0.  1.
          5    1    4    4  501    0 -0.16256233854E+02  0.95221561805E+02 -0.92939019473E+02  0.13411392438E+03  0.41800000000E+01 0. -1.
         -5    1    4    4    0  501  0.63697048140E+02 -0.55020144829E+01 -0.73664322177E+02  0.97629354535E+02  0.41800000000E+01 0. -1.
</event>
<event>
11    1  0.8551154E-009  0.2813595E+03  0.7561462E-02  0.1008404E+00
         22   -1    0    0    0    0  0.00000000000E+00  0.00000000000E+00  0.12597714881E+04  0.12597714881E+04  0.00000000000E+00 0.  1.
         22   -1    0    0    0    0 -0.00000000000E+00 -0.00000000000E+00 -0.22250026117E+04  0.22250026117E+04  0.00000000000E+00 0.  1.
         24    2    1    2    0    0 -0.33306994345E+02 -0.51684010763E+02 -0.16400952015E+04  0.16431818099E+04  0.79709455294E+02 0.  0.
         25    2    1    2    0    0 -0.21742486563E+03  0.82903998922E+02 -0.53852104988E+03  0.59983251950E+03  0.12508990785E+03 0.  0.
        -24    2    1    2    0    0  0.25073185998E+03 -0.31219988159E+02  0.12133851278E+04  0.12417597704E+04  0.76306656184E+02 0.  0.
        -13    1    3    3    0    0 -0.33025587442E+02 -0.72447940241E+02 -0.12482236006E+04  0.12507603889E+04  0.00000000000E+00 0.  1.
         14    1    3    3    0    0 -0.28140690378E+00  0.20763929478E+02 -0.39187160099E+03  0.39242142095E+03  0.00000000000E+00 0. -1.
         11    1    5    5    0    0  0.66533786967E+02  0.16925308032E+02  0.22640973123E+03  0.23658946987E+03  0.00000000000E+00 0. -1.
        -12    1    5    5    0    0  0.18419807301E+03 -0.48145296191E+02  0.98697539656E+03  0.10051703005E+04  0.00000000000E+00 0.  1.
          5    1    4    4  501    0 -0.98808089157E+02  0.35959098121E+01 -0.34780751932E+03  0.36161237803E+03  0.41800000000E+01 0.  1.
         -5    1    4    4    0  501 -0.11861677647E+03  0.79308089110E+02 -0.19071353056E+03  0.23822014146E+03  0.41800000000E+01 0.  1.
</event>
<event>
11    1  0.8551154E-009  0.1565992E+03  0.7561462E-02  0.1090320E+00
         22   -1    0    0    0    0  0.00000000000E+00  0.00000000000E+00  0.55565539849E+03  0.55565539849E+03  0.00000000000E+00 0. -1.
         22   -1    0    0    0    0 -0.00000000000E+00 -0.00000000000E+00 -0.38027267690E+03  0.38027267690E+03  0.00000000000E+00 0.  1.
         24    2    1    2    0    0 -0.85461607560E+02 -0.36002208877E+02 -0.32148593105E+03  0.34391809557E+03  0.79539972236E+02 0.  0.
         25    2    1    2    0    0  0.89041191777E+02  0.10301921432E+03  0.17943813702E+03  0.25765604240E+03  0.12508916346E+03 0.  0.
        -24    2    1    2    0    0 -0.35795842171E+01 -0.67017005441E+02  0.31743051562E+03  0.33435393743E+03  0.80785709028E+02 0.  0.
        -13    1    3    3    0    0 -0.70037226896E+02  0.12468636317E+02 -0.19630937090E+03  0.20880145868E+03  0.00000000000E+00 0.  1.
         14    1    3    3    0    0 -0.15424380664E+02 -0.48470845194E+02 -0.12517656015E+03  0.13511663689E+03  0.00000000000E+00 0. -1.
         13    1    5    5    0    0  0.25376367334E+02 -0.64801340678E+02  0.26924712250E+03  0.27809564316E+03  0.00000000000E+00 0. -1.
        -14    1    5    5    0    0 -0.28955951551E+02 -0.22156647631E+01  0.48183393127E+02  0.56258294267E+02  0.00000000000E+00 0.  1.
          5    1    4    4  501    0  0.70701813688E+02  0.60093271547E+02  0.24894036441E+02  0.96162015341E+02  0.41800000000E+01 0.  1.
         -5    1    4    4    0  501  0.18339378089E+02  0.42925942771E+02  0.15454410058E+03  0.16149402706E+03  0.41800000000E+01 0.  1.
</event>
<event>
11    1  0.8551154E-009  0.1493071E+03  0.7561462E-02  0.1097589E+00
         22   -1    0    0    0    0  0.00000000000E+00  0.00000000000E+00  0.21060730177E+03  0.21060730177E+03  0.00000000000E+00 0.  1.
         22   -1    0    0    0    0 -0.00000000000E+00 -0.00000000000E+00 -0.66700945008E+03  0.66700945008E+03  0.00000000000E+00 0.  1.
        -24    2    1    2    0    0  0.53207858230E+02 -0.19943916152E+02 -0.48438405564E+03  0.49398600272E+03  0.78520198412E+02 0.  0.
         25    2    1    2    0    0 -0.89268363536E+02 -0.52161349133E+02 -0.11650598400E+03  0.19977586650E+03  0.12508839058E+03 0.  0.
         24    2    1    2    0    0  0.36060505306E+02  0.72105265286E+02  0.14448789133E+03  0.18385488262E+03  0.80164442219E+02 0.  0.
        -11    1    5    5    0    0  0.59763252838E+02  0.38530596804E+02  0.10535351594E+03  0.12710474657E+03  0.00000000000E+00 0.  1.
         12    1    5    5    0    0 -0.23702747532E+02  0.33574668482E+02  0.39134375398E+02  0.56750136053E+02  0.00000000000E+00 0. -1.
         13    1    3    3    0    0 -0.18664250580E+02 -0.12465627989E+02 -0.75481091755E+02  0.78747325945E+02  0.00000000000E+00 0. -1.
        -14    1    3    3    0    0  0.71872108809E+02 -0.74782881633E+01 -0.40890296388E+03  0.41523867678E+03  0.00000000000E+00 0.  1.
          5    1    4    4  501    0 -0.56215035507E+02 -0.16287114350E+02 -0.13518900670E+03  0.14737347198E+03  0.41800000000E+01 0. -1.
         -5    1    4    4    0  501 -0.33053328029E+02 -0.35874234783E+02  0.18683022695E+02  0.52402394526E+02  0.41800000000E+01 0. -1.
</event>
<event>
11    1  0.8551154E-009  0.1651445E+03  0.7561462E-02  0.1082336E+00
         22   -1    0    0    0    0  0.00000000000E+00  0.00000000000E+00  0.21217224231E+03  0.21217224231E+03  0.00000000000E+00 0.  1.
         22   -1    0    0    0    0 -0.00000000000E+00 -0.00000000000E+00 -0.34684771220E+04  0.34684771220E+04  0.00000000000E+00 0. -1.
         24    2    1    2    0    0  0.70404367447E+02 -0.83292488837E+02 -0.33938200824E+04  0.33972414985E+04  0.10649241284E+03 0.  0.
         25    2    1    2    0    0 -0.43724306381E+02  0.17989130675E+02  0.41525279577E+02  0.14002522808E+03  0.12508913567E+03 0.  0.
        -24    2    1    2    0    0 -0.26680061066E+02  0.65303358162E+02  0.95989923111E+02  0.14338263772E+03  0.79800759491E+02 0.  0.
        -11    1    3    3    0    0  0.28611500147E+02 -0.10997988493E+02 -0.23120496783E+04  0.23122528600E+04  0.00000000000E+00 0.  1.
         12    1    3    3    0    0  0.41792867300E+02 -0.72294500344E+02 -0.10817704041E+04  0.10849886385E+04  0.00000000000E+00 0. -1.
         11    1    5    5    0    0 -0.47528374654E+02  0.15948103612E+02  0.62804980396E+02  0.80360151622E+02  0.00000000000E+00 0. -1.
        -12    1    5    5    0    0  0.20848313589E+02  0.49355254550E+02  0.33184942715E+02  0.63022486100E+02  0.00000000000E+00 0.  1.
          5    1    4    4  501    0  0.29013749729E+02  0.46006319204E+02  0.82592152981E+01  0.55173056082E+02  0.41800000000E+01 0. -1.
         -5    1    4    4    0  501 -0.72738056110E+02 -0.28017188529E+02  0.33266064278E+02  0.84852171995E+02  0.41800000000E+01 0. -1.
</event>
<event>
11    1  0.8551154E-009  0.2392447E+03  0.7561462E-02  0.1029790E+00
         22   -1    0    0    0    0  0.00000000000E+00  0.00000000000E+00  0.11884039921E+04  0.11884039921E+04  0.00000000000E+00 0. -1.
         22   -1    0    0    0    0 -0.00000000000E+00 -0.00000000000E+00 -0.18209668854E+03  0.18209668854E+03  0.00000000000E+00 0. -1.
         24    2    1    2    0    0  0.81467545636E+02 -0.70701757681E+02 -0.43453690675E+02  0.14032872466E+03  0.78538068482E+02 0.  0.
         25    2    1    2    0    0 -0.97530103517E+02  0.26272047666E+03  0.22681530087E+03  0.38161086661E+03  0.12508997905E+03 0.  0.
        -24    2    1    2    0    0  0.16062557881E+02 -0.19201871898E+03  0.82294569342E+03  0.84856108941E+03  0.75412956025E+02 0.  0.
        -11    1    3    3    0    0  0.11296608799E+02 -0.33559925007E+02  0.18193673595E+02  0.39810698257E+02  0.00000000000E+00 0.  1.
         12    1    3    3    0    0  0.70170936837E+02 -0.37141832674E+02 -0.61647364270E+02  0.10051802641E+03  0.00000000000E+00 0. -1.
         13    1    5    5    0    0  0.43294493925E+02 -0.13609455358E+03  0.51741413141E+03  0.53676207401E+03  0.00000000000E+00 0. -1.
        -14    1    5    5    0    0 -0.27231936044E+02 -0.55924165401E+02  0.30553156201E+03  0.31179901540E+03  0.00000000000E+00 0.  1.
          5    1    4    4  501    0 -0.10178529035E+03  0.22974589503E+03  0.13806537942E+03  0.28674543241E+03  0.41800000000E+01 0. -1.
         -5    1    4    4    0  501  0.42551868289E+01  0.32974581630E+02  0.88749921452E+02  0.94865434202E+02  0.41800000000E+01 0. -1.
</event>
<event>
11    1  0.8551154E-009  0.1903483E+03  0.7561462E-02  0.1061567E+00
         22   -1    0    0    0    0  0.00000000000E+00  0.00000000000E+00  0.15983990180E+04  0.15983990180E+04  0.00000000000E+00 0. -1.
         22   -1    0    0    0    0 -0.00000000000E+00 -0.00000000000E+00 -0.18383150745E+04  0.18383150745E+04  0.00000000000E+00 0.  1.
         24    2    1    2    0    0 -0.46808130436E+02 -0.69229997811E+01 -0.17857237609E+04  0.17881839566E+04  0.80954205811E+02 0.  0.
         25    2    1    2    0    0  0.74771741452E+02 -0.13350532432E+03  0.16377083119E+03  0.25667279953E+03  0.12508219669E+03 0.  0.
        -24    2    1    2    0    0 -0.27963611015E+02  0.14042832410E+03  0.13820368732E+04  0.13918573364E+04  0.82090487983E+02 0.  0.
        -11    1    3    3    0    0 -0.56729624459E+02  0.15217168620E+02 -0.15703411566E+04  0.15714392004E+04  0.00000000000E+00 0.  1.
         12    1    3    3    0    0  0.99214940225E+01 -0.22140168401E+02 -0.21538260432E+03  0.21674475621E+03  0.00000000000E+00 0. -1.
         13    1    5    5    0    0 -0.51022916253E+02  0.12763834808E+03  0.12151691283E+04  0.12229190064E+04  0.00000000000E+00 0. -1.
        -14    1    5    5    0    0  0.23059305238E+02  0.12789976022E+02  0.16686774489E+03  0.16893832996E+03  0.00000000000E+00 0.  1.
          5    1    4    4  501    0  0.63009789545E+02  0.36100745879E+00  0.54751780519E+02  0.83579864649E+02  0.41800000000E+01 0.  1.
         -5    1    4    4    0  501  0.11761951907E+02 -0.13386633178E+03  0.10901905067E+03  0.17309293488E+03  0.41800000000E+01 0.  1.
</event>
<event>
11    1  0.8551154E-009  0.3725414E+03  0.7561462E-02  0.9734441E-01
         22   -1    0    0    0    0  0.00000000000E+00  0.00000000000E+00  0.37445673369E+03  0.37445673369E+03  0.00000000000E+00 0. -1.
         22   -1    0    0    0    0 -0.00000000000E+00 -0.00000000000E+00 -0.11869219719E+04  0.11869219719E+04  0.00000000000E+00 0.  1.
        -24    2    1    2    0    0  0.13860483531E+03  0.31530567796E+03 -0.86050775539E+03  0.93035983125E+03  0.80416712215E+02 0.  0.
         25    2    1    2    0    0 -0.97950424784E+02 -0.36870625170E+03 -0.13191816915E+03  0.42259796586E+03  0.12509217258E+03 0.  0.
         24    2    1    2    0    0 -0.40654410524E+02  0.53400573744E+02  0.17996068632E+03  0.20842090848E+03  0.80926040934E+02 0.  0.
        -13    1    5    5    0    0  0.87578423566E+01 -0.12104224298E+02  0.60365495069E+01  0.16113720195E+02  0.00000000000E+00 0.  1.
         14    1    5    5    0    0 -0.49412252881E+02  0.65504798042E+02  0.17392413681E+03  0.19230718829E+03  0.00000000000E+00 0. -1.
         13    1    3    3    0    0  0.36155143239E+02  0.38611175491E+02 -0.20129604719E+03  0.20813004557E+03  0.00000000000E+00 0. -1.
        -14    1    3    3    0    0  0.10244969207E+03  0.27669450247E+03 -0.65921170820E+03  0.72222978568E+03  0.00000000000E+00 0.  1.
          5    1    4    4  501    0 -0.19649605386E+02  0.40267811541E+01 -0.88422265479E+01  0.22315450446E+02  0.41800000000E+01 0.  1.
         -5    1    4    4    0  501 -0.78300819397E+02 -0.37273303285E+03 -0.12307594260E+03  0.40028251541E+03  0.41800000000E+01 0.  1.
</event>
<event>
11    1  0.8551154E-009  0.1361183E+03  0.7561462E-02  0.1111972E+00
         22   -1    0    0    0    0  0.00000000000E+00  0.00000000000E+00  0.13604402603E+04  0.13604402603E+04  0.00000000000E+00 0.  1.
         22   -1    0    0    0    0 -0.00000000000E+00 -0.00000000000E+00 -0.15265013833E+04  0.15265013833E+04  0.00000000000E+00 0.  1.
         24    2    1    2    0    0 -0.31831100281E+02  0.42155886420E+02 -0.13987812354E+04  0.14020844125E+04  0.80382943560E+02 0.  0.
         25    2    1    2    0    0  0.58165907215E+02 -0.51154032597E+02 -0.81300992223E+02  0.16809939648E+03  0.12509015927E+03 0.  0.
        -24    2    1    2    0    0 -0.26334806934E+02  0.89981461775E+01  0.13140211045E+04  0.13167578346E+04  0.80157614211E+02 0.  0.
        -11    1    3    3    0    0 -0.41174320633E+02  0.30694978845E+02 -0.13530021013E+04  0.13539764372E+04  0.00000000000E+00 0.  1.
         12    1    3    3    0    0  0.93432203522E+01  0.11460907575E+02 -0.45779134086E+02  0.48107975292E+02  0.00000000000E+00 0. -1.
         13    1    5    5    0    0 -0.43208554657E+01  0.43571145860E+02  0.65014224643E+03  0.65161495926E+03  0.00000000000E+00 0. -1.
        -14    1    5    5    0    0 -0.22013951469E+02 -0.34572999683E+02  0.66387885811E+03  0.66514287534E+03  0.00000000000E+00 0.  1.
          5    1    4    4  501    0  0.11756907724E+01 -0.67285662968E+02 -0.85132717209E+02  0.10859923862E+03  0.41800000000E+01 0. -1.
         -5    1    4    4    0  501  0.56990216443E+02  0.16131630371E+02  0.38317249856E+01  0.59500157857E+02  0.41800000000E+01 0. -1.
</event>
<event>
11    1  0.8551154E-009  0.2220053E+03  0.7561462E-02  0.1039968E+00
         22   -1    0    0    0    0  0.00000000000E+00  0.00000000000E+00  0.20631989552E+04  0.20631989552E+04  0.00000000000E+00 0.  1.
         22   -1    0    0    0    0 -0.00000000000E+00 -0.00000000000E+00 -0.57490908890E+03  0.57490908890E+03  0.00000000000E+00 0.  1.
        -24    2    1    2    0    0  0.21345555088E+03 -0.27023936715E+02 -0.41182739613E+03  0.47161564505E+03  0.80783334231E+02 0.  0.
         25    2    1    2    0    0 -0.12187119806E+03  0.52639614971E+01 -0.73115957159E+02  0.18940179074E+03  0.12508715736E+03 0.  0.
         24    2    1    2    0    0 -0.91584352820E+02  0.21759975218E+02  0.19732332196E+04  0.19770906083E+04  0.79854520082E+02 0.  0.
        -13    1    5    5    0    0 -0.57055994229E+02 -0.20663883488E+02  0.13822609060E+04  0.13835922791E+04  0.00000000000E+00 0.  1.
         14    1    5    5    0    0 -0.34528358591E+02  0.42423858706E+02  0.59097231356E+03  0.59349832917E+03  0.00000000000E+00 0. -1.
         13    1    3    3    0    0  0.24582197354E+02 -0.15783379095E+02 -0.12234227777E+03  0.12578168552E+03  0.00000000000E+00 0. -1.
        -14    1    3    3    0    0  0.18887335353E+03 -0.11240557620E+02 -0.28948511837E+03  0.34583395953E+03  0.00000000000E+00 0.  1.
          5    1    4    4  501    0 -0.61171424964E+02 -0.47346801277E+02 -0.76529729813E+02  0.10889414479E+03  0.41800000000E+01 0.  1.
         -5    1    4    4    0  501 -0.60699773096E+02  0.52610762774E+02  0.34137726544E+01  0.80507645956E+02  0.41800000000E+01 0.  1.
</event>
<event>
11    1  0.1225827E-008  0.1530803E+03  0.7561462E-02  0.1093772E+00
         22   -1    0    0    0    0  0.00000000000E+00  0.00000000000E+00  0.34991345123E+03  0.34991345123E+03  0.00000000000E+00 0.  1.
         22   -1    0    0    0    0 -0.00000000000E+00 -0.00000000000E+00 -0.12140137138E+04  0.12140137138E+04  0.00000000000E+00 0. -1.
        -24    2    1    2    0    0 -0.79398995953E+02  0.44835187726E+01 -0.79816822269E+03  0.80599687294E+03  0.78956601896E+02 0.  0.
         25    2    1    2    0    0  0.16238202057E+03 -0.27591746063E+02 -0.37444913556E+03  0.42778387086E+03  0.12513057178E+03 0.  0.
         24    2    1    2    0    0 -0.82983024618E+02  0.23108227290E+02  0.30851709571E+03  0.33014642119E+03  0.79960543606E+02 0.  0.
        -13    1    5    5    0    0 -0.97419710896E+02  0.24017572006E+02  0.24019118499E+03  0.26030606828E+03  0.00000000000E+00 0.  1.
         14    1    5    5    0    0  0.14436686278E+02 -0.90934471601E+00  0.68325910721E+02  0.69840352908E+02  0.00000000000E+00 0. -1.
         13    1    3    3    0    0 -0.66325859151E+02  0.37715359510E+02 -0.53184715897E+03  0.53729225608E+03  0.00000000000E+00 0. -1.
        -14    1    3    3    0    0 -0.13073136803E+02 -0.33231840737E+02 -0.26632106372E+03  0.26870461687E+03  0.00000000000E+00 0.  1.
          5    1    4    4  501    0  0.13600672168E+03  0.32274247722E+02 -0.23038860352E+03  0.26951036425E+03  0.41800000000E+01 0.  1.
         -5    1    4    4    0  501  0.26375298896E+02 -0.59865993785E+02 -0.14406053204E+03  0.15827350662E+03  0.41800000000E+01 0.  1.
</event>
<event>
11    1  0.8551154E-009  0.1712457E+03  0.7561462E-02  0.1076953E+00
         22   -1    0    0    0    0  0.00000000000E+00  0.00000000000E+00  0.97615732255E+03  0.97615732255E+03  0.00000000000E+00 0.  1.
         22   -1    0    0    0    0 -0.00000000000E+00 -0.00000000000E+00 -0.21923342584E+03  0.21923342584E+03  0.00000000000E+00 0. -1.
        -24    2    1    2    0    0  0.41241820847E+02  0.42117809999E+02 -0.15437734072E+03  0.18368743542E+03  0.80211675563E+02 0.  0.
         25    2    1    2    0    0 -0.13035949487E+03  0.32318935467E+02  0.14846721830E+03  0.23606927602E+03  0.12509227264E+03 0.  0.
         24    2    1    2    0    0  0.89117674028E+02 -0.74436745466E+02  0.76283401913E+03  0.77563403696E+03  0.78801203333E+02 0.  0.
        -13    1    5    5    0    0  0.74188583412E+02 -0.54140818309E+02  0.72079695343E+03  0.72662467767E+03  0.00000000000E+00 0.  1.
         14    1    5    5    0    0  0.14929090616E+02 -0.20295927158E+02  0.42037065699E+02  0.49009359294E+02  0.00000000000E+00 0. -1.
         11    1    3    3    0    0  0.32736939636E+02  0.26514115145E+02 -0.15967886837E+03  0.16514250369E+03  0.00000000000E+00 0. -1.
        -12    1    3    3    0    0  0.85048812104E+01  0.15603694854E+02  0.53015276522E+01  0.18544931732E+02  0.00000000000E+00 0.  1.
          5    1    4    4  501    0 -0.69132987961E+02  0.72158127919E+02  0.12314413244E+03  0.15864461921E+03  0.41800000000E+01 0.  1.
         -5    1    4    4    0  501 -0.61226506913E+02 -0.39839192452E+02  0.25323085858E+02  0.77424656805E+02  0.41800000000E+01 0.  1.
</event>
<event>
11    1  0.8551154E-009  0.1705572E+03  0.7561462E-02  0.1077548E+00
         22   -1    0    0    0    0  0.00000000000E+00  0.00000000000E+00  0.22248908558E+03  0.22248908558E+03  0.00000000000E+00 0. -1.
         22   -1    0    0    0    0 -0.00000000000E+00 -0.00000000000E+00 -0.38472347398E+03  0.38472347398E+03  0.00000000000E+00 0. -1.
         24    2    1    2    0    0 -0.71378816154E+02 -0.11561602074E+03 -0.26215732072E+03  0.30617377474E+03  0.80956283781E+02 0.  0.
         25    2    1    2    0    0  0.32015225641E+02  0.51782760319E+02 -0.18807420513E+02  0.14038412185E+03  0.12509018212E+03 0.  0.
        -24    2    1    2    0    0  0.39363590513E+02  0.63833260419E+02  0.11873035284E+03  0.16065466297E+03  0.78031062104E+02 0.  0.
        -11    1    3    3    0    0 -0.17004639258E+02 -0.79863526635E+02 -0.20066103933E+03  0.21663839306E+03  0.00000000000E+00 0.  1.
         12    1    3    3    0    0 -0.54374176896E+02 -0.35752494103E+02 -0.61496281398E+02  0.89535381685E+02  0.00000000000E+00 0. -1.
         11    1    5    5    0    0 -0.22756860396E+02  0.29400835602E+02  0.39240912209E+02  0.54056757396E+02  0.00000000000E+00 0. -1.
        -12    1    5    5    0    0  0.62120450908E+02  0.34432424817E+02  0.79489440633E+02  0.10659790557E+03  0.00000000000E+00 0.  1.
          5    1    4    4  501    0 -0.77538109749E+01 -0.38894177283E+01 -0.59764162758E+02  0.60534921369E+02  0.41800000000E+01 0.  1.
         -5    1    4    4    0  501  0.39769036616E+02  0.55672178047E+02  0.40956742246E+02  0.79849200480E+02  0.41800000000E+01 0.  1.
</event>
<event>
11    1  0.8551154E-009  0.1843540E+03  0.7561462E-02  0.1066174E+00
         22   -1    0    0    0    0  0.00000000000E+00  0.00000000000E+00  0.38449645274E+03  0.38449645274E+03  0.00000000000E+00 0.  1.
         22   -1    0    0    0    0 -0.00000000000E+00 -0.00000000000E+00 -0.49646817435E+03  0.49646817435E+03  0.00000000000E+00 0. -1.
        -24    2    1    2    0    0 -0.10080365316E+03  0.93527590513E+02 -0.42105055464E+03  0.45011481829E+03  0.80068679298E+02 0.  0.
         25    2    1    2    0    0  0.11014250400E+03 -0.49338803195E+02  0.91729797055E+02  0.19653286734E+03  0.12508046846E+03 0.  0.
         24    2    1    2    0    0 -0.93388508420E+01 -0.44188787318E+02  0.21734903598E+03  0.23431694145E+03  0.74993083362E+02 0.  0.
        -13    1    5    5    0    0 -0.26927767799E+02 -0.52613211016E+00  0.14844808194E+03  0.15087151661E+03  0.00000000000E+00 0.  1.
         14    1    5    5    0    0  0.17588916957E+02 -0.43662655208E+02  0.68900954039E+02  0.83445424841E+02  0.00000000000E+00 0. -1.
         11    1    3    3    0    0 -0.82558452298E+02  0.95946368009E+02 -0.40894426678E+03  0.42808529163E+03  0.00000000000E+00 0. -1.
        -12    1    3    3    0    0 -0.18245200860E+02 -0.24187774959E+01 -0.12106287860E+02  0.22029526657E+02  0.00000000000E+00 0.  1.
          5    1    4    4  501    0 -0.10330390275E+02  0.12044945574E+02 -0.16515089175E+02  0.23281285350E+02  0.41800000000E+01 0.  1.
         -5    1    4    4    0  501  0.12047289428E+03 -0.61383748770E+02  0.10824488623E+03  0.17325158199E+03  0.41800000000E+01 0.  1.
</event>
<event>
11    1  0.8551154E-009  0.1381827E+03  0.7561462E-02  0.1109605E+00
         22   -1    0    0    0    0  0.00000000000E+00  0.00000000000E+00  0.10671487028E+04  0.10671487028E+04  0.00000000000E+00 0.  1.
         22   -1    0    0    0    0 -0.00000000000E+00 -0.00000000000E+00 -0.85123519829E+02  0.85123519829E+02  0.00000000000E+00 0.  1.
         24    2    1    2    0    0  0.38798475819E+02 -0.11107671198E+02 -0.39712276097E+02  0.98173120090E+02  0.80200963523E+02 0.  0.
         25    2    1    2    0    0 -0.25913888618E+00  0.59457148415E+02  0.38240854345E+03  0.40671741442E+03  0.12509013325E+03 0.  0.
        -24    2    1    2    0    0 -0.38539336932E+02 -0.48349477217E+02  0.63932891561E+03  0.64738168811E+03  0.80861828635E+02 0.  0.
        -13    1    3    3    0    0  0.37783965559E+02 -0.58379405519E+01 -0.63317828163E+02  0.73965241610E+02  0.00000000000E+00 0.  1.
         14    1    3    3    0    0  0.10145102600E+01 -0.52697306459E+01  0.23605552066E+02  0.24207878479E+02  0.00000000000E+00 0. -1.
         13    1    5    5    0    0 -0.25262493585E+02  0.11265570392E+02  0.78378675537E+02  0.83116324734E+02  0.00000000000E+00 0. -1.
        -14    1    5    5    0    0 -0.13276843347E+02 -0.59615047609E+02  0.56095024007E+03  0.56426536337E+03  0.00000000000E+00 0.  1.
          5    1    4    4  501    0  0.37242693729E+02 -0.53955926794E+01  0.26286428107E+03  0.26557717017E+03  0.41800000000E+01 0. -1.
         -5    1    4    4    0  501 -0.37501832615E+02  0.64852741094E+02  0.11954426238E+03  0.14114024425E+03  0.41800000000E+01 0. -1.
</event>
<event>
11    1  0.8551154E-009  0.1823769E+03  0.7561462E-02  0.1067736E+00
         22   -1    0    0    0    0  0.00000000000E+00  0.00000000000E+00  0.33839827243E+03  0.33839827243E+03  0.00000000000E+00 0.  1.
         22   -1    0    0    0    0 -0.00000000000E+00 -0.00000000000E+00 -0.33185183414E+04  0.33185183414E+04  0.00000000000E+00 0.  1.
        -24    2    1    2    0    0  0.10967929531E+01 -0.13325386031E+03 -0.30815807920E+04  0.30855242861E+04  0.81007086493E+02 0.  0.
         25    2    1    2    0    0  0.11070090299E+00  0.12349186884E+03 -0.19469330308E+03  0.26230234969E+03  0.12508711551E+03 0.  0.
         24    2    1    2    0    0 -0.12074938560E+01  0.97619914694E+01  0.29615402615E+03  0.30908997802E+03  0.87935503571E+02 0.  0.
        -11    1    5    5    0    0  0.19226203931E+02 -0.18877062647E+02  0.24796695625E+03  0.24942654590E+03  0.00000000000E+00 0.  1.
         12    1    5    5    0    0 -0.20433697787E+02  0.28639054116E+02  0.48187069907E+02  0.59663432119E+02  0.00000000000E+00 0. -1.
         11    1    3    3    0    0 -0.64190684850E+01 -0.56508166022E+02 -0.58620138046E+03  0.58895367876E+03  0.00000000000E+00 0. -1.
        -12    1    3    3    0    0  0.75158614380E+01 -0.76745694288E+02 -0.24953794115E+04  0.24965706073E+04  0.00000000000E+00 0.  1.
          5    1    4    4  501    0  0.45373828306E+02  0.12452409144E+02 -0.95814196735E+02  0.10682546272E+03  0.41800000000E+01 0. -1.
         -5    1    4    4    0  501 -0.45263127403E+02  0.11103945970E+03 -0.98879106341E+02  0.15547688697E+03  0.41800000000E+01 0. -1.
</event>
<event>
11    1  0.8551154E-009  0.1503089E+03  0.7561462E-02  0.1096564E+00
         22   -1    0    0    0    0  0.00000000000E+00  0.00000000000E+00  0.26279961982E+03  0.26279961982E+03  0.00000000000E+00 0.  1.
         22   -1    0    0    0    0 -0.00000000000E+00 -0.00000000000E+00 -0.88198060243E+03  0.88198060243E+03  0.00000000000E+00 0. -1.
        -24    2    1    2    0    0 -0.72167061052E+02 -0.36554000061E+02 -0.36206813475E+03  0.38006618644E+03  0.82539034760E+02 0.  0.
         25    2    1    2    0    0  0.95140797491E+02 -0.12767595190E+02 -0.48912350076E+03  0.51390965289E+03  0.12508616832E+03 0.  0.
         24    2    1    2    0    0 -0.22973736440E+02  0.49321595251E+02  0.23201065289E+03  0.25080438291E+03  0.78188765863E+02 0.  0.
        -11    1    5    5    0    0 -0.15449434293E+02  0.32196346818E+02  0.22910886422E+03  0.23187531441E+03  0.00000000000E+00 0.  1.
         12    1    5    5    0    0 -0.75243021464E+01  0.17125248433E+02  0.29017886693E+01  0.18929068497E+02  0.00000000000E+00 0. -1.
         11    1    3    3    0    0 -0.55657759995E+02  0.45434888592E+01 -0.10229737009E+03  0.11654690672E+03  0.00000000000E+00 0. -1.
        -12    1    3    3    0    0 -0.16509301057E+02 -0.41097488921E+02 -0.25977076465E+03  0.26351927972E+03  0.00000000000E+00 0.  1.
          5    1    4    4  501    0  0.76433804092E+02 -0.60886408883E+02 -0.38989277789E+03  0.40197404375E+03  0.41800000000E+01 0. -1.
         -5    1    4    4    0  501  0.18706993400E+02  0.48118813693E+02 -0.99230722866E+02  0.11193560914E+03  0.41800000000E+01 0. -1.
</event>
<event>
11    1  0.8551154E-009  0.2531907E+03  0.7561462E-02  0.1022213E+00
         22   -1    0    0    0    0  0.00000000000E+00  0.00000000000E+00  0.22819874856E+03  0.22819874856E+03  0.00000000000E+00 0. -1.
         22   -1    0    0    0    0 -0.00000000000E+00 -0.00000000000E+00 -0.41370657678E+03  0.41370657678E+03  0.00000000000E+00 0. -1.
         24    2    1    2    0    0  0.20321019679E+03  0.82743766653E+02 -0.18334725741E+03  0.29659847251E+03  0.78825897368E+02 0.  0.
         25    2    1    2    0    0 -0.19544834782E+03 -0.10705533632E+03  0.12784608847E+02  0.25587902798E+03  0.12509887703E+03 0.  0.
        -24    2    1    2    0    0 -0.77618489739E+01  0.24311569665E+02 -0.14945179661E+02  0.89427824848E+02  0.84395964020E+02 0.  0.
        -13    1    3    3    0    0  0.10211555764E+03  0.32979128531E+01 -0.60328171926E+02  0.11865054433E+03  0.00000000000E+00 0.  1.
         14    1    3    3    0    0  0.10109463915E+03  0.79445853800E+02 -0.12301908548E+03  0.17794792818E+03  0.00000000000E+00 0. -1.
         11    1    5    5    0    0  0.23027520903E+02 -0.65291994977E+01  0.21837799505E+02  0.32400411297E+02  0.00000000000E+00 0. -1.
        -12    1    5    5    0    0 -0.30789369877E+02  0.30840769163E+02 -0.36782979166E+02  0.57027413551E+02  0.00000000000E+00 0.  1.
          5    1    4    4  501    0 -0.18271864754E+03 -0.49998258377E+02  0.35942337613E+02  0.19286071148E+03  0.41800000000E+01 0.  1.
         -5    1    4    4    0  501 -0.12729700279E+02 -0.57057077941E+02 -0.23157728766E+02  0.63018316496E+02  0.41800000000E+01 0.  1.
</event>
<event>
11    1  0.8551154E-009  0.1268310E+03  0.7561462E-02  0.1123225E+00
         22   -1    0    0    0    0  0.00000000000E+00  0.00000000000E+00  0.14242132605E+04  0.14242132605E+04  0.00000000000E+00 0. -1.
         22   -1    0    0    0    0 -0.00000000000E+00 -0.00000000000E+00 -0.86193924084E+02  0.86193924084E+02  0.00000000000E+00 0. -1.
         24    2    1    2    0    0 -0.74720892115E+01 -0.19494740414E+02 -0.47352065873E+02  0.96074157089E+02  0.80945342651E+02 0.  0.
         25    2    1    2    0    0 -0.26504195143E+00  0.23279863160E+02  0.29794101023E+03  0.32397281446E+03  0.12509003420E+03 0.  0.
        -24    2    1    2    0    0  0.77371311630E+01 -0.37851227462E+01  0.10874303920E+04  0.10903602130E+04  0.79412506872E+02 0.  0.
        -11    1    3    3    0    0  0.33952913539E+02 -0.20863103162E+02 -0.12056501806E+02  0.41634464655E+02  0.00000000000E+00 0.  1.
         12    1    3    3    0    0 -0.41425002750E+02  0.13683627486E+01 -0.35295564067E+02  0.54439692434E+02  0.00000000000E+00 0. -1.
         11    1    5    5    0    0  0.36566877220E+01  0.10314903007E+02  0.10513675303E+04  0.10514244873E+04  0.00000000000E+00 0. -1.
        -12    1    5    5    0    0  0.40804434410E+01 -0.14100025754E+02  0.36062861666E+02  0.38935725709E+02  0.00000000000E+00 0.  1.
          5    1    4    4  501    0  0.26460160079E+02 -0.26753527557E+02  0.25473002165E+02  0.45631541147E+02  0.41800000000E+01 0.  1.
         -5    1    4    4    0  501 -0.26725202030E+02  0.50033390717E+02  0.27246800807E+03  0.27834127332E+03  0.41800000000E+01 0.  1.
</event>
<event>
11    1  0.8551154E-009  0.1297687E+03  0.7561462E-02  0.1119554E+00
         22   -1    0    0    0    0  0.00000000000E+00  0.00000000000E+00  0.23471284985E+04  0.23471284985E+04  0.00000000000E+00 0.  1.
         22   -1    0    0    0    0 -0.00000000000E+00 -0.00000000000E+00 -0.33008021968E+02  0.33008021968E+02  0.00000000000E+00 0. -1.
         24    2    1    2    0    0 -0.26197544224E+00  0.13768616714E+02  0.58021472726E+02  0.10385457170E+03  0.85027274025E+02 0.  0.
         25    2    1    2    0    0  0.27514840133E+02 -0.33518892543E+02  0.47574500153E+03  0.49382255959E+03  0.12508729471E+03 0.  0.
        -24    2    1    2    0    0 -0.27252864691E+02  0.19750275828E+02  0.17803540022E+04  0.17824593891E+04  0.79801682998E+02 0.  0.
        -13    1    3    3    0    0  0.21799930707E+02 -0.29250417687E+02  0.34005735972E+02  0.49871976026E+02  0.00000000000E+00 0.  1.
         14    1    3    3    0    0 -0.22061906149E+02  0.43019034402E+02  0.24015736754E+02  0.53982595673E+02  0.00000000000E+00 0. -1.
         13    1    5    5    0    0  0.89867259775E+01 -0.26380976732E+02  0.53910885877E+03  0.53982874950E+03  0.00000000000E+00 0. -1.
        -14    1    5    5    0    0 -0.36239590668E+02  0.46131252560E+02  0.12412451435E+04  0.12426306396E+04  0.00000000000E+00 0.  1.
          5    1    4    4  501    0  0.36569333199E+02 -0.51148991110E+02  0.10453054476E+03  0.12205589953E+03  0.41800000000E+01 0.  1.
         -5    1    4    4    0  501 -0.90544930664E+01  0.17630098568E+02  0.37121445677E+03  0.37176666006E+03  0.41800000000E+01 0.  1.
</event>
<event>
11    1  0.8551154E-009  0.1336356E+03  0.7561462E-02  0.1114881E+00
         22   -1    0    0    0    0  0.00000000000E+00  0.00000000000E+00  0.16139533920E+04  0.16139533920E+04  0.00000000000E+00 0. -1.
         22   -1    0    0    0    0 -0.00000000000E+00 -0.00000000000E+00 -0.92327894505E+03  0.92327894505E+03  0.00000000000E+00 0. -1.
         24    2    1    2    0    0  0.19012575227E+02  0.14479546959E+02 -0.84746497348E+03  0.85166378781E+03  0.81013522968E+02 0.  0.
         25    2    1    2    0    0 -0.65056673336E+02 -0.21889824946E+02 -0.20166938598E+01  0.14269800359E+03  0.12508844068E+03 0.  0.
        -24    2    1    2    0    0  0.46044098110E+02  0.74102779874E+01  0.15401561143E+04  0.15428705456E+04  0.78700019535E+02 0.  0.
        -13    1    3    3    0    0  0.31199833141E+01  0.14708679858E+02 -0.25922486175E+02  0.29967563274E+02  0.00000000000E+00 0.  1.
         14    1    3    3    0    0  0.15892591913E+02 -0.22913289948E+00 -0.82154248730E+03  0.82169622454E+03  0.00000000000E+00 0. -1.
         13    1    5    5    0    0  0.17385058133E+01  0.10510912940E+02  0.11715329535E+04  0.11715813941E+04  0.00000000000E+00 0. -1.
        -14    1    5    5    0    0  0.44305592296E+02 -0.31006349524E+01  0.36862316073E+03  0.37128915157E+03  0.00000000000E+00 0.  1.
          5    1    4    4  501    0  0.24571239640E+02 -0.39372563002E+02  0.16491194660E+02  0.49430521301E+02  0.41800000000E+01 0.  1.
         -5    1    4    4    0  501 -0.89627912976E+02  0.17482738056E+02 -0.18507888520E+02  0.93267482285E+02  0.41800000000E+01 0.  1.
</event>
<event>
11    1  0.8551154E-009  0.1422949E+03  0.7561462E-02  0.1105022E+00
         22   -1    0    0    0    0  0.00000000000E+00  0.00000000000E+00  0.34335474386E+03  0.34335474386E+03  0.00000000000E+00 0.  1.
         22   -1    0    0    0    0 -0.00000000000E+00 -0.00000000000E+00 -0.43515540335E+03  0.43515540335E+03  0.00000000000E+00 0. -1.
         24    2    1    2    0    0 -0.57013064785E+02  0.35038687653E+02 -0.35957691659E+03  0.37421553878E+03  0.79142348552E+02 0.  0.
         25    2    1    2    0    0  0.66134318171E+02 -0.42964409254E+02  0.26889845733E+02  0.15029903481E+03  0.12508815915E+03 0.  0.
        -24    2    1    2    0    0 -0.91212533862E+01  0.79257216009E+01  0.24088641136E+03  0.25399557361E+03  0.79633371854E+02 0.  0.
        -13    1    3    3    0    0  0.22687033127E+01  0.34547850122E+02 -0.64126335088E+02  0.72875838346E+02  0.00000000000E+00 0.  1.
         14    1    3    3    0    0 -0.59281768098E+02  0.49083753054E+00 -0.29545058150E+03  0.30133970043E+03  0.00000000000E+00 0. -1.
         13    1    5    5    0    0  0.22060494482E+02 -0.23409456080E+02  0.63480297614E+02  0.71164712013E+02  0.00000000000E+00 0. -1.
        -14    1    5    5    0    0 -0.31181747868E+02  0.31335177681E+02  0.17740611374E+03  0.18283086160E+03  0.00000000000E+00 0.  1.
          5    1    4    4  501    0  0.67273579245E+02 -0.65811525121E+02 -0.21487068827E+02  0.96623277888E+02  0.41800000000E+01 0. -1.
         -5    1    4    4    0  501 -0.11392610734E+01  0.22847115867E+02  0.48376914559E+02  0.53675756925E+02  0.41800000000E+01 0. -1.
</event>
<event>
11    1  0.8551154E-009  0.1603910E+03  0.7561462E-02  0.1086710E+00
         22   -1    0    0    0    0  0.00000000000E+00  0.00000000000E+00  0.22909716561E+03  0.22909716561E+03  0.00000000000E+00 0.  1.
         22   -1    0    0    0    0 -0.00000000000E+00 -0.00000000000E+00 -0.22307319311E+04  0.22307319311E+04  0.00000000000E+00 0. -1.
        -24    2    1    2    0    0 -0.32781238908E+02  0.53685244633E+01 -0.20815347246E+04  0.20847581258E+04  0.11102343230E+03 0.  0.
         25    2    1    2    0    0  0.10343442338E+03 -0.70142158130E+02 -0.60539128694E+02  0.18689820484E+03  0.12508937038E+03 0.  0.
         24    2    1    2    0    0 -0.70653184476E+02  0.64773633666E+02  0.14043908789E+03  0.18817276601E+03  0.80612383453E+02 0.  0.
        -13    1    5    5    0    0 -0.81933824236E+02  0.28114374232E+02  0.91586014558E+02  0.12606176127E+03  0.00000000000E+00 0.  1.
         14    1    5    5    0    0  0.11280639760E+02  0.36659259434E+02  0.48853073335E+02  0.62111004741E+02  0.00000000000E+00 0. -1.
         11    1    3    3    0    0  0.19388759891E+02  0.45810052453E+02 -0.94425589216E+03  0.94556526734E+03  0.00000000000E+00 0. -1.
        -12    1    3    3    0    0 -0.52169998799E+02 -0.40441527990E+02 -0.11372788325E+04  0.11391928585E+04  0.00000000000E+00 0.  1.
          5    1    4    4  501    0  0.94790733947E+02  0.10286641546E+02 -0.26608234250E+02  0.99078598933E+02  0.41800000000E+01 0.  1.
         -5    1    4    4    0  501  0.86436894368E+01 -0.80428799675E+02 -0.33930894444E+02  0.87819605909E+02  0.41800000000E+01 0.  1.
</event>
<event>
11    1  0.8551154E-009  0.1860321E+03  0.7561462E-02  0.1064865E+00
         22   -1    0    0    0    0  0.00000000000E+00  0.00000000000E+00  0.18722776983E+03  0.18722776983E+03  0.00000000000E+00 0.  1.
         22   -1    0    0    0    0 -0.00000000000E+00 -0.00000000000E+00 -0.28054922144E+03  0.28054922144E+03  0.00000000000E+00 0.  1.
         24    2    1    2    0    0 -0.11066072779E+03 -0.10000694954E+03 -0.11718660542E+03  0.20548030029E+03  0.79008016602E+02 0.  0.
         25    2    1    2    0    0  0.74921394402E+02  0.88861257774E+02  0.46446237369E+00  0.17075679671E+03  0.12509248349E+03 0.  0.
        -24    2    1    2    0    0  0.35739333383E+02  0.11145691762E+02  0.23400691436E+02  0.91539894267E+02  0.80189983709E+02 0.  0.
        -13    1    3    3    0    0 -0.10945908357E+03 -0.63097086825E+02 -0.66523186715E+02  0.14278609076E+03  0.00000000000E+00 0.  1.
         14    1    3    3    0    0 -0.12016442117E+01 -0.36909862711E+02 -0.50663418703E+02  0.62694209532E+02  0.00000000000E+00 0. -1.
         13    1    5    5    0    0  0.46779609121E+02 -0.20822740581E+02  0.14602505525E+01  0.51225488641E+02  0.00000000000E+00 0. -1.
        -14    1    5    5    0    0 -0.11040275739E+02  0.31968432343E+02  0.21940440883E+02  0.40314405626E+02  0.00000000000E+00 0.  1.
          5    1    4    4  501    0  0.85599381843E+02  0.73435476271E+02  0.45580328771E+02  0.12171713979E+03  0.41800000000E+01 0.  1.
         -5    1    4    4    0  501 -0.10677987440E+02  0.15425781503E+02 -0.45115866397E+02  0.49039656927E+02  0.41800000000E+01 0.  1.
</event>
<event>
11    1  0.8551154E-009  0.1471624E+03  0.7561462E-02  0.1099814E+00
         22   -1    0    0    0    0  0.00000000000E+00  0.00000000000E+00  0.16367736227E+04  0.16367736227E+04  0.00000000000E+00 0. -1.
         22   -1    0    0    0    0 -0.00000000000E+00 -0.00000000000E+00 -0.12454478351E+04  0.12454478351E+04  0.00000000000E+00 0. -1.
         24    2    1    2    0    0  0.70830935066E+02  0.32617205905E+02 -0.12227067763E+04  0.12277972101E+04  0.79957645029E+02 0.  0.
         25    2    1    2    0    0 -0.14867187049E+02 -0.48364614674E+02  0.22902943708E+03  0.26582028019E+03  0.12508304884E+03 0.  0.
        -24    2    1    2    0    0 -0.55963748017E+02  0.15747408769E+02  0.13850031268E+04  0.13886039674E+04  0.81285885901E+02 0.  0.
        -13    1    3    3    0    0 -0.12224237999E+02  0.25535715576E+02 -0.29992661772E+03  0.30125982272E+03  0.00000000000E+00 0.  1.
         14    1    3    3    0    0  0.83055173065E+02  0.70814903292E+01 -0.92278015855E+03  0.92653738743E+03  0.00000000000E+00 0. -1.
         11    1    5    5    0    0 -0.18666146544E+02  0.34409625271E+02  0.10860991874E+04  0.10868044407E+04  0.00000000000E+00 0. -1.
        -12    1    5    5    0    0 -0.37297601473E+02 -0.18662216502E+02  0.29890393933E+03  0.30179952675E+03  0.00000000000E+00 0.  1.
          5    1    4    4  501    0 -0.25334091521E+02 -0.73894311094E+02  0.22425514733E+03  0.23750795547E+03  0.41800000000E+01 0. -1.
         -5    1    4    4    0  501  0.10466904472E+02  0.25529696420E+02  0.47742897463E+01  0.28312324721E+02  0.41800000000E+01 0. -1.
</event>
<event>
11    1  0.8551154E-009  0.1567661E+03  0.7561462E-02  0.1090159E+00
         22   -1    0    0    0    0  0.00000000000E+00  0.00000000000E+00  0.78066592445E+03  0.78066592445E+03  0.00000000000E+00 0. -1.
         22   -1    0    0    0    0 -0.00000000000E+00 -0.00000000000E+00 -0.32864528032E+03  0.32864528032E+03  0.00000000000E+00 0. -1.
         24    2    1    2    0    0  0.83606996019E+01  0.90146396766E+01 -0.23559234160E+03  0.24861940794E+03  0.78464600666E+02 0.  0.
         25    2    1    2    0    0 -0.70596678349E+02 -0.79042014273E+02  0.21043694204E+01  0.16396488808E+03  0.12509406516E+03 0.  0.
        -24    2    1    2    0    0  0.62235978747E+02  0.70027374596E+02  0.68550861631E+03  0.69672690875E+03  0.82031531131E+02 0.  0.
        -13    1    3    3    0    0 -0.29378989576E+02 -0.13033442000E+02 -0.64935035772E+02  0.72453809490E+02  0.00000000000E+00 0.  1.
         14    1    3    3    0    0  0.37739689178E+02  0.22048081676E+02 -0.17065730583E+03  0.17616559845E+03  0.00000000000E+00 0. -1.
         13    1    5    5    0    0  0.53542920503E+02  0.58199097270E+00  0.25438268174E+03  0.25995717304E+03  0.00000000000E+00 0. -1.
        -14    1    5    5    0    0  0.86930582440E+01  0.69445383624E+02  0.43112593457E+03  0.43676973571E+03  0.00000000000E+00 0.  1.
          5    1    4    4  501    0  0.11030337690E+02 -0.75186429698E+02 -0.20982180531E+02  0.78945499303E+02  0.41800000000E+01 0.  1.
         -5    1    4    4    0  501 -0.81627016039E+02 -0.38555845747E+01  0.23086549951E+02  0.85019388779E+02  0.41800000000E+01 0.  1.
</event>
<event>
11    1  0.8551154E-009  0.4220936E+03  0.7561462E-02  0.9586728E-01
         22   -1    0    0    0    0  0.00000000000E+00  0.00000000000E+00  0.12062296824E+04  0.12062296824E+04  0.00000000000E+00 0.  1.
         22   -1    0    0    0    0 -0.00000000000E+00 -0.00000000000E+00 -0.11040509175E+04  0.11040509175E+04  0.00000000000E+00 0.  1.
         24    2    1    2    0    0 -0.13375083393E+03  0.22024392635E+03 -0.80460302985E+03  0.84858273103E+03  0.79435150199E+02 0.  0.
         25    2    1    2    0    0 -0.31934673759E+02  0.53595105489E+02 -0.23483683845E+03  0.27328993084E+03  0.12508711719E+03 0.  0.
        -24    2    1    2    0    0  0.16568550768E+03 -0.27383903184E+03  0.11416186332E+04  0.11884079380E+04  0.81122257241E+02 0.  0.
        -11    1    3    3    0    0 -0.10895662315E+03  0.18849140506E+03 -0.74845168390E+03  0.77947448877E+03  0.00000000000E+00 0.  1.
         12    1    3    3    0    0 -0.24794210771E+02  0.31752521290E+02 -0.56151345944E+02  0.69108242253E+02  0.00000000000E+00 0. -1.
         11    1    5    5    0    0  0.14138092588E+03 -0.16311236869E+03  0.79058205013E+03  0.81952070689E+03  0.00000000000E+00 0. -1.
        -12    1    5    5    0    0  0.24304581802E+02 -0.11072666315E+03  0.35103658308E+03  0.36888723113E+03  0.00000000000E+00 0.  1.
          5    1    4    4  501    0  0.16370700165E+02 -0.15485791590E+02  0.86297779838E+00  0.22935271870E+02  0.41800000000E+01 0. -1.
         -5    1    4    4    0  501 -0.48305373924E+02  0.69080897080E+02 -0.23569981625E+03  0.25035465897E+03  0.41800000000E+01 0. -1.
</event>
<event>
11    1  0.8551154E-009  0.2089170E+03  0.7561462E-02  0.1048391E+00
         22   -1    0    0    0    0  0.00000000000E+00  0.00000000000E+00  0.13647529203E+03  0.13647529203E+03  0.00000000000E+00 0.  1.
         22   -1    0    0    0    0 -0.00000000000E+00 -0.00000000000E+00 -0.68232435463E+03  0.68232435463E+03  0.00000000000E+00 0. -1.
         24    2    1    2    0    0 -0.80125749375E+02 -0.82519209216E+02 -0.25049449364E+03  0.28735139670E+03  0.81202082715E+02 0.  0.
         25    2    1    2    0    0  0.28985239687E+02 -0.10572762475E+03 -0.27304916775E+03  0.31972205061E+03  0.12509143409E+03 0.  0.
        -24    2    1    2    0    0  0.51140509689E+02  0.18824683396E+03 -0.22305401207E+02  0.21172619934E+03  0.79235284670E+02 0.  0.
        -13    1    3    3    0    0 -0.94451360460E+02 -0.56141451713E+02 -0.18246301681E+03  0.21299219374E+03  0.00000000000E+00 0.  1.
         14    1    3    3    0    0  0.14325611085E+02 -0.26377757503E+02 -0.68031476836E+02  0.74359202957E+02  0.00000000000E+00 0. -1.
         11    1    5    5    0    0 -0.43362211981E+01  0.12690689048E+03 -0.41371438920E+01  0.12704832791E+03  0.00000000000E+00 0. -1.
        -12    1    5    5    0    0  0.55476730887E+02  0.61339943487E+02 -0.18168257315E+02  0.84677871435E+02  0.00000000000E+00 0.  1.
          5    1    4    4  501    0  0.47629370415E+02  0.44485356771E+01 -0.12704494874E+03  0.13581692750E+03  0.41800000000E+01 0.  1.
         -5    1    4    4    0  501 -0.18644130729E+02 -0.11017616042E+03 -0.14600421901E+03  0.18390512311E+03  0.41800000000E+01 0.  1.
</event>
<event>
11    1  0.8551154E-009  0.1298676E+03  0.7561462E-02  0.1119432E+00
         22   -1    0    0    0    0  0.00000000000E+00  0.00000000000E+00  0.73112866292E+03  0.73112866292E+03  0.00000000000E+00 0. -1.
         22   -1    0    0    0    0 -0.00000000000E+00 -0.00000000000E+00 -0.26129896143E+03  0.26129896143E+03  0.00000000000E+00 0. -1.
         24    2    1    2    0    0  0.20949918969E+02  0.27438439440E+02 -0.22742602180E+03  0.24378527992E+03  0.80727320353E+02 0.  0.
         25    2    1    2    0    0 -0.17752898582E+02 -0.42458377363E+02  0.17560231916E+03  0.22045436082E+03  0.12508425758E+03 0.  0.
        -24    2    1    2    0    0 -0.31970203869E+01  0.15019937923E+02  0.52165340412E+03  0.52818798361E+03  0.81390739749E+02 0.  0.
        -13    1    3    3    0    0  0.20964214489E+02 -0.16312751679E+02 -0.16746889137E+03  0.16956247737E+03  0.00000000000E+00 0.  1.
         14    1    3    3    0    0 -0.14295519602E-01  0.43751191119E+02 -0.59957130428E+02  0.74222802547E+02  0.00000000000E+00 0. -1.
         11    1    5    5    0    0 -0.41426568382E+02  0.10640039869E+01  0.29714556315E+03  0.30002129653E+03  0.00000000000E+00 0. -1.
        -12    1    5    5    0    0  0.38229547995E+02  0.13955933936E+02  0.22450784098E+03  0.22816668708E+03  0.00000000000E+00 0.  1.
          5    1    4    4  501    0 -0.69352572267E+02 -0.57812350136E+01  0.96570171159E+02  0.11910697845E+03  0.41800000000E+01 0.  1.
         -5    1    4    4    0  501  0.51599673685E+02 -0.36677142350E+02  0.79032148002E+02  0.10134738237E+03  0.41800000000E+01 0.  1.
</event>
<event>
11    1  0.8551154E-009  0.1523084E+03  0.7561462E-02  0.1094543E+00
         22   -1    0    0    0    0  0.00000000000E+00  0.00000000000E+00  0.81726335369E+03  0.81726335369E+03  0.00000000000E+00 0. -1.
         22   -1    0    0    0    0 -0.00000000000E+00 -0.00000000000E+00 -0.15252399199E+03  0.15252399199E+03  0.00000000000E+00 0.  1.
         24    2    1    2    0    0  0.31053187488E+01 -0.27266004959E+02 -0.10593597758E+03  0.13453158824E+03  0.78251126874E+02 0.  0.
         25    2    1    2    0    0 -0.86599621054E+02  0.44301023773E+02  0.21177031472E+03  0.26448780620E+03  0.12508020770E+03 0.  0.
        -24    2    1    2    0    0  0.83494302305E+02 -0.17035018814E+02  0.55890502456E+03  0.57076795124E+03  0.78356475798E+02 0.  0.
        -13    1    3    3    0    0 -0.80364943407E+01 -0.40792483286E+02 -0.10907313080E+03  0.11672857318E+03  0.00000000000E+00 0.  1.
         14    1    3    3    0    0  0.11141813089E+02  0.13526478327E+02  0.31371532204E+01  0.17803015059E+02  0.00000000000E+00 0. -1.
         13    1    5    5    0    0  0.41761121108E+02  0.29448201207E+01  0.45625713237E+03  0.45817380331E+03  0.00000000000E+00 0. -1.
        -14    1    5    5    0    0  0.41733181197E+02 -0.19979838935E+02  0.10264789220E+03  0.11259414793E+03  0.00000000000E+00 0.  1.
          5    1    4    4  501    0 -0.93458714289E+02  0.10952140870E+02  0.66697008418E+02  0.11541422788E+03  0.41800000000E+01 0.  1.
         -5    1    4    4    0  501  0.68590932356E+01  0.33348882903E+02  0.14507330630E+03  0.14907357832E+03  0.41800000000E+01 0.  1.
</event>
<event>
11    1  0.8551154E-009  0.1805337E+03  0.7561462E-02  0.1069212E+00
         22   -1    0    0    0    0  0.00000000000E+00  0.00000000000E+00  0.17544741664E+04  0.17544741664E+04  0.00000000000E+00 0. -1.
         22   -1    0    0    0    0 -0.00000000000E+00 -0.00000000000E+00 -0.13127526984E+03  0.13127526984E+03  0.00000000000E+00 0. -1.
         24    2    1    2    0    0  0.12791117575E+02  0.25323785634E+02 -0.75418977462E+02  0.11284924476E+03  0.79006474890E+02 0.  0.
         25    2    1    2    0    0 -0.32459314661E+02 -0.15109776457E+03  0.26445217590E+03  0.33085923734E+03  0.12509492406E+03 0.  0.
        -24    2    1    2    0    0  0.19668197086E+02  0.12577397894E+03  0.14341656981E+04  0.14420409541E+04  0.80280333729E+02 0.  0.
        -13    1    3    3    0    0 -0.19143192934E+02  0.35562219849E+02 -0.13771592694E+02  0.42670716910E+02  0.00000000000E+00 0.  1.
         14    1    3    3    0    0  0.31934310509E+02 -0.10238434215E+02 -0.61647384767E+02  0.70178527852E+02  0.00000000000E+00 0. -1.
         11    1    5    5    0    0 -0.24027513367E+02  0.78682899113E+02  0.96446901625E+03  0.96797148889E+03  0.00000000000E+00 0. -1.
        -12    1    5    5    0    0  0.43695710454E+02  0.47091079822E+02  0.46969668186E+03  0.47406946523E+03  0.00000000000E+00 0.  1.
          5    1    4    4  501    0 -0.60194488128E+02 -0.15696392296E+03  0.20733953892E+03  0.26696105767E+03  0.41800000000E+01 0. -1.
         -5    1    4    4    0  501  0.27735173467E+02  0.58661583934E+01  0.57112636985E+02  0.63898179668E+02  0.41800000000E+01 0. -1.
</event>
<event>
11    1  0.8551154E-009  0.1389218E+03  0.7561462E-02  0.1108768E+00
         22   -1    0    0    0    0  0.00000000000E+00  0.00000000000E+00  0.89327698067E+03  0.89327698067E+03  0.00000000000E+00 0. -1.
         22   -1    0    0    0    0 -0.00000000000E+00 -0.00000000000E+00 -0.50749821532E+03  0.50749821532E+03  0.00000000000E+00 0. -1.
        -24    2    1    2    0    0  0.31914554388E+01  0.62276244251E+02 -0.45364871122E+03  0.47033004177E+03  0.10735305774E+03 0.  0.
         25    2    1    2    0    0  0.23059071953E+02 -0.37430148865E+02  0.59211519011E+02  0.14521768974E+03  0.12509770816E+03 0.  0.
         24    2    1    2    0    0 -0.26250527392E+02 -0.24846095386E+02  0.78021595757E+03  0.78522746447E+03  0.80862920316E+02 0.  0.
        -13    1    5    5    0    0  0.26619971315E+02  0.13800661130E+01  0.15949056055E+03  0.16170270981E+03  0.00000000000E+00 0.  1.
         14    1    5    5    0    0 -0.52870498707E+02 -0.26226161499E+02  0.62072539701E+03  0.62352475466E+03  0.00000000000E+00 0. -1.
         13    1    3    3    0    0  0.36921631280E+02  0.70176047589E+02 -0.38884228242E+03  0.39684531635E+03  0.00000000000E+00 0. -1.
        -14    1    3    3    0    0 -0.33730175841E+02 -0.78998033382E+01 -0.64806428799E+02  0.73484725411E+02  0.00000000000E+00 0.  1.
          5    1    4    4  501    0 -0.18186592326E+02 -0.30830966865E+02 -0.29826274062E+02  0.46780120593E+02  0.41800000000E+01 0. -1.
         -5    1    4    4    0  501  0.41245664279E+02 -0.65991819995E+01  0.89037793073E+02  0.98437569150E+02  0.41800000000E+01 0. -1.
</event>
<event>
11    1  0.8551154E-009  0.1436711E+03  0.7561462E-02  0.1103527E+00
         22   -1    0    0    0    0  0.00000000000E+00  0.00000000000E+00  0.26672771615E+03  0.26672771615E+03  0.00000000000E+00 0.  1.
         22   -1    0    0    0    0 -0.00000000000E+00 -0.00000000000E+00 -0.31730437090E+03  0.31730437090E+03  0.00000000000E+00 0.  1.
         24    2    1    2    0    0 -0.70017303257E+02  0.39870560650E+01 -0.23796029443E+03  0.26024126440E+03  0.78626297116E+02 0.  0.
         25    2    1    2    0    0  0.79434050980E+02  0.60029418327E+02  0.10820560120E+03  0.19305255927E+03  0.12509012348E+03 0.  0.
        -24    2    1    2    0    0 -0.94167477229E+01 -0.64016474392E+02  0.79178038473E+02  0.13073826338E+03  0.81465008465E+02 0.  0.
        -11    1    3    3    0    0 -0.56513965853E+02  0.81003367998E+01 -0.23934284497E+03  0.24605780059E+03  0.00000000000E+00 0.  1.
         12    1    3    3    0    0 -0.13503337404E+02 -0.41132807347E+01  0.13825505438E+01  0.14183463803E+02  0.00000000000E+00 0. -1.
         11    1    5    5    0    0  0.20364200893E+02 -0.67110818224E+02  0.37820847567E+02  0.79680481370E+02  0.00000000000E+00 0. -1.
        -12    1    5    5    0    0 -0.29780948616E+02  0.30943438313E+01  0.41357190906E+02  0.51057782011E+02  0.00000000000E+00 0.  1.
          5    1    4    4  501    0  0.57537121515E+02  0.87308090056E+01 -0.12810664243E+02  0.59735524577E+02  0.41800000000E+01 0.  1.
         -5    1    4    4    0  501  0.21896929464E+02  0.51298609322E+02  0.12101626544E+03  0.13331703470E+03  0.41800000000E+01 0.  1.
</event>
<event>
11    1  0.8551154E-009  0.1482728E+03  0.7561462E-02  0.1098657E+00
         22   -1    0    0    0    0  0.00000000000E+00  0.00000000000E+00  0.10092858666E+03  0.10092858666E+03  0.00000000000E+00 0.  1.
         22   -1    0    0    0    0 -0.00000000000E+00 -0.00000000000E+00 -0.11871270509E+04  0.11871270509E+04  0.00000000000E+00 0.  1.
         24    2    1    2    0    0 -0.24300044527E+02 -0.59846834316E+02 -0.89469182204E+03  0.90061147118E+03  0.80345689749E+02 0.  0.
         25    2    1    2    0    0  0.26074630412E+02  0.13016787667E+03 -0.21156640219E+03  0.27934014623E+03  0.12508801819E+03 0.  0.
        -24    2    1    2    0    0 -0.17745858852E+01 -0.70321042349E+02  0.20059760013E+02  0.10810402013E+03  0.79598285437E+02 0.  0.
        -11    1    3    3    0    0 -0.53665322449E+02 -0.44674503210E+02 -0.63343471974E+03  0.63727178051E+03  0.00000000000E+00 0.  1.
         12    1    3    3    0    0  0.29365277922E+02 -0.15172331106E+02 -0.26125710230E+03  0.26333969067E+03  0.00000000000E+00 0. -1.
         11    1    5    5    0    0  0.17660798867E+02 -0.15666623835E+02 -0.25198535902E+02  0.34529887498E+02  0.00000000000E+00 0. -1.
        -12    1    5    5    0    0 -0.19435384752E+02 -0.54654418514E+02  0.45258295915E+02  0.73574132633E+02  0.00000000000E+00 0.  1.
          5    1    4    4  501    0 -0.24303497199E+01 -0.11080322487E+02 -0.89883555398E+02  0.90692921870E+02  0.41800000000E+01 0. -1.
         -5    1    4    4    0  501  0.28504980132E+02  0.14124819915E+03 -0.12168284679E+03  0.18864722436E+03  0.41800000000E+01 0. -1.
</event>
<event>
11    1  0.8551154E-009  0.1482546E+03  0.7561462E-02  0.1098676E+00
         22   -1    0    0    0    0  0.00000000000E+00  0.00000000000E+00  0.21970180391E+03  0.21970180391E+03  0.00000000000E+00 0. -1.
         22   -1    0    0    0    0 -0.00000000000E+00 -0.00000000000E+00 -0.26168919970E+03  0.26168919970E+03  0.00000000000E+00 0.  1.
        -24    2    1    2    0    0 -0.62439089208E+02  0.36546485683E+02 -0.13263052091E+03  0.16944458695E+03  0.76722405418E+02 0.  0.
         25    2    1    2    0    0 -0.22998939297E+02  0.15180294758E+02 -0.28050155281E+02  0.13112729845E+03  0.12509262421E+03 0.  0.
         24    2    1    2    0    0  0.85438028505E+02 -0.51726780441E+02  0.11869328040E+03  0.18081911820E+03  0.92909322274E+02 0.  0.
        -13    1    5    5    0    0 -0.10152338088E+02 -0.32783145947E+02  0.12088628242E+02  0.36385980262E+02  0.00000000000E+00 0.  1.
         14    1    5    5    0    0  0.95590366594E+02 -0.18943634494E+02  0.10660465216E+03  0.14443313794E+03  0.00000000000E+00 0. -1.
         11    1    3    3    0    0 -0.44142767984E+02 -0.30723195599E+01 -0.19816429348E+02  0.48484162206E+02  0.00000000000E+00 0. -1.
        -12    1    3    3    0    0 -0.18296321224E+02  0.39618805243E+02 -0.11281409156E+03  0.12096042475E+03  0.00000000000E+00 0.  1.
          5    1    4    4  501    0 -0.17619882159E+02  0.47690373842E+02  0.33609978444E+02  0.61089565848E+02  0.41800000000E+01 0. -1.
         -5    1    4    4    0  501 -0.53790571382E+01 -0.32510079084E+02 -0.61660133725E+02  0.70037732607E+02  0.41800000000E+01 0. -1.
</event>
<event>
11    1  0.8551154E-009  0.2557335E+03  0.7561462E-02  0.1020888E+00
         22   -1    0    0    0    0  0.00000000000E+00  0.00000000000E+00  0.54435374169E+02  0.54435374169E+02  0.00000000000E+00 0. -1.
         22   -1    0    0    0    0 -0.00000000000E+00 -0.00000000000E+00 -0.29750931387E+04  0.29750931387E+04  0.00000000000E+00 0. -1.
        -24    2    1    2    0    0 -0.61540422800E+02  0.76275704580E+02 -0.10692152897E+04  0.10769930477E+04  0.84187186788E+02 0.  0.
         25    2    1    2    0    0 -0.38522983741E+02 -0.26651967327E+03 -0.15238108497E+04  0.15524699872E+04  0.12508716469E+03 0.  0.
         24    2    1    2    0    0  0.10006340654E+03  0.19024396869E+03 -0.32763162507E+03  0.40006547793E+03  0.80650182456E+02 0.  0.
        -13    1    5    5    0    0  0.45438377525E+02  0.94803700336E+02 -0.90662089625E+02  0.13882363720E+03  0.00000000000E+00 0.  1.
         14    1    5    5    0    0  0.54625029017E+02  0.95440268359E+02 -0.23696953544E+03  0.26124184073E+03  0.00000000000E+00 0. -1.
         13    1    3    3    0    0 -0.27497259427E+02 -0.56595108959E+01 -0.10446802702E+03  0.10817438703E+03  0.00000000000E+00 0. -1.
        -14    1    3    3    0    0 -0.34043163373E+02  0.81935215475E+02 -0.96474726264E+03  0.96881866068E+03  0.00000000000E+00 0.  1.
          5    1    4    4  501    0  0.25210362085E+02 -0.91425418818E+02 -0.30325595085E+03  0.31776691724E+03  0.41800000000E+01 0. -1.
         -5    1    4    4    0  501 -0.63733345826E+02 -0.17509425446E+03 -0.12205548989E+04  0.12347030699E+04  0.41800000000E+01 0. -1.
</event>
<event>
11    1  0.8551154E-009  0.1336614E+03  0.7561462E-02  0.1114850E+00
         22   -1    0    0    0    0  0.00000000000E+00  0.00000000000E+00  0.50424523039E+03  0.50424523039E+03  0.00000000000E+00 0. -1.
         22   -1    0    0    0    0 -0.00000000000E+00 -0.00000000000E+00 -0.46454419850E+03  0.46454419850E+03  0.00000000000E+00 0.  1.
         24    2    1    2    0    0  0.10475993430E+02 -0.50464507526E+02 -0.34544248217E+03  0.35852386784E+03  0.80947157832E+02 0.  0.
         25    2    1    2    0    0 -0.59834753223E+01  0.21634844205E+02 -0.71366047196E+02  0.14572667447E+03  0.12505711694E+03 0.  0.
        -24    2    1    2    0    0 -0.44925181081E+01  0.28829663320E+02  0.45650956126E+03  0.46453888659E+03  0.80895398053E+02 0.  0.
        -13    1    3    3    0    0  0.43544046618E+02 -0.37859401016E+02 -0.25401778076E+03  0.26048886959E+03  0.00000000000E+00 0.  1.
         14    1    3    3    0    0 -0.33068053188E+02 -0.12605106510E+02 -0.91424701416E+02  0.98034998244E+02  0.00000000000E+00 0. -1.
         13    1    5    5    0    0 -0.14572205230E+02  0.53035498247E+02  0.37232111341E+03  0.37636169402E+03  0.00000000000E+00 0. -1.
        -14    1    5    5    0    0  0.10079687121E+02 -0.24205834927E+02  0.84188447848E+02  0.88177192561E+02  0.00000000000E+00 0.  1.
          5    1    4    4  501    0  0.34696183758E+02  0.60472683584E+02 -0.47622273410E+02  0.84534749968E+02  0.41800000000E+01 0. -1.
         -5    1    4    4    0  501 -0.40679659081E+02 -0.38837839379E+02 -0.23743773785E+02  0.61191924501E+02  0.41800000000E+01 0. -1.
</event>
<event>
11    1  0.8551154E-009  0.1945431E+03  0.7561462E-02  0.1058451E+00
         22   -1    0    0    0    0  0.00000000000E+00  0.00000000000E+00  0.35328575018E+04  0.35328575018E+04  0.00000000000E+00 0. -1.
         22   -1    0    0    0    0 -0.00000000000E+00 -0.00000000000E+00 -0.14794699563E+03  0.14794699563E+03  0.00000000000E+00 0. -1.
         24    2    1    2    0    0 -0.39729443508E+02 -0.12015784185E+03 -0.75856944873E+01  0.15122927418E+03  0.82440372192E+02 0.  0.
         25    2    1    2    0    0  0.34325406536E+02  0.23003131996E+03  0.19336144806E+03  0.32730662831E+03  0.12509331574E+03 0.  0.
        -24    2    1    2    0    0  0.54040369728E+01 -0.10987347811E+03  0.31991347526E+04  0.32022685949E+04  0.89216613325E+02 0.  0.
        -11    1    3    3    0    0 -0.21767138102E+02  0.61536412336E+01 -0.68858190364E+01  0.23645086284E+02  0.00000000000E+00 0.  1.
         12    1    3    3    0    0 -0.17962305407E+02 -0.12631148308E+03 -0.69987545088E+00  0.12758418789E+03  0.00000000000E+00 0. -1.
         13    1    5    5    0    0 -0.30463913027E+02 -0.99815003749E+02  0.23309143337E+04  0.23332493900E+04  0.00000000000E+00 0. -1.
        -14    1    5    5    0    0  0.35867950000E+02 -0.10058474363E+02  0.86822041893E+03  0.86901920496E+03  0.00000000000E+00 0.  1.
          5    1    4    4  501    0 -0.14355237437E+02  0.19199575233E+03  0.18075347223E+03  0.26411689056E+03  0.41800000000E+01 0. -1.
         -5    1    4    4    0  501  0.48680643972E+02  0.38035567630E+02  0.12607975830E+02  0.63189737751E+02  0.41800000000E+01 0. -1.
</event>
<event>
11    1  0.8551154E-009  0.2136580E+03  0.7561462E-02  0.1045265E+00
         22   -1    0    0    0    0  0.00000000000E+00  0.00000000000E+00  0.57804104377E+03  0.57804104377E+03  0.00000000000E+00 0.  1.
         22   -1    0    0    0    0 -0.00000000000E+00 -0.00000000000E+00 -0.11728210587E+03  0.11728210587E+03  0.00000000000E+00 0. -1.
        -24    2    1    2    0    0  0.19368961058E+03  0.56790217405E+02  0.19469601705E+03  0.29183230907E+03  0.80738860055E+02 0.  0.
         25    2    1    2    0    0 -0.15125053849E+03 -0.19437960646E+01  0.18521502048E+03  0.26987701669E+03  0.12509395106E+03 0.  0.
         24    2    1    2    0    0 -0.42439072093E+02 -0.54846421340E+02  0.80847900375E+02  0.13361382388E+03  0.80666388058E+02 0.  0.
        -13    1    5    5    0    0 -0.54147204279E+02 -0.46263122848E+02  0.91251056058E+02  0.11575384010E+03  0.00000000000E+00 0.  1.
         14    1    5    5    0    0  0.11708132186E+02 -0.85832984918E+01 -0.10403155683E+02  0.17859983775E+02  0.00000000000E+00 0. -1.
         13    1    3    3    0    0  0.18075833554E+03  0.49742153068E+02  0.13677252908E+03  0.23206590092E+03  0.00000000000E+00 0. -1.
        -14    1    3    3    0    0  0.12931275045E+02  0.70480643366E+01  0.57923487968E+02  0.59766408153E+02  0.00000000000E+00 0.  1.
          5    1    4    4  501    0  0.21227675899E+02 -0.26693661542E+01  0.10023800307E+02  0.23993513963E+02  0.41800000000E+01 0. -1.
         -5    1    4    4    0  501 -0.17247821439E+03  0.72557008957E+00  0.17519122017E+03  0.24588350273E+03  0.41800000000E+01 0. -1.
</event>
<event>
11    1  0.8551154E-009  0.1741063E+03  0.7561462E-02  0.1074512E+00
         22   -1    0    0    0    0  0.00000000000E+00  0.00000000000E+00  0.10704369549E+04  0.10704369549E+04  0.00000000000E+00 0.  1.
         22   -1    0    0    0    0 -0.00000000000E+00 -0.00000000000E+00 -0.15905867622E+04  0.15905867622E+04  0.00000000000E+00 0.  1.
        -24    2    1    2    0    0 -0.11952514780E+03 -0.23240898058E+02 -0.14797048995E+04  0.14867800639E+04  0.78498207806E+02 0.  0.
         25    2    1    2    0    0  0.10224954613E+03  0.42651275187E+02 -0.39312989380E+02  0.17166319678E+03  0.12509452840E+03 0.  0.
         24    2    1    2    0    0  0.17275601665E+02 -0.19410377130E+02  0.99886808156E+03  0.10025804565E+04  0.82188309465E+02 0.  0.
        -11    1    5    5    0    0  0.35454699657E+02 -0.42738402367E+02  0.57202863297E+03  0.57471763824E+03  0.00000000000E+00 0.  1.
         12    1    5    5    0    0 -0.18179097991E+02  0.23328025238E+02  0.42683944859E+03  0.42786281824E+03  0.00000000000E+00 0. -1.
         13    1    3    3    0    0 -0.75208134270E+01 -0.12992914486E+02 -0.40598910089E+02  0.43285678485E+02  0.00000000000E+00 0. -1.
        -14    1    3    3    0    0 -0.11200433437E+03 -0.10247983571E+02 -0.14391059894E+04  0.14434943854E+04  0.00000000000E+00 0.  1.
          5    1    4    4  501    0 -0.25990462715E+02  0.27923518000E+01 -0.25231746459E+02  0.36570682385E+02  0.41800000000E+01 0.  1.
         -5    1    4    4    0  501  0.12824000885E+03  0.39858923387E+02 -0.14081242920E+02  0.13509251439E+03  0.41800000000E+01 0.  1.
</event>
<event>
11    1  0.8551154E-009  0.1408562E+03  0.7561462E-02  0.1106606E+00
         22   -1    0    0    0    0  0.00000000000E+00  0.00000000000E+00  0.10173046341E+04  0.10173046341E+04  0.00000000000E+00 0.  1.
         22   -1    0    0    0    0 -0.00000000000E+00 -0.00000000000E+00 -0.80739230624E+03  0.80739230624E+03  0.00000000000E+00 0. -1.
         24    2    1    2    0    0  0.13152407548E+02  0.13558359762E+02 -0.78743711197E+03  0.79180516688E+03  0.80878934500E+02 0.  0.
         25    2    1    2    0    0 -0.50242396082E+02  0.40386955608E+02  0.34822076936E+03  0.37558097253E+03  0.12509179895E+03 0.  0.
        -24    2    1    2    0    0  0.37089988534E+02 -0.53945315370E+02  0.64912867048E+03  0.65731080093E+03  0.80023083485E+02 0.  0.
        -13    1    3    3    0    0  0.47536445573E+02  0.87237834133E+01 -0.46151357904E+03  0.46403728481E+03  0.00000000000E+00 0.  1.
         14    1    3    3    0    0 -0.34384038025E+02  0.48345763492E+01 -0.32592353293E+03  0.32776788207E+03  0.00000000000E+00 0. -1.
         11    1    5    5    0    0 -0.93039429036E+01  0.11499092510E+02  0.35466069765E+02  0.38427003353E+02  0.00000000000E+00 0. -1.
        -12    1    5    5    0    0  0.46393931438E+02 -0.65444407880E+02  0.61366260071E+03  0.61888379758E+03  0.00000000000E+00 0.  1.
          5    1    4    4  501    0 -0.13756812246E+02 -0.27598047728E+02  0.24327576235E+03  0.24525796841E+03  0.41800000000E+01 0. -1.
         -5    1    4    4    0  501 -0.36485583836E+02  0.67985003336E+02  0.10494500701E+03  0.13032300412E+03  0.41800000000E+01 0. -1.
</event>
<event>
11    1  0.8551154E-009  0.1321039E+03  0.7561462E-02  0.1116711E+00
         22   -1    0    0    0    0  0.00000000000E+00  0.00000000000E+00  0.53714963188E+03  0.53714963188E+03  0.00000000000E+00 0. -1.
         22   -1    0    0    0    0 -0.00000000000E+00 -0.00000000000E+00 -0.32400734565E+03  0.32400734565E+03  0.00000000000E+00 0.  1.
         24    2    1    2    0    0 -0.34527579059E+02 -0.20462551058E+02 -0.20805867887E+03  0.22673615538E+03  0.80684574694E+02 0.  0.
         25    2    1    2    0    0  0.57057171123E+02  0.77448393842E+01 -0.57188859060E+02  0.14910637169E+03  0.12508653470E+03 0.  0.
        -24    2    1    2    0    0 -0.22529592064E+02  0.12717711674E+02  0.47838982416E+03  0.48531445046E+03  0.77485284155E+02 0.  0.
        -13    1    3    3    0    0 -0.34622311974E+02 -0.48547204344E+02 -0.16383129592E+03  0.17434514349E+03  0.00000000000E+00 0.  1.
         14    1    3    3    0    0  0.94732914697E-01  0.28084653286E+02 -0.44227382949E+02  0.52391011892E+02  0.00000000000E+00 0. -1.
         11    1    5    5    0    0 -0.45554306865E+01  0.32583365345E+01  0.45189610047E+03  0.45193080701E+03  0.00000000000E+00 0. -1.
        -12    1    5    5    0    0 -0.17974161378E+02  0.94593751394E+01  0.26493723693E+02  0.33383643456E+02  0.00000000000E+00 0.  1.
          5    1    4    4  501    0  0.37205590561E+01 -0.27246625092E+02  0.30053176046E+02  0.40949809878E+02  0.41800000000E+01 0.  1.
         -5    1    4    4    0  501  0.53336612067E+02  0.34991464476E+02 -0.87242035106E+02  0.10815656181E+03  0.41800000000E+01 0.  1.
</event>
<event>
11    1  0.8551154E-009  0.1309835E+03  0.7561462E-02  0.1118067E+00
         22   -1    0    0    0    0  0.00000000000E+00  0.00000000000E+00  0.22966805117E+04  0.22966805117E+04  0.00000000000E+00 0. -1.
         22   -1    0    0    0    0 -0.00000000000E+00 -0.00000000000E+00 -0.26328580289E+03  0.26328580289E+03  0.00000000000E+00 0. -1.
        -24    2    1    2    0    0 -0.37115263466E+02  0.53728895616E+01 -0.18013043151E+03  0.20058928547E+03  0.79891666417E+02 0.  0.
         25    2    1    2    0    0  0.52606580563E+02 -0.40716234688E+02 -0.23251838524E+01  0.14169975403E+03  0.12509256463E+03 0.  0.
         24    2    1    2    0    0 -0.15491317097E+02  0.35343345126E+02  0.22158503242E+04  0.22176772751E+04  0.81306237997E+02 0.  0.
        -11    1    5    5    0    0 -0.95278109723E+01  0.14071984442E+02  0.83463893391E+02  0.85176413566E+02  0.00000000000E+00 0.  1.
         12    1    5    5    0    0 -0.59635061249E+01  0.21271360684E+02  0.21323864308E+04  0.21325008615E+04  0.00000000000E+00 0. -1.
         11    1    3    3    0    0 -0.18994493604E+02  0.40152647458E+02 -0.12706366296E+03  0.13460386447E+03  0.00000000000E+00 0. -1.
        -12    1    3    3    0    0 -0.18120769862E+02 -0.34779757896E+02 -0.53066768551E+02  0.65985420997E+02  0.00000000000E+00 0.  1.
          5    1    4    4  501    0  0.74049865701E+02  0.19891446912E+02  0.44612979090E+01  0.76918319337E+02  0.41800000000E+01 0. -1.
         -5    1    4    4    0  501 -0.21443285138E+02 -0.60607681600E+02 -0.67864817613E+01  0.64781434695E+02  0.41800000000E+01 0. -1.
</event>
<event>
11    1  0.8551154E-009  0.1347269E+03  0.7561462E-02  0.1113594E+00
         22   -1    0    0    0    0  0.00000000000E+00  0.00000000000E+00  0.42793727457E+03  0.42793727457E+03  0.00000000000E+00 0. -1.
         22   -1    0    0    0    0 -0.00000000000E+00 -0.00000000000E+00 -0.92251753614E+03  0.92251753614E+03  0.00000000000E+00 0. -1.
         24    2    1    2    0    0 -0.24537119026E+00 -0.48798040879E+02 -0.65984761551E+03  0.66653361822E+03  0.80541166629E+02 0.  0.
         25    2    1    2    0    0 -0.29920767532E+02  0.55550068659E+02 -0.23562884883E+03  0.27414569938E+03  0.12511533731E+03 0.  0.
        -24    2    1    2    0    0  0.30166138722E+02 -0.67520277805E+01  0.40089620276E+03  0.40977549311E+03  0.79010148448E+02 0.  0.
        -13    1    3    3    0    0  0.22196941318E+01  0.20895116000E+02 -0.89246044788E+02  0.91686364444E+02  0.00000000000E+00 0.  1.
         14    1    3    3    0    0 -0.24650653221E+01 -0.69693156878E+02 -0.57060157072E+03  0.57484725377E+03  0.00000000000E+00 0. -1.
         11    1    5    5    0    0  0.17890342276E+02  0.13475280277E+02  0.37087647543E+03  0.37155215994E+03  0.00000000000E+00 0. -1.
        -12    1    5    5    0    0  0.12275796446E+02 -0.20227308058E+02  0.30019727331E+02  0.38223333171E+02  0.00000000000E+00 0.  1.
          5    1    4    4  501    0 -0.21427072044E+02 -0.38230027112E+02 -0.55445445928E+02  0.70797770187E+02  0.41800000000E+01 0.  1.
         -5    1    4    4    0  501 -0.84936954884E+01  0.93780095771E+02 -0.18018340290E+03  0.20334792919E+03  0.41800000000E+01 0.  1.
</event>
<event>
11    1  0.8551154E-009  0.1370211E+03  0.7561462E-02  0.1110931E+00
         22   -1    0    0    0    0  0.00000000000E+00  0.00000000000E+00  0.98254889043E+03  0.98254889043E+03  0.00000000000E+00 0. -1.
         22   -1    0    0    0    0 -0.00000000000E+00 -0.00000000000E+00 -0.12003671657E+04  0.12003671657E+04  0.00000000000E+00 0. -1.
        -24    2    1    2    0    0  0.26140728384E+02  0.23356838561E+02 -0.11481725567E+04  0.11515538689E+04  0.80914853925E+02 0.  0.
         25    2    1    2    0    0 -0.68773930311E+02 -0.56445461827E+02  0.75877054030E+02  0.17123235639E+03  0.12508896393E+03 0.  0.
         24    2    1    2    0    0  0.42633201928E+02  0.33088623265E+02  0.85447722732E+03  0.86012983084E+03  0.82338004600E+02 0.  0.
        -11    1    5    5    0    0  0.23624729703E+01 -0.77434255409E+01  0.69653608831E+01  0.10679801959E+02  0.00000000000E+00 0.  1.
         12    1    5    5    0    0  0.40270728958E+02  0.40832048806E+02  0.84751186644E+03  0.84945002889E+03  0.00000000000E+00 0. -1.
         11    1    3    3    0    0  0.13408650077E+02  0.20317151062E+02 -0.11222484792E+04  0.11225124621E+04  0.00000000000E+00 0. -1.
        -12    1    3    3    0    0  0.12732078307E+02  0.30396874990E+01 -0.25924077510E+02  0.29041406867E+02  0.00000000000E+00 0.  1.
          5    1    4    4  501    0 -0.74611547294E+02 -0.91171774114E+02  0.61567337742E+02  0.13299317600E+03  0.41800000000E+01 0. -1.
         -5    1    4    4    0  501  0.58376169826E+01  0.34726312288E+02  0.14309716288E+02  0.38239180396E+02  0.41800000000E+01 0. -1.
</event>
<event>
11    1  0.8551154E-009  0.1623570E+03  0.7561462E-02  0.1084881E+00
         22   -1    0    0    0    0  0.00000000000E+00  0.00000000000E+00  0.17830428100E+04  0.17830428100E+04  0.00000000000E+00 0.  1.
         22   -1    0    0    0    0 -0.00000000000E+00 -0.00000000000E+00 -0.15170557306E+03  0.15170557306E+03  0.00000000000E+00 0. -1.
         24    2    1    2    0    0 -0.39209181469E+02  0.87653706833E+02 -0.79523170007E+02  0.14857731660E+03  0.80813069523E+02 0.  0.
         25    2    1    2    0    0  0.84149781935E+02 -0.15320828764E+03  0.29177329831E+03  0.36239969435E+03  0.12509162903E+03 0.  0.
        -24    2    1    2    0    0 -0.44940600466E+02  0.65554580804E+02  0.14190871086E+04  0.14237713721E+04  0.83663836451E+02 0.  0.
        -11    1    3    3    0    0 -0.44897992975E+02  0.96059696432E+01 -0.40067187046E+02  0.60938361512E+02  0.00000000000E+00 0.  1.
         12    1    3    3    0    0  0.56888115056E+01  0.78047737190E+02 -0.39455982962E+02  0.87638955085E+02  0.00000000000E+00 0. -1.
         11    1    5    5    0    0 -0.24153878881E+01 -0.13737871941E+02  0.52135589412E+03  0.52154245423E+03  0.00000000000E+00 0. -1.
        -12    1    5    5    0    0 -0.42525212578E+02  0.79292452745E+02  0.89773121450E+03  0.90222891788E+03  0.00000000000E+00 0.  1.
          5    1    4    4  501    0 -0.18216674211E+02 -0.30807672996E+02  0.81476460267E+01  0.36943422561E+02  0.41800000000E+01 0. -1.
         -5    1    4    4    0  501  0.10236645615E+03 -0.12240061464E+03  0.28362565229E+03  0.32545627178E+03  0.41800000000E+01 0. -1.
</event>
<event>
11    1  0.8551154E-009  0.1731275E+03  0.7561462E-02  0.1075342E+00
         22   -1    0    0    0    0  0.00000000000E+00  0.00000000000E+00  0.99070290373E+02  0.99070290373E+02  0.00000000000E+00 0. -1.
         22   -1    0    0    0    0 -0.00000000000E+00 -0.00000000000E+00 -0.98444894153E+03  0.98444894153E+03  0.00000000000E+00 0.  1.
        -24    2    1    2    0    0  0.23850115524E+02  0.20576444073E+02 -0.51549592829E+03  0.52260882952E+03  0.79948224139E+02 0.  0.
         25    2    1    2    0    0 -0.13559831216E+03 -0.52143306607E+02 -0.38486799050E+03  0.42997318058E+03  0.12509092383E+03 0.  0.
         24    2    1    2    0    0  0.11174819663E+03  0.31566862534E+02  0.14985267627E+02  0.13093722181E+03  0.58616307874E+02 0.  0.
        -13    1    5    5    0    0  0.56619305477E+02 -0.90940168979E+01 -0.96281632659E+01  0.58147643322E+02  0.00000000000E+00 0.  1.
         14    1    5    5    0    0  0.55128891157E+02  0.40660879432E+02  0.24613430893E+02  0.72789578489E+02  0.00000000000E+00 0. -1.
         11    1    3    3    0    0 -0.85535181941E+01 -0.25760572977E+02 -0.11612833181E+03  0.11925837179E+03  0.00000000000E+00 0. -1.
        -12    1    3    3    0    0  0.32403633719E+02  0.46337017050E+02 -0.39936759648E+03  0.40335045772E+03  0.00000000000E+00 0.  1.
          5    1    4    4  501    0 -0.57099096815E+02  0.31867798699E+02 -0.75855725633E+02  0.10023685431E+03  0.41800000000E+01 0. -1.
         -5    1    4    4    0  501 -0.78499215344E+02 -0.84011105306E+02 -0.30901226486E+03  0.32973632627E+03  0.41800000000E+01 0. -1.
</event>
<event>
11    1  0.8551154E-009  0.1554523E+03  0.7561462E-02  0.1091434E+00
         22   -1    0    0    0    0  0.00000000000E+00  0.00000000000E+00  0.25237618083E+03  0.25237618083E+03  0.00000000000E+00 0. -1.
         22   -1    0    0    0    0 -0.00000000000E+00 -0.00000000000E+00 -0.66954726870E+03  0.66954726870E+03  0.00000000000E+00 0. -1.
         24    2    1    2    0    0 -0.21261821715E+02  0.85855864931E+01 -0.29258845373E+03  0.30411390643E+03  0.79696219929E+02 0.  0.
         25    2    1    2    0    0  0.92267564760E+02  0.49606518474E+02 -0.33614959356E+03  0.37365526482E+03  0.12509035732E+03 0.  0.
        -24    2    1    2    0    0 -0.71005743045E+02 -0.58192104967E+02  0.21156695942E+03  0.24415427827E+03  0.80141104645E+02 0.  0.
        -11    1    3    3    0    0  0.41268288648E+01  0.22083000580E+02 -0.20198089743E+02  0.30210138370E+02  0.00000000000E+00 0.  1.
         12    1    3    3    0    0 -0.25388650579E+02 -0.13497414086E+02 -0.27239036399E+03  0.27390376806E+03  0.00000000000E+00 0. -1.
         13    1    5    5    0    0 -0.88947488119E+02 -0.48348316754E+02  0.18049525854E+03  0.20694867415E+03  0.00000000000E+00 0. -1.
        -14    1    5    5    0    0  0.17941745073E+02 -0.98437882134E+01  0.31071700875E+02  0.37205604120E+02  0.00000000000E+00 0.  1.
          5    1    4    4  501    0  0.76643178591E+02  0.44713928583E+02 -0.34381135715E+03  0.35510172337E+03  0.41800000000E+01 0. -1.
         -5    1    4    4    0  501  0.15624386169E+02  0.48925898904E+01  0.76617635916E+01  0.18553541450E+02  0.41800000000E+01 0. -1.
</event>
<event>
11    1  0.8551154E-009  0.1580441E+03  0.7561462E-02  0.1088931E+00
         22   -1    0    0    0    0  0.00000000000E+00  0.00000000000E+00  0.41513152843E+03  0.41513152843E+03  0.00000000000E+00 0.  1.
         22   -1    0    0    0    0 -0.00000000000E+00 -0.00000000000E+00 -0.15460681108E+03  0.15460681108E+03  0.00000000000E+00 0.  1.
        -24    2    1    2    0    0  0.27554975394E+02  0.91033816180E+02 -0.68189052573E+02  0.14221708766E+03  0.80805450160E+02 0.  0.
         25    2    1    2    0    0 -0.10470033363E+02 -0.10402358709E+03  0.11829625474E+03  0.20142526887E+03  0.12509039446E+03 0.  0.
         24    2    1    2    0    0 -0.17084942031E+02  0.12989770909E+02  0.21041751519E+03  0.22609598297E+03  0.79895140191E+02 0.  0.
        -13    1    5    5    0    0 -0.22583697825E+02 -0.16974272038E+01  0.20913845577E+03  0.21036111416E+03  0.00000000000E+00 0.  1.
         14    1    5    5    0    0  0.54987557940E+01  0.14687198112E+02  0.12790594161E+01  0.15734868816E+02  0.00000000000E+00 0. -1.
         13    1    3    3    0    0  0.40138241590E+02  0.78139624674E+02 -0.19061444462E+02  0.89890033080E+02  0.00000000000E+00 0. -1.
        -14    1    3    3    0    0 -0.12583266196E+02  0.12894191506E+02 -0.49127608111E+02  0.52327054584E+02  0.00000000000E+00 0.  1.
          5    1    4    4  501    0 -0.14340275391E+01 -0.56008285645E+02 -0.16033160150E+02  0.58425329441E+02  0.41800000000E+01 0.  1.
         -5    1    4    4    0  501 -0.90360058237E+01 -0.48015301443E+02  0.13432941489E+03  0.14299993943E+03  0.41800000000E+01 0.  1.
</event>
<event>
11    1  0.8551154E-009  0.1771678E+03  0.7561462E-02  0.1071957E+00
         22   -1    0    0    0    0  0.00000000000E+00  0.00000000000E+00  0.98701094763E+03  0.98701094763E+03  0.00000000000E+00 0.  1.
         22   -1    0    0    0    0 -0.00000000000E+00 -0.00000000000E+00 -0.56365735571E+03  0.56365735571E+03  0.00000000000E+00 0.  1.
         24    2    1    2    0    0 -0.12254768727E+03  0.15085016678E+02 -0.49358170098E+03  0.51511663912E+03  0.80478338524E+02 0.  0.
         25    2    1    2    0    0  0.15449869766E+03 -0.75516558114E+02  0.14868829393E+03  0.25947675859E+03  0.12508949343E+03 0.  0.
        -24    2    1    2    0    0 -0.31951010390E+02  0.60431541435E+02  0.76824699898E+03  0.77607490562E+03  0.86116023129E+02 0.  0.
        -11    1    3    3    0    0 -0.54076281365E+02 -0.31081751737E+02 -0.25965394770E+03  0.26704024426E+03  0.00000000000E+00 0.  1.
         12    1    3    3    0    0 -0.68471405910E+02  0.46166768415E+02 -0.23392775329E+03  0.24807639487E+03  0.00000000000E+00 0. -1.
         13    1    5    5    0    0 -0.48380755664E+02  0.69170464926E+02  0.49091454207E+03  0.49811879944E+03  0.00000000000E+00 0. -1.
        -14    1    5    5    0    0  0.16429745274E+02 -0.87389234908E+01  0.27733245690E+03  0.27795610618E+03  0.00000000000E+00 0.  1.
          5    1    4    4  501    0  0.19075329079E+02  0.16831776429E+02  0.75753369023E+02  0.80020136188E+02  0.41800000000E+01 0.  1.
         -5    1    4    4    0  501  0.13542336859E+03 -0.92348334542E+02  0.72934924906E+02  0.17945662240E+03  0.41800000000E+01 0.  1.
</event>
<event>
11    1  0.8551154E-009  0.1855845E+03  0.7561462E-02  0.1065213E+00
         22   -1    0    0    0    0  0.00000000000E+00  0.00000000000E+00  0.23561082547E+03  0.23561082547E+03  0.00000000000E+00 0. -1.
         22   -1    0    0    0    0 -0.00000000000E+00 -0.00000000000E+00 -0.26053185592E+04  0.26053185592E+04  0.00000000000E+00 0.  1.
        -24    2    1    2    0    0  0.16178338741E+02  0.44612647115E+02 -0.17591389248E+04  0.17616268901E+04  0.80669177375E+02 0.  0.
         25    2    1    2    0    0 -0.97498718708E+02 -0.15306283169E+03 -0.80164546142E+03  0.83139665898E+03  0.12510287031E+03 0.  0.
         24    2    1    2    0    0  0.81320379967E+02  0.10845018458E+03  0.19107665250E+03  0.24790583561E+03  0.81071384999E+02 0.  0.
        -13    1    5    5    0    0  0.29182351806E+01  0.31646134509E+02  0.54269696027E+01  0.32240439280E+02  0.00000000000E+00 0.  1.
         14    1    5    5    0    0  0.78402144786E+02  0.76804050069E+02  0.18564968289E+03  0.21566539633E+03  0.00000000000E+00 0. -1.
         11    1    3    3    0    0  0.58795154260E+01  0.41713541336E+02 -0.36137869029E+03  0.36382570832E+03  0.00000000000E+00 0. -1.
        -12    1    3    3    0    0  0.10298823315E+02  0.28991057795E+01 -0.13977602345E+04  0.13978011818E+04  0.00000000000E+00 0.  1.
          5    1    4    4  501    0 -0.14355408091E+02 -0.10874867908E+03 -0.27017471028E+03  0.29162338627E+03  0.41800000000E+01 0. -1.
         -5    1    4    4    0  501 -0.83143310617E+02 -0.44314152611E+02 -0.53147075113E+03  0.53977327271E+03  0.41800000000E+01 0. -1.
</event>
<event>
11    1  0.8551154E-009  0.3434773E+03  0.7561462E-02  0.9833036E-01
         22   -1    0    0    0    0  0.00000000000E+00  0.00000000000E+00  0.37513264078E+03  0.37513264078E+03  0.00000000000E+00 0.  1.
         22   -1    0    0    0    0 -0.00000000000E+00 -0.00000000000E+00 -0.81213089679E+03  0.81213089679E+03  0.00000000000E+00 0.  1.
         24    2    1    2    0    0  0.15708411610E+03 -0.24761307675E+03 -0.40426715999E+03  0.50584918455E+03  0.80397795701E+02 0.  0.
         25    2    1    2    0    0 -0.16881461813E+03  0.34650326980E+03 -0.21510418784E+03  0.45876960000E+03  0.12504736294E+03 0.  0.
        -24    2    1    2    0    0  0.11730502033E+02 -0.98890193049E+02  0.18237309182E+03  0.22264475302E+03  0.79961656230E+02 0.  0.
        -13    1    3    3    0    0  0.10022674630E+03 -0.20611954373E+03 -0.26928658509E+03  0.35361834213E+03  0.00000000000E+00 0.  1.
         14    1    3    3    0    0  0.56857369799E+02 -0.41493533019E+02 -0.13498057490E+03  0.15223084242E+03  0.00000000000E+00 0. -1.
         13    1    5    5    0    0  0.21980925722E+02  0.26979818820E+01  0.55724308801E+02  0.59963645597E+02  0.00000000000E+00 0. -1.
        -14    1    5    5    0    0 -0.10250423689E+02 -0.10158817493E+03  0.12664878302E+03  0.16268110742E+03  0.00000000000E+00 0.  1.
          5    1    4    4  501    0 -0.18784285201E+03  0.31222177222E+03 -0.20484325530E+03  0.41802584100E+03  0.41800000000E+01 0. -1.
         -5    1    4    4    0  501  0.19028233881E+02  0.34281497578E+02 -0.10260932545E+02  0.40743759001E+02  0.41800000000E+01 0. -1.
</event>
<event>
11    1  0.8551154E-009  0.1690628E+03  0.7561462E-02  0.1078850E+00
         22   -1    0    0    0    0  0.00000000000E+00  0.00000000000E+00  0.20227946599E+04  0.20227946599E+04  0.00000000000E+00 0. -1.
         22   -1    0    0    0    0 -0.00000000000E+00 -0.00000000000E+00 -0.19871649790E+03  0.19871649790E+03  0.00000000000E+00 0. -1.
         24    2    1    2    0    0 -0.11450483511E+02 -0.60669086090E+02 -0.12764980877E+03  0.16846580917E+03  0.90963748818E+02 0.  0.
         25    2    1    2    0    0  0.65815930921E+01  0.17135216104E+03  0.18557665728E+03  0.28194198818E+03  0.12509080107E+03 0.  0.
        -24    2    1    2    0    0  0.48688904193E+01 -0.11068307495E+03  0.17661513135E+04  0.17711033604E+04  0.72403053115E+02 0.  0.
        -13    1    3    3    0    0 -0.16561829854E+01 -0.94680095374E+01  0.14309373939E+02  0.17237874846E+02  0.00000000000E+00 0.  1.
         14    1    3    3    0    0 -0.97943005260E+01 -0.51201076552E+02 -0.14195918271E+03  0.15122793432E+03  0.00000000000E+00 0. -1.
         13    1    5    5    0    0 -0.17887765251E+01  0.33121835113E+01  0.44784914848E+03  0.44786496857E+03  0.00000000000E+00 0. -1.
        -14    1    5    5    0    0  0.66576669444E+01 -0.11399525846E+03  0.13183021650E+04  0.13232383919E+04  0.00000000000E+00 0.  1.
          5    1    4    4  501    0  0.55626361936E+01  0.15467340441E+03  0.78694958332E+02  0.17368124199E+03  0.41800000000E+01 0.  1.
         -5    1    4    4    0  501  0.10189568985E+01  0.16678756627E+02  0.10688169894E+03  0.10826074619E+03  0.41800000000E+01 0.  1.
</event>
<event>
11    1  0.8551154E-009  0.1566747E+03  0.7561462E-02  0.1090247E+00
         22   -1    0    0    0    0  0.00000000000E+00  0.00000000000E+00  0.37152922470E+03  0.37152922470E+03  0.00000000000E+00 0. -1.
         22   -1    0    0    0    0 -0.00000000000E+00 -0.00000000000E+00 -0.14205502010E+04  0.14205502010E+04  0.00000000000E+00 0.  1.
        -24    2    1    2    0    0  0.65782078144E+02  0.35949810924E+02 -0.12090979491E+04  0.12140422459E+04  0.79756214262E+02 0.  0.
         25    2    1    2    0    0 -0.73872054527E+02 -0.12762839511E+03 -0.15033378330E+03  0.24492973908E+03  0.12507694834E+03 0.  0.
         24    2    1    2    0    0  0.80899763831E+01  0.91678584187E+02  0.31041075610E+03  0.33310744066E+03  0.78328277175E+02 0.  0.
        -13    1    5    5    0    0  0.64114230169E+01  0.39449518936E+01 -0.26504228288E+01  0.79808352768E+01  0.00000000000E+00 0.  1.
         14    1    5    5    0    0  0.16785533663E+01  0.87733632293E+02  0.31306117893E+03  0.32512660539E+03  0.00000000000E+00 0. -1.
         13    1    3    3    0    0  0.34414288679E+02  0.44437850467E+02 -0.36345935219E+03  0.36777950802E+03  0.00000000000E+00 0. -1.
        -14    1    3    3    0    0  0.31367789465E+02 -0.84880395434E+01 -0.84563859690E+03  0.84626273793E+03  0.00000000000E+00 0.  1.
          5    1    4    4  501    0  0.28058482115E+02 -0.16765070370E+02 -0.12476644868E+01  0.32975370654E+02  0.41800000000E+01 0.  1.
         -5    1    4    4    0  501 -0.10193053664E+03 -0.11086332474E+03 -0.14908611881E+03  0.21195436843E+03  0.41800000000E+01 0.  1.
</event>
<event>
11    1  0.8551154E-009  0.1396084E+03  0.7561462E-02  0.1107996E+00
         22   -1    0    0    0    0  0.00000000000E+00  0.00000000000E+00  0.79057245558E+03  0.79057245558E+03  0.00000000000E+00 0.  1.
         22   -1    0    0    0    0 -0.00000000000E+00 -0.00000000000E+00 -0.56380359947E+02  0.56380359947E+02  0.00000000000E+00 0.  1.
         24    2    1    2    0    0  0.44908323449E+02  0.43943288782E-01  0.88075337743E+02  0.12717992219E+03  0.80004425147E+02 0.  0.
         25    2    1    2    0    0 -0.91330322389E+02  0.33045139227E+02  0.16460917389E+03  0.22842341508E+03  0.12509143622E+03 0.  0.
        -24    2    1    2    0    0  0.46421998940E+02 -0.33089082516E+02  0.48150758400E+03  0.49134947825E+03  0.79529032211E+02 0.  0.
        -13    1    3    3    0    0  0.55855131415E+02  0.24177680873E+02  0.41737558670E+02  0.73799591879E+02  0.00000000000E+00 0.  1.
         14    1    3    3    0    0 -0.10946807966E+02 -0.24133737584E+02  0.46337779073E+02  0.53380330308E+02  0.00000000000E+00 0. -1.
         13    1    5    5    0    0 -0.18110511052E+02  0.93586406440E+01  0.11469041920E+03  0.11648805528E+03  0.00000000000E+00 0. -1.
        -14    1    5    5    0    0  0.64532509991E+02 -0.42447723160E+02  0.36681716480E+03  0.37486142298E+03  0.00000000000E+00 0.  1.
          5    1    4    4  501    0 -0.30963034245E+02 -0.47930818889E+02  0.62708609417E+02  0.84887660965E+02  0.41800000000E+01 0.  1.
         -5    1    4    4    0  501 -0.60367288143E+02  0.80975958116E+02  0.10190056447E+03  0.14353575412E+03  0.41800000000E+01 0.  1.
</event>
<event>
11    1  0.8551154E-009  0.1550436E+03  0.7561462E-02  0.1091834E+00
         22   -1    0    0    0    0  0.00000000000E+00  0.00000000000E+00  0.14357782178E+03  0.14357782178E+03  0.00000000000E+00 0.  1.
         22   -1    0    0    0    0 -0.00000000000E+00 -0.00000000000E+00 -0.11553801522E+04  0.11553801522E+04  0.00000000000E+00 0.  1.
        -24    2    1    2    0    0 -0.82191397042E+02  0.42671219827E+02 -0.10325459345E+04  0.10396501517E+04  0.78390511057E+02 0.  0.
         25    2    1    2    0    0  0.56087620975E+02 -0.55686893131E+02 -0.41355544005E+02  0.15364120719E+03  0.12509391765E+03 0.  0.
         24    2    1    2    0    0  0.26103776068E+02  0.13015673303E+02  0.62099148150E+02  0.10566661508E+03  0.80363638943E+02 0.  0.
        -11    1    5    5    0    0  0.29713142314E+02  0.10692993193E+02  0.80657205081E+02  0.86618679632E+02  0.00000000000E+00 0.  1.
         12    1    5    5    0    0 -0.36093662462E+01  0.23226801100E+01 -0.18558056932E+02  0.19047935444E+02  0.00000000000E+00 0. -1.
         13    1    3    3    0    0 -0.75204752081E+01  0.43693590437E+01 -0.84668200314E+01  0.12138199506E+02  0.00000000000E+00 0. -1.
        -14    1    3    3    0    0 -0.74670921834E+02  0.38301860784E+02 -0.10240791145E+04  0.10275119522E+04  0.00000000000E+00 0.  1.
          5    1    4    4  501    0  0.62980596178E+02 -0.81656724622E+02  0.11121756036E+01  0.10321378544E+03  0.41800000000E+01 0.  1.
         -5    1    4    4    0  501 -0.68929752032E+01  0.25969831491E+02 -0.42467719609E+02  0.50427421742E+02  0.41800000000E+01 0.  1.
</event>
<event>
11    1  0.8551154E-009  0.3078736E+03  0.7561462E-02  0.9969130E-01
         22   -1    0    0    0    0  0.00000000000E+00  0.00000000000E+00  0.16125116320E+04  0.16125116320E+04  0.00000000000E+00 0. -1.
         22   -1    0    0    0    0 -0.00000000000E+00 -0.00000000000E+00 -0.16547410227E+03  0.16547410227E+03  0.00000000000E+00 0.  1.
        -24    2    1    2    0    0  0.13294032156E+03  0.79074312051E+02  0.49741124644E+02  0.18141581219E+03  0.80694742758E+02 0.  0.
         25    2    1    2    0    0 -0.75435408604E+02  0.21517211107E+03  0.12790641550E+03  0.28982256329E+03  0.12509008279E+03 0.  0.
         24    2    1    2    0    0 -0.57504912959E+02 -0.29424642313E+03  0.12693899896E+04  0.13067473588E+04  0.79686520015E+02 0.  0.
        -13    1    5    5    0    0 -0.39730736819E+02 -0.15773655241E+03  0.52103042625E+03  0.54583152758E+03  0.00000000000E+00 0.  1.
         14    1    5    5    0    0 -0.17774176140E+02 -0.13650987072E+03  0.74835956336E+03  0.76091583123E+03  0.00000000000E+00 0. -1.
         13    1    3    3    0    0  0.72856114858E+01 -0.16472284301E+01 -0.16442279605E+02  0.18059403501E+02  0.00000000000E+00 0. -1.
        -14    1    3    3    0    0  0.12565471008E+03  0.80721540481E+02  0.66183404249E+02  0.16335640869E+03  0.00000000000E+00 0.  1.
          5    1    4    4  501    0 -0.98679381993E+02  0.13041462201E+03  0.46799182456E+02  0.17015648663E+03  0.41800000000E+01 0. -1.
         -5    1    4    4    0  501  0.23243973388E+02  0.84757489065E+02  0.81107233045E+02  0.11966607666E+03  0.41800000000E+01 0. -1.
</event>
<event>
11    1  0.8551154E-009  0.1373950E+03  0.7561462E-02  0.1110503E+00
         22   -1    0    0    0    0  0.00000000000E+00  0.00000000000E+00  0.39311392394E+03  0.39311392394E+03  0.00000000000E+00 0. -1.
         22   -1    0    0    0    0 -0.00000000000E+00 -0.00000000000E+00 -0.17533823914E+03  0.17533823914E+03  0.00000000000E+00 0.  1.
         24    2    1    2    0    0  0.30923728863E+02 -0.50683260574E+02 -0.99052948321E+02  0.14072714473E+03  0.80421220973E+02 0.  0.
         25    2    1    2    0    0  0.23901957330E+02  0.61917054830E+02  0.61572068681E+02  0.15437232942E+03  0.12503867884E+03 0.  0.
        -24    2    1    2    0    0 -0.54825686194E+02 -0.11233794256E+02  0.25525656444E+03  0.27335268893E+03  0.80210503407E+02 0.  0.
        -13    1    3    3    0    0  0.32571984052E+02 -0.35254248507E+02 -0.11113781266E+03  0.12105952910E+03  0.00000000000E+00 0.  1.
         14    1    3    3    0    0 -0.16482551891E+01 -0.15429012067E+02  0.12084864337E+02  0.19667615630E+02  0.00000000000E+00 0. -1.
         11    1    5    5    0    0 -0.63214691898E+02  0.14304714547E+02  0.21786578613E+03  0.22730205211E+03  0.00000000000E+00 0. -1.
        -12    1    5    5    0    0  0.83890057041E+01 -0.25538508803E+02  0.37390778309E+02  0.46050636816E+02  0.00000000000E+00 0.  1.
          5    1    4    4  501    0  0.54897905838E+02 -0.19643402775E+01 -0.70473514759E+01  0.55540762157E+02  0.41800000000E+01 0. -1.
         -5    1    4    4    0  501 -0.30995948508E+02  0.63881395107E+02  0.68619420157E+02  0.98831567261E+02  0.41800000000E+01 0. -1.
</event>
<event>
11    1  0.8551154E-009  0.2619117E+03  0.7561462E-02  0.1017738E+00
         22   -1    0    0    0    0  0.00000000000E+00  0.00000000000E+00  0.20698340964E+03  0.20698340964E+03  0.00000000000E+00 0.  1.
         22   -1    0    0    0    0 -0.00000000000E+00 -0.00000000000E+00 -0.15382281821E+04  0.15382281821E+04  0.00000000000E+00 0. -1.
        -24    2    1    2    0    0  0.15408259608E+03 -0.11782621564E+03 -0.74615805986E+03  0.77526204389E+03  0.81577710739E+02 0.  0.
         25    2    1    2    0    0 -0.28074203156E+03  0.20169224694E+03 -0.68012644350E+03  0.77312040092E+03  0.12508926578E+03 0.  0.
         24    2    1    2    0    0  0.12665943549E+03 -0.83866031299E+02  0.95039730945E+02  0.19682914689E+03  0.81443469999E+02 0.  0.
        -13    1    5    5    0    0  0.10203997562E+03 -0.53288757876E+02  0.26943542894E+02  0.11822775835E+03  0.00000000000E+00 0.  1.
         14    1    5    5    0    0  0.24619459866E+02 -0.30577273423E+02  0.68096188052E+02  0.78601388545E+02  0.00000000000E+00 0. -1.
         13    1    3    3    0    0  0.56721803694E+02 -0.25255752361E+02 -0.38403149197E+03  0.38901851224E+03  0.00000000000E+00 0. -1.
        -14    1    3    3    0    0  0.97360792383E+02 -0.92570463279E+02 -0.36212656789E+03  0.38624353164E+03  0.00000000000E+00 0.  1.
          5    1    4    4  501    0 -0.77292890328E+02  0.10620745406E+03 -0.34883471947E+03  0.37276983261E+03  0.41800000000E+01 0.  1.
         -5    1    4    4    0  501 -0.20344914124E+03  0.95484792878E+02 -0.33129172403E+03  0.40035056832E+03  0.41800000000E+01 0.  1.
</event>
<event>
11    1  0.8551154E-009  0.2146605E+03  0.7561462E-02  0.1044615E+00
         22   -1    0    0    0    0  0.00000000000E+00  0.00000000000E+00  0.58377885100E+03  0.58377885100E+03  0.00000000000E+00 0. -1.
         22   -1    0    0    0    0 -0.00000000000E+00 -0.00000000000E+00 -0.22085787160E+04  0.22085787160E+04  0.00000000000E+00 0. -1.
         24    2    1    2    0    0 -0.74339056749E+02 -0.68203616996E+01 -0.18630471066E+04  0.18662303772E+04  0.79363006499E+02 0.  0.
         25    2    1    2    0    0  0.18603436935E+02  0.17298083016E+03 -0.29178965725E+03  0.36201867469E+03  0.12509141170E+03 0.  0.
        -24    2    1    2    0    0  0.55735619814E+02 -0.16616046846E+03  0.53003689885E+03  0.56410851509E+03  0.81015690215E+02 0.  0.
        -11    1    3    3    0    0 -0.15322275689E+02  0.23338120197E+02 -0.10869656114E+04  0.10873240916E+04  0.00000000000E+00 0.  1.
         12    1    3    3    0    0 -0.59016781060E+02 -0.30158481897E+02 -0.77608149522E+03  0.77890628557E+03  0.00000000000E+00 0. -1.
         13    1    5    5    0    0  0.47528035717E+02 -0.15528865622E+03  0.52506741792E+03  0.54960829169E+03  0.00000000000E+00 0. -1.
        -14    1    5    5    0    0  0.82075840972E+01 -0.10871812233E+02  0.49694809261E+01  0.14500223398E+02  0.00000000000E+00 0.  1.
          5    1    4    4  501    0 -0.34828091928E+02  0.11356601062E+03 -0.10416553710E+03  0.15804482362E+03  0.41800000000E+01 0.  1.
         -5    1    4    4    0  501  0.53431528863E+02  0.59414819538E+02 -0.18762412015E+03  0.20397385107E+03  0.41800000000E+01 0.  1.
</event>
<event>
11    1  0.8551154E-009  0.1514461E+03  0.7561462E-02  0.1095410E+00
         22   -1    0    0    0    0  0.00000000000E+00  0.00000000000E+00  0.14711397423E+04  0.14711397423E+04  0.00000000000E+00 0. -1.
         22   -1    0    0    0    0 -0.00000000000E+00 -0.00000000000E+00 -0.16931391652E+03  0.16931391652E+03  0.00000000000E+00 0.  1.
         24    2    1    2    0    0 -0.12670223650E+02  0.21690762096E+02 -0.12278654126E+03  0.14884732577E+03  0.80299240007E+02 0.  0.
         25    2    1    2    0    0  0.49597978069E+02  0.56549650102E+02  0.14233964128E+03  0.20387545077E+03  0.12508718396E+03 0.  0.
        -24    2    1    2    0    0 -0.36927754419E+02 -0.78240412197E+02  0.12822727257E+04  0.12877308822E+04  0.80884243412E+02 0.  0.
        -11    1    3    3    0    0  0.12053487447E+02  0.49707033111E+01 -0.11788146009E+03  0.11860030811E+03  0.00000000000E+00 0.  1.
         12    1    3    3    0    0 -0.24723711096E+02  0.16720058784E+02 -0.49050811773E+01  0.30247017663E+02  0.00000000000E+00 0. -1.
         11    1    5    5    0    0 -0.14992821894E+02 -0.78059340864E+02  0.11985309543E+04  0.12011638080E+04  0.00000000000E+00 0. -1.
        -12    1    5    5    0    0 -0.21934932526E+02 -0.18107133329E+00  0.83741771435E+02  0.86567074196E+02  0.00000000000E+00 0.  1.
          5    1    4    4  501    0 -0.32210312817E+02 -0.72261207231E+01  0.82259672985E+01  0.34276230984E+02  0.41800000000E+01 0. -1.
         -5    1    4    4    0  501  0.81808290886E+02  0.63775770825E+02  0.13411367399E+03  0.16959921979E+03  0.41800000000E+01 0. -1.
</event>
<event>
11    1  0.8551154E-009  0.1269174E+03  0.7561462E-02  0.1123116E+00
         22   -1    0    0    0    0  0.00000000000E+00  0.00000000000E+00  0.13038225445E+04  0.13038225445E+04  0.00000000000E+00 0. -1.
         22   -1    0    0    0    0 -0.00000000000E+00 -0.00000000000E+00 -0.13692952142E+03  0.13692952142E+03  0.00000000000E+00 0. -1.
        -24    2    1    2    0    0  0.17023285023E+02 -0.22783782367E+02 -0.10895739597E+03  0.13842498188E+03  0.80503841520E+02 0.  0.
         25    2    1    2    0    0 -0.34088859438E+02  0.11307327003E+02  0.38000611510E+03  0.40167450518E+03  0.12509138508E+03 0.  0.
         24    2    1    2    0    0  0.17065574415E+02  0.11476455364E+02  0.89584430391E+03  0.90065257882E+03  0.90637233183E+02 0.  0.
        -13    1    5    5    0    0 -0.34888299599E+02 -0.65618743706E+01  0.45676039870E+03  0.45813787605E+03  0.00000000000E+00 0.  1.
         14    1    5    5    0    0  0.51953874014E+02  0.18038329735E+02  0.43908390520E+03  0.44251470278E+03  0.00000000000E+00 0. -1.
         11    1    3    3    0    0 -0.24895039843E+01  0.93527292424E+01 -0.99081282740E+02  0.99552859145E+02  0.00000000000E+00 0. -1.
        -12    1    3    3    0    0  0.19512789007E+02 -0.32136511609E+02 -0.98761132285E+01  0.38872122733E+02  0.00000000000E+00 0.  1.
          5    1    4    4  501    0 -0.76476977403E+01  0.62804962568E+02  0.26944540384E+03  0.27680543465E+03  0.41800000000E+01 0.  1.
         -5    1    4    4    0  501 -0.26441161697E+02 -0.51497635565E+02  0.11056071126E+03  0.12486907053E+03  0.41800000000E+01 0.  1.
</event>
<event>
11    1  0.8551154E-009  0.1706601E+03  0.7561462E-02  0.1077459E+00
         22   -1    0    0    0    0  0.00000000000E+00  0.00000000000E+00  0.14977450970E+03  0.14977450970E+03  0.00000000000E+00 0. -1.
         22   -1    0    0    0    0 -0.00000000000E+00 -0.00000000000E+00 -0.83840990594E+03  0.83840990594E+03  0.00000000000E+00 0.  1.
        -24    2    1    2    0    0 -0.44258449984E+02  0.61089363291E+02 -0.55935299882E+03  0.56987119155E+03  0.78655431849E+02 0.  0.
         25    2    1    2    0    0 -0.80077270188E+02 -0.51090629516E+02 -0.19511509506E+03  0.25047609952E+03  0.12508299040E+03 0.  0.
         24    2    1    2    0    0  0.12433572017E+03 -0.99987337744E+01  0.65832697637E+02  0.16783712457E+03  0.90972580031E+02 0.  0.
        -11    1    5    5    0    0  0.61248361363E+02  0.20748404429E+02  0.72725407709E+02  0.97318256162E+02  0.00000000000E+00 0.  1.
         12    1    5    5    0    0  0.63087358810E+02 -0.30747138203E+02 -0.68927100719E+01  0.70518868407E+02  0.00000000000E+00 0. -1.
         13    1    3    3    0    0  0.13875314643E+02 -0.10028999812E+02 -0.85379425990E+02  0.87078996182E+02  0.00000000000E+00 0. -1.
        -14    1    3    3    0    0 -0.58133764628E+02  0.71118363103E+02 -0.47397357283E+03  0.48279219536E+03  0.00000000000E+00 0.  1.
          5    1    4    4  501    0 -0.56413361052E+01 -0.20125915729E+02  0.14548982680E+02  0.25807410835E+02  0.41800000000E+01 0. -1.
         -5    1    4    4    0  501 -0.74435934083E+02 -0.30964713788E+02 -0.20966407774E+03  0.22466868869E+03  0.41800000000E+01 0. -1.
</event>
<event>
11    1  0.8551154E-009  0.1498758E+03  0.7561462E-02  0.1097006E+00
         22   -1    0    0    0    0  0.00000000000E+00  0.00000000000E+00  0.18175264672E+03  0.18175264672E+03  0.00000000000E+00 0. -1.
         22   -1    0    0    0    0 -0.00000000000E+00 -0.00000000000E+00 -0.90886346993E+03  0.90886346993E+03  0.00000000000E+00 0. -1.
        -24    2    1    2    0    0 -0.65654255418E+02  0.21401711209E+01 -0.74461300781E+03  0.75176380176E+03  0.79907575718E+02 0.  0.
         25    2    1    2    0    0  0.31049503944E+02  0.77167943334E+02 -0.93097911553E+02  0.17673055550E+03  0.12508998736E+03 0.  0.
         24    2    1    2    0    0  0.34604751474E+02 -0.79308114455E+02  0.11060009615E+03  0.16212175939E+03  0.81017391679E+02 0.  0.
        -11    1    5    5    0    0 -0.47997006359E+01 -0.25299308281E+02 -0.71421762963E+01  0.26722702107E+02  0.00000000000E+00 0.  1.
         12    1    5    5    0    0  0.39404452110E+02 -0.54008806175E+02  0.11774227245E+03  0.13539905728E+03  0.00000000000E+00 0. -1.
         11    1    3    3    0    0 -0.66213932651E+02 -0.28455487459E+02 -0.56243741766E+03  0.56703602040E+03  0.00000000000E+00 0. -1.
        -12    1    3    3    0    0  0.55967723334E+00  0.30595658580E+02 -0.18217559015E+03  0.18472778136E+03  0.00000000000E+00 0.  1.
          5    1    4    4  501    0  0.70372870836E+02  0.53124440336E+02 -0.95930189713E+02  0.13036341822E+03  0.41800000000E+01 0. -1.
         -5    1    4    4    0  501 -0.39323366892E+02  0.24043502998E+02  0.28322781600E+01  0.46367137282E+02  0.41800000000E+01 0. -1.
</event>
<event>
11    1  0.8551154E-009  0.1623347E+03  0.7561462E-02  0.1084902E+00
         22   -1    0    0    0    0  0.00000000000E+00  0.00000000000E+00  0.25270531483E+03  0.25270531483E+03  0.00000000000E+00 0.  1.
         22   -1    0    0    0    0 -0.00000000000E+00 -0.00000000000E+00 -0.41051373158E+03  0.41051373158E+03  0.00000000000E+00 0.  1.
         24    2    1    2    0    0 -0.53578406732E+02 -0.51336295328E+02 -0.76011963459E+02  0.13310757605E+03  0.80210643470E+02 0.  0.
         25    2    1    2    0    0  0.61715615275E+02  0.12162981926E+03 -0.26170794576E+03  0.32053259675E+03  0.12508983412E+03 0.  0.
        -24    2    1    2    0    0 -0.81372085431E+01 -0.70293523933E+02  0.17991149247E+03  0.20957887361E+03  0.80918264135E+02 0.  0.
        -11    1    3    3    0    0 -0.64195090967E+02 -0.62802565947E+02 -0.50065698301E+02  0.10281899698E+03  0.00000000000E+00 0.  1.
         12    1    3    3    0    0  0.10616684235E+02  0.11466270620E+02 -0.25946265158E+02  0.30288579064E+02  0.00000000000E+00 0. -1.
         11    1    5    5    0    0 -0.10705034633E+02 -0.20477943103E+02  0.23668268176E+00  0.23108438695E+02  0.00000000000E+00 0. -1.
        -12    1    5    5    0    0  0.25678260904E+01 -0.49815580830E+02  0.17967480979E+03  0.18647043492E+03  0.00000000000E+00 0.  1.
          5    1    4    4  501    0  0.86919266691E+02  0.57256997791E+02 -0.20892907963E+03  0.23345696699E+03  0.41800000000E+01 0. -1.
         -5    1    4    4    0  501 -0.25203651416E+02  0.64372821469E+02 -0.52778866130E+02  0.87075629763E+02  0.41800000000E+01 0. -1.
</event>
<event>
11    1  0.8551154E-009  0.1301632E+03  0.7561462E-02  0.1119069E+00
         22   -1    0    0    0    0  0.00000000000E+00  0.00000000000E+00  0.46561200871E+03  0.46561200871E+03  0.00000000000E+00 0.  1.
         22   -1    0    0    0    0 -0.00000000000E+00 -0.00000000000E+00 -0.21535983179E+03  0.21535983179E+03  0.00000000000E+00 0.  1.
        -24    2    1    2    0    0  0.33038276472E+02 -0.97207403670E+01 -0.16490082855E+03  0.18660865698E+03  0.80277562857E+02 0.  0.
         25    2    1    2    0    0 -0.49026819274E+02  0.37267863013E+02  0.11219831207E+03  0.17896838441E+03  0.12509475914E+03 0.  0.
         24    2    1    2    0    0  0.15988542802E+02 -0.27547122646E+02  0.30295469340E+03  0.31539479912E+03  0.81718147261E+02 0.  0.
        -13    1    5    5    0    0  0.11473193939E+02 -0.56526716391E+02  0.21883299226E+03  0.22630683230E+03  0.00000000000E+00 0.  1.
         14    1    5    5    0    0  0.45153488633E+01  0.28979593746E+02  0.84121701136E+02  0.89087966813E+02  0.00000000000E+00 0. -1.
         13    1    3    3    0    0 -0.73598967749E+01 -0.11019048219E+00  0.67616505281E+01  0.99950057700E+01  0.00000000000E+00 0. -1.
        -14    1    3    3    0    0  0.40398173247E+02 -0.96105498848E+01 -0.17166247908E+03  0.17661365121E+03  0.00000000000E+00 0.  1.
          5    1    4    4  501    0 -0.30877274502E+02  0.58383070137E+02  0.30506832962E+01  0.66247777532E+02  0.41800000000E+01 0.  1.
         -5    1    4    4    0  501 -0.18149544772E+02 -0.21115207124E+02  0.10914762877E+03  0.11272060687E+03  0.41800000000E+01 0.  1.
</event>
<event>
11    1  0.8551154E-009  0.1556057E+03  0.7561462E-02  0.1091285E+00
         22   -1    0    0    0    0  0.00000000000E+00  0.00000000000E+00  0.52724543606E+03  0.52724543606E+03  0.00000000000E+00 0. -1.
         22   -1    0    0    0    0 -0.00000000000E+00 -0.00000000000E+00 -0.60997273812E+03  0.60997273812E+03  0.00000000000E+00 0.  1.
         24    2    1    2    0    0  0.32039909089E+02  0.25351742842E+02 -0.54209013961E+03  0.54962605550E+03  0.80980335747E+02 0.  0.
         25    2    1    2    0    0 -0.95423506647E+02 -0.84386723970E+02  0.90706470936E+02  0.20025408836E+03  0.12508905321E+03 0.  0.
        -24    2    1    2    0    0  0.63383597558E+02  0.59034981129E+02  0.36865636662E+03  0.38733803032E+03  0.81367214785E+02 0.  0.
        -13    1    3    3    0    0  0.25454626327E+01  0.50903688930E+02 -0.34053673765E+03  0.34432968884E+03  0.00000000000E+00 0.  1.
         14    1    3    3    0    0  0.29494446457E+02 -0.25551946089E+02 -0.20155340196E+03  0.20529636666E+03  0.00000000000E+00 0. -1.
         13    1    5    5    0    0  0.69562795874E+02  0.60347466408E+02  0.36964520122E+03  0.38094405633E+03  0.00000000000E+00 0. -1.
        -14    1    5    5    0    0 -0.61791983161E+01 -0.13124852795E+01 -0.98883459611E+00  0.63939739832E+01  0.00000000000E+00 0.  1.
          5    1    4    4  501    0 -0.73048762837E+02  0.91074971898E+01  0.95000429258E+01  0.74342393509E+02  0.41800000000E+01 0.  1.
         -5    1    4    4    0  501 -0.22374743810E+02 -0.93494221160E+02  0.81206428011E+02  0.12591169485E+03  0.41800000000E+01 0.  1.
</event>
<event>
11    1  0.8551154E-009  0.1841248E+03  0.7561462E-02  0.1066354E+00
         22   -1    0    0    0    0  0.00000000000E+00  0.00000000000E+00  0.27677815863E+03  0.27677815863E+03  0.00000000000E+00 0.  1.
         22   -1    0    0    0    0 -0.00000000000E+00 -0.00000000000E+00 -0.31865298336E+03  0.31865298336E+03  0.00000000000E+00 0.  1.
        -24    2    1    2    0    0 -0.42698322777E+02 -0.40019503976E+02 -0.92442000027E+02  0.13626094758E+03  0.81220779362E+02 0.  0.
         25    2    1    2    0    0  0.16631306732E+03  0.70897561399E+02 -0.10429746670E+03  0.24333544962E+03  0.12509068273E+03 0.  0.
         24    2    1    2    0    0 -0.12361474454E+03 -0.30878057423E+02  0.15486464200E+03  0.21583474479E+03  0.79796743156E+02 0.  0.
        -13    1    5    5    0    0 -0.91594319952E+02 -0.31980515766E+02  0.56246290837E+02  0.11214240085E+03  0.00000000000E+00 0.  1.
         14    1    5    5    0    0 -0.32020424593E+02  0.11024583432E+01  0.98618351161E+02  0.10369234394E+03  0.00000000000E+00 0. -1.
         13    1    3    3    0    0  0.13413073507E+02  0.13821454906E+02 -0.33655109116E+02  0.38776404246E+02  0.00000000000E+00 0. -1.
        -14    1    3    3    0    0 -0.56111396284E+02 -0.53840958881E+02 -0.58786890911E+02  0.97484543335E+02  0.00000000000E+00 0.  1.
          5    1    4    4  501    0  0.14785998467E+03  0.10115776693E+03 -0.10489166894E+03  0.20764200800E+03  0.41800000000E+01 0.  1.
         -5    1    4    4    0  501  0.18453082655E+02 -0.30260205527E+02  0.59420223792E+00  0.35693441615E+02  0.41800000000E+01 0.  1.
</event>
<event>
11    1  0.8551154E-009  0.1852907E+03  0.7561462E-02  0.1065442E+00
         22   -1    0    0    0    0  0.00000000000E+00  0.00000000000E+00  0.75305400876E+03  0.75305400876E+03  0.00000000000E+00 0.  1.
         22   -1    0    0    0    0 -0.00000000000E+00 -0.00000000000E+00 -0.36563876017E+03  0.36563876017E+03  0.00000000000E+00 0.  1.
         24    2    1    2    0    0  0.11471918617E+03  0.19151325588E+02 -0.13988132082E+03  0.19962944744E+03  0.82206249302E+02 0.  0.
         25    2    1    2    0    0 -0.21794721113E+03 -0.10101818030E+03 -0.88045840929E+02  0.28478846101E+03  0.12508692110E+03 0.  0.
        -24    2    1    2    0    0  0.10322802496E+03  0.81866854708E+02  0.61534241033E+03  0.63427486048E+03  0.79373230000E+02 0.  0.
        -11    1    3    3    0    0  0.11646669274E+03  0.36697906246E+02 -0.10718055858E+03  0.16247737990E+03  0.00000000000E+00 0.  1.
         12    1    3    3    0    0 -0.17475065674E+01 -0.17546580658E+02 -0.32700762234E+02  0.37152067543E+02  0.00000000000E+00 0. -1.
         13    1    5    5    0    0  0.25113668050E+02 -0.15068784936E+02  0.12239591528E+03  0.12585120055E+03  0.00000000000E+00 0. -1.
        -14    1    5    5    0    0  0.78114356912E+02  0.96935639645E+02  0.49294649505E+03  0.50842365993E+03  0.00000000000E+00 0.  1.
          5    1    4    4  501    0 -0.14677954196E+03 -0.47019533447E+02  0.69223313507E+01  0.15433878818E+03  0.41800000000E+01 0. -1.
         -5    1    4    4    0  501 -0.71167669171E+02 -0.53998646850E+02 -0.94968172279E+02  0.13044967284E+03  0.41800000000E+01 0. -1.
</event>
<event>
11    1  0.8551154E-009  0.1410421E+03  0.7561462E-02  0.1106400E+00
         22   -1    0    0    0    0  0.00000000000E+00  0.00000000000E+00  0.10254815770E+03  0.10254815770E+03  0.00000000000E+00 0. -1.
         22   -1    0    0    0    0 -0.00000000000E+00 -0.00000000000E+00 -0.88278265794E+03  0.88278265794E+03  0.00000000000E+00 0. -1.
         24    2    1    2    0    0  0.20389041816E+02  0.38999124811E+02 -0.38216721099E+03  0.39428073445E+03  0.86422656986E+02 0.  0.
         25    2    1    2    0    0 -0.73038638595E+02 -0.72926427948E+02 -0.44799984606E+03  0.47645037364E+03  0.12509272501E+03 0.  0.
        -24    2    1    2    0    0  0.52649596780E+02  0.33927303137E+02  0.49932556815E+02  0.11459970755E+03  0.81956029677E+02 0.  0.
        -11    1    3    3    0    0 -0.22487576611E+02 -0.10164735001E+02 -0.18412026022E+03  0.18576674396E+03  0.00000000000E+00 0.  1.
         12    1    3    3    0    0  0.42876618426E+02  0.49163859812E+02 -0.19804695077E+03  0.20851399049E+03  0.00000000000E+00 0. -1.
         13    1    5    5    0    0  0.66564466760E+02  0.43708384266E+02  0.55085083231E+02  0.96827772280E+02  0.00000000000E+00 0. -1.
        -14    1    5    5    0    0 -0.13914869981E+02 -0.97810811292E+01 -0.51525264157E+01  0.17771935266E+02  0.00000000000E+00 0.  1.
          5    1    4    4  501    0 -0.10593987691E+03 -0.70821705659E+02 -0.37884713850E+03  0.39972690460E+03  0.41800000000E+01 0. -1.
         -5    1    4    4    0  501  0.32901238315E+02 -0.21047222888E+01 -0.69152707558E+02  0.76723469038E+02  0.41800000000E+01 0. -1.
</event>
<event>
11    1  0.8551154E-009  0.1472644E+03  0.7561462E-02  0.1099707E+00
         22   -1    0    0    0    0  0.00000000000E+00  0.00000000000E+00  0.61480399620E+02  0.61480399620E+02  0.00000000000E+00 0.  1.
         22   -1    0    0    0    0 -0.00000000000E+00 -0.00000000000E+00 -0.21787231163E+04  0.21787231163E+04  0.00000000000E+00 0. -1.
        -24    2    1    2    0    0 -0.52217776181E+02  0.55819465462E+02 -0.15024872453E+04  0.15064550663E+04  0.78079674587E+02 0.  0.
         25    2    1    2    0    0  0.94104804481E+02 -0.23141722238E+02 -0.61730620478E+03  0.63726322026E+03  0.12508480283E+03 0.  0.
         24    2    1    2    0    0 -0.41887028300E+02 -0.32677743224E+02  0.25507333992E+01  0.96485229373E+02  0.80501771436E+02 0.  0.
        -11    1    5    5    0    0 -0.61527274445E+02 -0.41188023740E+01  0.39984373220E+01  0.61794478189E+02  0.00000000000E+00 0.  1.
         12    1    5    5    0    0  0.19640246145E+02 -0.28558940850E+02 -0.14477039227E+01  0.34690751185E+02  0.00000000000E+00 0. -1.
         11    1    3    3    0    0 -0.78274063250E+01  0.60994400633E+02 -0.10389824386E+04  0.10408006980E+04  0.00000000000E+00 0. -1.
        -12    1    3    3    0    0 -0.44390369856E+02 -0.51749351703E+01 -0.46350480668E+03  0.46565436829E+03  0.00000000000E+00 0.  1.
          5    1    4    4  501    0  0.41423576411E+02  0.44758991772E+02 -0.37903149390E+03  0.38392919373E+03  0.41800000000E+01 0.  1.
         -5    1    4    4    0  501  0.52681228070E+02 -0.67900714011E+02 -0.23827471088E+03  0.25333402653E+03  0.41800000000E+01 0.  1.
</event>
<event>
11    1  0.8551154E-009  0.2218218E+03  0.7561462E-02  0.1040082E+00
         22   -1    0    0    0    0  0.00000000000E+00  0.00000000000E+00  0.91299034772E+03  0.91299034772E+03  0.00000000000E+00 0.  1.
         22   -1    0    0    0    0 -0.00000000000E+00 -0.00000000000E+00 -0.15002579698E+03  0.15002579698E+03  0.00000000000E+00 0. -1.
         24    2    1    2    0    0  0.50922166282E+02  0.51306464183E+02 -0.15400115632E+02  0.10614350307E+03  0.76183065019E+02 0.  0.
         25    2    1    2    0    0 -0.99358654757E+02 -0.21797462642E+03  0.16495605511E+03  0.31661214644E+03  0.12509065161E+03 0.  0.
        -24    2    1    2    0    0  0.48436488476E+02  0.16666816223E+03  0.61340861126E+03  0.64026049520E+03  0.59489558983E+02 0.  0.
        -13    1    3    3    0    0  0.42964672471E+01  0.27582122822E+02  0.26976076039E+02  0.38819348380E+02  0.00000000000E+00 0.  1.
         14    1    3    3    0    0  0.46625699035E+02  0.23724341360E+02 -0.42376191672E+02  0.67324154685E+02  0.00000000000E+00 0. -1.
         13    1    5    5    0    0 -0.10356465340E+02  0.66446182120E+02  0.21901829764E+03  0.22910994346E+03  0.00000000000E+00 0. -1.
        -14    1    5    5    0    0  0.58792953816E+02  0.10022198011E+03  0.39439031362E+03  0.41115055174E+03  0.00000000000E+00 0.  1.
          5    1    4    4  501    0 -0.34635083710E+02 -0.14812466250E+03  0.36218862024E+02  0.15642820407E+03  0.41800000000E+01 0.  1.
         -5    1    4    4    0  501 -0.64723571047E+02 -0.69849963918E+02  0.12873719308E+03  0.16018394236E+03  0.41800000000E+01 0.  1.
</event>
<event>
11    1  0.8551154E-009  0.1566299E+03  0.7561462E-02  0.1090291E+00
         22   -1    0    0    0    0  0.00000000000E+00  0.00000000000E+00  0.83714346799E+02  0.83714346799E+02  0.00000000000E+00 0.  1.
         22   -1    0    0    0    0 -0.00000000000E+00 -0.00000000000E+00 -0.24906249866E+04  0.24906249866E+04  0.00000000000E+00 0. -1.
         24    2    1    2    0    0  0.33198566874E+01 -0.19637621759E+02 -0.19383215534E+04  0.19400692010E+04  0.79883681041E+02 0.  0.
         25    2    1    2    0    0  0.23502432301E+02 -0.72660835009E+02 -0.48853862086E+03  0.51005140498E+03  0.12510191997E+03 0.  0.
        -24    2    1    2    0    0 -0.26822288988E+02  0.92298456768E+02  0.19949534494E+02  0.12421872743E+03  0.76117461920E+02 0.  0.
        -13    1    3    3    0    0 -0.19745064953E+02  0.22859147425E+02 -0.48227105992E+03  0.48321608360E+03  0.00000000000E+00 0.  1.
         14    1    3    3    0    0  0.23064921641E+02 -0.42496769184E+02 -0.14560504935E+04  0.14568531174E+04  0.00000000000E+00 0. -1.
         11    1    5    5    0    0  0.21165472233E+02  0.24907950143E+02 -0.12988975620E+02  0.35172385231E+02  0.00000000000E+00 0. -1.
        -12    1    5    5    0    0 -0.47987761222E+02  0.67390506626E+02  0.32938510113E+02  0.89046342198E+02  0.00000000000E+00 0.  1.
          5    1    4    4  501    0  0.14523859449E+01  0.28219934788E+02 -0.36495788914E+02  0.46345325037E+02  0.41800000000E+01 0. -1.
         -5    1    4    4    0  501  0.22050046356E+02 -0.10088076980E+03 -0.45204283195E+03  0.46370607994E+03  0.41800000000E+01 0. -1.
</event>
<event>
11    1  0.8551154E-009  0.6863123E+03  0.7561462E-02  0.9052722E-01
         22   -1    0    0    0    0  0.00000000000E+00  0.00000000000E+00  0.80854838485E+02  0.80854838485E+02  0.00000000000E+00 0. -1.
         22   -1    0    0    0    0 -0.00000000000E+00 -0.00000000000E+00 -0.14563896762E+04  0.14563896762E+04  0.00000000000E+00 0. -1.
         24    2    1    2    0    0 -0.11555603341E+03  0.56207677604E+02 -0.54113537056E+03  0.56166217799E+03  0.78258629190E+02 0.  0.
         25    2    1    2    0    0  0.20025459708E+03 -0.19731178352E+03 -0.39517907444E+03  0.50084768832E+03  0.12509221579E+03 0.  0.
        -24    2    1    2    0    0 -0.84698563677E+02  0.14110410592E+03 -0.43922039272E+03  0.47473464837E+03  0.73309055278E+02 0.  0.
        -11    1    3    3    0    0 -0.42856198787E+02  0.63569710350E+02 -0.30438693855E+03  0.31389356510E+03  0.00000000000E+00 0.  1.
         12    1    3    3    0    0 -0.72699834621E+02 -0.73620327455E+01 -0.23674843201E+03  0.24776861290E+03  0.00000000000E+00 0. -1.
         13    1    5    5    0    0 -0.80948168912E+02  0.11985085857E+03 -0.42488636804E+03  0.44882653676E+03  0.00000000000E+00 0. -1.
        -14    1    5    5    0    0 -0.37503947646E+01  0.21253247354E+02 -0.14334024683E+02  0.25908111618E+02  0.00000000000E+00 0.  1.
          5    1    4    4  501    0  0.16339583280E+03 -0.17406835466E+03 -0.38927849614E+03  0.45667626413E+03  0.41800000000E+01 0. -1.
         -5    1    4    4    0  501  0.36858764285E+02 -0.23243428868E+02 -0.59005782986E+01  0.44171424183E+02  0.41800000000E+01 0. -1.
</event>
<event>
11    1  0.8551154E-009  0.1578218E+03  0.7561462E-02  0.1089144E+00
         22   -1    0    0    0    0  0.00000000000E+00  0.00000000000E+00  0.19748284657E+03  0.19748284657E+03  0.00000000000E+00 0.  1.
         22   -1    0    0    0    0 -0.00000000000E+00 -0.00000000000E+00 -0.16639941846E+04  0.16639941846E+04  0.00000000000E+00 0.  1.
        -24    2    1    2    0    0 -0.76453963298E+02 -0.54358098979E+02 -0.13036549144E+04  0.13095811728E+04  0.81772249980E+02 0.  0.
         25    2    1    2    0    0  0.89817195434E+02  0.68532546280E+02 -0.32692639675E+03  0.36782149580E+03  0.12509174786E+03 0.  0.
         24    2    1    2    0    0 -0.13363232136E+02 -0.14174447301E+02  0.16406997313E+03  0.18407436257E+03  0.81147544284E+02 0.  0.
        -13    1    5    5    0    0 -0.91431158214E+01 -0.42012551025E+02  0.14180117914E+03  0.14817633217E+03  0.00000000000E+00 0.  1.
         14    1    5    5    0    0 -0.42201163144E+01  0.27838103724E+02  0.22268793989E+02  0.35898030397E+02  0.00000000000E+00 0. -1.
         11    1    3    3    0    0 -0.12736843091E+02 -0.26415619894E+02 -0.10821187953E+03  0.11211522207E+03  0.00000000000E+00 0. -1.
        -12    1    3    3    0    0 -0.63717120207E+02 -0.27942479084E+02 -0.11954430349E+04  0.11974659507E+04  0.00000000000E+00 0.  1.
          5    1    4    4  501    0  0.98260569044E+02  0.96210544813E+02 -0.24727487098E+03  0.28297339553E+03  0.41800000000E+01 0. -1.
         -5    1    4    4    0  501 -0.84433736098E+01 -0.27677998533E+02 -0.79651525773E+02  0.84848100265E+02  0.41800000000E+01 0. -1.
</event>
<event>
11    1  0.8551154E-009  0.1547032E+03  0.7561462E-02  0.1092168E+00
         22   -1    0    0    0    0  0.00000000000E+00  0.00000000000E+00  0.97384654094E+03  0.97384654094E+03  0.00000000000E+00 0.  1.
         22   -1    0    0    0    0 -0.00000000000E+00 -0.00000000000E+00 -0.40638650249E+03  0.40638650249E+03  0.00000000000E+00 0.  1.
        -24    2    1    2    0    0 -0.85909702145E+02 -0.75201951438E+01 -0.26376316920E+03  0.28902607161E+03  0.80796227565E+02 0.  0.
         25    2    1    2    0    0  0.11230722628E+03 -0.43459820047E+00 -0.72845818889E+02  0.18321231189E+03  0.12508851245E+03 0.  0.
         24    2    1    2    0    0 -0.26397524136E+02  0.79547933443E+01  0.90406902654E+03  0.90799465994E+03  0.79708153290E+02 0.  0.
        -11    1    5    5    0    0 -0.35273828853E+02  0.21631396955E+01  0.88825324939E+03  0.88895599285E+03  0.00000000000E+00 0.  1.
         12    1    5    5    0    0  0.88763047166E+01  0.57916536488E+01  0.15815777154E+02  0.19038667085E+02  0.00000000000E+00 0. -1.
         13    1    3    3    0    0 -0.48238501355E+02  0.29234105926E+02 -0.80076539831E+02  0.97948140327E+02  0.00000000000E+00 0. -1.
        -14    1    3    3    0    0 -0.37671200791E+02 -0.36754301070E+02 -0.18368662937E+03  0.19107793129E+03  0.00000000000E+00 0.  1.
          5    1    4    4  501    0 -0.44461506521E+01  0.42571853143E+02 -0.12021604414E+02  0.44655596607E+02  0.41800000000E+01 0.  1.
         -5    1    4    4    0  501  0.11675337693E+03 -0.43006451343E+02 -0.60824214475E+02  0.13855671528E+03  0.41800000000E+01 0.  1.
</event>
<event>
11    1  0.8551154E-009  0.1336696E+03  0.7561462E-02  0.1114841E+00
         22   -1    0    0    0    0  0.00000000000E+00  0.00000000000E+00  0.82559889592E+03  0.82559889592E+03  0.00000000000E+00 0.  1.
         22   -1    0    0    0    0 -0.00000000000E+00 -0.00000000000E+00 -0.17035122979E+03  0.17035122979E+03  0.00000000000E+00 0.  1.
         24    2    1    2    0    0 -0.97958651149E+01 -0.49554535145E-01 -0.13727436969E+03  0.15966970154E+03  0.80958011260E+02 0.  0.
         25    2    1    2    0    0 -0.29807176094E+02 -0.28146148608E+02  0.22594860200E+03  0.26149635299E+03  0.12508756316E+03 0.  0.
        -24    2    1    2    0    0  0.39603041209E+02  0.28195703143E+02  0.56657343382E+03  0.57478407118E+03  0.83713045690E+02 0.  0.
        -11    1    3    3    0    0  0.32406015574E+02 -0.14924450147E+02 -0.47980018560E+02  0.59791063199E+02  0.00000000000E+00 0.  1.
         12    1    3    3    0    0 -0.42201880688E+02  0.14874895611E+02 -0.89294351127E+02  0.99878638338E+02  0.00000000000E+00 0. -1.
         11    1    5    5    0    0  0.21321571665E+02 -0.29416133235E+02  0.21988533555E+03  0.22286650511E+03  0.00000000000E+00 0. -1.
        -12    1    5    5    0    0  0.18281469545E+02  0.57611836378E+02  0.34668809828E+03  0.35191756607E+03  0.00000000000E+00 0.  1.
          5    1    4    4  501    0  0.13326033668E+02  0.52023174041E+01 -0.10870094762E+02  0.18446643050E+02  0.41800000000E+01 0. -1.
         -5    1    4    4    0  501 -0.43133209762E+02 -0.33348466012E+02  0.23681869676E+03  0.24304970994E+03  0.41800000000E+01 0. -1.
</event>
<event>
11    1  0.8551154E-009  0.2980647E+03  0.7561462E-02  0.1001014E+00
         22   -1    0    0    0    0  0.00000000000E+00  0.00000000000E+00  0.45308437105E+03  0.45308437105E+03  0.00000000000E+00 0.  1.
         22   -1    0    0    0    0 -0.00000000000E+00 -0.00000000000E+00 -0.39413687514E+03  0.39413687514E+03  0.00000000000E+00 0. -1.
         24    2    1    2    0    0 -0.20376394071E+03  0.17940682876E+03 -0.33826447969E+02  0.28425432689E+03  0.77134557953E+02 0.  0.
         25    2    1    2    0    0  0.46979176013E+02 -0.30824161276E+03  0.40767224319E+02  0.33842277438E+03  0.12509225726E+03 0.  0.
        -24    2    1    2    0    0  0.15678476470E+03  0.12883478400E+03  0.52006719561E+02  0.22454414491E+03  0.80842501968E+02 0.  0.
        -13    1    3    3    0    0 -0.77918971875E+02  0.10519791248E+03 -0.43206888637E+02  0.13785790581E+03  0.00000000000E+00 0.  1.
         14    1    3    3    0    0 -0.12584496884E+03  0.74208916282E+02  0.93804406681E+01  0.14639642108E+03  0.00000000000E+00 0. -1.
         13    1    5    5    0    0  0.26807047546E+02  0.69072908481E+02  0.62915840718E+01  0.74359051327E+02  0.00000000000E+00 0. -1.
        -14    1    5    5    0    0  0.12997771716E+03  0.59761875517E+02  0.45715135489E+02  0.15018509358E+03  0.00000000000E+00 0.  1.
          5    1    4    4  501    0  0.55347640860E+02 -0.15380738098E+03  0.75106781496E+02  0.17994047021E+03  0.41800000000E+01 0.  1.
         -5    1    4    4    0  501 -0.83684648464E+01 -0.15443423178E+03 -0.34339557177E+02  0.15848230417E+03  0.41800000000E+01 0.  1.
</event>
<event>
11    1  0.8551154E-009  0.1913795E+03  0.7561462E-02  0.1060793E+00
         22   -1    0    0    0    0  0.00000000000E+00  0.00000000000E+00  0.38401081748E+03  0.38401081748E+03  0.00000000000E+00 0. -1.
         22   -1    0    0    0    0 -0.00000000000E+00 -0.00000000000E+00 -0.35463412897E+03  0.35463412897E+03  0.00000000000E+00 0.  1.
         24    2    1    2    0    0 -0.10124960628E+03 -0.10120925449E+03 -0.23061679092E+03  0.28308497971E+03  0.80362961126E+02 0.  0.
         25    2    1    2    0    0  0.72486982523E+02  0.14061478608E+03  0.25791174218E+02  0.20332182572E+03  0.12509076484E+03 0.  0.
        -24    2    1    2    0    0  0.28762623754E+02 -0.39405531595E+02  0.23420230521E+03  0.25223814101E+03  0.79957961283E+02 0.  0.
        -11    1    3    3    0    0 -0.10264076959E+03 -0.76906418980E+02 -0.14273085977E+03  0.19189013313E+03  0.00000000000E+00 0.  1.
         12    1    3    3    0    0  0.13911633148E+01 -0.24302835505E+02 -0.87885931153E+02  0.91194846585E+02  0.00000000000E+00 0. -1.
         11    1    5    5    0    0 -0.18157631604E+02 -0.53424588104E+01  0.14244434454E+03  0.14369632125E+03  0.00000000000E+00 0. -1.
        -12    1    5    5    0    0  0.46920255358E+02 -0.34063072785E+02  0.91757960671E+02  0.10854181976E+03  0.00000000000E+00 0.  1.
          5    1    4    4  501    0  0.21249333036E+02  0.10005890094E+03 -0.40545026273E+02  0.11011216721E+03  0.41800000000E+01 0. -1.
         -5    1    4    4    0  501  0.51237649488E+02  0.40555885138E+02  0.66336200492E+02  0.93209658512E+02  0.41800000000E+01 0. -1.
</event>
<event>
11    1  0.8551154E-009  0.1403443E+03  0.7561462E-02  0.1107175E+00
         22   -1    0    0    0    0  0.00000000000E+00  0.00000000000E+00  0.14098558689E+04  0.14098558689E+04  0.00000000000E+00 0. -1.
         22   -1    0    0    0    0 -0.00000000000E+00 -0.00000000000E+00 -0.13266182112E+04  0.13266182112E+04  0.00000000000E+00 0. -1.
         24    2    1    2    0    0  0.15548643761E+02  0.29894275244E+02 -0.13128871681E+04  0.13148553450E+04  0.63532936672E+02 0.  0.
         25    2    1    2    0    0 -0.54670235054E+02 -0.69671935571E+02  0.59792230806E+03  0.61725409352E+03  0.12509402981E+03 0.  0.
        -24    2    1    2    0    0  0.39121591293E+02  0.39777660327E+02  0.79820251776E+03  0.80436464156E+03  0.82234153863E+02 0.  0.
        -11    1    3    3    0    0 -0.33417763733E+01  0.43010279943E+02 -0.57766819327E+03  0.57927678459E+03  0.00000000000E+00 0.  1.
         12    1    3    3    0    0  0.18890420134E+02 -0.13116004699E+02 -0.73521897485E+03  0.73557856041E+03  0.00000000000E+00 0. -1.
         11    1    5    5    0    0  0.57460765667E+02  0.51277154143E+02  0.65983607830E+03  0.66431523869E+03  0.00000000000E+00 0. -1.
        -12    1    5    5    0    0 -0.18339174374E+02 -0.11499493816E+02  0.13836643946E+03  0.14004940287E+03  0.00000000000E+00 0.  1.
          5    1    4    4  501    0 -0.12975922013E+01  0.34671483704E+02  0.10909642080E+03  0.11455695946E+03  0.41800000000E+01 0. -1.
         -5    1    4    4    0  501 -0.53372642853E+02 -0.10434341927E+03  0.48882588725E+03  0.50269713407E+03  0.41800000000E+01 0. -1.
</event>
<event>
11    1  0.8551154E-009  0.1353325E+03  0.7561462E-02  0.1112885E+00
         22   -1    0    0    0    0  0.00000000000E+00  0.00000000000E+00  0.17039072993E+04  0.17039072993E+04  0.00000000000E+00 0. -1.
         22   -1    0    0    0    0 -0.00000000000E+00 -0.00000000000E+00 -0.53974310524E+03  0.53974310524E+03  0.00000000000E+00 0. -1.
        -24    2    1    2    0    0 -0.12762416134E+02  0.31320647076E+01 -0.43972195343E+03  0.44426623750E+03  0.62003260917E+02 0.  0.
         25    2    1    2    0    0 -0.33377138573E+01 -0.52218282022E+02 -0.48645484192E+02  0.14405530639E+03  0.12509060259E+03 0.  0.
         24    2    1    2    0    0  0.16100129991E+02  0.49086217315E+02  0.16525316317E+04  0.16553288607E+04  0.81142912637E+02 0.  0.
        -11    1    5    5    0    0  0.36439328361E+02  0.51144243629E+02  0.76869376807E+03  0.77125460606E+03  0.00000000000E+00 0.  1.
         12    1    5    5    0    0 -0.20339198369E+02 -0.20580263139E+01  0.88383786362E+03  0.88407425459E+03  0.00000000000E+00 0. -1.
         13    1    3    3    0    0  0.35802170785E+01  0.72021908623E+01 -0.41019435095E+03  0.41027319563E+03  0.00000000000E+00 0. -1.
        -14    1    3    3    0    0 -0.16342633212E+02 -0.40701261547E+01 -0.29527602480E+02  0.33993041868E+02  0.00000000000E+00 0.  1.
          5    1    4    4  501    0  0.44443837822E+01 -0.87451443274E+02 -0.57584648731E+01  0.87852944149E+02  0.41800000000E+01 0. -1.
         -5    1    4    4    0  501 -0.77820976395E+01  0.35233161251E+02 -0.42887019319E+02  0.56202362242E+02  0.41800000000E+01 0. -1.
</event>
<event>
11    1  0.8551154E-009  0.1459250E+03  0.7561462E-02  0.1101117E+00
         22   -1    0    0    0    0  0.00000000000E+00  0.00000000000E+00  0.30186697677E+03  0.30186697677E+03  0.00000000000E+00 0.  1.
         22   -1    0    0    0    0 -0.00000000000E+00 -0.00000000000E+00 -0.52496778469E+03  0.52496778469E+03  0.00000000000E+00 0. -1.
        -24    2    1    2    0    0 -0.68921218140E+02  0.34641137054E+02 -0.38158902696E+03  0.39794045191E+03  0.82439523808E+02 0.  0.
         25    2    1    2    0    0  0.49194369488E+02 -0.46874705648E+02 -0.88902521476E+02  0.16783990956E+03  0.12509697397E+03 0.  0.
         24    2    1    2    0    0  0.19726848652E+02  0.12233568594E+02  0.24739074052E+03  0.26105440000E+03  0.80052560899E+02 0.  0.
        -11    1    5    5    0    0 -0.21811625200E+02 -0.15721948615E+02  0.14008633479E+03  0.14264328886E+03  0.00000000000E+00 0.  1.
         12    1    5    5    0    0  0.41538473852E+02  0.27955517209E+02  0.10730440573E+03  0.11841111114E+03  0.00000000000E+00 0. -1.
         11    1    3    3    0    0 -0.11835903038E+02  0.17599920609E+02 -0.27512708186E+03  0.27594339452E+03  0.00000000000E+00 0. -1.
        -12    1    3    3    0    0 -0.57085315102E+02  0.17041216444E+02 -0.10646194511E+03  0.12199705740E+03  0.00000000000E+00 0.  1.
          5    1    4    4  501    0  0.90788632712E+02 -0.21703919550E+02 -0.61698329763E+02  0.11197228340E+03  0.41800000000E+01 0.  1.
         -5    1    4    4    0  501 -0.41594263224E+02 -0.25170786098E+02 -0.27204191713E+02  0.55867626160E+02  0.41800000000E+01 0.  1.
</event>
<event>
11    1  0.8551154E-009  0.1379677E+03  0.7561462E-02  0.1109849E+00
         22   -1    0    0    0    0  0.00000000000E+00  0.00000000000E+00  0.15922670888E+03  0.15922670888E+03  0.00000000000E+00 0. -1.
         22   -1    0    0    0    0 -0.00000000000E+00 -0.00000000000E+00 -0.50685016579E+03  0.50685016579E+03  0.00000000000E+00 0.  1.
         24    2    1    2    0    0  0.56127681884E+02  0.43473411954E+02 -0.31027449707E+03  0.32890756671E+03  0.82883470520E+02 0.  0.
         25    2    1    2    0    0 -0.23113809557E+02 -0.11213368182E+02 -0.14563332770E+03  0.19369213882E+03  0.12509033009E+03 0.  0.
        -24    2    1    2    0    0 -0.33013872326E+02 -0.32260043772E+02  0.10828436786E+03  0.14347716914E+03  0.82033941456E+02 0.  0.
        -11    1    3    3    0    0  0.20788452317E+02 -0.28229491711E+01 -0.22299313157E+03  0.22397782372E+03  0.00000000000E+00 0.  1.
         12    1    3    3    0    0  0.35339229567E+02  0.46296361125E+02 -0.87281365503E+02  0.10492974299E+03  0.00000000000E+00 0. -1.
         13    1    5    5    0    0  0.50074304051E+01 -0.49127399250E+02  0.76816978811E+02  0.91320446506E+02  0.00000000000E+00 0. -1.
        -14    1    5    5    0    0 -0.38021302732E+02  0.16867355478E+02  0.31467389053E+02  0.52156722635E+02  0.00000000000E+00 0.  1.
          5    1    4    4  501    0 -0.27034659718E+02  0.33731439227E+02 -0.24364542976E+01  0.43498178444E+02  0.41800000000E+01 0. -1.
         -5    1    4    4    0  501  0.39208501607E+01 -0.44944807410E+02 -0.14319687341E+03  0.15019396037E+03  0.41800000000E+01 0. -1.
</event>
<event>
11    1  0.8551154E-009  0.1169276E+04  0.7561462E-02  0.8532820E-01
         22   -1    0    0    0    0  0.00000000000E+00  0.00000000000E+00  0.14913079422E+04  0.14913079422E+04  0.00000000000E+00 0. -1.
         22   -1    0    0    0    0 -0.00000000000E+00 -0.00000000000E+00 -0.16489562240E+04  0.16489562240E+04  0.00000000000E+00 0. -1.
        -24    2    1    2    0    0 -0.11521535745E+04 -0.10142523719E+03 -0.10542941243E+04  0.15671021146E+04  0.80796033014E+02 0.  0.
         25    2    1    2    0    0  0.11805364577E+04  0.14651350144E+03  0.82232032812E+03  0.14515473951E+04  0.12508630759E+03 0.  0.
         24    2    1    2    0    0 -0.28382883141E+02 -0.45088264252E+02  0.74325514358E+02  0.12161465648E+03  0.80170461878E+02 0.  0.
        -13    1    5    5    0    0 -0.27181975017E+02  0.14162280717E+02  0.47576920501E+02  0.56594993818E+02  0.00000000000E+00 0.  1.
         14    1    5    5    0    0 -0.12009081237E+01 -0.59250544969E+02  0.26748593858E+02  0.65019662663E+02  0.00000000000E+00 0. -1.
         11    1    3    3    0    0 -0.36587286770E+03  0.50323688599E+01 -0.34051292617E+03  0.49983730647E+03  0.00000000000E+00 0. -1.
        -12    1    3    3    0    0 -0.78628070682E+03 -0.10645760605E+03 -0.71378119816E+03  0.10672648081E+04  0.00000000000E+00 0.  1.
          5    1    4    4  501    0  0.18158147064E+03  0.17310499424E+02  0.18351885082E+03  0.25878200262E+03  0.41800000000E+01 0.  1.
         -5    1    4    4    0  501  0.99895498702E+03  0.12920300202E+03  0.63880147730E+03  0.11927653925E+04  0.41800000000E+01 0.  1.
</event>
<event>
11    1  0.8551154E-009  0.3410858E+03  0.7561462E-02  0.9841612E-01
         22   -1    0    0    0    0  0.00000000000E+00  0.00000000000E+00  0.24591058062E+04  0.24591058062E+04  0.00000000000E+00 0.  1.
         22   -1    0    0    0    0 -0.00000000000E+00 -0.00000000000E+00 -0.18978245014E+04  0.18978245014E+04  0.00000000000E+00 0. -1.
        -24    2    1    2    0    0  0.19991442042E+03  0.23823260546E+03 -0.14231910987E+04  0.14583344925E+04  0.67424317621E+02 0.  0.
         25    2    1    2    0    0 -0.23248652374E+03 -0.25354679940E+03 -0.38286471749E+03  0.52968627464E+03  0.12508474903E+03 0.  0.
         24    2    1    2    0    0  0.32572103324E+02  0.15314193943E+02  0.23673371210E+04  0.23689095405E+04  0.78434048953E+02 0.  0.
        -11    1    5    5    0    0  0.26883914970E+02  0.21690954855E+02  0.23402847983E+04  0.23405397197E+04  0.00000000000E+00 0.  1.
         12    1    5    5    0    0  0.56881883540E+01 -0.63767609128E+01  0.27052322699E+02  0.28369820759E+02  0.00000000000E+00 0. -1.
         13    1    3    3    0    0  0.11955808564E+03  0.17114461155E+03 -0.82194586172E+03  0.84804458226E+03  0.00000000000E+00 0. -1.
        -14    1    3    3    0    0  0.80356334773E+02  0.67087993907E+02 -0.60124523701E+03  0.61028991020E+03  0.00000000000E+00 0.  1.
          5    1    4    4  501    0 -0.22013466583E+03 -0.24464636528E+03 -0.30003247507E+03  0.44536285615E+03  0.41800000000E+01 0. -1.
         -5    1    4    4    0  501 -0.12351857914E+02 -0.89004341154E+01 -0.82832242422E+02  0.84323418491E+02  0.41800000000E+01 0. -1.
</event>
<event>
11    1  0.8551154E-009  0.1405917E+03  0.7561462E-02  0.1106899E+00
         22   -1    0    0    0    0  0.00000000000E+00  0.00000000000E+00  0.87296399568E+03  0.87296399568E+03  0.00000000000E+00 0. -1.
         22   -1    0    0    0    0 -0.00000000000E+00 -0.00000000000E+00 -0.44536239890E+03  0.44536239890E+03  0.00000000000E+00 0. -1.
         24    2    1    2    0    0 -0.47591744123E+01  0.64167643099E+02 -0.41976830836E+03  0.43293768593E+03  0.84198996639E+02 0.  0.
         25    2    1    2    0    0 -0.33994913932E+02 -0.58820248715E+02  0.31598337137E+03  0.34656432889E+03  0.12508344114E+03 0.  0.
        -24    2    1    2    0    0  0.38754088344E+02 -0.53473943835E+01  0.53138653377E+03  0.53882437975E+03  0.80184723937E+02 0.  0.
        -13    1    3    3    0    0  0.19019517959E+02 -0.11520935910E+02 -0.49500808677E+02  0.54266049122E+02  0.00000000000E+00 0.  1.
         14    1    3    3    0    0 -0.23778692371E+02  0.75688579009E+02 -0.37026749968E+03  0.37867163681E+03  0.00000000000E+00 0. -1.
         13    1    5    5    0    0  0.72128030896E+01  0.24504614553E+02  0.39194857033E+03  0.39278006880E+03  0.00000000000E+00 0. -1.
        -14    1    5    5    0    0  0.31541285255E+02 -0.29852008937E+02  0.13943796344E+03  0.14604431095E+03  0.00000000000E+00 0.  1.
          5    1    4    4  501    0 -0.54815076830E+02 -0.73957502558E+02  0.13343622022E+03  0.16216381255E+03  0.41800000000E+01 0.  1.
         -5    1    4    4    0  501  0.20820162899E+02  0.15137253842E+02  0.18254715114E+03  0.18440051634E+03  0.41800000000E+01 0.  1.
</event>
<event>
11    1  0.8551154E-009  0.1551888E+03  0.7561462E-02  0.1091692E+00
         22   -1    0    0    0    0  0.00000000000E+00  0.00000000000E+00  0.37945438369E+03  0.37945438369E+03  0.00000000000E+00 0. -1.
         22   -1    0    0    0    0 -0.00000000000E+00 -0.00000000000E+00 -0.25219720554E+03  0.25219720554E+03  0.00000000000E+00 0.  1.
        -24    2    1    2    0    0 -0.38750874976E+02 -0.26237414304E+02 -0.11374194654E+03  0.14628140132E+03  0.79189555793E+02 0.  0.
         25    2    1    2    0    0  0.10057815433E+03 -0.40558013276E+02 -0.47852926145E+02  0.17234099792E+03  0.12510235591E+03 0.  0.
         24    2    1    2    0    0 -0.61827279352E+02  0.66795427580E+02  0.28885205084E+03  0.31302919000E+03  0.79167701095E+02 0.  0.
        -13    1    5    5    0    0  0.18541653775E+02  0.49006436411E+01  0.44327570238E+02  0.48298475297E+02  0.00000000000E+00 0.  1.
         14    1    5    5    0    0 -0.80368933127E+02  0.61894783939E+02  0.24452448061E+03  0.26473071470E+03  0.00000000000E+00 0. -1.
         11    1    3    3    0    0 -0.21604162657E+02 -0.85905128085E+01  0.60214504729E+01  0.24016548882E+02  0.00000000000E+00 0. -1.
        -12    1    3    3    0    0 -0.17146712319E+02 -0.17646901496E+02 -0.11976339702E+03  0.12226485243E+03  0.00000000000E+00 0.  1.
          5    1    4    4  501    0  0.28328318872E+02  0.44077924344E+02 -0.41938154932E+01  0.52729664829E+02  0.41800000000E+01 0. -1.
         -5    1    4    4    0  501  0.72249835456E+02 -0.84635937619E+02 -0.43659110651E+02  0.11961133309E+03  0.41800000000E+01 0. -1.
</event>
<event>
11    1  0.8551154E-009  0.1324715E+03  0.7561462E-02  0.1116269E+00
         22   -1    0    0    0    0  0.00000000000E+00  0.00000000000E+00  0.64016838980E+03  0.64016838980E+03  0.00000000000E+00 0. -1.
         22   -1    0    0    0    0 -0.00000000000E+00 -0.00000000000E+00 -0.22891474571E+03  0.22891474571E+03  0.00000000000E+00 0. -1.
        -24    2    1    2    0    0  0.48047410618E+02  0.49740952331E+01 -0.18569382621E+03  0.20779883586E+03  0.79780096510E+02 0.  0.
         25    2    1    2    0    0 -0.45979551585E+01 -0.27921640889E+02  0.12129245229E+03  0.17651905629E+03  0.12508540694E+03 0.  0.
         24    2    1    2    0    0 -0.43449455460E+02  0.22947545656E+02  0.47565501801E+03  0.48476524337E+03  0.79593969541E+02 0.  0.
        -13    1    5    5    0    0 -0.75498298879E+01  0.47648024900E+02  0.20325298285E+03  0.20889975885E+03  0.00000000000E+00 0.  1.
         14    1    5    5    0    0 -0.35899625572E+02 -0.24700479244E+02  0.27240203516E+03  0.27586548452E+03  0.00000000000E+00 0. -1.
         13    1    3    3    0    0 -0.17517856978E+02 -0.11748154060E+01 -0.89611416722E+02  0.91315176785E+02  0.00000000000E+00 0. -1.
        -14    1    3    3    0    0  0.65565267596E+02  0.61489106391E+01 -0.96082409490E+02  0.11648365907E+03  0.00000000000E+00 0.  1.
          5    1    4    4  501    0 -0.13083327059E+02 -0.20608376208E+02  0.14652171009E+03  0.14860000857E+03  0.41800000000E+01 0. -1.
         -5    1    4    4    0  501  0.84853719009E+01 -0.73132646813E+01 -0.25229257803E+02  0.27919047726E+02  0.41800000000E+01 0. -1.
</event>
<event>
11    1  0.8551154E-009  0.4433128E+03  0.7561462E-02  0.9529953E-01
         22   -1    0    0    0    0  0.00000000000E+00  0.00000000000E+00  0.56742560931E+03  0.56742560931E+03  0.00000000000E+00 0. -1.
         22   -1    0    0    0    0 -0.00000000000E+00 -0.00000000000E+00 -0.80342300382E+03  0.80342300382E+03  0.00000000000E+00 0. -1.
         24    2    1    2    0    0 -0.77337224783E+02  0.26289133677E+03 -0.28010692891E+03  0.40035413254E+03  0.82040468827E+02 0.  0.
         25    2    1    2    0    0 -0.13347187644E+03 -0.55950842894E+03 -0.33382896076E+02  0.58960160897E+03  0.12510481884E+03 0.  0.
        -24    2    1    2    0    0  0.21080910123E+03  0.29661709217E+03  0.77492430484E+02  0.38089287163E+03  0.81560568575E+02 0.  0.
        -13    1    3    3    0    0 -0.29718791547E+02  0.27295718464E+02 -0.16438880212E+02  0.43571775269E+02  0.00000000000E+00 0.  1.
         14    1    3    3    0    0 -0.47618433236E+02  0.23559561831E+03 -0.26366804870E+03  0.35678235727E+03  0.00000000000E+00 0. -1.
         11    1    5    5    0    0  0.17676561858E+03  0.19915936969E+03  0.78621059340E+02  0.27765411832E+03  0.00000000000E+00 0. -1.
        -12    1    5    5    0    0  0.34043482649E+02  0.97457722481E+02 -0.11286288559E+01  0.10323875331E+03  0.00000000000E+00 0.  1.
          5    1    4    4  501    0 -0.14645512441E+03 -0.55450102689E+03 -0.36678866336E+02  0.57470279617E+03  0.41800000000E+01 0.  1.
         -5    1    4    4    0  501  0.12983247965E+02 -0.50074020475E+01  0.32959702605E+01  0.14898812803E+02  0.41800000000E+01 0. -1.
</event>
<event>
11    1  0.8551154E-009  0.3931767E+03  0.7561462E-02  0.9670108E-01
         22   -1    0    0    0    0  0.00000000000E+00  0.00000000000E+00  0.32802989596E+04  0.32802989596E+04  0.00000000000E+00 0.  1.
         22   -1    0    0    0    0 -0.00000000000E+00 -0.00000000000E+00 -0.28910909077E+03  0.28910909077E+03  0.00000000000E+00 0.  1.
        -24    2    1    2    0    0 -0.91517508532E+02 -0.17565853317E+03  0.11055031424E+02  0.21388495864E+03  0.79957408484E+02 0.  0.
         25    2    1    2    0    0  0.41538795657E+03 -0.94251889033E+01  0.93444098734E+02  0.44386494249E+03  0.12509316101E+03 0.  0.
         24    2    1    2    0    0 -0.32387044804E+03  0.18508372207E+03  0.28866907387E+04  0.29116581492E+04  0.74978036871E+02 0.  0.
        -13    1    5    5    0    0 -0.14625504664E+03  0.57119760907E+02  0.98958974612E+03  0.10019685980E+04  0.00000000000E+00 0.  1.
         14    1    5    5    0    0 -0.17761540140E+03  0.12796396116E+03  0.18971009925E+04  0.19096895512E+04  0.00000000000E+00 0. -1.
         11    1    3    3    0    0  0.51236156187E+01 -0.64674622648E+02  0.15314885383E+02  0.66660362780E+02  0.00000000000E+00 0. -1.
        -12    1    3    3    0    0 -0.96641124150E+02 -0.11098391052E+03 -0.42598539586E+01  0.14722459586E+03  0.00000000000E+00 0.  1.
          5    1    4    4  501    0  0.32099016640E+03  0.39820956073E+02  0.44202814670E+02  0.32648393022E+03  0.41800000000E+01 0. -1.
         -5    1    4    4    0  501  0.94397790170E+02 -0.49246144977E+02  0.49241284064E+02  0.11738101227E+03  0.41800000000E+01 0. -1.
</event>
<event>
11    1  0.8551154E-009  0.1512698E+03  0.7561462E-02  0.1095588E+00
         22   -1    0    0    0    0  0.00000000000E+00  0.00000000000E+00  0.25863492053E+03  0.25863492053E+03  0.00000000000E+00 0. -1.
         22   -1    0    0    0    0 -0.00000000000E+00 -0.00000000000E+00 -0.21328495532E+03  0.21328495532E+03  0.00000000000E+00 0. -1.
         24    2    1    2    0    0  0.84866921477E+02 -0.89344065942E+01 -0.12762377432E+03  0.17329041798E+03  0.80371159069E+02 0.  0.
         25    2    1    2    0    0 -0.84587117220E+02 -0.70789159286E+01  0.71779370644E+02  0.16734574742E+03  0.12508888711E+03 0.  0.
        -24    2    1    2    0    0 -0.27980425696E+00  0.16013322523E+02  0.10119436889E+03  0.13128371045E+03  0.82089022077E+02 0.  0.
        -11    1    3    3    0    0  0.88453564675E+02  0.16452395963E+02 -0.11033250539E+03  0.14236564256E+03  0.00000000000E+00 0.  1.
         12    1    3    3    0    0 -0.35866431982E+01 -0.25386802557E+02 -0.17291268935E+02  0.30924775422E+02  0.00000000000E+00 0. -1.
         11    1    5    5    0    0  0.17198333407E+02  0.54828965838E+01  0.10821060640E+03  0.10970588026E+03  0.00000000000E+00 0. -1.
        -12    1    5    5    0    0 -0.17478137664E+02  0.10530425939E+02 -0.70162375120E+01  0.21577830185E+02  0.00000000000E+00 0.  1.
          5    1    4    4  501    0 -0.10503908726E+03 -0.81957512224E+01  0.90749998473E+02  0.13911655119E+03  0.41800000000E+01 0.  1.
         -5    1    4    4    0  501  0.20451970043E+02  0.11168352938E+01 -0.18970627829E+02  0.28229196233E+02  0.41800000000E+01 0.  1.
</event>
<event>
11    1  0.8551154E-009  0.1671927E+03  0.7561462E-02  0.1080501E+00
         22   -1    0    0    0    0  0.00000000000E+00  0.00000000000E+00  0.36059339793E+03  0.36059339793E+03  0.00000000000E+00 0. -1.
         22   -1    0    0    0    0 -0.00000000000E+00 -0.00000000000E+00 -0.11602656163E+04  0.11602656163E+04  0.00000000000E+00 0.  1.
        -24    2    1    2    0    0 -0.10657665033E+03 -0.26888554815E+02 -0.10541374261E+04  0.10629337077E+04  0.80875070725E+02 0.  0.
         25    2    1    2    0    0  0.11291961354E+03  0.11408419852E+03  0.32449488123E+02  0.20607351069E+03  0.12508908447E+03 0.  0.
         24    2    1    2    0    0 -0.63429632157E+01 -0.87195643706E+02  0.22201571957E+03  0.25185179588E+03  0.80591773086E+02 0.  0.
        -11    1    5    5    0    0  0.25998905909E+01 -0.26907763294E+02  0.63900122189E+01  0.27778038317E+02  0.00000000000E+00 0.  1.
         12    1    5    5    0    0 -0.89428538066E+01 -0.60287880412E+02  0.21562570735E+03  0.22407375756E+03  0.00000000000E+00 0. -1.
         13    1    3    3    0    0  0.10737457832E+02 -0.13270350325E+02 -0.18958048035E+03  0.19034745527E+03  0.00000000000E+00 0. -1.
        -14    1    3    3    0    0 -0.11731410816E+03 -0.13618204490E+02 -0.86455694573E+03  0.87258625240E+03  0.00000000000E+00 0.  1.
          5    1    4    4  501    0  0.77705767754E+02  0.12003100357E+03  0.65411332934E+02  0.15729508268E+03  0.41800000000E+01 0. -1.
         -5    1    4    4    0  501  0.35213845787E+02 -0.59468050506E+01 -0.32961844811E+02  0.48778428006E+02  0.41800000000E+01 0. -1.
</event>
<event>
11    1  0.8551154E-009  0.1387790E+03  0.7561462E-02  0.1108930E+00
         22   -1    0    0    0    0  0.00000000000E+00  0.00000000000E+00  0.92931332371E+03  0.92931332371E+03  0.00000000000E+00 0.  1.
         22   -1    0    0    0    0 -0.00000000000E+00 -0.00000000000E+00 -0.17597451812E+04  0.17597451812E+04  0.00000000000E+00 0. -1.
        -24    2    1    2    0    0  0.50570100932E+01  0.12596019648E+02 -0.16207433270E+04  0.16235756673E+04  0.94893531672E+02 0.  0.
         25    2    1    2    0    0 -0.37414784413E+02  0.38245474926E+02 -0.10042007908E+03  0.16909766971E+03  0.12508895704E+03 0.  0.
         24    2    1    2    0    0  0.32357774320E+02 -0.50841494574E+02  0.89073154862E+03  0.89638516787E+03  0.80447463242E+02 0.  0.
        -13    1    5    5    0    0 -0.13050108562E+02 -0.64860273787E+01  0.52386301940E+03  0.52406568003E+03  0.00000000000E+00 0.  1.
         14    1    5    5    0    0  0.45407882882E+02 -0.44355467196E+02  0.36686852922E+03  0.37231948784E+03  0.00000000000E+00 0. -1.
         11    1    3    3    0    0  0.44363221294E+02  0.23848888026E+02 -0.11340912015E+04  0.11352091077E+04  0.00000000000E+00 0. -1.
        -12    1    3    3    0    0 -0.39306211201E+02 -0.11252868378E+02 -0.48665212553E+03  0.48836655963E+03  0.00000000000E+00 0.  1.
          5    1    4    4  501    0  0.30214804027E+00 -0.22195715396E+02 -0.94863005925E+02  0.97515144303E+02  0.41800000000E+01 0. -1.
         -5    1    4    4    0  501 -0.37716932453E+02  0.60441190323E+02 -0.55570731511E+01  0.71582525405E+02  0.41800000000E+01 0. -1.
</event>
<event>
11    1  0.8551154E-009  0.1285463E+03  0.7561462E-02  0.1121068E+00
         22   -1    0    0    0    0  0.00000000000E+00  0.00000000000E+00  0.27288392997E+03  0.27288392997E+03  0.00000000000E+00 0.  1.
         22   -1    0    0    0    0 -0.00000000000E+00 -0.00000000000E+00 -0.28839129889E+03  0.28839129889E+03  0.00000000000E+00 0. -1.
        -24    2    1    2    0    0 -0.55547148933E+00  0.25313954879E+02 -0.17672165957E+03  0.19713361054E+03  0.83606283139E+02 0.  0.
         25    2    1    2    0    0 -0.15549893508E+02 -0.49703198468E+02 -0.43802543761E+02  0.14240816291E+03  0.12509682209E+03 0.  0.
         24    2    1    2    0    0  0.16105364997E+02  0.24389243589E+02  0.20501683441E+03  0.22173345542E+03  0.79243957982E+02 0.  0.
        -11    1    5    5    0    0 -0.21004551033E+02 -0.93899540919E+01  0.12632354126E+03  0.12840171136E+03  0.00000000000E+00 0.  1.
         12    1    5    5    0    0  0.37109916030E+02  0.33779197681E+02  0.78693293146E+02  0.93331744063E+02  0.00000000000E+00 0. -1.
         13    1    3    3    0    0  0.17453465181E+02 -0.23561080718E+02 -0.10141299115E+03  0.10556676913E+03  0.00000000000E+00 0. -1.
        -14    1    3    3    0    0 -0.18008936670E+02  0.48875035597E+02 -0.75308668424E+02  0.91566841402E+02  0.00000000000E+00 0.  1.
          5    1    4    4  501    0 -0.18622246501E+02  0.18149317640E+02  0.31402406341E+02  0.40984988954E+02  0.41800000000E+01 0. -1.
         -5    1    4    4    0  501  0.30723529931E+01 -0.67852516108E+02 -0.75204950101E+02  0.10142317395E+03  0.41800000000E+01 0. -1.
</event>
<event>
11    1  0.8551154E-009  0.1604470E+03  0.7561462E-02  0.1086658E+00
         22   -1    0    0    0    0  0.00000000000E+00  0.00000000000E+00  0.62159344780E+03  0.62159344780E+03  0.00000000000E+00 0.  1.
         22   -1    0    0    0    0 -0.00000000000E+00 -0.00000000000E+00 -0.25628934149E+03  0.25628934149E+03  0.00000000000E+00 0.  1.
        -24    2    1    2    0    0  0.87983932470E+02 -0.68345148753E+02 -0.16075180405E+03  0.21173592902E+03  0.81109366920E+02 0.  0.
         25    2    1    2    0    0 -0.60678052245E+02  0.31574233487E+02  0.11097068640E+02  0.14299443749E+03  0.12508199701E+03 0.  0.
         24    2    1    2    0    0 -0.27305880225E+02  0.36770915266E+02  0.51495884172E+03  0.52315242278E+03  0.80050843193E+02 0.  0.
        -11    1    5    5    0    0 -0.52542431213E+02  0.40640245376E+02  0.38924894612E+03  0.39487602951E+03  0.00000000000E+00 0.  1.
         12    1    5    5    0    0  0.25236550987E+02 -0.38693301099E+01  0.12570989559E+03  0.12827639328E+03  0.00000000000E+00 0. -1.
         11    1    3    3    0    0  0.14646448617E+01 -0.45142622618E+02 -0.34031072111E+02  0.56551882642E+02  0.00000000000E+00 0. -1.
        -12    1    3    3    0    0  0.86519287609E+02 -0.23202526135E+02 -0.12672073194E+03  0.15518404638E+03  0.00000000000E+00 0.  1.
          5    1    4    4  501    0 -0.98265194851E+02  0.11481479708E+02  0.14302850703E+02  0.10004957188E+03  0.41800000000E+01 0.  1.
         -5    1    4    4    0  501  0.37587142606E+02  0.20092753779E+02 -0.32057820627E+01  0.42944865611E+02  0.41800000000E+01 0.  1.
</event>
<event>
11    1  0.8551154E-009  0.1338661E+03  0.7561462E-02  0.1114608E+00
         22   -1    0    0    0    0  0.00000000000E+00  0.00000000000E+00  0.93458193035E+02  0.93458193035E+02  0.00000000000E+00 0.  1.
         22   -1    0    0    0    0 -0.00000000000E+00 -0.00000000000E+00 -0.95501017686E+03  0.95501017686E+03  0.00000000000E+00 0.  1.
         24    2    1    2    0    0  0.20979664004E+02  0.17258522536E+01 -0.54865540425E+03  0.55476241117E+03  0.79343905650E+02 0.  0.
         25    2    1    2    0    0 -0.12374826679E+02 -0.48735932108E+02 -0.36350374056E+03  0.38769961545E+03  0.12509074710E+03 0.  0.
        -24    2    1    2    0    0 -0.86048373253E+01  0.47010079855E+02  0.50607160989E+02  0.10600634327E+03  0.79951668125E+02 0.  0.
        -13    1    3    3    0    0 -0.12104942008E+02 -0.14488731601E+02 -0.43231789816E+03  0.43272995971E+03  0.00000000000E+00 0.  1.
         14    1    3    3    0    0  0.33084606012E+02  0.16214583855E+02 -0.11633750609E+03  0.12203245145E+03  0.00000000000E+00 0. -1.
         11    1    5    5    0    0  0.14013842520E+02  0.48729060017E+02  0.17162990814E+00  0.50704423171E+02  0.00000000000E+00 0. -1.
        -12    1    5    5    0    0 -0.22618679845E+02 -0.17189801623E+01  0.50435531081E+02  0.55301920095E+02  0.00000000000E+00 0.  1.
          5    1    4    4  501    0  0.22198029632E+01  0.39867202399E+02 -0.69527259393E+02  0.80285948653E+02  0.41800000000E+01 0. -1.
         -5    1    4    4    0  501 -0.14594629642E+02 -0.88603134508E+02 -0.29397648116E+03  0.30741366680E+03  0.41800000000E+01 0. -1.
</event>
<event>
11    1  0.8551154E-009  0.1271951E+03  0.7561462E-02  0.1122764E+00
         22   -1    0    0    0    0  0.00000000000E+00  0.00000000000E+00  0.20307377812E+04  0.20307377812E+04  0.00000000000E+00 0. -1.
         22   -1    0    0    0    0 -0.00000000000E+00 -0.00000000000E+00 -0.17284369048E+03  0.17284369048E+03  0.00000000000E+00 0.  1.
        -24    2    1    2    0    0 -0.13846292542E+02 -0.10433792844E+02 -0.13094348318E+03  0.15433235151E+03  0.79822898254E+02 0.  0.
         25    2    1    2    0    0  0.40217181823E+01  0.31155258215E+02  0.11255857185E+03  0.17118398272E+03  0.12509076509E+03 0.  0.
         24    2    1    2    0    0  0.98245743597E+01 -0.20721465371E+02  0.18762790020E+04  0.18780651374E+04  0.78612120980E+02 0.  0.
        -13    1    5    5    0    0 -0.18171129345E+02 -0.51958813553E+01  0.11874412549E+03  0.12023873944E+03  0.00000000000E+00 0.  1.
         14    1    5    5    0    0  0.27995703704E+02 -0.15525584016E+02  0.17575348765E+04  0.17578263980E+04  0.00000000000E+00 0. -1.
         13    1    3    3    0    0 -0.15223028632E+02 -0.27528624309E+01  0.64187076342E+01  0.16748691292E+02  0.00000000000E+00 0. -1.
        -14    1    3    3    0    0  0.13767360901E+01 -0.76809304130E+01 -0.13736219081E+03  0.13758366022E+03  0.00000000000E+00 0.  1.
          5    1    4    4  501    0  0.27120709005E+02  0.58149522340E+02  0.11859575501E+03  0.13490487505E+03  0.41800000000E+01 0.  1.
         -5    1    4    4    0  501 -0.23098990823E+02 -0.26994264125E+02 -0.60371831600E+01  0.36279107668E+02  0.41800000000E+01 0.  1.
</event>
<event>
11    1  0.8551154E-009  0.5738397E+03  0.7561462E-02  0.9242152E-01
         22   -1    0    0    0    0  0.00000000000E+00  0.00000000000E+00  0.29228135620E+03  0.29228135620E+03  0.00000000000E+00 0.  1.
         22   -1    0    0    0    0 -0.00000000000E+00 -0.00000000000E+00 -0.16826538600E+04  0.16826538600E+04  0.00000000000E+00 0.  1.
         24    2    1    2    0    0 -0.59513601685E+02 -0.15204346444E+02 -0.24598978897E+03  0.26571161873E+03  0.79489918319E+02 0.  0.
         25    2    1    2    0    0 -0.34735633377E+03  0.41258254977E+03 -0.95601907050E+03  0.11047620807E+04  0.12508400669E+03 0.  0.
        -24    2    1    2    0    0  0.40686993545E+03 -0.39737820332E+03 -0.18836364438E+03  0.60446151684E+03  0.80251367420E+02 0.  0.
        -11    1    3    3    0    0 -0.15191843310E+02 -0.44830312776E+01 -0.31698353345E+00  0.15842668688E+02  0.00000000000E+00 0.  1.
         12    1    3    3    0    0 -0.44321758375E+02 -0.10721315167E+02 -0.24567280543E+03  0.24986895004E+03  0.00000000000E+00 0. -1.
         11    1    5    5    0    0  0.15904868665E+03 -0.10533372346E+03 -0.75435502341E+02  0.20513944778E+03  0.00000000000E+00 0. -1.
        -12    1    5    5    0    0  0.24782124880E+03 -0.29204447986E+03 -0.11292814204E+03  0.39932206906E+03  0.00000000000E+00 0.  1.
          5    1    4    4  501    0 -0.18578373120E+03  0.22344327709E+03 -0.63730515513E+03  0.70044116528E+03  0.41800000000E+01 0. -1.
         -5    1    4    4    0  501 -0.16157260257E+03  0.18913927268E+03 -0.31871391537E+03  0.40432091539E+03  0.41800000000E+01 0. -1.
</event>
<event>
11    1  0.8551154E-009  0.1277601E+03  0.7561462E-02  0.1122052E+00
         22   -1    0    0    0    0  0.00000000000E+00  0.00000000000E+00  0.34702100310E+03  0.34702100310E+03  0.00000000000E+00 0. -1.
         22   -1    0    0    0    0 -0.00000000000E+00 -0.00000000000E+00 -0.12874644127E+04  0.12874644127E+04  0.00000000000E+00 0.  1.
         24    2    1    2    0    0  0.17428693411E+02 -0.12671307672E+02 -0.12389718109E+04  0.12417202207E+04  0.79709703706E+02 0.  0.
         25    2    1    2    0    0  0.11299464605E+02  0.90568295135E+01  0.60603435147E+02  0.13974932417E+03  0.12508954070E+03 0.  0.
        -24    2    1    2    0    0 -0.28728158017E+02  0.36144781590E+01  0.23792496624E+03  0.25301587086E+03  0.81057817844E+02 0.  0.
        -11    1    3    3    0    0 -0.65038734990E+01  0.22473024506E+02 -0.86872049051E+03  0.86903545833E+03  0.00000000000E+00 0.  1.
         12    1    3    3    0    0  0.23932566910E+02 -0.35144332178E+02 -0.37025132043E+03  0.37268476239E+03  0.00000000000E+00 0. -1.
         11    1    5    5    0    0 -0.90032672498E+01  0.43562121588E+01  0.23226685474E+03  0.23248210085E+03  0.00000000000E+00 0. -1.
        -12    1    5    5    0    0 -0.19724890767E+02 -0.74173399981E+00  0.56581114963E+01  0.20533770009E+02  0.00000000000E+00 0.  1.
          5    1    4    4  501    0  0.10203863971E+02 -0.71167320422E+01  0.97948410381E+02  0.98823733036E+02  0.41800000000E+01 0. -1.
         -5    1    4    4    0  501  0.10956006337E+01  0.16173561556E+02 -0.37344975235E+02  0.40925591131E+02  0.41800000000E+01 0. -1.
</event>
<event>
11    1  0.8551154E-009  0.1662578E+03  0.7561462E-02  0.1081335E+00
         22   -1    0    0    0    0  0.00000000000E+00  0.00000000000E+00  0.70403289077E+03  0.70403289077E+03  0.00000000000E+00 0.  1.
         22   -1    0    0    0    0 -0.00000000000E+00 -0.00000000000E+00 -0.25660911799E+03  0.25660911799E+03  0.00000000000E+00 0.  1.
         24    2    1    2    0    0 -0.89619048858E+02  0.58288797628E+02 -0.14299230298E+03  0.19653026055E+03  0.82147347821E+02 0.  0.
         25    2    1    2    0    0  0.89284280701E+02 -0.78942329007E+02  0.52511958052E+01  0.17285323459E+03  0.12508833504E+03 0.  0.
        -24    2    1    2    0    0  0.33476815678E+00  0.20653531379E+02  0.58516487996E+03  0.59125851362E+03  0.82109760464E+02 0.  0.
        -13    1    3    3    0    0 -0.46501599328E+02  0.45469687505E+01 -0.11126204790E+03  0.12067442549E+03  0.00000000000E+00 0.  1.
         14    1    3    3    0    0 -0.43117449530E+02  0.53741828878E+02 -0.31730255078E+02  0.75855835058E+02  0.00000000000E+00 0. -1.
         13    1    5    5    0    0  0.11912588683E+02  0.44564326948E+02  0.49808065971E+03  0.50021218756E+03  0.00000000000E+00 0. -1.
        -14    1    5    5    0    0 -0.11577820526E+02 -0.23910795570E+02  0.87084220246E+02  0.91046326059E+02  0.00000000000E+00 0.  1.
          5    1    4    4  501    0  0.67997360876E+01  0.79119640718E+01  0.45154232913E+02  0.46531846474E+02  0.41800000000E+01 0. -1.
         -5    1    4    4    0  501  0.82484544613E+02 -0.86854293078E+02 -0.39903037107E+02  0.12632138812E+03  0.41800000000E+01 0. -1.
</event>
<event>
11    1  0.8551154E-009  0.1443219E+03  0.7561462E-02  0.1102826E+00
         22   -1    0    0    0    0  0.00000000000E+00  0.00000000000E+00  0.15492932959E+04  0.15492932959E+04  0.00000000000E+00 0. -1.
         22   -1    0    0    0    0 -0.00000000000E+00 -0.00000000000E+00 -0.11476653493E+03  0.11476653493E+03  0.00000000000E+00 0. -1.
         24    2    1    2    0    0  0.74656907751E+02 -0.26387240437E+02 -0.33506685154E+02  0.12028475933E+03  0.84117685677E+02 0.  0.
         25    2    1    2    0    0 -0.58585883102E+02 -0.29795903520E+02  0.10193178367E+03  0.17423125544E+03  0.12508533202E+03 0.  0.
        -24    2    1    2    0    0 -0.16071024648E+02  0.56183143958E+02  0.13661016624E+04  0.13695438160E+04  0.77470564891E+02 0.  0.
        -13    1    3    3    0    0  0.30770216392E+02  0.17943928559E+02  0.17517659759E+02  0.39694573840E+02  0.00000000000E+00 0.  1.
         14    1    3    3    0    0  0.43886691358E+02 -0.44331168996E+02 -0.51024344913E+02  0.80590185487E+02  0.00000000000E+00 0. -1.
         11    1    5    5    0    0  0.19279316417E+02  0.20305712181E+02  0.94887397515E+03  0.94928701387E+03  0.00000000000E+00 0. -1.
        -12    1    5    5    0    0 -0.35350341066E+02  0.35877431777E+02  0.41722768727E+03  0.42025680215E+03  0.00000000000E+00 0.  1.
          5    1    4    4  501    0 -0.24888398414E+02  0.64910310566E+01 -0.26106817701E+02  0.36886368624E+02  0.41800000000E+01 0. -1.
         -5    1    4    4    0  501 -0.33697484689E+02 -0.36286934577E+02  0.12803860137E+03  0.13734488682E+03  0.41800000000E+01 0. -1.
</event>
<event>
11    1  0.1138106E-008  0.1611663E+03  0.7561462E-02  0.1085985E+00
         22   -1    0    0    0    0  0.00000000000E+00  0.00000000000E+00  0.40485785094E+03  0.40485785094E+03  0.00000000000E+00 0. -1.
         22   -1    0    0    0    0 -0.00000000000E+00 -0.00000000000E+00 -0.81468791891E+03  0.81468791891E+03  0.00000000000E+00 0. -1.
         24    2    1    2    0    0 -0.61509998943E+01 -0.78598766079E+02 -0.64870284435E+03  0.65843160880E+03  0.80630033917E+02 0.  0.
         25    2    1    2    0    0  0.10661619207E+03  0.84262242994E+02 -0.91406936484E+02  0.20608656335E+03  0.12509718443E+03 0.  0.
        -24    2    1    2    0    0 -0.10046519217E+03 -0.56634769145E+01  0.33027971286E+03  0.35502759769E+03  0.82671498038E+02 0.  0.
        -11    1    3    3    0    0  0.36512524321E+02 -0.28748648816E+02 -0.23398209659E+03  0.23855244867E+03  0.00000000000E+00 0.  1.
         12    1    3    3    0    0 -0.42663524216E+02 -0.49850117263E+02 -0.41472074776E+03  0.41987916013E+03  0.00000000000E+00 0. -1.
         13    1    5    5    0    0 -0.96369314408E+02  0.24657009964E+02  0.25985394231E+03  0.27824285118E+03  0.00000000000E+00 0. -1.
        -14    1    5    5    0    0 -0.40958777648E+01 -0.30320486879E+02  0.70425770548E+02  0.76784746510E+02  0.00000000000E+00 0.  1.
          5    1    4    4  501    0 -0.12938852587E+02 -0.18069982994E+02 -0.28922339991E+02  0.36713925726E+02  0.41800000000E+01 0. -1.
         -5    1    4    4    0  501  0.11955504465E+03  0.10233222599E+03 -0.62484596492E+02  0.16937263763E+03  0.41800000000E+01 0. -1.
</event>
<event>
11    1  0.8551154E-009  0.1536508E+03  0.7561462E-02  0.1093206E+00
         22   -1    0    0    0    0  0.00000000000E+00  0.00000000000E+00  0.14794929189E+03  0.14794929189E+03  0.00000000000E+00 0. -1.
         22   -1    0    0    0    0 -0.00000000000E+00 -0.00000000000E+00 -0.10077416182E+04  0.10077416182E+04  0.00000000000E+00 0. -1.
         24    2    1    2    0    0  0.49404021667E+02 -0.72572481973E+02 -0.76259261593E+03  0.77184497721E+03  0.80558354448E+02 0.  0.
         25    2    1    2    0    0 -0.37857829104E+02  0.92449618564E+02 -0.19603247603E+03  0.25309343273E+03  0.12508959523E+03 0.  0.
        -24    2    1    2    0    0 -0.11546192563E+02 -0.19877136592E+02  0.98832765678E+02  0.13075250012E+03  0.82461418825E+02 0.  0.
        -13    1    3    3    0    0  0.37854646205E+02 -0.54166741672E+02 -0.24379712907E+03  0.25259463629E+03  0.00000000000E+00 0.  1.
         14    1    3    3    0    0  0.11549375463E+02 -0.18405740301E+02 -0.51879548686E+03  0.51925034091E+03  0.00000000000E+00 0. -1.
         11    1    5    5    0    0 -0.47116994062E+02 -0.11237509378E+02  0.63609405142E+02  0.79952793379E+02  0.00000000000E+00 0. -1.
        -12    1    5    5    0    0  0.35570801499E+02 -0.86396272138E+01  0.35223360535E+02  0.50799706742E+02  0.00000000000E+00 0.  1.
          5    1    4    4  501    0 -0.10602605796E+02  0.12030784618E+03 -0.15050808341E+03  0.19301955515E+03  0.41800000000E+01 0.  1.
         -5    1    4    4    0  501 -0.27255223308E+02 -0.27858227611E+02 -0.45524392629E+02  0.60073877579E+02  0.41800000000E+01 0.  1.
</event>
<event>
11    1  0.8551154E-009  0.1447178E+03  0.7561462E-02  0.1102402E+00
         22   -1    0    0    0    0  0.00000000000E+00  0.00000000000E+00  0.10619441764E+04  0.10619441764E+04  0.00000000000E+00 0. -1.
         22   -1    0    0    0    0 -0.00000000000E+00 -0.00000000000E+00 -0.36700663945E+03  0.36700663945E+03  0.00000000000E+00 0.  1.
         24    2    1    2    0    0  0.46395320086E+02  0.31591344032E+02 -0.34274452058E+03  0.35643127888E+03  0.80118109265E+02 0.  0.
         25    2    1    2    0    0  0.32482089515E+02 -0.54405755945E+02  0.38615929216E+03  0.41083090919E+03  0.12509182472E+03 0.  0.
        -24    2    1    2    0    0 -0.78877409600E+02  0.22814411913E+02  0.65152276541E+03  0.66168862781E+03  0.81288272168E+02 0.  0.
        -13    1    3    3    0    0  0.29200070191E+02  0.28449831973E+02 -0.33472677933E+03  0.33720031709E+03  0.00000000000E+00 0.  1.
         14    1    3    3    0    0  0.17195249894E+02  0.31415120592E+01 -0.80177412498E+01  0.19230961798E+02  0.00000000000E+00 0. -1.
         13    1    5    5    0    0 -0.59811870136E+02 -0.18824095546E+02  0.48303807420E+03  0.48709094377E+03  0.00000000000E+00 0. -1.
        -14    1    5    5    0    0 -0.19065539465E+02  0.41638507459E+02  0.16848469121E+03  0.17459768403E+03  0.00000000000E+00 0.  1.
          5    1    4    4  501    0 -0.41699599051E+02 -0.17709419428E+02  0.22566642803E+03  0.23020705731E+03  0.41800000000E+01 0.  1.
         -5    1    4    4    0  501  0.74181688566E+02 -0.36696336517E+02  0.16049286413E+03  0.18062385188E+03  0.41800000000E+01 0.  1.
</event>
<event>
11    1  0.8551154E-009  0.6942616E+03  0.7561462E-02  0.9040804E-01
         22   -1    0    0    0    0  0.00000000000E+00  0.00000000000E+00  0.47920737731E+03  0.47920737731E+03  0.00000000000E+00 0.  1.
         22   -1    0    0    0    0 -0.00000000000E+00 -0.00000000000E+00 -0.24606229226E+04  0.24606229226E+04  0.00000000000E+00 0.  1.
         24    2    1    2    0    0 -0.55944548684E+03  0.61906563026E+02 -0.70112635693E+03  0.90270902085E+03  0.80583699654E+02 0.  0.
         25    2    1    2    0    0  0.76622270611E+03 -0.35305909202E+03 -0.14107605122E+04  0.16485268819E+04  0.12509076681E+03 0.  0.
        -24    2    1    2    0    0 -0.20677721927E+03  0.29115252900E+03  0.13047132379E+03  0.38859439716E+03  0.80350641726E+02 0.  0.
        -13    1    3    3    0    0 -0.41167495755E+03  0.41424510692E+02 -0.56829894007E+03  0.70296226502E+03  0.00000000000E+00 0.  1.
         14    1    3    3    0    0 -0.14777052929E+03  0.20482052334E+02 -0.13282741686E+03  0.19974675583E+03  0.00000000000E+00 0. -1.
         13    1    5    5    0    0 -0.10585668537E+03  0.17627564256E+03  0.11317984265E+03  0.23470921750E+03  0.00000000000E+00 0. -1.
        -14    1    5    5    0    0 -0.10092053390E+03  0.11487688644E+03  0.17291481138E+02  0.15388517966E+03  0.00000000000E+00 0.  1.
          5    1    4    4  501    0  0.66337845502E+03 -0.27277787144E+03 -0.12528185779E+04  0.14436241212E+04  0.41800000000E+01 0. -1.
         -5    1    4    4    0  501  0.10284425108E+03 -0.80281220585E+02 -0.15794193424E+03  0.20490276072E+03  0.41800000000E+01 0. -1.
</event>
<event>
11    1  0.8551154E-009  0.2358404E+03  0.7561462E-02  0.1031725E+00
         22   -1    0    0    0    0  0.00000000000E+00  0.00000000000E+00  0.44777067322E+03  0.44777067322E+03  0.00000000000E+00 0.  1.
         22   -1    0    0    0    0 -0.00000000000E+00 -0.00000000000E+00 -0.12208193270E+04  0.12208193270E+04  0.00000000000E+00 0.  1.
         24    2    1    2    0    0 -0.18698397936E+03 -0.41165373063E+02 -0.80335680578E+03  0.82955400283E+03  0.78231002374E+02 0.  0.
         25    2    1    2    0    0  0.21588165369E+03  0.75325737345E+02 -0.35643773657E+03  0.44155842904E+03  0.12508849307E+03 0.  0.
        -24    2    1    2    0    0 -0.28897674327E+02 -0.34160364282E+02  0.38674588862E+03  0.39747756831E+03  0.80087632519E+02 0.  0.
        -13    1    3    3    0    0 -0.16863343461E+03 -0.59565364806E+02 -0.65694354358E+03  0.68085247111E+03  0.00000000000E+00 0.  1.
         14    1    3    3    0    0 -0.18350544745E+02  0.18399991742E+02 -0.14641326220E+03  0.14870153172E+03  0.00000000000E+00 0. -1.
         13    1    5    5    0    0 -0.12152167437E+01  0.19590266332E+02  0.31436712745E+02  0.37061060359E+02  0.00000000000E+00 0. -1.
        -14    1    5    5    0    0 -0.27682457584E+02 -0.53750630613E+02  0.35530917587E+03  0.36041650796E+03  0.00000000000E+00 0.  1.
          5    1    4    4  501    0  0.23047574357E+03  0.74826939917E+02 -0.34831577997E+03  0.42433417761E+03  0.41800000000E+01 0.  1.
         -5    1    4    4    0  501 -0.14594089881E+02  0.49879742774E+00 -0.81219566052E+01  0.17224251433E+02  0.41800000000E+01 0.  1.
</event>
<event>
11    1  0.8551154E-009  0.1562872E+03  0.7561462E-02  0.1090622E+00
         22   -1    0    0    0    0  0.00000000000E+00  0.00000000000E+00  0.71156734469E+03  0.71156734469E+03  0.00000000000E+00 0.  1.
         22   -1    0    0    0    0 -0.00000000000E+00 -0.00000000000E+00 -0.10686799206E+04  0.10686799206E+04  0.00000000000E+00 0. -1.
        -24    2    1    2    0    0 -0.11024933925E+02 -0.30723884590E+02 -0.10125531987E+04  0.10163609092E+04  0.81608892329E+02 0.  0.
         25    2    1    2    0    0  0.43597605719E+02 -0.60430562297E+02  0.64143557415E+02  0.15910181847E+03  0.12508552513E+03 0.  0.
         24    2    1    2    0    0 -0.32572671795E+02  0.91154446887E+02  0.59129706541E+03  0.60478453758E+03  0.82231412476E+02 0.  0.
        -11    1    5    5    0    0  0.27202296556E+02  0.39701979559E+02  0.22871034130E+03  0.23371913131E+03  0.00000000000E+00 0.  1.
         12    1    5    5    0    0 -0.59774968351E+02  0.51452467328E+02  0.36258672411E+03  0.37106540627E+03  0.00000000000E+00 0. -1.
         11    1    3    3    0    0 -0.16181051580E+02 -0.39928902419E+02 -0.99463154612E+03  0.99556418990E+03  0.00000000000E+00 0. -1.
        -12    1    3    3    0    0  0.51561176554E+01  0.92050178292E+01 -0.17921652582E+02  0.20796719304E+02  0.00000000000E+00 0.  1.
          5    1    4    4  501    0  0.87871524668E+02 -0.41258205260E+02  0.42141559264E+02  0.10591047052E+03  0.41800000000E+01 0.  1.
         -5    1    4    4    0  501 -0.44273918949E+02 -0.19172357037E+02  0.22001998151E+02  0.53191347944E+02  0.41800000000E+01 0.  1.
</event>
<event>
11    1  0.8551154E-009  0.1573938E+03  0.7561462E-02  0.1089554E+00
         22   -1    0    0    0    0  0.00000000000E+00  0.00000000000E+00  0.28815421001E+04  0.28815421001E+04  0.00000000000E+00 0. -1.
         22   -1    0    0    0    0 -0.00000000000E+00 -0.00000000000E+00 -0.40998317917E+02  0.40998317917E+02  0.00000000000E+00 0.  1.
        -24    2    1    2    0    0  0.33623779191E+02  0.37453826363E+02  0.57182265639E+02  0.11082235201E+03  0.80488723219E+02 0.  0.
         25    2    1    2    0    0 -0.91341204635E+02  0.39938257530E+02  0.50070431609E+03  0.52563262657E+03  0.12508623382E+03 0.  0.
         24    2    1    2    0    0  0.57717425444E+02 -0.77392083893E+02  0.22826572005E+04  0.22860854395E+04  0.79636083138E+02 0.  0.
        -13    1    5    5    0    0 -0.61318063334E+01  0.41557833172E+01  0.25519930701E+02  0.26573228010E+02  0.00000000000E+00 0.  1.
         14    1    5    5    0    0  0.63849231777E+02 -0.81547867211E+02  0.22571372698E+04  0.22595122114E+04  0.00000000000E+00 0. -1.
         13    1    3    3    0    0  0.53452603820E+02  0.28277008542E+02  0.63886671942E+02  0.87967476485E+02  0.00000000000E+00 0. -1.
        -14    1    3    3    0    0 -0.19828824629E+02  0.91768178219E+01 -0.67044063027E+01  0.22854875528E+02  0.00000000000E+00 0.  1.
          5    1    4    4  501    0 -0.91826822440E+01 -0.37091562599E+02  0.64323207458E+02  0.74933657905E+02  0.41800000000E+01 0.  1.
         -5    1    4    4    0  501 -0.82158522391E+02  0.77029820129E+02  0.43638110863E+03  0.45069896867E+03  0.41800000000E+01 0.  1.
</event>
<event>
11    1  0.8551154E-009  0.1321047E+03  0.7561462E-02  0.1116710E+00
         22   -1    0    0    0    0  0.00000000000E+00  0.00000000000E+00  0.14933845603E+04  0.14933845603E+04  0.00000000000E+00 0. -1.
         22   -1    0    0    0    0 -0.00000000000E+00 -0.00000000000E+00 -0.12436414826E+03  0.12436414826E+03  0.00000000000E+00 0. -1.
         24    2    1    2    0    0 -0.31640018187E+02 -0.30944628412E+02 -0.87370618004E+02  0.12819302951E+03  0.82711348356E+02 0.  0.
         25    2    1    2    0    0  0.34506882080E+01  0.61989461355E+02  0.32031899127E+03  0.34943689086E+03  0.12508910407E+03 0.  0.
        -24    2    1    2    0    0  0.28189329979E+02 -0.31044832943E+02  0.11360720388E+04  0.11401187882E+04  0.86329334134E+02 0.  0.
        -11    1    3    3    0    0 -0.27802047272E+02  0.19133879378E+02 -0.86940325662E+01  0.34851762866E+02  0.00000000000E+00 0.  1.
         12    1    3    3    0    0 -0.38379709144E+01 -0.50078507790E+02 -0.78676585437E+02  0.93341266647E+02  0.00000000000E+00 0. -1.
         11    1    5    5    0    0 -0.80012276727E+01 -0.83897386228E+01  0.90862147973E+03  0.90869543896E+03  0.00000000000E+00 0. -1.
        -12    1    5    5    0    0  0.36190557651E+02 -0.22655094320E+02  0.22745055906E+03  0.23142334925E+03  0.00000000000E+00 0.  1.
          5    1    4    4  501    0  0.12679211119E+02 -0.36094182380E+02  0.12252619747E+03  0.12842777683E+03  0.41800000000E+01 0.  1.
         -5    1    4    4    0  501 -0.92285229106E+01  0.98083643735E+02  0.19779279381E+03  0.22100911403E+03  0.41800000000E+01 0.  1.
</event>
<event>
11    1  0.8551154E-009  0.1521654E+03  0.7561462E-02  0.1094687E+00
         22   -1    0    0    0    0  0.00000000000E+00  0.00000000000E+00  0.35939673251E+03  0.35939673251E+03  0.00000000000E+00 0. -1.
         22   -1    0    0    0    0 -0.00000000000E+00 -0.00000000000E+00 -0.50468764621E+03  0.50468764621E+03  0.00000000000E+00 0.  1.
        -24    2    1    2    0    0  0.28203158238E+02 -0.26870378703E+02 -0.36190090311E+03  0.37389919927E+03  0.85503872169E+02 0.  0.
         25    2    1    2    0    0 -0.18204447293E+02 -0.61682503007E+02 -0.85912068505E+02  0.16481416244E+03  0.12508673610E+03 0.  0.
         24    2    1    2    0    0 -0.99987109457E+01  0.88552881709E+02  0.30252205791E+03  0.32537101701E+03  0.80031969259E+02 0.  0.
        -11    1    5    5    0    0 -0.13707488720E-01 -0.15379127808E+01  0.13408219708E+03  0.13409101736E+03  0.00000000000E+00 0.  1.
         12    1    5    5    0    0 -0.99850034570E+01  0.90090794490E+02  0.16843986084E+03  0.19127999965E+03  0.00000000000E+00 0. -1.
         11    1    3    3    0    0  0.12575104918E+02 -0.48645794525E+02 -0.32158586801E+03  0.32548735320E+03  0.00000000000E+00 0. -1.
        -12    1    3    3    0    0  0.15628053320E+02  0.21775415823E+02 -0.40315035103E+02  0.48411846073E+02  0.00000000000E+00 0.  1.
          5    1    4    4  501    0  0.40648558773E+02 -0.65856935764E+02 -0.29060133940E+02  0.82773214890E+02  0.41800000000E+01 0.  1.
         -5    1    4    4    0  501 -0.58853006065E+02  0.41744327573E+01 -0.56851934565E+02  0.82040947554E+02  0.41800000000E+01 0.  1.
</event>
<event>
11    1  0.8551154E-009  0.1567942E+03  0.7561462E-02  0.1090132E+00
         22   -1    0    0    0    0  0.00000000000E+00  0.00000000000E+00  0.27722712554E+03  0.27722712554E+03  0.00000000000E+00 0.  1.
         22   -1    0    0    0    0 -0.00000000000E+00 -0.00000000000E+00 -0.53491928683E+03  0.53491928683E+03  0.00000000000E+00 0. -1.
        -24    2    1    2    0    0 -0.23427277973E+02  0.29146171677E+02 -0.30625767975E+03  0.31961010153E+03  0.83417707457E+02 0.  0.
         25    2    1    2    0    0  0.11550021987E+03 -0.39063363954E+02 -0.16888011834E+03  0.24296936284E+03  0.12508944686E+03 0.  0.
         24    2    1    2    0    0 -0.92072941901E+02  0.99171922764E+01  0.21744563680E+03  0.24956694800E+03  0.80157839540E+02 0.  0.
        -11    1    5    5    0    0 -0.39972088615E+02 -0.82725939588E+01  0.17567786265E+03  0.18035774201E+03  0.00000000000E+00 0.  1.
         12    1    5    5    0    0 -0.52100853286E+02  0.18189786235E+02  0.41767774150E+02  0.69209205990E+02  0.00000000000E+00 0. -1.
         13    1    3    3    0    0 -0.50191584712E+02 -0.95510585838E+00 -0.14690391752E+03  0.15524454382E+03  0.00000000000E+00 0. -1.
        -14    1    3    3    0    0  0.26764306739E+02  0.30101277536E+02 -0.15935376222E+03  0.16436555770E+03  0.00000000000E+00 0.  1.
          5    1    4    4  501    0 -0.25983263410E+02 -0.16004624040E+02 -0.23353669141E+02  0.38654161877E+02  0.41800000000E+01 0.  1.
         -5    1    4    4    0  501  0.14148348328E+03 -0.23058739914E+02 -0.14552644920E+03  0.20431520096E+03  0.41800000000E+01 0.  1.
</event>
<event>
11    1  0.8551154E-009  0.5553681E+03  0.7561462E-02  0.9277656E-01
         22   -1    0    0    0    0  0.00000000000E+00  0.00000000000E+00  0.97466982430E+03  0.97466982430E+03  0.00000000000E+00 0. -1.
         22   -1    0    0    0    0 -0.00000000000E+00 -0.00000000000E+00 -0.22904027503E+04  0.22904027503E+04  0.00000000000E+00 0.  1.
         24    2    1    2    0    0  0.24819625290E+03  0.81570484307E+01 -0.19509687144E+04  0.19684988953E+04  0.83911018491E+02 0.  0.
         25    2    1    2    0    0 -0.66209964938E+03  0.29954761390E+02  0.53668007067E+03  0.86194316070E+03  0.12508909058E+03 0.  0.
        -24    2    1    2    0    0  0.41390339647E+03 -0.38111809820E+02  0.98555717671E+02  0.43463051860E+03  0.80136923789E+02 0.  0.
        -11    1    3    3    0    0  0.17919742162E+03 -0.11485164975E+01 -0.16437693895E+04  0.16535086455E+04  0.00000000000E+00 0.  1.
         12    1    3    3    0    0  0.68998831287E+02  0.93055649282E+01 -0.30719932488E+03  0.31499024979E+03  0.00000000000E+00 0. -1.
         11    1    5    5    0    0  0.38846631735E+03 -0.52574334620E+02  0.10228565089E+03  0.40513268784E+03  0.00000000000E+00 0. -1.
        -12    1    5    5    0    0  0.25437079125E+02  0.14462524800E+02 -0.37299332222E+01  0.29497830765E+02  0.00000000000E+00 0.  1.
          5    1    4    4  501    0 -0.15776864866E+03  0.60844600297E+02  0.13063424770E+03  0.21371895320E+03  0.41800000000E+01 0.  1.
         -5    1    4    4    0  501 -0.50433100071E+03 -0.30889838908E+02  0.40604582297E+03  0.64822420750E+03  0.41800000000E+01 0.  1.
</event>
<event>
11    1  0.8551154E-009  0.1374237E+03  0.7561462E-02  0.1110470E+00
         22   -1    0    0    0    0  0.00000000000E+00  0.00000000000E+00  0.11535344256E+03  0.11535344256E+03  0.00000000000E+00 0.  1.
         22   -1    0    0    0    0 -0.00000000000E+00 -0.00000000000E+00 -0.17843960550E+04  0.17843960550E+04  0.00000000000E+00 0.  1.
         24    2    1    2    0    0  0.68604269663E+00  0.76526564380E+02 -0.65573144772E+03  0.66503634848E+03  0.80204909828E+02 0.  0.
         25    2    1    2    0    0 -0.32171187839E+02 -0.12167087342E+03 -0.10838072478E+04  0.10982366720E+04  0.12508737232E+03 0.  0.
        -24    2    1    2    0    0  0.31485145143E+02  0.45144309038E+02  0.70496083046E+02  0.13647647705E+03  0.10308641064E+03 0.  0.
        -11    1    3    3    0    0  0.40442174244E+02  0.37752979377E+02 -0.32799089666E+03  0.33262424025E+03  0.00000000000E+00 0.  1.
         12    1    3    3    0    0 -0.39756131547E+02  0.38773585002E+02 -0.32774055106E+03  0.33241210823E+03  0.00000000000E+00 0. -1.
         11    1    5    5    0    0  0.66815294150E+02  0.12124880887E+02  0.34334802802E+02  0.76093199120E+02  0.00000000000E+00 0. -1.
        -12    1    5    5    0    0 -0.35330149007E+02  0.33019428151E+02  0.36161280244E+02  0.60383277927E+02  0.00000000000E+00 0.  1.
          5    1    4    4  501    0 -0.64523395645E+02 -0.93653436407E+02 -0.96865278958E+03  0.97531529973E+03  0.41800000000E+01 0.  1.
         -5    1    4    4    0  501  0.32352207806E+02 -0.28017437011E+02 -0.11515445820E+03  0.12292137230E+03  0.41800000000E+01 0.  1.
</event>
<event>
11    1  0.8551154E-009  0.1407091E+03  0.7561462E-02  0.1106769E+00
         22   -1    0    0    0    0  0.00000000000E+00  0.00000000000E+00  0.14515536586E+03  0.14515536586E+03  0.00000000000E+00 0. -1.
         22   -1    0    0    0    0 -0.00000000000E+00 -0.00000000000E+00 -0.65973649697E+03  0.65973649697E+03  0.00000000000E+00 0. -1.
        -24    2    1    2    0    0  0.18528204523E+02 -0.38651583517E+02 -0.40279899234E+03  0.41301294141E+03  0.80594182618E+02 0.  0.
         25    2    1    2    0    0  0.22629946121E+02  0.86427950082E+02 -0.20736802695E+03  0.25812990531E+03  0.12509054480E+03 0.  0.
         24    2    1    2    0    0 -0.41158150644E+02 -0.47776366565E+02  0.95585888180E+02  0.13374901610E+03  0.69105446399E+02 0.  0.
        -11    1    5    5    0    0 -0.32158663547E+01 -0.40598832454E+01  0.70452270825E+02  0.70642387508E+02  0.00000000000E+00 0.  1.
         12    1    5    5    0    0 -0.37942284289E+02 -0.43716483319E+02  0.25133617354E+02  0.63106628592E+02  0.00000000000E+00 0. -1.
         13    1    3    3    0    0 -0.64581131923E+01 -0.48511613642E+02 -0.35349398672E+03  0.35686563652E+03  0.00000000000E+00 0. -1.
        -14    1    3    3    0    0  0.24986317715E+02  0.98600301257E+01 -0.49305005626E+02  0.56147304893E+02  0.00000000000E+00 0.  1.
          5    1    4    4  501    0  0.22823955327E+02  0.79197824595E+02 -0.22443557710E+03  0.23912764170E+03  0.41800000000E+01 0. -1.
         -5    1    4    4    0  501 -0.19400920596E+00  0.72301254872E+01  0.17067550150E+02  0.19002263609E+02  0.41800000000E+01 0. -1.
</event>
<event>
11    1  0.8551154E-009  0.1811212E+03  0.7561462E-02  0.1068740E+00
         22   -1    0    0    0    0  0.00000000000E+00  0.00000000000E+00  0.98027502812E+03  0.98027502812E+03  0.00000000000E+00 0. -1.
         22   -1    0    0    0    0 -0.00000000000E+00 -0.00000000000E+00 -0.29010328723E+03  0.29010328723E+03  0.00000000000E+00 0.  1.
         24    2    1    2    0    0 -0.12796289162E+03  0.17497787478E+02 -0.20781243331E+03  0.25763672280E+03  0.80684566660E+02 0.  0.
         25    2    1    2    0    0  0.12860065200E+03 -0.12042809848E+03  0.17512254704E+03  0.27813005866E+03  0.12508944180E+03 0.  0.
        -24    2    1    2    0    0 -0.63776038105E+00  0.10293031100E+03  0.72286162717E+03  0.73461153389E+03  0.80809145719E+02 0.  0.
        -11    1    3    3    0    0 -0.12543846123E+03  0.32754537568E+02 -0.20399939887E+03  0.24170937513E+03  0.00000000000E+00 0.  1.
         12    1    3    3    0    0 -0.25244303865E+01 -0.15256750090E+02 -0.38130344458E+01  0.15927347669E+02  0.00000000000E+00 0. -1.
         11    1    5    5    0    0 -0.12703694101E+02 -0.36341309572E+01  0.22219219468E+03  0.22258473023E+03  0.00000000000E+00 0. -1.
        -12    1    5    5    0    0  0.12065933720E+02  0.10656444196E+03  0.50066943248E+03  0.51202680366E+03  0.00000000000E+00 0.  1.
          5    1    4    4  501    0  0.12941830602E+03 -0.13690594252E+03  0.17982363835E+03  0.26047331598E+03  0.41800000000E+01 0.  1.
         -5    1    4    4    0  501 -0.81765402065E+00  0.16477844040E+02 -0.47010913133E+01  0.17656742674E+02  0.41800000000E+01 0.  1.
</event>
<event>
11    1  0.8551154E-009  0.1410717E+03  0.7561462E-02  0.1106367E+00
         22   -1    0    0    0    0  0.00000000000E+00  0.00000000000E+00  0.58209267365E+03  0.58209267365E+03  0.00000000000E+00 0. -1.
         22   -1    0    0    0    0 -0.00000000000E+00 -0.00000000000E+00 -0.15572532726E+04  0.15572532726E+04  0.00000000000E+00 0. -1.
         24    2    1    2    0    0  0.99388629643E+01  0.64372314330E+02 -0.14658262925E+04  0.14695558933E+04  0.81885455311E+02 0.  0.
         25    2    1    2    0    0 -0.81345749945E+01 -0.67455238156E+02 -0.27964762891E+02  0.14507209973E+03  0.12508999037E+03 0.  0.
        -24    2    1    2    0    0 -0.18042879697E+01  0.30829238260E+01  0.51863045643E+03  0.52471795326E+03  0.79615452399E+02 0.  0.
        -11    1    3    3    0    0  0.28792132032E+02  0.96813971794E+01 -0.18949123077E+03  0.19191050742E+03  0.00000000000E+00 0.  1.
         12    1    3    3    0    0 -0.18853269068E+02  0.54690917151E+02 -0.12763350617E+04  0.12776453859E+04  0.00000000000E+00 0. -1.
         13    1    5    5    0    0  0.97185559817E+01  0.39059781448E+02  0.32056164939E+03  0.32307876427E+03  0.00000000000E+00 0. -1.
        -14    1    5    5    0    0 -0.11522843951E+02 -0.35976857622E+02  0.19806880704E+03  0.20163918899E+03  0.00000000000E+00 0.  1.
          5    1    4    4  501    0 -0.54571925680E+02 -0.75134919852E+02 -0.65318741907E+01  0.93185240431E+02  0.41800000000E+01 0. -1.
         -5    1    4    4    0  501  0.46437350686E+02  0.76796816959E+01 -0.21432888700E+02  0.51886859297E+02  0.41800000000E+01 0. -1.
</event>
<event>
11    1  0.8551154E-009  0.1410114E+03  0.7561462E-02  0.1106434E+00
         22   -1    0    0    0    0  0.00000000000E+00  0.00000000000E+00  0.19053161450E+03  0.19053161450E+03  0.00000000000E+00 0.  1.
         22   -1    0    0    0    0 -0.00000000000E+00 -0.00000000000E+00 -0.66134277882E+03  0.66134277882E+03  0.00000000000E+00 0.  1.
        -24    2    1    2    0    0  0.32286459236E+02  0.45318587796E+02 -0.51567958267E+03  0.52566553215E+03  0.85455426181E+02 0.  0.
         25    2    1    2    0    0  0.49193361372E+01 -0.94422883232E+02 -0.63875961045E+02  0.16931485461E+03  0.12508997100E+03 0.  0.
         24    2    1    2    0    0 -0.37205795374E+02  0.49104295436E+02  0.10874437940E+03  0.15689400657E+03  0.94841373916E+02 0.  0.
        -13    1    5    5    0    0 -0.44038290755E+02 -0.16569401321E+02  0.44025892147E+02  0.64437530152E+02  0.00000000000E+00 0.  1.
         14    1    5    5    0    0  0.68324953819E+01  0.65673696757E+02  0.64718487249E+02  0.92456476413E+02  0.00000000000E+00 0. -1.
         11    1    3    3    0    0 -0.26902346171E+02 -0.27057747229E+00 -0.15688441333E+03  0.15917452242E+03  0.00000000000E+00 0. -1.
        -12    1    3    3    0    0  0.59188805407E+02  0.45589165268E+02 -0.35879516934E+03  0.36649100973E+03  0.00000000000E+00 0.  1.
          5    1    4    4  501    0  0.21453867349E+02 -0.12218593612E+03 -0.52966257954E+02  0.13495394878E+03  0.41800000000E+01 0. -1.
         -5    1    4    4    0  501 -0.16534531212E+02  0.27763052885E+02 -0.10909703091E+02  0.34360905830E+02  0.41800000000E+01 0. -1.
</event>
<event>
11    1  0.8551154E-009  0.1330825E+03  0.7561462E-02  0.1115539E+00
         22   -1    0    0    0    0  0.00000000000E+00  0.00000000000E+00  0.31688959569E+03  0.31688959569E+03  0.00000000000E+00 0. -1.
         22   -1    0    0    0    0 -0.00000000000E+00 -0.00000000000E+00 -0.27664019529E+04  0.27664019529E+04  0.00000000000E+00 0.  1.
         24    2    1    2    0    0 -0.40155058000E+02 -0.21425008889E+02 -0.27069324890E+04  0.27085569348E+04  0.82010422263E+02 0.  0.
         25    2    1    2    0    0  0.41946531903E+02 -0.33093015823E+01  0.35524110409E+02  0.13667636186E+03  0.12509197598E+03 0.  0.
        -24    2    1    2    0    0 -0.17914739029E+01  0.24734310472E+02  0.22189602134E+03  0.23805825198E+03  0.82576579957E+02 0.  0.
        -13    1    3    3    0    0 -0.62288082864E+02  0.85763592914E+00 -0.17419804880E+04  0.17430939623E+04  0.00000000000E+00 0.  1.
         14    1    3    3    0    0  0.22133024864E+02 -0.22282644818E+02 -0.96495200100E+03  0.96546297251E+03  0.00000000000E+00 0. -1.
         11    1    5    5    0    0  0.75560174599E+01  0.49341970056E+02  0.19126011109E+03  0.19766677390E+03  0.00000000000E+00 0. -1.
        -12    1    5    5    0    0 -0.93474913629E+01 -0.24607659584E+02  0.30635910243E+02  0.40391478079E+02  0.00000000000E+00 0.  1.
          5    1    4    4  501    0 -0.32932856647E+02  0.25075820708E+02  0.38147743976E+02  0.56445483447E+02  0.41800000000E+01 0. -1.
         -5    1    4    4    0  501  0.74879388550E+02 -0.28385122290E+02 -0.26236335671E+01  0.80230878408E+02  0.41800000000E+01 0. -1.
</event>
<event>
11    1  0.8551154E-009  0.1519923E+03  0.7561462E-02  0.1094860E+00
         22   -1    0    0    0    0  0.00000000000E+00  0.00000000000E+00  0.15305005800E+03  0.15305005800E+03  0.00000000000E+00 0. -1.
         22   -1    0    0    0    0 -0.00000000000E+00 -0.00000000000E+00 -0.12523135571E+04  0.12523135571E+04  0.00000000000E+00 0. -1.
        -24    2    1    2    0    0 -0.54223579906E+02 -0.69022159285E+02 -0.10753988529E+04  0.10819239948E+04  0.79828456735E+02 0.  0.
         25    2    1    2    0    0 -0.17131027251E+02  0.96213868476E+02 -0.10070631625E+03  0.18798587162E+03  0.12508535173E+03 0.  0.
         24    2    1    2    0    0  0.71354607157E+02 -0.27191709190E+02  0.76841670052E+02  0.13545374873E+03  0.81315476856E+02 0.  0.
        -13    1    5    5    0    0 -0.33395674398E+00 -0.25925464201E+02 -0.52552642458E+01  0.26454848770E+02  0.00000000000E+00 0.  1.
         14    1    5    5    0    0  0.71688563901E+02 -0.12662449892E+01  0.82096934298E+02  0.10899889996E+03  0.00000000000E+00 0. -1.
         13    1    3    3    0    0 -0.31935642186E+02 -0.28407713790E+02 -0.88270505247E+03  0.88373926760E+03  0.00000000000E+00 0. -1.
        -14    1    3    3    0    0 -0.22287937721E+02 -0.40614445496E+02 -0.19269380047E+03  0.19818472719E+03  0.00000000000E+00 0.  1.
          5    1    4    4  501    0  0.43746124491E+02  0.42713149434E+02 -0.35365800114E+01  0.61384984652E+02  0.41800000000E+01 0. -1.
         -5    1    4    4    0  501 -0.60877151742E+02  0.53500719042E+02 -0.97169736234E+02  0.12660088697E+03  0.41800000000E+01 0. -1.
</event>
<event>
11    1  0.8551154E-009  0.1723072E+03  0.7561462E-02  0.1076041E+00
         22   -1    0    0    0    0  0.00000000000E+00  0.00000000000E+00  0.44168286566E+03  0.44168286566E+03  0.00000000000E+00 0. -1.
         22   -1    0    0    0    0 -0.00000000000E+00 -0.00000000000E+00 -0.12080645001E+04  0.12080645001E+04  0.00000000000E+00 0. -1.
        -24    2    1    2    0    0 -0.38068467196E+02  0.95943997666E+01 -0.99074174752E+03  0.99479179848E+03  0.80624136275E+02 0.  0.
         25    2    1    2    0    0  0.48545271563E+02 -0.12681969996E+03 -0.16033957782E+03  0.24453919728E+03  0.12510299397E+03 0.  0.
         24    2    1    2    0    0 -0.10476804367E+02  0.11722530020E+03  0.38469969093E+03  0.41041636997E+03  0.81217055486E+02 0.  0.
        -11    1    5    5    0    0  0.16250570367E+02  0.96580610670E+01  0.14623255516E+03  0.14744937900E+03  0.00000000000E+00 0.  1.
         12    1    5    5    0    0 -0.26727374734E+02  0.10756723913E+03  0.23846713578E+03  0.26296699097E+03  0.00000000000E+00 0. -1.
         13    1    3    3    0    0  0.85847723238E+01 -0.57117778774E+01 -0.68932478355E+03  0.68940190016E+03  0.00000000000E+00 0. -1.
        -14    1    3    3    0    0 -0.46653239520E+02  0.15306177644E+02 -0.30141696396E+03  0.30538989832E+03  0.00000000000E+00 0.  1.
          5    1    4    4  501    0  0.59939657908E+01  0.10169801715E+01 -0.94023064717E+02  0.94312093463E+02  0.41800000000E+01 0. -1.
         -5    1    4    4    0  501  0.42551305772E+02 -0.12783668014E+03 -0.66316513105E+02  0.15022710382E+03  0.41800000000E+01 0. -1.
</event>
<event>
11    1  0.8551154E-009  0.1523207E+03  0.7561462E-02  0.1094531E+00
         22   -1    0    0    0    0  0.00000000000E+00  0.00000000000E+00  0.26292675750E+03  0.26292675750E+03  0.00000000000E+00 0.  1.
         22   -1    0    0    0    0 -0.00000000000E+00 -0.00000000000E+00 -0.65042316446E+03  0.65042316446E+03  0.00000000000E+00 0.  1.
        -24    2    1    2    0    0 -0.81519122966E+02 -0.30018595210E+02 -0.56397832459E+03  0.57619554073E+03  0.79895350833E+02 0.  0.
         25    2    1    2    0    0  0.91280346239E+02  0.41379557290E+01  0.17865884593E+02  0.15594151560E+03  0.12509733078E+03 0.  0.
         24    2    1    2    0    0 -0.97612232726E+01  0.25880639481E+02  0.15861603303E+03  0.18121286562E+03  0.83150272109E+02 0.  0.
        -13    1    5    5    0    0 -0.88924000156E+01  0.44745161239E+02  0.15552399333E+03  0.16207688526E+03  0.00000000000E+00 0.  1.
         14    1    5    5    0    0 -0.86882325705E+00 -0.18864521758E+02  0.30920396995E+01  0.19135980364E+02  0.00000000000E+00 0. -1.
         11    1    3    3    0    0  0.76736991577E+01 -0.62978481912E+01 -0.84020675503E+01  0.13005509975E+02  0.00000000000E+00 0. -1.
        -12    1    3    3    0    0 -0.89192822124E+02 -0.23720747019E+02 -0.55557625704E+03  0.56319003076E+03  0.00000000000E+00 0.  1.
          5    1    4    4  501    0  0.44097948482E+02  0.61501439642E+02 -0.10107502525E+02  0.76463652448E+02  0.41800000000E+01 0.  1.
         -5    1    4    4    0  501  0.47182397757E+02 -0.57363483913E+02  0.27973387118E+02  0.79477863154E+02  0.41800000000E+01 0.  1.
</event>
<event>
11    1  0.8551154E-009  0.1615655E+03  0.7561462E-02  0.1085614E+00
         22   -1    0    0    0    0  0.00000000000E+00  0.00000000000E+00  0.87510498965E+02  0.87510498965E+02  0.00000000000E+00 0. -1.
         22   -1    0    0    0    0 -0.00000000000E+00 -0.00000000000E+00 -0.14132921318E+04  0.14132921318E+04  0.00000000000E+00 0. -1.
         24    2    1    2    0    0 -0.16211133438E+02 -0.22251281939E+02 -0.90940337637E+03  0.91320081526E+03  0.78506736296E+02 0.  0.
         25    2    1    2    0    0 -0.10028672809E+01  0.12070361106E+03 -0.42508410737E+03  0.45925453743E+03  0.12509142396E+03 0.  0.
        -24    2    1    2    0    0  0.17214000719E+02 -0.98452329121E+02  0.87058509290E+01  0.12834727805E+03  0.80050290517E+02 0.  0.
        -13    1    3    3    0    0  0.23785059064E+02 -0.33360510333E+02 -0.51139694939E+03  0.51303556654E+03  0.00000000000E+00 0.  1.
         14    1    3    3    0    0 -0.39996192502E+02  0.11109228394E+02 -0.39800642698E+03  0.40016524873E+03  0.00000000000E+00 0. -1.
         11    1    5    5    0    0  0.45954306965E+02 -0.41248493998E+02  0.16337758844E+02  0.63876121906E+02  0.00000000000E+00 0. -1.
        -12    1    5    5    0    0 -0.28740306246E+02 -0.57203835123E+02 -0.76319079150E+01  0.64471156142E+02  0.00000000000E+00 0.  1.
          5    1    4    4  501    0 -0.46830429664E+02  0.64027167683E+02 -0.10915222533E+03  0.13499721493E+03  0.41800000000E+01 0.  1.
         -5    1    4    4    0  501  0.45827562384E+02  0.56676443377E+02 -0.31593188203E+03  0.32425732250E+03  0.41800000000E+01 0.  1.
</event>
<event>
11    1  0.8551154E-009  0.1310570E+03  0.7561462E-02  0.1117977E+00
         22   -1    0    0    0    0  0.00000000000E+00  0.00000000000E+00  0.54597515930E+03  0.54597515930E+03  0.00000000000E+00 0. -1.
         22   -1    0    0    0    0 -0.00000000000E+00 -0.00000000000E+00 -0.38989909825E+03  0.38989909825E+03  0.00000000000E+00 0. -1.
         24    2    1    2    0    0  0.23370733948E+02 -0.31056949816E+02 -0.35790017832E+03  0.36869347450E+03  0.79571446883E+02 0.  0.
         25    2    1    2    0    0 -0.40731249249E+02  0.29710061068E+02  0.19457989983E+03  0.23674949489E+03  0.12508902239E+03 0.  0.
        -24    2    1    2    0    0  0.17360515301E+02  0.13468887485E+01  0.31939633954E+03  0.33043128817E+03  0.82871061803E+02 0.  0.
        -11    1    3    3    0    0 -0.52984651903E+01  0.17455802232E+02 -0.24396233607E+02  0.30462353473E+02  0.00000000000E+00 0.  1.
         12    1    3    3    0    0  0.28669199138E+02 -0.48512752048E+02 -0.33350394471E+03  0.33823112103E+03  0.00000000000E+00 0. -1.
         11    1    5    5    0    0  0.35395055540E+01 -0.32950747672E+02  0.24624487227E+03  0.24846492104E+03  0.00000000000E+00 0. -1.
        -12    1    5    5    0    0  0.13821009747E+02  0.34297636420E+02  0.73151467277E+02  0.81966367122E+02  0.00000000000E+00 0.  1.
          5    1    4    4  501    0 -0.83338662556E+01  0.23512033233E+02 -0.11656706087E+02  0.27849959251E+02  0.41800000000E+01 0.  1.
         -5    1    4    4    0  501 -0.32397382994E+02  0.61980278347E+01  0.20623660591E+03  0.20889953564E+03  0.41800000000E+01 0.  1.
</event>
<event>
11    1  0.8551154E-009  0.2687438E+03  0.7561462E-02  0.1014362E+00
         22   -1    0    0    0    0  0.00000000000E+00  0.00000000000E+00  0.26589237243E+03  0.26589237243E+03  0.00000000000E+00 0. -1.
         22   -1    0    0    0    0 -0.00000000000E+00 -0.00000000000E+00 -0.15558417549E+04  0.15558417549E+04  0.00000000000E+00 0.  1.
        -24    2    1    2    0    0  0.14106905986E+02  0.58508730651E+01 -0.10895757360E+04  0.10925883000E+04  0.79628332214E+02 0.  0.
         25    2    1    2    0    0  0.10119099690E+03 -0.21415732623E+03 -0.34482799020E+03  0.43665924879E+03  0.12514782657E+03 0.  0.
         24    2    1    2    0    0 -0.11529790288E+03  0.20830645316E+03  0.14445434376E+03  0.29248657852E+03  0.89421229829E+02 0.  0.
        -11    1    5    5    0    0 -0.44385906563E+02  0.14335835066E+03  0.51284189293E+02  0.15859316970E+03  0.00000000000E+00 0.  1.
         12    1    5    5    0    0 -0.70911996318E+02  0.64948102504E+02  0.93170154468E+02  0.13389340882E+03  0.00000000000E+00 0. -1.
         11    1    3    3    0    0 -0.28775954837E+02  0.25529750399E+01 -0.21200232679E+03  0.21396158493E+03  0.00000000000E+00 0. -1.
        -12    1    3    3    0    0  0.42882860823E+02  0.32978980252E+01 -0.87757340922E+03  0.87862671508E+03  0.00000000000E+00 0.  1.
          5    1    4    4  501    0  0.27428252373E+02 -0.11683316540E+03 -0.26435480459E+03  0.29035018972E+03  0.41800000000E+01 0.  1.
         -5    1    4    4    0  501  0.73762744522E+02 -0.97324160832E+02 -0.80473185615E+02  0.14630905906E+03  0.41800000000E+01 0.  1.
</event>
<event>
11    1  0.8551154E-009  0.1556301E+03  0.7561462E-02  0.1091261E+00
         22   -1    0    0    0    0  0.00000000000E+00  0.00000000000E+00  0.21002812409E+03  0.21002812409E+03  0.00000000000E+00 0.  1.
         22   -1    0    0    0    0 -0.00000000000E+00 -0.00000000000E+00 -0.59546739771E+03  0.59546739771E+03  0.00000000000E+00 0. -1.
         24    2    1    2    0    0  0.38774017325E+02 -0.55011274226E+02 -0.44498346740E+03  0.45673776619E+03  0.77906585632E+02 0.  0.
         25    2    1    2    0    0 -0.24944512424E+01  0.13296687348E+03 -0.48433181020E+02  0.18889090870E+03  0.12509032991E+03 0.  0.
        -24    2    1    2    0    0 -0.36279566082E+02 -0.77955599254E+02  0.10797737480E+03  0.15986684691E+03  0.80653660197E+02 0.  0.
        -13    1    3    3    0    0  0.22422115374E+02  0.15730086126E+02 -0.78769455566E+02  0.83395527443E+02  0.00000000000E+00 0.  1.
         14    1    3    3    0    0  0.16351901951E+02 -0.70741360352E+02 -0.36621401184E+03  0.37334223874E+03  0.00000000000E+00 0. -1.
         13    1    5    5    0    0 -0.15772221422E+02  0.87572582032E+01 -0.21927400815E+01  0.18173074833E+02  0.00000000000E+00 0. -1.
        -14    1    5    5    0    0 -0.20507344661E+02 -0.86712857457E+02  0.11017011488E+03  0.14169377208E+03  0.00000000000E+00 0.  1.
          5    1    4    4  501    0  0.49301742097E+02  0.10299340547E+03 -0.41677249288E+01  0.11433785758E+03  0.41800000000E+01 0. -1.
         -5    1    4    4    0  501 -0.51796193340E+02  0.29973468006E+02 -0.44265456091E+02  0.74553051123E+02  0.41800000000E+01 0. -1.
</event>
<event>
11    1  0.8551154E-009  0.1821796E+03  0.7561462E-02  0.1067893E+00
         22   -1    0    0    0    0  0.00000000000E+00  0.00000000000E+00  0.49174079702E+03  0.49174079702E+03  0.00000000000E+00 0. -1.
         22   -1    0    0    0    0 -0.00000000000E+00 -0.00000000000E+00 -0.20025108602E+04  0.20025108602E+04  0.00000000000E+00 0. -1.
         24    2    1    2    0    0  0.22673316266E+02  0.12315179120E+03 -0.15857973622E+04  0.15931700049E+04  0.88073535650E+02 0.  0.
         25    2    1    2    0    0 -0.35316993317E+01 -0.20367759857E+03 -0.37047203909E+03  0.44090461452E+03  0.12510120020E+03 0.  0.
        -24    2    1    2    0    0 -0.19141616934E+02  0.80525807371E+02  0.44549933813E+03  0.46017703777E+03  0.80264803379E+02 0.  0.
        -11    1    3    3    0    0 -0.12713385022E+02 -0.79485478046E+01 -0.92052871202E+02  0.93265967359E+02  0.00000000000E+00 0.  1.
         12    1    3    3    0    0  0.35386701288E+02  0.13110033901E+03 -0.14937444910E+04  0.14999040375E+04  0.00000000000E+00 0. -1.
         13    1    5    5    0    0 -0.25968070074E+02  0.87535259035E+02  0.28259828789E+03  0.29698241456E+03  0.00000000000E+00 0. -1.
        -14    1    5    5    0    0  0.68264531398E+01 -0.70094516642E+01  0.16290105024E+03  0.16319462321E+03  0.00000000000E+00 0.  1.
          5    1    4    4  501    0  0.17046660641E+02 -0.80650321691E+02 -0.26481819872E+03  0.27738279291E+03  0.41800000000E+01 0. -1.
         -5    1    4    4    0  501 -0.20578359973E+02 -0.12302727688E+03 -0.10565384037E+03  0.16352182160E+03  0.41800000000E+01 0. -1.
</event>
<event>
11    1  0.8551154E-009  0.1767748E+03  0.7561462E-02  0.1072282E+00
         22   -1    0    0    0    0  0.00000000000E+00  0.00000000000E+00  0.18479386835E+04  0.18479386835E+04  0.00000000000E+00 0.  1.
         22   -1    0    0    0    0 -0.00000000000E+00 -0.00000000000E+00 -0.23030250596E+03  0.23030250596E+03  0.00000000000E+00 0. -1.
        -24    2    1    2    0    0 -0.40247619221E+02 -0.87627417727E+02 -0.17328187650E+03  0.21381064270E+03  0.79937144179E+02 0.  0.
         25    2    1    2    0    0  0.12585192532E+03  0.16630414048E+03  0.41202027580E+03  0.47844168377E+03  0.12509981158E+03 0.  0.
         24    2    1    2    0    0 -0.85604306099E+02 -0.78676722751E+02  0.13788977783E+04  0.13859888630E+04  0.78025134211E+02 0.  0.
        -13    1    5    5    0    0 -0.60709279721E+02 -0.12878986907E+02  0.87582535916E+03  0.87802138055E+03  0.00000000000E+00 0.  1.
         14    1    5    5    0    0 -0.24895026378E+02 -0.65797735844E+02  0.50307241909E+03  0.50796748245E+03  0.00000000000E+00 0. -1.
         11    1    3    3    0    0 -0.26652496188E+02 -0.41252455758E+02 -0.15423520884E+03  0.16186605668E+03  0.00000000000E+00 0. -1.
        -12    1    3    3    0    0 -0.13595123034E+02 -0.46374961969E+02 -0.19046667654E+02  0.51944586019E+02  0.00000000000E+00 0.  1.
          5    1    4    4  501    0  0.12750854809E+03  0.10416060685E+03  0.20911026258E+03  0.26618120927E+03  0.41800000000E+01 0.  1.
         -5    1    4    4    0  501 -0.16566227684E+01  0.62143533631E+02  0.20291001322E+03  0.21226047450E+03  0.41800000000E+01 0.  1.
</event>
<event>
11    1  0.8551154E-009  0.2308721E+03  0.7561462E-02  0.1034613E+00
         22   -1    0    0    0    0  0.00000000000E+00  0.00000000000E+00  0.41907709979E+03  0.41907709979E+03  0.00000000000E+00 0.  1.
         22   -1    0    0    0    0 -0.00000000000E+00 -0.00000000000E+00 -0.63381186271E+03  0.63381186271E+03  0.00000000000E+00 0. -1.
         24    2    1    2    0    0 -0.55564035156E+02 -0.18923392989E+03 -0.54160961667E+03  0.58161927574E+03  0.77737782446E+02 0.  0.
         25    2    1    2    0    0 -0.22174273659E+02  0.17353931375E+03  0.14928973264E+03  0.26180841494E+03  0.12509448441E+03 0.  0.
        -24    2    1    2    0    0  0.77738308815E+02  0.15694616138E+02  0.17758512110E+03  0.20946127183E+03  0.77768782465E+02 0.  0.
        -13    1    3    3    0    0 -0.33629193902E+02 -0.23476752597E+02 -0.68573482644E+02  0.79902460018E+02  0.00000000000E+00 0.  1.
         14    1    3    3    0    0 -0.21934841254E+02 -0.16575717729E+03 -0.47303613402E+03  0.50171681572E+03  0.00000000000E+00 0. -1.
         13    1    5    5    0    0  0.34355627526E+02  0.35193521440E+02  0.38472227238E+02  0.62442016005E+02  0.00000000000E+00 0. -1.
        -14    1    5    5    0    0  0.43382681289E+02 -0.19498905302E+02  0.13911289386E+03  0.14701925582E+03  0.00000000000E+00 0.  1.
          5    1    4    4  501    0  0.12330268924E+01  0.13391568393E+03  0.34929481609E+02  0.13846469530E+03  0.41800000000E+01 0.  1.
         -5    1    4    4    0  501 -0.23407300551E+02  0.39623629824E+02  0.11436025103E+03  0.12334371964E+03  0.41800000000E+01 0.  1.
</event>
<event>
11    1  0.8551154E-009  0.2940758E+03  0.7561462E-02  0.1002730E+00
         22   -1    0    0    0    0  0.00000000000E+00  0.00000000000E+00  0.28172641194E+03  0.28172641194E+03  0.00000000000E+00 0. -1.
         22   -1    0    0    0    0 -0.00000000000E+00 -0.00000000000E+00 -0.18115214718E+04  0.18115214718E+04  0.00000000000E+00 0.  1.
         24    2    1    2    0    0 -0.19180725953E+03  0.19619696042E+03 -0.12755300764E+04  0.13077024318E+04  0.88461302396E+02 0.  0.
         25    2    1    2    0    0  0.18485165919E+03 -0.16437230578E+03 -0.47402511153E+03  0.54912261677E+03  0.12508977204E+03 0.  0.
        -24    2    1    2    0    0  0.69556003350E+01 -0.31824654631E+02  0.21976012807E+03  0.23642283525E+03  0.80870601072E+02 0.  0.
        -11    1    3    3    0    0 -0.18759861307E+03  0.20499960676E+03 -0.12456850834E+04  0.12763030226E+04  0.00000000000E+00 0.  1.
         12    1    3    3    0    0 -0.42086464587E+01 -0.88026463487E+01 -0.29844993008E+02  0.31399409157E+02  0.00000000000E+00 0. -1.
         13    1    5    5    0    0 -0.17230024701E+02 -0.30004931573E+02  0.20527927964E+03  0.20817481193E+03  0.00000000000E+00 0. -1.
        -14    1    5    5    0    0  0.24185625036E+02 -0.18197230579E+01  0.14480848432E+02  0.28248023324E+02  0.00000000000E+00 0.  1.
          5    1    4    4  501    0  0.99002691391E+02 -0.14103746997E+03 -0.39124165268E+03  0.42752848330E+03  0.41800000000E+01 0.  1.
         -5    1    4    4    0  501  0.85848967802E+02 -0.23334835812E+02 -0.82783458850E+02  0.12159413347E+03  0.41800000000E+01 0.  1.
</event>
<event>
11    1  0.8551154E-009  0.2152752E+03  0.7561462E-02  0.1044218E+00
         22   -1    0    0    0    0  0.00000000000E+00  0.00000000000E+00  0.12956804709E+04  0.12956804709E+04  0.00000000000E+00 0. -1.
         22   -1    0    0    0    0 -0.00000000000E+00 -0.00000000000E+00 -0.75803016951E+03  0.75803016951E+03  0.00000000000E+00 0. -1.
         24    2    1    2    0    0 -0.84872549824E+02 -0.11771448702E+02 -0.65035004781E+03  0.66086071900E+03  0.80248292936E+02 0.  0.
         25    2    1    2    0    0  0.17508133870E+03 -0.13509661242E+03  0.76864060515E+02  0.26544365055E+03  0.12509067899E+03 0.  0.
        -24    2    1    2    0    0 -0.90208788873E+02  0.14686806112E+03  0.11111362887E+04  0.11274062709E+04  0.81934086767E+02 0.  0.
        -13    1    3    3    0    0 -0.52842765955E+02  0.25437374241E+02 -0.21867345903E+03  0.22640119170E+03  0.00000000000E+00 0.  1.
         14    1    3    3    0    0 -0.32029783868E+02 -0.37208822942E+02 -0.43167658878E+03  0.43445952730E+03  0.00000000000E+00 0. -1.
         11    1    5    5    0    0 -0.88594601328E+02  0.15121020510E+03  0.11080871693E+04  0.11218603764E+04  0.00000000000E+00 0. -1.
        -12    1    5    5    0    0 -0.16141875445E+01 -0.43421439804E+01  0.30491194142E+01  0.55458944253E+01  0.00000000000E+00 0.  1.
          5    1    4    4  501    0  0.45214758836E+01 -0.71685862000E+02  0.18309237964E+02  0.74242892924E+02  0.41800000000E+01 0. -1.
         -5    1    4    4    0  501  0.17055986281E+03 -0.63410750422E+02  0.58554822551E+02  0.19120075762E+03  0.41800000000E+01 0. -1.
</event>
<event>
11    1  0.8551154E-009  0.1338457E+03  0.7561462E-02  0.1114632E+00
         22   -1    0    0    0    0  0.00000000000E+00  0.00000000000E+00  0.23262365721E+03  0.23262365721E+03  0.00000000000E+00 0.  1.
         22   -1    0    0    0    0 -0.00000000000E+00 -0.00000000000E+00 -0.55964388905E+03  0.55964388905E+03  0.00000000000E+00 0. -1.
        -24    2    1    2    0    0  0.10941485473E+02 -0.23840168503E+02 -0.39516516276E+03  0.40507941537E+03  0.85122013373E+02 0.  0.
         25    2    1    2    0    0  0.26258394681E+02  0.52779913182E+02 -0.11526046363E+03  0.18002100624E+03  0.12508943074E+03 0.  0.
         24    2    1    2    0    0 -0.37199880154E+02 -0.28939744680E+02  0.18340539456E+03  0.20716712465E+03  0.84019871922E+02 0.  0.
        -13    1    5    5    0    0 -0.61225911728E+02 -0.82752662799E+01  0.14330896099E+03  0.15605944572E+03  0.00000000000E+00 0.  1.
         14    1    5    5    0    0  0.24026031573E+02 -0.20664478400E+02  0.40096433564E+02  0.51107678927E+02  0.00000000000E+00 0. -1.
         13    1    3    3    0    0  0.79188496354E+01  0.36534442166E+01 -0.36107284507E+03  0.36117814895E+03  0.00000000000E+00 0. -1.
        -14    1    3    3    0    0  0.30226358380E+01 -0.27493612719E+02 -0.34092317691E+02  0.43901266420E+02  0.00000000000E+00 0.  1.
          5    1    4    4  501    0  0.47458279570E+02 -0.27545596374E+02 -0.43074482456E+02  0.69885131596E+02  0.41800000000E+01 0. -1.
         -5    1    4    4    0  501 -0.21199884889E+02  0.80325509556E+02 -0.72185981172E+02  0.11013587464E+03  0.41800000000E+01 0. -1.
</event>
<event>
11    1  0.8551154E-009  0.1431388E+03  0.7561462E-02  0.1104103E+00
         22   -1    0    0    0    0  0.00000000000E+00  0.00000000000E+00  0.46638838038E+03  0.46638838038E+03  0.00000000000E+00 0. -1.
         22   -1    0    0    0    0 -0.00000000000E+00 -0.00000000000E+00 -0.24573831065E+03  0.24573831065E+03  0.00000000000E+00 0. -1.
        -24    2    1    2    0    0 -0.18345473761E+02  0.17402039781E+02 -0.14985387857E+03  0.17520214908E+03  0.87179244790E+02 0.  0.
         25    2    1    2    0    0  0.81321097178E+02  0.10023839632E+02 -0.23195380915E+01  0.14955322611E+03  0.12508872442E+03 0.  0.
         24    2    1    2    0    0 -0.62975623417E+02 -0.27425879413E+02  0.37282348640E+03  0.38737131583E+03  0.79630875383E+02 0.  0.
        -11    1    5    5    0    0  0.95793332539E+01 -0.27911648885E+02  0.69787305483E+02  0.75769992581E+02  0.00000000000E+00 0.  1.
         12    1    5    5    0    0 -0.72554956671E+02  0.48576947178E+00  0.30303618091E+03  0.31160132325E+03  0.00000000000E+00 0. -1.
         11    1    3    3    0    0 -0.13577784753E+02  0.18391805060E+02 -0.16122217942E+03  0.16283490372E+03  0.00000000000E+00 0. -1.
        -12    1    3    3    0    0 -0.47676890078E+01 -0.98976527862E+00  0.11368300844E+02  0.12367245362E+02  0.00000000000E+00 0.  1.
          5    1    4    4  501    0  0.87707747636E+02  0.53078686449E+02  0.12549466588E+02  0.10336806790E+03  0.41800000000E+01 0. -1.
         -5    1    4    4    0  501 -0.63866504581E+01 -0.43054846817E+02 -0.14869004679E+02  0.46185158207E+02  0.41800000000E+01 0. -1.
</event>
<event>
11    1  0.8551154E-009  0.1422285E+03  0.7561462E-02  0.1105095E+00
         22   -1    0    0    0    0  0.00000000000E+00  0.00000000000E+00  0.55926416256E+03  0.55926416256E+03  0.00000000000E+00 0.  1.
         22   -1    0    0    0    0 -0.00000000000E+00 -0.00000000000E+00 -0.10558494832E+04  0.10558494832E+04  0.00000000000E+00 0. -1.
         24    2    1    2    0    0 -0.62195975820E+02  0.39771221020E+01 -0.55003669196E+03  0.55958316917E+03  0.81907287868E+02 0.  0.
         25    2    1    2    0    0  0.45077088256E+02  0.61792359316E+02 -0.48330655541E+03  0.50505575453E+03  0.12508336868E+03 0.  0.
        -24    2    1    2    0    0  0.17118887564E+02 -0.65769481418E+02  0.53675792675E+03  0.55047472206E+03  0.10146263698E+03 0.  0.
        -11    1    3    3    0    0 -0.71122895144E+02  0.27686196949E+02 -0.44759714258E+03  0.45405747848E+03  0.00000000000E+00 0.  1.
         12    1    3    3    0    0  0.89269193241E+01 -0.23709074847E+02 -0.10243954938E+03  0.10552569069E+03  0.00000000000E+00 0. -1.
         11    1    5    5    0    0  0.12797833687E+01  0.22561531314E+02  0.22280422522E+03  0.22394727799E+03  0.00000000000E+00 0. -1.
        -12    1    5    5    0    0  0.15839104195E+02 -0.88331012732E+02  0.31395370152E+03  0.32652744407E+03  0.00000000000E+00 0.  1.
          5    1    4    4  501    0  0.65390314429E+02  0.86995621471E+02 -0.41922220753E+03  0.43313838789E+03  0.41800000000E+01 0. -1.
         -5    1    4    4    0  501 -0.20313226173E+02 -0.25203262155E+02 -0.64084347881E+02  0.71917366638E+02  0.41800000000E+01 0. -1.
</event>
<event>
11    1  0.8551154E-009  0.1435390E+03  0.7561462E-02  0.1103670E+00
         22   -1    0    0    0    0  0.00000000000E+00  0.00000000000E+00  0.12002935699E+04  0.12002935699E+04  0.00000000000E+00 0. -1.
         22   -1    0    0    0    0 -0.00000000000E+00 -0.00000000000E+00 -0.45873814777E+03  0.45873814777E+03  0.00000000000E+00 0.  1.
         24    2    1    2    0    0 -0.69350857665E+02  0.10046194855E+02 -0.42211351830E+03  0.43534265574E+03  0.80205598850E+02 0.  0.
         25    2    1    2    0    0  0.84073156719E+02  0.20807745957E+02  0.17744832818E+03  0.23374492467E+03  0.12509005821E+03 0.  0.
        -24    2    1    2    0    0 -0.14722299054E+02 -0.30853940812E+02  0.98622061222E+03  0.98994413723E+03  0.78673929067E+02 0.  0.
        -13    1    3    3    0    0 -0.48744696470E+02  0.25568775652E+02 -0.39131176242E+03  0.39516414707E+03  0.00000000000E+00 0.  1.
         14    1    3    3    0    0 -0.20606161195E+02 -0.15522580797E+02 -0.30801755884E+02  0.40178508675E+02  0.00000000000E+00 0. -1.
         13    1    5    5    0    0  0.97486071663E+01 -0.23808959181E+02  0.89117672735E+03  0.89154801399E+03  0.00000000000E+00 0. -1.
        -14    1    5    5    0    0 -0.24470906220E+02 -0.70449816312E+01  0.95043884864E+02  0.98396123234E+02  0.00000000000E+00 0.  1.
          5    1    4    4  501    0  0.50721389776E+02 -0.49657568194E+02  0.10769700195E+03  0.12905289647E+03  0.41800000000E+01 0. -1.
         -5    1    4    4    0  501  0.33351766942E+02  0.70465314151E+02  0.69751326233E+02  0.10469202820E+03  0.41800000000E+01 0. -1.
</event>
<event>
11    1  0.8551154E-009  0.1305373E+03  0.7561462E-02  0.1118611E+00
         22   -1    0    0    0    0  0.00000000000E+00  0.00000000000E+00  0.36551303878E+04  0.36551303878E+04  0.00000000000E+00 0. -1.
         22   -1    0    0    0    0 -0.00000000000E+00 -0.00000000000E+00 -0.11824731641E+03  0.11824731641E+03  0.00000000000E+00 0.  1.
        -24    2    1    2    0    0  0.36198594252E+02 -0.65475962675E+00 -0.89027731714E+02  0.12511726337E+03  0.80110084531E+02 0.  0.
         25    2    1    2    0    0 -0.66709386683E+02  0.10256143069E+02  0.46754795006E+03  0.48867524543E+03  0.12508828540E+03 0.  0.
         24    2    1    2    0    0  0.30510792431E+02 -0.96013834426E+01  0.31583628531E+04  0.31595851954E+04  0.81851087895E+02 0.  0.
        -11    1    5    5    0    0 -0.26466417312E+01 -0.61711376424E+01  0.21045121820E+02  0.22090378101E+02  0.00000000000E+00 0.  1.
         12    1    5    5    0    0  0.33157434163E+02 -0.34302458002E+01  0.31373177312E+04  0.31374948173E+04  0.00000000000E+00 0. -1.
         13    1    3    3    0    0 -0.44646963396E+00  0.12934326838E+02 -0.84827011262E+02  0.85808612537E+02  0.00000000000E+00 0. -1.
        -14    1    3    3    0    0  0.36645063886E+02 -0.13589086465E+02 -0.42007204521E+01  0.39308650835E+02  0.00000000000E+00 0.  1.
          5    1    4    4  501    0 -0.44265402335E+02  0.56976363310E+02  0.14554830853E+03  0.16250389022E+03  0.41800000000E+01 0. -1.
         -5    1    4    4    0  501 -0.22443984348E+02 -0.46720220241E+02  0.32199964153E+03  0.32617135521E+03  0.41800000000E+01 0. -1.
</event>
<event>
11    1  0.8551154E-009  0.1762979E+03  0.7561462E-02  0.1072677E+00
         22   -1    0    0    0    0  0.00000000000E+00  0.00000000000E+00  0.11925279719E+04  0.11925279719E+04  0.00000000000E+00 0.  1.
         22   -1    0    0    0    0 -0.00000000000E+00 -0.00000000000E+00 -0.86475654969E+03  0.86475654969E+03  0.00000000000E+00 0.  1.
        -24    2    1    2    0    0  0.67364307531E+01 -0.14162794469E+02 -0.80731668169E+03  0.81151965249E+03  0.80981217511E+02 0.  0.
         25    2    1    2    0    0  0.11816258783E+03  0.13342517506E+02  0.99581241753E+02  0.19925973812E+03  0.12509036570E+03 0.  0.
         24    2    1    2    0    0 -0.12489901859E+03  0.82027696265E+00  0.10355068621E+04  0.10465051309E+04  0.85428858719E+02 0.  0.
        -11    1    5    5    0    0 -0.88156660736E+02 -0.20193314537E+02  0.90021680780E+03  0.90474840029E+03  0.00000000000E+00 0.  1.
         12    1    5    5    0    0 -0.36742357850E+02  0.21013591500E+02  0.13529005431E+03  0.14175673065E+03  0.00000000000E+00 0. -1.
         11    1    3    3    0    0 -0.11445840431E+02 -0.15477100620E+02 -0.44498188456E+02  0.48483365010E+02  0.00000000000E+00 0. -1.
        -12    1    3    3    0    0  0.18182271184E+02  0.13143061513E+01 -0.76281849324E+03  0.76303628748E+03  0.00000000000E+00 0.  1.
          5    1    4    4  501    0  0.37683451781E+02  0.65805685644E+02  0.51390740071E+02  0.91700116500E+02  0.41800000000E+01 0.  1.
         -5    1    4    4    0  501  0.80479136053E+02 -0.52463168138E+02  0.48190501682E+02  0.10755962162E+03  0.41800000000E+01 0.  1.
</event>
<event>
11    1  0.8551154E-009  0.1388020E+03  0.7561462E-02  0.1108904E+00
         22   -1    0    0    0    0  0.00000000000E+00  0.00000000000E+00  0.67091271017E+03  0.67091271017E+03  0.00000000000E+00 0. -1.
         22   -1    0    0    0    0 -0.00000000000E+00 -0.00000000000E+00 -0.28453089228E+04  0.28453089228E+04  0.00000000000E+00 0.  1.
        -24    2    1    2    0    0 -0.53082706538E+02  0.16837791249E+02 -0.27693956025E+04  0.27711775356E+04  0.82290010147E+02 0.  0.
         25    2    1    2    0    0 -0.97722721850E+01 -0.87144883794E+01 -0.14594523760E+02  0.12661710562E+03  0.12508977456E+03 0.  0.
         24    2    1    2    0    0  0.62854978723E+02 -0.81233028696E+01  0.60959391362E+03  0.61842699174E+03  0.82646646538E+02 0.  0.
        -13    1    5    5    0    0  0.57981837491E+02 -0.23749258033E+02  0.22715894455E+03  0.23564190380E+03  0.00000000000E+00 0.  1.
         14    1    5    5    0    0  0.48731412321E+01  0.15625955164E+02  0.38243496907E+03  0.38278508794E+03  0.00000000000E+00 0. -1.
         11    1    3    3    0    0 -0.84906160653E+01 -0.31584457832E+02 -0.75848613450E+03  0.75919094092E+03  0.00000000000E+00 0. -1.
        -12    1    3    3    0    0 -0.44592090473E+02  0.48422249081E+02 -0.20109094680E+04  0.20119865947E+04  0.00000000000E+00 0.  1.
          5    1    4    4  501    0  0.50614433164E+02 -0.27011230432E+02  0.10700037149E+02  0.58509747982E+02  0.41800000000E+01 0.  1.
         -5    1    4    4    0  501 -0.60386705349E+02  0.18296742052E+02 -0.25294560909E+02  0.68107357637E+02  0.41800000000E+01 0.  1.
</event>
<event>
11    1  0.8551154E-009  0.1418198E+03  0.7561462E-02  0.1105543E+00
         22   -1    0    0    0    0  0.00000000000E+00  0.00000000000E+00  0.19383079296E+04  0.19383079296E+04  0.00000000000E+00 0. -1.
         22   -1    0    0    0    0 -0.00000000000E+00 -0.00000000000E+00 -0.31018195983E+03  0.31018195983E+03  0.00000000000E+00 0. -1.
        -24    2    1    2    0    0  0.19491211345E+01 -0.37452976876E+02 -0.20039249397E+03  0.21909886124E+03  0.80253565705E+02 0.  0.
         25    2    1    2    0    0  0.42797491241E+02  0.86601247175E+02 -0.36076044178E+02  0.16211361317E+03  0.12509173171E+03 0.  0.
         24    2    1    2    0    0 -0.44746612376E+02 -0.49148270299E+02  0.18645945079E+04  0.18672774150E+04  0.74796082141E+02 0.  0.
        -11    1    5    5    0    0 -0.39127897447E+01  0.15841083919E+02  0.68179992584E+03  0.68199515301E+03  0.00000000000E+00 0.  1.
         12    1    5    5    0    0 -0.40833822631E+02 -0.64989354218E+02  0.11827945821E+04  0.11852822620E+04  0.00000000000E+00 0. -1.
         13    1    3    3    0    0 -0.21920969317E+02 -0.53641208495E+02 -0.11172633058E+03  0.12585976756E+03  0.00000000000E+00 0. -1.
        -14    1    3    3    0    0  0.23870090451E+02  0.16188231619E+02 -0.88666163388E+02  0.93239093684E+02  0.00000000000E+00 0.  1.
          5    1    4    4  501    0 -0.56182567311E+00  0.19055872422E+01  0.39970096860E+02  0.40237146442E+02  0.41800000000E+01 0. -1.
         -5    1    4    4    0  501  0.43359316914E+02  0.84695659932E+02 -0.76046141038E+02  0.12187646673E+03  0.41800000000E+01 0. -1.
</event>
<event>
11    1  0.8551154E-009  0.1339970E+03  0.7561462E-02  0.1114453E+00
         22   -1    0    0    0    0  0.00000000000E+00  0.00000000000E+00  0.64470155766E+03  0.64470155766E+03  0.00000000000E+00 0. -1.
         22   -1    0    0    0    0 -0.00000000000E+00 -0.00000000000E+00 -0.41943603556E+03  0.41943603556E+03  0.00000000000E+00 0. -1.
         24    2    1    2    0    0 -0.89426637070E+01  0.18309187920E+02 -0.38299682033E+03  0.39155807437E+03  0.78841382671E+02 0.  0.
         25    2    1    2    0    0  0.29342892536E+02 -0.58458728207E+02  0.15431870164E+03  0.20914051330E+03  0.12508822638E+03 0.  0.
        -24    2    1    2    0    0 -0.20400228829E+02  0.40149540287E+02  0.45394364078E+03  0.46343900556E+03  0.81747953771E+02 0.  0.
        -13    1    3    3    0    0 -0.26336371113E+02 -0.17949687798E+02 -0.83543873500E+02  0.89416858225E+02  0.00000000000E+00 0.  1.
         14    1    3    3    0    0  0.17393707406E+02  0.36258875718E+02 -0.29945294683E+03  0.30214121614E+03  0.00000000000E+00 0. -1.
         13    1    5    5    0    0 -0.42143255460E+02  0.13403700916E+02  0.37088383801E+03  0.37351109016E+03  0.00000000000E+00 0. -1.
        -14    1    5    5    0    0  0.21743026631E+02  0.26745839371E+02  0.83059802775E+02  0.89927915397E+02  0.00000000000E+00 0.  1.
          5    1    4    4  501    0 -0.43680478690E+02  0.72428998624E+00  0.70977687549E+02  0.83449465813E+02  0.41800000000E+01 0. -1.
         -5    1    4    4    0  501  0.73023371226E+02 -0.59183018193E+02  0.83341014093E+02  0.12569104748E+03  0.41800000000E+01 0. -1.
</event>
<event>
11    1  0.8551154E-009  0.1277817E+03  0.7561462E-02  0.1122025E+00
         22   -1    0    0    0    0  0.00000000000E+00  0.00000000000E+00  0.93925565958E+03  0.93925565958E+03  0.00000000000E+00 0. -1.
         22   -1    0    0    0    0 -0.00000000000E+00 -0.00000000000E+00 -0.22021860338E+03  0.22021860338E+03  0.00000000000E+00 0.  1.
         24    2    1    2    0    0 -0.44556857432E+02  0.15048490883E+02 -0.17173058205E+03  0.18938164220E+03  0.64515447531E+02 0.  0.
         25    2    1    2    0    0  0.22825164056E+02 -0.31770655938E+02  0.77066847646E+02  0.15204544709E+03  0.12509259084E+03 0.  0.
        -24    2    1    2    0    0  0.21731693376E+02  0.16722165055E+02  0.81370079060E+03  0.81804717366E+03  0.79626028454E+02 0.  0.
        -11    1    3    3    0    0 -0.43633734695E+02  0.34588551069E+02 -0.15071163824E+03  0.16066819402E+03  0.00000000000E+00 0.  1.
         12    1    3    3    0    0 -0.92312273627E+00 -0.19540060187E+02 -0.21018943810E+02  0.28713448183E+02  0.00000000000E+00 0. -1.
         11    1    5    5    0    0 -0.24401644408E+02  0.22536877392E+02  0.47638059051E+03  0.47753724264E+03  0.00000000000E+00 0. -1.
        -12    1    5    5    0    0  0.46133337784E+02 -0.58147123370E+01  0.33732020009E+03  0.34050993102E+03  0.00000000000E+00 0.  1.
          5    1    4    4  501    0 -0.14343550206E+02 -0.70854152690E+02  0.63408938886E+02  0.96250788655E+02  0.41800000000E+01 0. -1.
         -5    1    4    4    0  501  0.37168714262E+02  0.39083496753E+02  0.13657908760E+02  0.55794658436E+02  0.41800000000E+01 0. -1.
</event>
<event>
11    1  0.8551154E-009  0.1759847E+03  0.7561462E-02  0.1072938E+00
         22   -1    0    0    0    0  0.00000000000E+00  0.00000000000E+00  0.15330112010E+04  0.15330112010E+04  0.00000000000E+00 0.  1.
         22   -1    0    0    0    0 -0.00000000000E+00 -0.00000000000E+00 -0.32992517617E+03  0.32992517617E+03  0.00000000000E+00 0.  1.
        -24    2    1    2    0    0  0.42191077176E+02 -0.11664791467E+03 -0.30057075008E+03  0.33496440617E+03  0.80445973213E+02 0.  0.
         25    2    1    2    0    0 -0.11926753216E+02  0.11578275382E+03  0.73093747262E+03  0.75064193294E+03  0.12508328863E+03 0.  0.
         24    2    1    2    0    0 -0.30264323960E+02  0.86516085294E+00  0.77271930225E+03  0.77733003802E+03  0.78931553403E+02 0.  0.
        -13    1    5    5    0    0 -0.25375097359E+02 -0.35486540176E+02  0.53757259883E+03  0.53933986420E+03  0.00000000000E+00 0.  1.
         14    1    5    5    0    0 -0.48892266009E+01  0.36351701029E+02  0.23514670343E+03  0.23799017382E+03  0.00000000000E+00 0. -1.
         11    1    3    3    0    0  0.18744225969E+02 -0.38857429118E+02 -0.30231389868E+02  0.52680003210E+02  0.00000000000E+00 0. -1.
        -12    1    3    3    0    0  0.23446851207E+02 -0.77790485553E+02 -0.27033936021E+03  0.28228440296E+03  0.00000000000E+00 0.  1.
          5    1    4    4  501    0 -0.21776286675E+02 -0.22668324994E+02  0.15361223529E+03  0.15685104670E+03  0.41800000000E+01 0.  1.
         -5    1    4    4    0  501  0.98495334590E+01  0.13845107881E+03  0.57732523732E+03  0.59379088624E+03  0.41800000000E+01 0.  1.
</event>
<event>
11    1  0.8551154E-009  0.1551464E+03  0.7561462E-02  0.1091733E+00
         22   -1    0    0    0    0  0.00000000000E+00  0.00000000000E+00  0.49535177004E+03  0.49535177004E+03  0.00000000000E+00 0. -1.
         22   -1    0    0    0    0 -0.00000000000E+00 -0.00000000000E+00 -0.51885815905E+03  0.51885815905E+03  0.00000000000E+00 0. -1.
        -24    2    1    2    0    0  0.17342160096E+02  0.88816322188E+02 -0.41621921181E+03  0.43337133482E+03  0.79894880677E+02 0.  0.
         25    2    1    2    0    0 -0.27731514379E+02 -0.99204201974E+02 -0.16556548000E+02  0.16288698021E+03  0.12509012136E+03 0.  0.
         24    2    1    2    0    0  0.10389354284E+02  0.10387879787E+02  0.40926937080E+03  0.41795161407E+03  0.83464286350E+02 0.  0.
        -11    1    5    5    0    0  0.18645173349E+02  0.44244108523E+02  0.19239395325E+03  0.19829426839E+03  0.00000000000E+00 0.  1.
         12    1    5    5    0    0 -0.82558190653E+01 -0.33856228737E+02  0.21687541755E+03  0.21965734568E+03  0.00000000000E+00 0. -1.
         13    1    3    3    0    0 -0.14769794893E+02  0.67482575971E+02 -0.16011133278E+03  0.17437799111E+03  0.00000000000E+00 0. -1.
        -14    1    3    3    0    0  0.32111954989E+02  0.21333746217E+02 -0.25610787904E+03  0.25899334371E+03  0.00000000000E+00 0.  1.
          5    1    4    4  501    0 -0.44193130109E+02 -0.11551950842E+03  0.13737998779E+02  0.12451503758E+03  0.41800000000E+01 0.  1.
         -5    1    4    4    0  501  0.16461615730E+02  0.16315306441E+02 -0.30294546778E+02  0.38371942630E+02  0.41800000000E+01 0.  1.
</event>
<event>
11    1  0.8551154E-009  0.2902110E+03  0.7561462E-02  0.1004421E+00
         22   -1    0    0    0    0  0.00000000000E+00  0.00000000000E+00  0.12852371551E+04  0.12852371551E+04  0.00000000000E+00 0. -1.
         22   -1    0    0    0    0 -0.00000000000E+00 -0.00000000000E+00 -0.34339059285E+03  0.34339059285E+03  0.00000000000E+00 0.  1.
        -24    2    1    2    0    0  0.14235804854E+03  0.11404461699E+03 -0.21093083615E+03  0.29027231735E+03  0.80586673404E+02 0.  0.
         25    2    1    2    0    0  0.14905795888E+03 -0.13246619523E+03  0.12426241044E+03  0.26618559461E+03  0.12509219059E+03 0.  0.
         24    2    1    2    0    0 -0.29141600742E+03  0.18421578237E+02  0.10285149880E+04  0.10721698360E+04  0.80264766920E+02 0.  0.
        -13    1    5    5    0    0 -0.14517580802E+02 -0.15244195387E+01  0.13530721726E+02  0.19903879966E+02  0.00000000000E+00 0.  1.
         14    1    5    5    0    0 -0.27689842662E+03  0.19945997776E+02  0.10149842662E+04  0.10522659560E+04  0.00000000000E+00 0. -1.
         13    1    3    3    0    0  0.49873542838E+01  0.25908989390E+02 -0.39442168869E+01  0.26677823764E+02  0.00000000000E+00 0. -1.
        -14    1    3    3    0    0  0.13737069426E+03  0.88135627605E+02 -0.20698661926E+03  0.26359449359E+03  0.00000000000E+00 0.  1.
          5    1    4    4  501    0  0.71796126480E+01 -0.51841077944E+02  0.82329568829E+02  0.97645657884E+02  0.41800000000E+01 0. -1.
         -5    1    4    4    0  501  0.14187834623E+03 -0.80625117288E+02  0.41932841612E+02  0.16853993673E+03  0.41800000000E+01 0. -1.
</event>
<event>
11    1  0.8551154E-009  0.2705371E+03  0.7561462E-02  0.1013494E+00
         22   -1    0    0    0    0  0.00000000000E+00  0.00000000000E+00  0.61941778656E+03  0.61941778656E+03  0.00000000000E+00 0. -1.
         22   -1    0    0    0    0 -0.00000000000E+00 -0.00000000000E+00 -0.10589399939E+04  0.10589399939E+04  0.00000000000E+00 0.  1.
         24    2    1    2    0    0  0.18217376259E+03 -0.65367484485E+02 -0.42485001863E+03  0.47348769053E+03  0.78948508237E+02 0.  0.
         25    2    1    2    0    0 -0.39969252365E+03 -0.17255426170E+02 -0.50455569452E+03  0.65595467134E+03  0.12509284069E+03 0.  0.
        -24    2    1    2    0    0  0.21751876106E+03  0.82622910655E+02  0.48988350582E+03  0.54891541856E+03  0.84742732314E+02 0.  0.
        -11    1    3    3    0    0  0.12244680036E+03 -0.36472425013E+01 -0.26774524908E+03  0.29443851599E+03  0.00000000000E+00 0.  1.
         12    1    3    3    0    0  0.59726962234E+02 -0.61720241984E+02 -0.15710476955E+03  0.17904917454E+03  0.00000000000E+00 0. -1.
         11    1    5    5    0    0  0.99365757879E+02 -0.63461663019E+01  0.20686866587E+03  0.22958325851E+03  0.00000000000E+00 0. -1.
        -12    1    5    5    0    0  0.11815300318E+03  0.88969076956E+02  0.28301483995E+03  0.31933216005E+03  0.00000000000E+00 0.  1.
          5    1    4    4  501    0 -0.26165991191E+03  0.22916322342E+02 -0.39835052843E+03  0.47717049703E+03  0.41800000000E+01 0. -1.
         -5    1    4    4    0  501 -0.13803261174E+03 -0.40171748511E+02 -0.10620516609E+03  0.17878417432E+03  0.41800000000E+01 0. -1.
</event>
<event>
11    1  0.8551154E-009  0.1255986E+03  0.7561462E-02  0.1124798E+00
         22   -1    0    0    0    0  0.00000000000E+00  0.00000000000E+00  0.29322763264E+03  0.29322763264E+03  0.00000000000E+00 0. -1.
         22   -1    0    0    0    0 -0.00000000000E+00 -0.00000000000E+00 -0.26397776322E+03  0.26397776322E+03  0.00000000000E+00 0. -1.
         24    2    1    2    0    0 -0.16814457792E+02  0.36653010172E+01 -0.13022794459E+03  0.15430415269E+03  0.80958591646E+02 0.  0.
         25    2    1    2    0    0 -0.44594472030E+01  0.57401625023E+01 -0.80680920936E+02  0.14902590694E+03  0.12508586571E+03 0.  0.
        -24    2    1    2    0    0  0.21273904995E+02 -0.94054635195E+01  0.24015873495E+03  0.25387533623E+03  0.78964717425E+02 0.  0.
        -13    1    3    3    0    0 -0.38448694886E+02  0.73430150796E+01 -0.24180492241E+02  0.46009979504E+02  0.00000000000E+00 0.  1.
         14    1    3    3    0    0  0.21634237094E+02 -0.36777140624E+01 -0.10604745235E+03  0.10829417318E+03  0.00000000000E+00 0. -1.
         13    1    5    5    0    0 -0.80112281849E+01 -0.82212528335E+01  0.21483502104E+03  0.21514147680E+03  0.00000000000E+00 0. -1.
        -14    1    5    5    0    0  0.29285133180E+02 -0.11842106860E+01  0.25323713905E+02  0.38733859429E+02  0.00000000000E+00 0.  1.
          5    1    4    4  501    0 -0.61742287087E+02  0.21713207380E+02 -0.45227949713E+02  0.79665633900E+02  0.41800000000E+01 0.  1.
         -5    1    4    4    0  501  0.57282839884E+02 -0.15973044878E+02 -0.35452971224E+02  0.69360273042E+02  0.41800000000E+01 0.  1.
</event>
<event>
11    1  0.8551154E-009  0.1664603E+03  0.7561462E-02  0.1081154E+00
         22   -1    0    0    0    0  0.00000000000E+00  0.00000000000E+00  0.72160418362E+03  0.72160418362E+03  0.00000000000E+00 0.  1.
         22   -1    0    0    0    0 -0.00000000000E+00 -0.00000000000E+00 -0.15163783985E+03  0.15163783985E+03  0.00000000000E+00 0. -1.
         24    2    1    2    0    0 -0.12147915585E+02  0.53165930611E+02 -0.90050844626E+02  0.13342275125E+03  0.81965162743E+02 0.  0.
         25    2    1    2    0    0  0.11371122865E+03 -0.53783925901E+01  0.23883910842E+03  0.29265900319E+03  0.12508397901E+03 0.  0.
        -24    2    1    2    0    0 -0.10156331307E+03 -0.47787538021E+02  0.42117807997E+03  0.44716026903E+03  0.99812703597E+02 0.  0.
        -13    1    3    3    0    0  0.11344231650E+02  0.51322685622E+02 -0.14853812570E+02  0.54620009145E+02  0.00000000000E+00 0.  1.
         14    1    3    3    0    0 -0.23492147236E+02  0.18432449897E+01 -0.75197032056E+02  0.78802742109E+02  0.00000000000E+00 0. -1.
         11    1    5    5    0    0 -0.67529783847E+02 -0.63538324126E+02  0.17409267126E+03  0.19724514829E+03  0.00000000000E+00 0. -1.
        -12    1    5    5    0    0 -0.34033529219E+02  0.15750786105E+02  0.24708540872E+03  0.24991512074E+03  0.00000000000E+00 0.  1.
          5    1    4    4  501    0 -0.11813780296E+02 -0.32427124609E+02  0.23684961918E+02  0.42065825040E+02  0.41800000000E+01 0.  1.
         -5    1    4    4    0  501  0.12552500895E+03  0.27048732019E+02  0.21515414651E+03  0.25059317815E+03  0.41800000000E+01 0.  1.
</event>
<event>
11    1  0.8551154E-009  0.1429421E+03  0.7561462E-02  0.1104317E+00
         22   -1    0    0    0    0  0.00000000000E+00  0.00000000000E+00  0.55069747330E+03  0.55069747330E+03  0.00000000000E+00 0.  1.
         22   -1    0    0    0    0 -0.00000000000E+00 -0.00000000000E+00 -0.16368652865E+03  0.16368652865E+03  0.00000000000E+00 0. -1.
        -24    2    1    2    0    0  0.61869307037E+02  0.23617474412E+02 -0.10198373248E+03  0.14551345956E+03  0.79924270220E+02 0.  0.
         25    2    1    2    0    0 -0.89445056870E+02 -0.26535680071E+02  0.14172577581E+03  0.21080353155E+03  0.12508945947E+03 0.  0.
         24    2    1    2    0    0  0.27575749833E+02  0.29182056586E+01  0.34726890132E+03  0.35806701084E+03  0.82748755457E+02 0.  0.
        -11    1    5    5    0    0  0.10926883803E+02 -0.13955623487E+02  0.32519020231E+03  0.32567287866E+03  0.00000000000E+00 0.  1.
         12    1    5    5    0    0  0.16648866029E+02  0.16873829146E+02  0.22078699008E+02  0.32394132185E+02  0.00000000000E+00 0. -1.
         13    1    3    3    0    0  0.64360388745E+02  0.11336050276E+02 -0.11186475626E+03  0.12955496659E+03  0.00000000000E+00 0. -1.
        -14    1    3    3    0    0 -0.24910817079E+01  0.12281424136E+02  0.98810237767E+01  0.15958492966E+02  0.00000000000E+00 0.  1.
          5    1    4    4  501    0 -0.87607990573E+02 -0.65098276506E+01  0.23813725024E+02  0.91115880985E+02  0.41800000000E+01 0.  1.
         -5    1    4    4    0  501 -0.18370662975E+01 -0.20025852420E+02  0.11791205078E+03  0.11968765057E+03  0.41800000000E+01 0.  1.
</event>
<event>
11    1  0.8551154E-009  0.1712276E+03  0.7561462E-02  0.1076968E+00
         22   -1    0    0    0    0  0.00000000000E+00  0.00000000000E+00  0.11206991911E+03  0.11206991911E+03  0.00000000000E+00 0.  1.
         22   -1    0    0    0    0 -0.00000000000E+00 -0.00000000000E+00 -0.10304202782E+04  0.10304202782E+04  0.00000000000E+00 0. -1.
         24    2    1    2    0    0  0.43036723941E+02  0.59916459481E+02 -0.69188426021E+03  0.70017962298E+03  0.78137911267E+02 0.  0.
         25    2    1    2    0    0  0.29948876290E+02 -0.14564290121E+03 -0.23348112372E+03  0.30375937636E+03  0.12509010244E+03 0.  0.
        -24    2    1    2    0    0 -0.72985600230E+02  0.85726441729E+02  0.70150248306E+01  0.13855119798E+03  0.80444410838E+02 0.  0.
        -11    1    3    3    0    0  0.60318576610E+01  0.13006880562E+01 -0.15346235829E+01  0.63584719708E+01  0.00000000000E+00 0.  1.
         12    1    3    3    0    0  0.37004866280E+02  0.58615771424E+02 -0.69034963663E+03  0.69382115100E+03  0.00000000000E+00 0. -1.
         11    1    5    5    0    0 -0.46942290973E+02 -0.12016084615E+01 -0.40578135801E+01  0.47132668032E+02  0.00000000000E+00 0. -1.
        -12    1    5    5    0    0 -0.26043309257E+02  0.86928050190E+02  0.11072838411E+02  0.91418529945E+02  0.00000000000E+00 0.  1.
          5    1    4    4  501    0  0.71211775603E+02 -0.42312389774E+02 -0.97153667364E+02  0.12774099888E+03  0.41800000000E+01 0. -1.
         -5    1    4    4    0  501 -0.41262899314E+02 -0.10333051144E+03 -0.13632745636E+03  0.17601837748E+03  0.41800000000E+01 0. -1.
</event>
<event>
11    1  0.8551154E-009  0.2122020E+03  0.7561462E-02  0.1046215E+00
         22   -1    0    0    0    0  0.00000000000E+00  0.00000000000E+00  0.10997235896E+03  0.10997235896E+03  0.00000000000E+00 0. -1.
         22   -1    0    0    0    0 -0.00000000000E+00 -0.00000000000E+00 -0.10222674438E+04  0.10222674438E+04  0.00000000000E+00 0. -1.
         24    2    1    2    0    0 -0.99197881013E+02  0.45557994941E+02 -0.58327117667E+03  0.59898285502E+03  0.81605420021E+02 0.  0.
         25    2    1    2    0    0  0.15422315651E+03 -0.16930277056E+03 -0.18848294954E+03  0.32190410022E+03  0.12509283492E+03 0.  0.
        -24    2    1    2    0    0 -0.55025275497E+02  0.12374477562E+03 -0.14054095865E+03  0.21135284753E+03  0.81103111302E+02 0.  0.
        -11    1    3    3    0    0 -0.21360576165E+02  0.53176467947E+02 -0.27868387765E+03  0.28451487592E+03  0.00000000000E+00 0.  1.
         12    1    3    3    0    0 -0.77837304848E+02 -0.76184730064E+01 -0.30458729902E+03  0.31446797910E+03  0.00000000000E+00 0. -1.
         13    1    5    5    0    0 -0.62053095236E+02  0.65919943115E+02 -0.11837937418E+03  0.14902919768E+03  0.00000000000E+00 0. -1.
        -14    1    5    5    0    0  0.70278197389E+01  0.57824832509E+02 -0.22161584473E+02  0.62323649856E+02  0.00000000000E+00 0.  1.
          5    1    4    4  501    0 -0.10563852004E+02  0.92755616528E+01 -0.52899109070E+00  0.14675941016E+02  0.41800000000E+01 0.  1.
         -5    1    4    4    0  501  0.16478700851E+03 -0.17857833222E+03 -0.18795395845E+03  0.30722815921E+03  0.41800000000E+01 0.  1.
</event>
<event>
11    1  0.8551154E-009  0.1375713E+03  0.7561462E-02  0.1110301E+00
         22   -1    0    0    0    0  0.00000000000E+00  0.00000000000E+00  0.63239902305E+03  0.63239902305E+03  0.00000000000E+00 0. -1.
         22   -1    0    0    0    0 -0.00000000000E+00 -0.00000000000E+00 -0.27514457763E+03  0.27514457763E+03  0.00000000000E+00 0.  1.
         24    2    1    2    0    0 -0.15505022112E+02  0.28398478745E+02 -0.12956348502E+03  0.15654659340E+03  0.81690023567E+02 0.  0.
         25    2    1    2    0    0  0.48339158330E+02 -0.74034734511E+02 -0.81908926752E+02  0.17370630385E+03  0.12508793536E+03 0.  0.
        -24    2    1    2    0    0 -0.32834136218E+02  0.45636255766E+02  0.56872685718E+03  0.57729070343E+03  0.81569417315E+02 0.  0.
        -13    1    3    3    0    0 -0.19764265324E+02  0.49750497679E+02 -0.47250454356E+02  0.71402686504E+02  0.00000000000E+00 0.  1.
         14    1    3    3    0    0  0.42592432116E+01 -0.21352018934E+02 -0.82313030662E+02  0.85143906899E+02  0.00000000000E+00 0. -1.
         13    1    5    5    0    0 -0.45415061274E+02  0.31560747556E+02  0.54056412551E+03  0.54338585036E+03  0.00000000000E+00 0. -1.
        -14    1    5    5    0    0  0.12580925056E+02  0.14075508210E+02  0.28162731673E+02  0.33904853073E+02  0.00000000000E+00 0.  1.
          5    1    4    4  501    0  0.51226881439E+01 -0.10155915212E+03 -0.54658602779E+02  0.11552289198E+03  0.41800000000E+01 0.  1.
         -5    1    4    4    0  501  0.43216470186E+02  0.27524417609E+02 -0.27250323973E+02  0.58183411869E+02  0.41800000000E+01 0.  1.
</event>
<event>
11    1  0.8551154E-009  0.1382973E+03  0.7561462E-02  0.1109475E+00
         22   -1    0    0    0    0  0.00000000000E+00  0.00000000000E+00  0.91708378531E+03  0.91708378531E+03  0.00000000000E+00 0. -1.
         22   -1    0    0    0    0 -0.00000000000E+00 -0.00000000000E+00 -0.55119563268E+03  0.55119563268E+03  0.00000000000E+00 0.  1.
         24    2    1    2    0    0  0.41083073428E+02  0.20507352242E+01 -0.53068774317E+03  0.53801068361E+03  0.78319796262E+02 0.  0.
         25    2    1    2    0    0 -0.40188336365E+02 -0.59197738953E+02  0.43465222317E+03  0.45791896271E+03  0.12509095340E+03 0.  0.
        -24    2    1    2    0    0 -0.89473706270E+00  0.57147003728E+02  0.46192367263E+03  0.47234977167E+03  0.80462704880E+02 0.  0.
        -13    1    3    3    0    0  0.58101287832E+02  0.11998718001E+02 -0.47953689047E+03  0.48319287888E+03  0.00000000000E+00 0.  1.
         14    1    3    3    0    0 -0.17018214404E+02 -0.99479827763E+01 -0.51150852708E+02  0.54817804731E+02  0.00000000000E+00 0. -1.
         11    1    5    5    0    0 -0.21619371565E+02  0.55919182308E+02  0.43070820653E+03  0.43486079537E+03  0.00000000000E+00 0. -1.
        -12    1    5    5    0    0  0.20724634502E+02  0.12278214205E+01  0.31215466100E+02  0.37488976307E+02  0.00000000000E+00 0.  1.
          5    1    4    4  501    0 -0.29280805476E+02  0.36360260869E+02  0.16821729017E+03  0.17462520795E+03  0.41800000000E+01 0.  1.
         -5    1    4    4    0  501 -0.10907530889E+02 -0.95557999822E+02  0.26643493300E+03  0.28329375476E+03  0.41800000000E+01 0.  1.
</event>
<event>
11    1  0.8551154E-009  0.3857450E+03  0.7561462E-02  0.9692780E-01
         22   -1    0    0    0    0  0.00000000000E+00  0.00000000000E+00  0.33537415668E+03  0.33537415668E+03  0.00000000000E+00 0.  1.
         22   -1    0    0    0    0 -0.00000000000E+00 -0.00000000000E+00 -0.12466844447E+04  0.12466844447E+04  0.00000000000E+00 0.  1.
         24    2    1    2    0    0 -0.63352817994E+02 -0.35539750897E+03 -0.99347551723E+03  0.10600157214E+04  0.79490612228E+02 0.  0.
         25    2    1    2    0    0  0.18707800832E+02  0.39585998795E+03  0.66029588345E+02  0.42078803464E+03  0.12509017420E+03 0.  0.
        -24    2    1    2    0    0  0.44645017163E+02 -0.40462478982E+02  0.16135640849E+02  0.10125484532E+03  0.79760861534E+02 0.  0.
        -11    1    3    3    0    0 -0.31859472511E+02 -0.32261861548E+03 -0.86972211544E+03  0.92817797600E+03  0.00000000000E+00 0.  1.
         12    1    3    3    0    0 -0.31493345484E+02 -0.32778893487E+02 -0.12375340179E+03  0.13183774544E+03  0.00000000000E+00 0. -1.
         13    1    5    5    0    0  0.31824567495E+02  0.15088048019E+02  0.25497243298E+02  0.43480589980E+02  0.00000000000E+00 0. -1.
        -14    1    5    5    0    0  0.12820449668E+02 -0.55550527001E+02 -0.93616024484E+01  0.57774255341E+02  0.00000000000E+00 0.  1.
          5    1    4    4  501    0 -0.15608941655E+02  0.10335590114E+02 -0.16166470076E+02  0.25085665973E+02  0.41800000000E+01 0. -1.
         -5    1    4    4    0  501  0.34316742486E+02  0.38552439784E+03  0.82196058421E+02  0.39570236866E+03  0.41800000000E+01 0. -1.
</event>
<event>
11    1  0.8551154E-009  0.1353204E+03  0.7561462E-02  0.1112899E+00
         22   -1    0    0    0    0  0.00000000000E+00  0.00000000000E+00  0.30115480559E+04  0.30115480559E+04  0.00000000000E+00 0.  1.
         22   -1    0    0    0    0 -0.00000000000E+00 -0.00000000000E+00 -0.39679555786E+03  0.39679555786E+03  0.00000000000E+00 0.  1.
        -24    2    1    2    0    0  0.26212935460E+02  0.17226497458E+02 -0.37272899582E+03  0.38262321672E+03  0.80558993575E+02 0.  0.
         25    2    1    2    0    0 -0.28337048488E+02  0.35039995577E+02  0.22335634428E+03  0.25993402574E+03  0.12508737586E+03 0.  0.
         24    2    1    2    0    0  0.21241130274E+01 -0.52266493034E+02  0.27641251495E+04  0.27657863712E+04  0.80312582741E+02 0.  0.
        -11    1    5    5    0    0 -0.16603878236E+02 -0.53290129322E+02  0.25990204002E+04  0.25996196967E+04  0.00000000000E+00 0.  1.
         12    1    5    5    0    0  0.18727991264E+02  0.10236362871E+01  0.16510474935E+03  0.16616667459E+03  0.00000000000E+00 0. -1.
         11    1    3    3    0    0  0.20449028849E+02 -0.30148526704E+02 -0.11923548623E+03  0.12467637154E+03  0.00000000000E+00 0. -1.
        -12    1    3    3    0    0  0.57639066111E+01  0.47375024162E+02 -0.25349350959E+03  0.25794684518E+03  0.00000000000E+00 0.  1.
          5    1    4    4  501    0  0.46584361783E+02  0.32696803549E+01  0.50946166831E+02  0.69237113510E+02  0.41800000000E+01 0. -1.
         -5    1    4    4    0  501 -0.74921410271E+02  0.31770315222E+02  0.17241017745E+03  0.19069691223E+03  0.41800000000E+01 0. -1.
</event>
<event>
11    1  0.8551154E-009  0.1414669E+03  0.7561462E-02  0.1105931E+00
         22   -1    0    0    0    0  0.00000000000E+00  0.00000000000E+00  0.15492398614E+04  0.15492398614E+04  0.00000000000E+00 0. -1.
         22   -1    0    0    0    0 -0.00000000000E+00 -0.00000000000E+00 -0.24270778293E+03  0.24270778293E+03  0.00000000000E+00 0. -1.
         24    2    1    2    0    0  0.16276049397E+02 -0.48468654804E+02 -0.59287772311E+02  0.11155491688E+03  0.79469108788E+02 0.  0.
         25    2    1    2    0    0 -0.80123477241E+02  0.31683246949E+02 -0.11824157997E+03  0.19249266743E+03  0.12509498807E+03 0.  0.
        -24    2    1    2    0    0  0.63847427844E+02  0.16785407855E+02  0.14840614307E+04  0.14879000600E+04  0.83964363935E+02 0.  0.
        -11    1    3    3    0    0 -0.25801815843E+02 -0.28948931821E+02 -0.34024027774E+01  0.38927505687E+02  0.00000000000E+00 0.  1.
         12    1    3    3    0    0  0.42077865239E+02 -0.19519722984E+02 -0.55885369533E+02  0.72627411191E+02  0.00000000000E+00 0. -1.
         13    1    5    5    0    0  0.68569658683E+02  0.31315106213E+02  0.14216044541E+04  0.14236016500E+04  0.00000000000E+00 0. -1.
        -14    1    5    5    0    0 -0.47222308392E+01 -0.14529698358E+02  0.62456976559E+02  0.64298409929E+02  0.00000000000E+00 0.  1.
          5    1    4    4  501    0 -0.48357036397E+02  0.59958039283E+02 -0.12726377846E+03  0.14881838311E+03  0.41800000000E+01 0. -1.
         -5    1    4    4    0  501 -0.31766440844E+02 -0.28274792333E+02  0.90221984919E+01  0.43674284321E+02  0.41800000000E+01 0. -1.
</event>
<event>
11    1  0.8551154E-009  0.1423702E+03  0.7561462E-02  0.1104940E+00
         22   -1    0    0    0    0  0.00000000000E+00  0.00000000000E+00  0.12061309878E+03  0.12061309878E+03  0.00000000000E+00 0.  1.
         22   -1    0    0    0    0 -0.00000000000E+00 -0.00000000000E+00 -0.12715886141E+04  0.12715886141E+04  0.00000000000E+00 0.  1.
         24    2    1    2    0    0 -0.29138148577E+02  0.46851919971E+02 -0.11048975539E+04  0.11091056753E+04  0.79200128245E+02 0.  0.
         25    2    1    2    0    0 -0.45499354440E+02 -0.31856457975E+02 -0.89265281550E+02  0.16340146566E+03  0.12508686311E+03 0.  0.
        -24    2    1    2    0    0  0.74637503017E+02 -0.14995461996E+02  0.43187320083E+02  0.11969457194E+03  0.81645729820E+02 0.  0.
        -11    1    3    3    0    0 -0.56237995981E+01 -0.93425236367E+01 -0.65635520050E+03  0.65644577773E+03  0.00000000000E+00 0.  1.
         12    1    3    3    0    0 -0.23514348979E+02  0.56194443607E+02 -0.44854235335E+03  0.45265989755E+03  0.00000000000E+00 0. -1.
         11    1    5    5    0    0  0.19438237429E+02 -0.17281945070E+02 -0.22126984161E+02  0.34148413255E+02  0.00000000000E+00 0. -1.
        -12    1    5    5    0    0  0.55199265588E+02  0.22864830743E+01  0.65314304244E+02  0.85546158681E+02  0.00000000000E+00 0.  1.
          5    1    4    4  501    0 -0.27602384852E+02  0.15782427569E+02 -0.10514595452E+03  0.10992779822E+03  0.41800000000E+01 0.  1.
         -5    1    4    4    0  501 -0.17896969588E+02 -0.47638885544E+02  0.15880672968E+02  0.53473667446E+02  0.41800000000E+01 0.  1.
</event>
<event>
11    1  0.8551154E-009  0.1777118E+03  0.7561462E-02  0.1071509E+00
         22   -1    0    0    0    0  0.00000000000E+00  0.00000000000E+00  0.24533703048E+03  0.24533703048E+03  0.00000000000E+00 0. -1.
         22   -1    0    0    0    0 -0.00000000000E+00 -0.00000000000E+00 -0.31402518070E+03  0.31402518070E+03  0.00000000000E+00 0. -1.
         24    2    1    2    0    0 -0.31028654603E+01 -0.12117203450E+03 -0.19642170671E+03  0.24454002806E+03  0.80783963370E+02 0.  0.
         25    2    1    2    0    0  0.73166231378E+01  0.15642720291E+03  0.76356962659E+02  0.21447739791E+03  0.12508863132E+03 0.  0.
        -24    2    1    2    0    0 -0.42137576775E+01 -0.35255168410E+02  0.51376593833E+02  0.10034478520E+03  0.78541956109E+02 0.  0.
        -11    1    3    3    0    0  0.22728499849E+02 -0.34834736852E+02 -0.11786426771E+03  0.12498811624E+03  0.00000000000E+00 0.  1.
         12    1    3    3    0    0 -0.25831365309E+02 -0.86337297649E+02 -0.78557439002E+02  0.11955191183E+03  0.00000000000E+00 0. -1.
         11    1    5    5    0    0 -0.36074667657E+02 -0.22718731010E+02  0.53306274613E+01  0.42964380299E+02  0.00000000000E+00 0. -1.
        -12    1    5    5    0    0  0.31860909980E+02 -0.12536437400E+02  0.46045966372E+02  0.57380404900E+02  0.00000000000E+00 0.  1.
          5    1    4    4  501    0  0.44272994519E+02  0.81500197191E+01  0.31703834406E+02  0.55218895146E+02  0.41800000000E+01 0. -1.
         -5    1    4    4    0  501 -0.36956371381E+02  0.14827718319E+03  0.44653128253E+02  0.15925850277E+03  0.41800000000E+01 0. -1.
</event>
<event>
11    1  0.8551154E-009  0.1671552E+03  0.7561462E-02  0.1080534E+00
         22   -1    0    0    0    0  0.00000000000E+00  0.00000000000E+00  0.44504387697E+03  0.44504387697E+03  0.00000000000E+00 0. -1.
         22   -1    0    0    0    0 -0.00000000000E+00 -0.00000000000E+00 -0.71741336005E+03  0.71741336005E+03  0.00000000000E+00 0. -1.
        -24    2    1    2    0    0  0.26534612393E+02 -0.29946489329E+02 -0.61868606293E+03  0.62520567140E+03  0.80677191337E+02 0.  0.
         25    2    1    2    0    0 -0.63717726394E+02 -0.77278322037E+02 -0.41456823370E+01  0.16030141778E+03  0.12508984829E+03 0.  0.
         24    2    1    2    0    0  0.37183114001E+02  0.10722481137E+03  0.35046226219E+03  0.37695014785E+03  0.79924167844E+02 0.  0.
        -11    1    5    5    0    0 -0.11317731979E+02  0.80713712755E+02  0.23940310696E+03  0.25289650473E+03  0.00000000000E+00 0.  1.
         12    1    5    5    0    0  0.48500845980E+02  0.26511098612E+02  0.11105915523E+03  0.12405364311E+03  0.00000000000E+00 0. -1.
         13    1    3    3    0    0  0.65753364104E+01 -0.21689396932E+02 -0.58335491607E+03  0.58379501805E+03  0.00000000000E+00 0. -1.
        -14    1    3    3    0    0  0.19959275982E+02 -0.82570923975E+01 -0.35331146861E+02  0.41410653353E+02  0.00000000000E+00 0.  1.
          5    1    4    4  501    0 -0.39941859008E+02 -0.74275441768E+02 -0.57164655220E+02  0.10196795358E+03  0.41800000000E+01 0. -1.
         -5    1    4    4    0  501 -0.23775867386E+02 -0.30028802689E+01  0.53018972883E+02  0.58333464199E+02  0.41800000000E+01 0. -1.
</event>
<event>
11    1  0.8551154E-009  0.1998202E+03  0.7561462E-02  0.1054651E+00
         22   -1    0    0    0    0  0.00000000000E+00  0.00000000000E+00  0.35517362537E+04  0.35517362537E+04  0.00000000000E+00 0. -1.
         22   -1    0    0    0    0 -0.00000000000E+00 -0.00000000000E+00 -0.10616247098E+04  0.10616247098E+04  0.00000000000E+00 0.  1.
        -24    2    1    2    0    0  0.59986352958E+01 -0.15552091077E+03 -0.10430688900E+04  0.10566379575E+04  0.65332430377E+02 0.  0.
         25    2    1    2    0    0 -0.22012638095E+02  0.18693014082E+03  0.11616044144E+04  0.11833850885E+04  0.12509203934E+03 0.  0.
         24    2    1    2    0    0  0.16014002800E+02 -0.31409230044E+02  0.23715760195E+04  0.23733379176E+04  0.84362709300E+02 0.  0.
        -13    1    5    5    0    0  0.11696983717E+02 -0.55487413785E+02  0.10458417232E+04  0.10473779559E+04  0.00000000000E+00 0.  1.
         14    1    5    5    0    0  0.43170190823E+01  0.24078183741E+02  0.13257342963E+04  0.13259599617E+04  0.00000000000E+00 0. -1.
         13    1    3    3    0    0  0.23231920335E+02 -0.70753548461E+02 -0.64463894378E+03  0.64892615495E+03  0.00000000000E+00 0. -1.
        -14    1    3    3    0    0 -0.17233285039E+02 -0.84767362310E+02 -0.39842994626E+03  0.40771180250E+03  0.00000000000E+00 0.  1.
          5    1    4    4  501    0  0.32126276844E+02  0.10429333496E+03  0.83584454258E+03  0.84294885322E+03  0.41800000000E+01 0.  1.
         -5    1    4    4    0  501 -0.54138914939E+02  0.82636805854E+02  0.32575987183E+03  0.34043623528E+03  0.41800000000E+01 0.  1.
</event>
<event>
11    1  0.8551154E-009  0.1770608E+03  0.7561462E-02  0.1072045E+00
         22   -1    0    0    0    0  0.00000000000E+00  0.00000000000E+00  0.95366333397E+02  0.95366333397E+02  0.00000000000E+00 0. -1.
         22   -1    0    0    0    0 -0.00000000000E+00 -0.00000000000E+00 -0.12421125550E+04  0.12421125550E+04  0.00000000000E+00 0.  1.
         24    2    1    2    0    0  0.86733030009E+02  0.82132534047E+02 -0.81900985716E+03  0.83157322781E+03  0.80427081579E+02 0.  0.
         25    2    1    2    0    0 -0.85564743081E+02 -0.12459603508E+03 -0.36042076579E+03  0.41036150609E+03  0.12509172655E+03 0.  0.
        -24    2    1    2    0    0 -0.11682869277E+01  0.42463501033E+02  0.32684401319E+02  0.95544154519E+02  0.79094257433E+02 0.  0.
        -11    1    3    3    0    0  0.62819353685E+02  0.54957196885E+02 -0.73968461729E+03  0.74437886707E+03  0.00000000000E+00 0.  1.
         12    1    3    3    0    0  0.23913676324E+02  0.27175337162E+02 -0.79325239868E+02  0.87194360743E+02  0.00000000000E+00 0. -1.
         11    1    5    5    0    0 -0.36037302567E+02  0.18100301291E+02 -0.24087862873E+01  0.40399385323E+02  0.00000000000E+00 0. -1.
        -12    1    5    5    0    0  0.34869015639E+02  0.24363199742E+02  0.35093187606E+02  0.55144769196E+02  0.00000000000E+00 0.  1.
          5    1    4    4  501    0 -0.78438586800E+02 -0.26648537725E+02 -0.24551729910E+03  0.25915048334E+03  0.41800000000E+01 0. -1.
         -5    1    4    4    0  501 -0.71261562809E+01 -0.97947497356E+02 -0.11490346669E+03  0.15121102274E+03  0.41800000000E+01 0. -1.
</event>
<event>
11    1  0.8551154E-009  0.1318500E+03  0.7561462E-02  0.1117017E+00
         22   -1    0    0    0    0  0.00000000000E+00  0.00000000000E+00  0.41032102365E+04  0.41032102365E+04  0.00000000000E+00 0. -1.
         22   -1    0    0    0    0 -0.00000000000E+00 -0.00000000000E+00 -0.37045469135E+03  0.37045469135E+03  0.00000000000E+00 0. -1.
         24    2    1    2    0    0  0.67369669327E+01  0.40256981996E+02 -0.34085865708E+03  0.35259262590E+03  0.80442056243E+02 0.  0.
         25    2    1    2    0    0  0.12570774150E+02 -0.79412717935E+02  0.21497072269E+03  0.26138972480E+03  0.12509105678E+03 0.  0.
        -24    2    1    2    0    0 -0.19307741082E+02  0.39155735939E+02  0.38586434796E+04  0.38596825772E+04  0.78192925501E+02 0.  0.
        -13    1    3    3    0    0 -0.72790946209E+01  0.35398490690E+02 -0.51840099412E+02  0.63193625222E+02  0.00000000000E+00 0.  1.
         14    1    3    3    0    0  0.14016061554E+02  0.48584913057E+01 -0.28901855767E+03  0.28939900068E+03  0.00000000000E+00 0. -1.
         11    1    5    5    0    0 -0.30534723402E+02  0.31737514679E+02  0.37429599092E+04  0.37432190052E+04  0.00000000000E+00 0. -1.
        -12    1    5    5    0    0  0.11226982319E+02  0.74182212601E+01  0.11568357035E+03  0.11646357193E+03  0.00000000000E+00 0.  1.
          5    1    4    4  501    0 -0.29604611357E+02 -0.87370342892E+02  0.89036228750E+02  0.12827677990E+03  0.41800000000E+01 0. -1.
         -5    1    4    4    0  501  0.42175385507E+02  0.79576249576E+01  0.12593449394E+03  0.13311294491E+03  0.41800000000E+01 0. -1.
</event>
<event>
11    1  0.8551154E-009  0.1495504E+03  0.7561462E-02  0.1097339E+00
         22   -1    0    0    0    0  0.00000000000E+00  0.00000000000E+00  0.25849020205E+03  0.25849020205E+03  0.00000000000E+00 0. -1.
         22   -1    0    0    0    0 -0.00000000000E+00 -0.00000000000E+00 -0.51380655009E+03  0.51380655009E+03  0.00000000000E+00 0.  1.
         24    2    1    2    0    0 -0.17829681325E+02 -0.70436758852E+02 -0.33282399923E+03  0.34974572776E+03  0.79189804228E+02 0.  0.
         25    2    1    2    0    0  0.32787884792E+02  0.14376288392E+03 -0.95509572858E+02  0.21566802023E+03  0.12509118379E+03 0.  0.
        -24    2    1    2    0    0 -0.14958203467E+02 -0.73326125066E+02  0.17301722404E+03  0.20688300415E+03  0.85235844114E+02 0.  0.
        -11    1    3    3    0    0  0.15174303889E+02 -0.38762769158E+01 -0.17061579251E+03  0.17133310735E+03  0.00000000000E+00 0.  1.
         12    1    3    3    0    0 -0.33003985214E+02 -0.66560481936E+02 -0.16220820671E+03  0.17841262041E+03  0.00000000000E+00 0. -1.
         11    1    5    5    0    0 -0.73546718433E+01  0.10377139821E+02  0.82057697558E+02  0.83037593639E+02  0.00000000000E+00 0. -1.
        -12    1    5    5    0    0 -0.76035316233E+01 -0.83703264888E+02  0.90959526485E+02  0.12384541051E+03  0.00000000000E+00 0.  1.
          5    1    4    4  501    0 -0.29580160251E+02 -0.57023509732E+01 -0.76179348950E+01  0.31352958699E+02  0.41800000000E+01 0.  1.
         -5    1    4    4    0  501  0.62368045043E+02  0.14946523489E+03 -0.87891637963E+02  0.18431506153E+03  0.41800000000E+01 0.  1.
</event>
<event>
11    1  0.8551154E-009  0.1639451E+03  0.7561462E-02  0.1083424E+00
         22   -1    0    0    0    0  0.00000000000E+00  0.00000000000E+00  0.42376769815E+03  0.42376769815E+03  0.00000000000E+00 0.  1.
         22   -1    0    0    0    0 -0.00000000000E+00 -0.00000000000E+00 -0.39004187185E+03  0.39004187185E+03  0.00000000000E+00 0.  1.
         24    2    1    2    0    0  0.92365908051E+02 -0.59812827188E+02 -0.31608167001E+03  0.34472356073E+03  0.82569219060E+02 0.  0.
         25    2    1    2    0    0 -0.38338082843E+02  0.76116959857E+02  0.59103497009E+02  0.16249061336E+03  0.12508547436E+03 0.  0.
        -24    2    1    2    0    0 -0.54027825207E+02 -0.16304132669E+02  0.29070399930E+03  0.30659539591E+03  0.79417195538E+02 0.  0.
        -13    1    3    3    0    0  0.37325854261E+02 -0.14739464214E+02 -0.22798062161E+03  0.23148571237E+03  0.00000000000E+00 0.  1.
         14    1    3    3    0    0  0.55040053790E+02 -0.45073362974E+02 -0.88101048403E+02  0.11323784836E+03  0.00000000000E+00 0. -1.
         11    1    5    5    0    0 -0.59598870484E+02 -0.12762246544E+01  0.10942549845E+03  0.12460976616E+03  0.00000000000E+00 0. -1.
        -12    1    5    5    0    0  0.55710452768E+01 -0.15027908014E+02  0.18127850085E+03  0.18198562975E+03  0.00000000000E+00 0.  1.
          5    1    4    4  501    0 -0.53944324564E+02  0.98077077565E+02  0.18418529863E+02  0.11351571670E+03  0.41800000000E+01 0.  1.
         -5    1    4    4    0  501  0.15606241721E+02 -0.21960117709E+02  0.40684967147E+02  0.48974896653E+02  0.41800000000E+01 0.  1.
</event>
<event>
11    1  0.8551154E-009  0.3841851E+03  0.7561462E-02  0.9697608E-01
         22   -1    0    0    0    0  0.00000000000E+00  0.00000000000E+00  0.41010595095E+03  0.41010595095E+03  0.00000000000E+00 0.  1.
         22   -1    0    0    0    0 -0.00000000000E+00 -0.00000000000E+00 -0.11580397912E+04  0.11580397912E+04  0.00000000000E+00 0. -1.
         24    2    1    2    0    0  0.22849111806E+03 -0.26336014324E+03 -0.65166125068E+03  0.74340880345E+03  0.80171736434E+02 0.  0.
         25    2    1    2    0    0 -0.27636078778E+03  0.28048209054E+03 -0.35792352449E+03  0.54662864025E+03  0.12509249704E+03 0.  0.
        -24    2    1    2    0    0  0.47869669718E+02 -0.17121947300E+02  0.26165093493E+03  0.27810829846E+03  0.79362129267E+02 0.  0.
        -13    1    3    3    0    0  0.12176905190E+03 -0.17279809919E+03 -0.45831054419E+03  0.50471322551E+03  0.00000000000E+00 0.  1.
         14    1    3    3    0    0  0.10672206616E+03 -0.90562044043E+02 -0.19335070649E+03  0.23869557794E+03  0.00000000000E+00 0. -1.
         11    1    5    5    0    0  0.31559868572E+02 -0.10305236255E+02  0.27000880047E+02  0.42793349038E+02  0.00000000000E+00 0. -1.
        -12    1    5    5    0    0  0.16309801146E+02 -0.68167110442E+01  0.23465005488E+03  0.23531494942E+03  0.00000000000E+00 0.  1.
          5    1    4    4  501    0 -0.25934525930E+03  0.27278974219E+03 -0.28750611292E+03  0.47365751797E+03  0.41800000000E+01 0. -1.
         -5    1    4    4    0  501 -0.17015528480E+02  0.76923483423E+01 -0.70417411579E+02  0.72971122274E+02  0.41800000000E+01 0. -1.
</event>
<event>
11    1  0.8551154E-009  0.1602048E+03  0.7561462E-02  0.1086885E+00
         22   -1    0    0    0    0  0.00000000000E+00  0.00000000000E+00  0.10485050439E+03  0.10485050439E+03  0.00000000000E+00 0.  1.
         22   -1    0    0    0    0 -0.00000000000E+00 -0.00000000000E+00 -0.21152578055E+04  0.21152578055E+04  0.00000000000E+00 0.  1.
         24    2    1    2    0    0  0.98758422324E+02  0.32621031930E+02 -0.18732518361E+04  0.18779149617E+04  0.81699475055E+02 0.  0.
         25    2    1    2    0    0 -0.60153128247E+02 -0.14036186957E+02 -0.18848711605E+03  0.23449681888E+03  0.12508377898E+03 0.  0.
        -24    2    1    2    0    0 -0.38605294076E+02 -0.18584844973E+02  0.51331651060E+02  0.10769652928E+03  0.84426529160E+02 0.  0.
        -13    1    3    3    0    0  0.62228713063E+02  0.83861647923E+01 -0.15946092358E+04  0.15958450286E+04  0.00000000000E+00 0.  1.
         14    1    3    3    0    0  0.36529709260E+02  0.24234867138E+02 -0.27864260038E+03  0.28206993315E+03  0.00000000000E+00 0. -1.
         13    1    5    5    0    0 -0.56706512226E+02 -0.76294169621E+01  0.58270207539E+01  0.57513395856E+02  0.00000000000E+00 0. -1.
        -14    1    5    5    0    0  0.18101218150E+02 -0.10955428011E+02  0.45504630306E+02  0.50183133429E+02  0.00000000000E+00 0.  1.
          5    1    4    4  501    0 -0.43682006733E+02  0.14184065857E+02 -0.31167332085E+01  0.46222200969E+02  0.41800000000E+01 0.  1.
         -5    1    4    4    0  501 -0.16471121514E+02 -0.28220252814E+02 -0.18537038284E+03  0.18827461791E+03  0.41800000000E+01 0.  1.
</event>
<event>
11    1  0.8551154E-009  0.1349659E+03  0.7561462E-02  0.1113314E+00
         22   -1    0    0    0    0  0.00000000000E+00  0.00000000000E+00  0.49615465702E+03  0.49615465702E+03  0.00000000000E+00 0.  1.
         22   -1    0    0    0    0 -0.00000000000E+00 -0.00000000000E+00 -0.97040872979E+03  0.97040872979E+03  0.00000000000E+00 0.  1.
         24    2    1    2    0    0  0.38220140877E+02 -0.17537969517E+02 -0.89356119339E+03  0.89821041574E+03  0.81006080500E+02 0.  0.
         25    2    1    2    0    0 -0.14792493699E+02 -0.29986584313E+02 -0.85901668969E+01  0.12976545279E+03  0.12508904293E+03 0.  0.
        -24    2    1    2    0    0 -0.23427647178E+02  0.47524553830E+02  0.42789728752E+03  0.43858751828E+03  0.80346030718E+02 0.  0.
        -11    1    3    3    0    0  0.34437643292E+02 -0.16498839755E+02 -0.89347110687E+03  0.89428674473E+03  0.00000000000E+00 0.  1.
         12    1    3    3    0    0  0.37824975856E+01 -0.10391297621E+01 -0.90086518929E-01  0.39236710143E+01  0.00000000000E+00 0. -1.
         13    1    5    5    0    0 -0.18666402525E+00  0.61340125202E+02  0.20284136908E+03  0.21191334742E+03  0.00000000000E+00 0. -1.
        -14    1    5    5    0    0 -0.23240983153E+02 -0.13815571371E+02  0.22505591844E+03  0.22667417086E+03  0.00000000000E+00 0.  1.
          5    1    4    4  501    0 -0.54899606892E+01 -0.78680695885E+02  0.15228504887E+01  0.78997361013E+02  0.41800000000E+01 0. -1.
         -5    1    4    4    0  501 -0.93025330101E+01  0.48694111572E+02 -0.10113017386E+02  0.50768091778E+02  0.41800000000E+01 0. -1.
</event>
<event>
11    1  0.8551154E-009  0.1399309E+03  0.7561462E-02  0.1107636E+00
         22   -1    0    0    0    0  0.00000000000E+00  0.00000000000E+00  0.24317333703E+03  0.24317333703E+03  0.00000000000E+00 0. -1.
         22   -1    0    0    0    0 -0.00000000000E+00 -0.00000000000E+00 -0.20917518463E+03  0.20917518463E+03  0.00000000000E+00 0. -1.
         24    2    1    2    0    0 -0.55021920337E+02  0.34188546841E+02 -0.83472867650E+02  0.13230806920E+03  0.79633140651E+02 0.  0.
         25    2    1    2    0    0  0.23745077950E+02 -0.63602205911E+02 -0.30743008887E+02  0.14560667150E+03  0.12508837223E+03 0.  0.
        -24    2    1    2    0    0  0.31276842386E+02  0.29413659069E+02  0.14821402894E+03  0.17443378095E+03  0.81340895956E+02 0.  0.
        -13    1    3    3    0    0 -0.24896392103E+02  0.27781022365E+02  0.59081708619E+01  0.37769326528E+02  0.00000000000E+00 0.  1.
         14    1    3    3    0    0 -0.30125528233E+02  0.64075244761E+01 -0.89381038512E+02  0.94538742675E+02  0.00000000000E+00 0. -1.
         13    1    5    5    0    0  0.60863831439E+01  0.35362261878E+02  0.14375954873E+03  0.14816997494E+03  0.00000000000E+00 0. -1.
        -14    1    5    5    0    0  0.25190459242E+02 -0.59486028088E+01  0.44544802106E+01  0.26263806011E+02  0.00000000000E+00 0.  1.
          5    1    4    4  501    0  0.40636464985E+01 -0.59259672984E+02  0.40129362228E+02  0.71805711318E+02  0.41800000000E+01 0.  1.
         -5    1    4    4    0  501  0.19681431452E+02 -0.43425329266E+01 -0.70872371115E+02  0.73800960181E+02  0.41800000000E+01 0.  1.
</event>
<event>
11    1  0.8551154E-009  0.1284598E+03  0.7561462E-02  0.1121176E+00
         22   -1    0    0    0    0  0.00000000000E+00  0.00000000000E+00  0.92730900419E+02  0.92730900419E+02  0.00000000000E+00 0. -1.
         22   -1    0    0    0    0 -0.00000000000E+00 -0.00000000000E+00 -0.92666537282E+03  0.92666537282E+03  0.00000000000E+00 0. -1.
         24    2    1    2    0    0 -0.22238559260E+02  0.80141562407E+01 -0.66226192829E+03  0.66717666613E+03  0.77298524887E+02 0.  0.
         25    2    1    2    0    0 -0.88611375327E+00  0.13098216792E+02 -0.22002767737E+03  0.25344101333E+03  0.12509124648E+03 0.  0.
        -24    2    1    2    0    0  0.23124673014E+02 -0.21112373033E+02  0.48355133263E+02  0.98778593776E+02  0.80240319531E+02 0.  0.
        -13    1    3    3    0    0  0.18709653614E+02  0.23047906440E+00 -0.48240657459E+02  0.51742296925E+02  0.00000000000E+00 0.  1.
         14    1    3    3    0    0 -0.40948212875E+02  0.77836771763E+01 -0.61402127083E+03  0.61543436921E+03  0.00000000000E+00 0. -1.
         11    1    5    5    0    0  0.75831255482E+01 -0.35683741191E+01  0.67805381044E+02  0.68321349412E+02  0.00000000000E+00 0. -1.
        -12    1    5    5    0    0  0.15541547465E+02 -0.17543998914E+02 -0.19450247781E+02  0.30457244364E+02  0.00000000000E+00 0.  1.
          5    1    4    4  501    0 -0.23188118335E+02  0.43955193006E+02 -0.20709446041E+03  0.21301487215E+03  0.41800000000E+01 0.  1.
         -5    1    4    4    0  501  0.22302004582E+02 -0.30856976215E+02 -0.12933216957E+02  0.40426141175E+02  0.41800000000E+01 0.  1.
</event>
<event>
11    1  0.8551154E-009  0.2837977E+03  0.7561462E-02  0.1007291E+00
         22   -1    0    0    0    0  0.00000000000E+00  0.00000000000E+00  0.20915344024E+04  0.20915344024E+04  0.00000000000E+00 0.  1.
         22   -1    0    0    0    0 -0.00000000000E+00 -0.00000000000E+00 -0.50960442798E+03  0.50960442798E+03  0.00000000000E+00 0.  1.
         24    2    1    2    0    0  0.24370890487E+02 -0.71684823756E+02 -0.31266417978E+03  0.33193530490E+03  0.81789382324E+02 0.  0.
         25    2    1    2    0    0 -0.13388155498E+03  0.29764143644E+03 -0.68503126190E+01  0.34958499618E+03  0.12509215532E+03 0.  0.
        -24    2    1    2    0    0  0.10951066449E+03 -0.22595661268E+03  0.19014444668E+04  0.19196185293E+04  0.79970377111E+02 0.  0.
        -13    1    3    3    0    0 -0.37802199803E+01 -0.66478611556E+02 -0.28292816491E+03  0.29065794735E+03  0.00000000000E+00 0.  1.
         14    1    3    3    0    0  0.28151110467E+02 -0.52062121998E+01 -0.29736014869E+02  0.41277357549E+02  0.00000000000E+00 0. -1.
         11    1    5    5    0    0 -0.98869892495E+01 -0.31837813087E+02  0.16979823748E+03  0.17303999639E+03  0.00000000000E+00 0. -1.
        -12    1    5    5    0    0  0.11939765374E+03 -0.19411879960E+03  0.17316462293E+04  0.17465785329E+04  0.00000000000E+00 0.  1.
          5    1    4    4  501    0  0.97130501540E+01  0.10848372868E+03  0.19061573512E+02  0.11065206151E+03  0.41800000000E+01 0.  1.
         -5    1    4    4    0  501 -0.14359460513E+03  0.18915770775E+03 -0.25911886131E+02  0.23893293467E+03  0.41800000000E+01 0.  1.
</event>
<event>
11    1  0.8551154E-009  0.6211125E+03  0.7561462E-02  0.9157383E-01
         22   -1    0    0    0    0  0.00000000000E+00  0.00000000000E+00  0.12911042470E+04  0.12911042470E+04  0.00000000000E+00 0. -1.
         22   -1    0    0    0    0 -0.00000000000E+00 -0.00000000000E+00 -0.72106357356E+03  0.72106357356E+03  0.00000000000E+00 0. -1.
         24    2    1    2    0    0 -0.51449223371E+03 -0.30354200576E+03 -0.40225704008E+03  0.72458628129E+03  0.79840747323E+02 0.  0.
         25    2    1    2    0    0  0.51798029847E+03  0.43434782822E+03  0.74273304972E+03  0.10120585391E+04  0.12509387612E+03 0.  0.
        -24    2    1    2    0    0 -0.34880647595E+01 -0.13080582246E+03  0.22956466378E+03  0.27552300019E+03  0.78042674177E+02 0.  0.
        -13    1    3    3    0    0 -0.75352410255E+02 -0.61740460349E+02 -0.97944149872E+02  0.13814096666E+03  0.00000000000E+00 0.  1.
         14    1    3    3    0    0 -0.43913982346E+03 -0.24180154541E+03 -0.30431289021E+03  0.58644531463E+03  0.00000000000E+00 0. -1.
         11    1    5    5    0    0 -0.35222213376E+02 -0.97066563904E+02  0.13259829989E+03  0.16806198641E+03  0.00000000000E+00 0. -1.
        -12    1    5    5    0    0  0.31734148616E+02 -0.33739258558E+02  0.96966363890E+02  0.10746101378E+03  0.00000000000E+00 0.  1.
          5    1    4    4  501    0  0.38822171283E+03  0.26506070558E+03  0.56002069016E+03  0.73117297664E+03  0.41800000000E+01 0.  1.
         -5    1    4    4    0  501  0.12975858564E+03  0.16928712264E+03  0.18271235956E+03  0.28088556242E+03  0.41800000000E+01 0.  1.
</event>
<event>
11    1  0.8551154E-009  0.1464201E+03  0.7561462E-02  0.1100594E+00
         22   -1    0    0    0    0  0.00000000000E+00  0.00000000000E+00  0.89562467104E+03  0.89562467104E+03  0.00000000000E+00 0.  1.
         22   -1    0    0    0    0 -0.00000000000E+00 -0.00000000000E+00 -0.11386076446E+04  0.11386076446E+04  0.00000000000E+00 0.  1.
         24    2    1    2    0    0 -0.15447111889E+02 -0.52666945211E+02 -0.10996114317E+04  0.11038695358E+04  0.79813726432E+02 0.  0.
         25    2    1    2    0    0  0.13219046200E+01 -0.28590123432E+02  0.93901136592E+02  0.15901016092E+03  0.12509062808E+03 0.  0.
        -24    2    1    2    0    0  0.14125207269E+02  0.81257068643E+02  0.76272732161E+03  0.77135261886E+03  0.80185178179E+02 0.  0.
        -11    1    3    3    0    0 -0.25328492492E+02 -0.65023976876E+02 -0.60600660003E+03  0.61001118792E+03  0.00000000000E+00 0.  1.
         12    1    3    3    0    0  0.98813806031E+01  0.12357031665E+02 -0.49360483171E+03  0.49385834791E+03  0.00000000000E+00 0. -1.
         13    1    5    5    0    0  0.28664117121E+02  0.52585047710E+02  0.23043938748E+03  0.23809479237E+03  0.00000000000E+00 0. -1.
        -14    1    5    5    0    0 -0.14538909852E+02  0.28672020933E+02  0.53228793414E+03  0.53325782649E+03  0.00000000000E+00 0.  1.
          5    1    4    4  501    0  0.35551234058E+02 -0.65417761656E+02  0.73143702124E+02  0.10445500153E+03  0.41800000000E+01 0. -1.
         -5    1    4    4    0  501 -0.34229329438E+02  0.36827638225E+02  0.20757434468E+02  0.54555159396E+02  0.41800000000E+01 0. -1.
</event>
<event>
11    1  0.8551154E-009  0.1283242E+03  0.7561462E-02  0.1121345E+00
         22   -1    0    0    0    0  0.00000000000E+00  0.00000000000E+00  0.12386118802E+04  0.12386118802E+04  0.00000000000E+00 0.  1.
         22   -1    0    0    0    0 -0.00000000000E+00 -0.00000000000E+00 -0.31828768231E+03  0.31828768231E+03  0.00000000000E+00 0. -1.
         24    2    1    2    0    0 -0.13852570382E+02 -0.21759612147E+02 -0.17539763838E+03  0.19159769626E+03  0.72663410561E+02 0.  0.
         25    2    1    2    0    0  0.15081839120E+02 -0.69591121185E+01 -0.10350556611E+03  0.16322647872E+03  0.12511430784E+03 0.  0.
        -24    2    1    2    0    0 -0.12292687371E+01  0.28718724265E+02  0.11992274024E+04  0.12020753875E+04  0.77540946895E+02 0.  0.
        -11    1    3    3    0    0  0.28769020051E+02 -0.11948741814E+02 -0.96304441222E+02  0.10121746067E+03  0.00000000000E+00 0.  1.
         12    1    3    3    0    0 -0.42621590433E+02 -0.98108703332E+01 -0.79093197158E+02  0.90380235585E+02  0.00000000000E+00 0. -1.
         13    1    5    5    0    0  0.35614767540E+02  0.49809146013E+00  0.44634151009E+03  0.44776043081E+03  0.00000000000E+00 0. -1.
        -14    1    5    5    0    0 -0.36844036277E+02  0.28220632805E+02  0.75288589231E+03  0.75431495674E+03  0.00000000000E+00 0.  1.
          5    1    4    4  501    0 -0.53142477035E+02 -0.15063850248E+02 -0.60671809696E+02  0.82155847884E+02  0.41800000000E+01 0.  1.
         -5    1    4    4    0  501  0.68224316155E+02  0.81047381292E+01 -0.42833756418E+02  0.81070630834E+02  0.41800000000E+01 0.  1.
</event>
<event>
11    1  0.8551154E-009  0.2052584E+03  0.7561462E-02  0.1050866E+00
         22   -1    0    0    0    0  0.00000000000E+00  0.00000000000E+00  0.11233324224E+04  0.11233324224E+04  0.00000000000E+00 0. -1.
         22   -1    0    0    0    0 -0.00000000000E+00 -0.00000000000E+00 -0.70983806056E+03  0.70983806056E+03  0.00000000000E+00 0.  1.
         24    2    1    2    0    0 -0.11289611311E+03  0.12009718626E+03 -0.67738204848E+03  0.70180363459E+03  0.80703379283E+02 0.  0.
         25    2    1    2    0    0  0.82346892916E+02 -0.53430540611E+02  0.37727700623E+03  0.40941526164E+03  0.12508830318E+03 0.  0.
        -24    2    1    2    0    0  0.30549220194E+02 -0.66666645646E+02  0.71359940406E+03  0.72195158670E+03  0.81315973637E+02 0.  0.
        -13    1    3    3    0    0 -0.12090502119E+03  0.12262887615E+03 -0.66429176200E+03  0.68625025354E+03  0.00000000000E+00 0.  1.
         14    1    3    3    0    0  0.80089080794E+01 -0.25316898918E+01 -0.13090286476E+02  0.15553381059E+02  0.00000000000E+00 0. -1.
         13    1    5    5    0    0  0.11987838378E+02 -0.19795794890E+02  0.55609052522E+03  0.55657187677E+03  0.00000000000E+00 0. -1.
        -14    1    5    5    0    0  0.18561381815E+02 -0.46870850756E+02  0.15750887884E+03  0.16537970994E+03  0.00000000000E+00 0.  1.
          5    1    4    4  501    0 -0.32827924697E+02 -0.18340712255E+02  0.10737915322E+03  0.11384994208E+03  0.41800000000E+01 0.  1.
         -5    1    4    4    0  501  0.11517481761E+03 -0.35089828356E+02  0.26989785301E+03  0.29556531956E+03  0.41800000000E+01 0.  1.
</event>
<event>
11    1  0.8551154E-009  0.1607109E+03  0.7561462E-02  0.1086411E+00
         22   -1    0    0    0    0  0.00000000000E+00  0.00000000000E+00  0.71254050448E+03  0.71254050448E+03  0.00000000000E+00 0. -1.
         22   -1    0    0    0    0 -0.00000000000E+00 -0.00000000000E+00 -0.11252432095E+04  0.11252432095E+04  0.00000000000E+00 0.  1.
         24    2    1    2    0    0 -0.52904101549E+02  0.36636218453E+02 -0.98574767379E+03  0.99134898418E+03  0.83266293225E+02 0.  0.
         25    2    1    2    0    0  0.14272613237E+03 -0.75666262177E+02 -0.50226898074E+02  0.21040307575E+03  0.12510228177E+03 0.  0.
        -24    2    1    2    0    0 -0.89822030817E+02  0.39030043725E+02  0.62327186681E+03  0.63603165408E+03  0.80480454124E+02 0.  0.
        -13    1    3    3    0    0 -0.50108405951E+02  0.57710387439E+02 -0.88970235487E+03  0.89297907110E+03  0.00000000000E+00 0.  1.
         14    1    3    3    0    0 -0.27956955981E+01 -0.21074168986E+02 -0.96045318919E+02  0.98369913075E+02  0.00000000000E+00 0. -1.
         11    1    5    5    0    0 -0.99114209643E+02  0.28893869887E+02  0.60139463808E+03  0.61019176738E+03  0.00000000000E+00 0. -1.
        -12    1    5    5    0    0  0.92921788255E+01  0.10136173838E+02  0.21877228730E+02  0.25839886693E+02  0.00000000000E+00 0.  1.
          5    1    4    4  501    0 -0.10325161451E+02 -0.47294663938E+02 -0.13086239811E+02  0.50320137802E+02  0.41800000000E+01 0.  1.
         -5    1    4    4    0  501  0.15305129382E+03 -0.28371598239E+02 -0.37140658263E+02  0.16008293795E+03  0.41800000000E+01 0.  1.
</event>
<event>
11    1  0.8551154E-009  0.1363714E+03  0.7561462E-02  0.1111679E+00
         22   -1    0    0    0    0  0.00000000000E+00  0.00000000000E+00  0.23705679431E+03  0.23705679431E+03  0.00000000000E+00 0. -1.
         22   -1    0    0    0    0 -0.00000000000E+00 -0.00000000000E+00 -0.66581999432E+03  0.66581999432E+03  0.00000000000E+00 0.  1.
        -24    2    1    2    0    0 -0.49754104134E+02  0.21333865949E+02 -0.43847997351E+03  0.44905020908E+03  0.80316862451E+02 0.  0.
         25    2    1    2    0    0  0.38667297558E+02 -0.46435552335E+02 -0.19109598773E+03  0.23625125651E+03  0.12508220998E+03 0.  0.
         24    2    1    2    0    0  0.11086806577E+02  0.25101686386E+02  0.20081276122E+03  0.21757532305E+03  0.79121704929E+02 0.  0.
        -11    1    5    5    0    0 -0.15673845990E+02  0.19972932149E-01  0.24668357593E+01  0.15866793177E+02  0.00000000000E+00 0.  1.
         12    1    5    5    0    0  0.26760652567E+02  0.25081713454E+02  0.19834592546E+03  0.20170852987E+03  0.00000000000E+00 0. -1.
         13    1    3    3    0    0  0.66028644764E+01 -0.17262150959E+02 -0.32702385031E+02  0.37563621521E+02  0.00000000000E+00 0. -1.
        -14    1    3    3    0    0 -0.56356968611E+02  0.38596016908E+02 -0.40577758847E+03  0.41148658756E+03  0.00000000000E+00 0.  1.
          5    1    4    4  501    0  0.72809555863E+02 -0.65944595261E+02 -0.14878335128E+03  0.17833642109E+03  0.41800000000E+01 0. -1.
         -5    1    4    4    0  501 -0.34142258305E+02  0.19509042925E+02 -0.42312636443E+02  0.57914835412E+02  0.41800000000E+01 0. -1.
</event>
<event>
11    1  0.8551154E-009  0.1412692E+03  0.7561462E-02  0.1106149E+00
         22   -1    0    0    0    0  0.00000000000E+00  0.00000000000E+00  0.92646565029E+03  0.92646565029E+03  0.00000000000E+00 0. -1.
         22   -1    0    0    0    0 -0.00000000000E+00 -0.00000000000E+00 -0.11412754062E+03  0.11412754062E+03  0.00000000000E+00 0.  1.
        -24    2    1    2    0    0 -0.37970743315E+02  0.24571367100E+02 -0.77787416455E+02  0.11109131476E+03  0.65152656335E+02 0.  0.
         25    2    1    2    0    0  0.10201804359E+01  0.41159882509E+02  0.27837425668E+03  0.30795126773E+03  0.12508628948E+03 0.  0.
         24    2    1    2    0    0  0.36950562879E+02 -0.65731249609E+02  0.61175126944E+03  0.62155060842E+03  0.79997511810E+02 0.  0.
        -13    1    5    5    0    0  0.30778112107E+02  0.11191767284E+02  0.17772494501E+03  0.18071719320E+03  0.00000000000E+00 0.  1.
         14    1    5    5    0    0  0.61724507719E+01 -0.76923016893E+02  0.43402632443E+03  0.44083341522E+03  0.00000000000E+00 0. -1.
         13    1    3    3    0    0 -0.15386629353E+02 -0.78008634017E+01  0.61674859928E+01  0.18320472595E+02  0.00000000000E+00 0. -1.
        -14    1    3    3    0    0 -0.22584113962E+02  0.32372230501E+02 -0.83954902448E+02  0.92770842166E+02  0.00000000000E+00 0.  1.
          5    1    4    4  501    0 -0.53813548006E+02  0.43711522919E+01  0.18992102184E+03  0.19749043485E+03  0.41800000000E+01 0. -1.
         -5    1    4    4    0  501  0.54833728442E+02  0.36788730217E+02  0.88453234845E+02  0.11046083288E+03  0.41800000000E+01 0. -1.
</event>
<event>
11    1  0.8551154E-009  0.1585746E+03  0.7561462E-02  0.1088426E+00
         22   -1    0    0    0    0  0.00000000000E+00  0.00000000000E+00  0.14572641457E+03  0.14572641457E+03  0.00000000000E+00 0. -1.
         22   -1    0    0    0    0 -0.00000000000E+00 -0.00000000000E+00 -0.48789832544E+03  0.48789832544E+03  0.00000000000E+00 0.  1.
         24    2    1    2    0    0  0.58797773572E+02 -0.71567496793E+02 -0.26548365921E+03  0.29267132187E+03  0.81214805067E+02 0.  0.
         25    2    1    2    0    0 -0.12635515967E+03  0.35944578160E+02 -0.12508372405E+03  0.22034293605E+03  0.12508969730E+03 0.  0.
        -24    2    1    2    0    0  0.67557386095E+02  0.35622918633E+02  0.48395472386E+02  0.12061048210E+03  0.79823391914E+02 0.  0.
        -11    1    3    3    0    0  0.41152001838E+02 -0.57351310016E+02 -0.25992531576E+03  0.26933961794E+03  0.00000000000E+00 0.  1.
         12    1    3    3    0    0  0.17645771734E+02 -0.14216186777E+02 -0.55583434508E+01  0.23331703934E+02  0.00000000000E+00 0. -1.
         11    1    5    5    0    0 -0.16561338240E+02  0.15989410645E+02  0.17330573560E+02  0.28814717715E+02  0.00000000000E+00 0. -1.
        -12    1    5    5    0    0  0.84118724335E+02  0.19633507988E+02  0.31064898827E+02  0.91795764383E+02  0.00000000000E+00 0.  1.
          5    1    4    4  501    0 -0.14475984240E+03  0.44160972600E+02 -0.81043935578E+02  0.17173000718E+03  0.41800000000E+01 0.  1.
         -5    1    4    4    0  501  0.18404682736E+02 -0.82163944402E+01 -0.44039788468E+02  0.48612928862E+02  0.41800000000E+01 0.  1.
</event>
<event>
11    1  0.8551154E-009  0.1685593E+03  0.7561462E-02  0.1079292E+00
         22   -1    0    0    0    0  0.00000000000E+00  0.00000000000E+00  0.33094921685E+04  0.33094921685E+04  0.00000000000E+00 0. -1.
         22   -1    0    0    0    0 -0.00000000000E+00 -0.00000000000E+00 -0.16599973610E+03  0.16599973610E+03  0.00000000000E+00 0.  1.
        -24    2    1    2    0    0  0.97951833621E+02  0.55864471600E+02 -0.12832951521E+03  0.19121476922E+03  0.85902401562E+02 0.  0.
         25    2    1    2    0    0 -0.98231816344E+02 -0.77326232674E+02  0.15984530576E+04  0.16082072322E+04  0.12509791520E+03 0.  0.
         24    2    1    2    0    0  0.27998272295E+00  0.21461761074E+02  0.16733688901E+04  0.16760699032E+04  0.92661710913E+02 0.  0.
        -11    1    5    5    0    0  0.32446278804E+01  0.14843075893E+02  0.41647014003E+02  0.44331910487E+02  0.00000000000E+00 0.  1.
         12    1    5    5    0    0 -0.29646451575E+01  0.66186851811E+01  0.16317218761E+04  0.16317379928E+04  0.00000000000E+00 0. -1.
         11    1    3    3    0    0 -0.85556849870E+01  0.23317186195E+02 -0.55498198898E+01  0.25449782287E+02  0.00000000000E+00 0. -1.
        -12    1    3    3    0    0  0.10650751861E+03  0.32547285404E+02 -0.12277969532E+03  0.16576498693E+03  0.00000000000E+00 0.  1.
          5    1    4    4  501    0 -0.79485544253E+02 -0.49769375508E+02  0.47153018551E+03  0.48078387112E+03  0.41800000000E+01 0. -1.
         -5    1    4    4    0  501 -0.18746272091E+02 -0.27556857166E+02  0.11269228721E+04  0.11274233611E+04  0.41800000000E+01 0. -1.
</event>
<event>
11    1  0.8551154E-009  0.2062156E+03  0.7561462E-02  0.1050213E+00
         22   -1    0    0    0    0  0.00000000000E+00  0.00000000000E+00  0.32422009212E+02  0.32422009212E+02  0.00000000000E+00 0.  1.
         22   -1    0    0    0    0 -0.00000000000E+00 -0.00000000000E+00 -0.21667561470E+04  0.21667561470E+04  0.00000000000E+00 0.  1.
        -24    2    1    2    0    0 -0.11719716801E+02  0.80508254139E+02 -0.64980642448E+03  0.65999087786E+03  0.81979502451E+02 0.  0.
         25    2    1    2    0    0 -0.90918431973E+02 -0.18236510218E+03 -0.94687347361E+03  0.97659577783E+03  0.12508695564E+03 0.  0.
         24    2    1    2    0    0  0.10263814877E+03  0.10185684804E+03 -0.53765423967E+03  0.56259150049E+03  0.80794231974E+02 0.  0.
        -13    1    5    5    0    0  0.18735907945E+02  0.62275194611E+02 -0.14163781635E+03  0.15585411490E+03  0.00000000000E+00 0.  1.
         14    1    5    5    0    0  0.83902240829E+02  0.39581653426E+02 -0.39601642332E+03  0.40673738560E+03  0.00000000000E+00 0. -1.
         11    1    3    3    0    0 -0.14608274944E+02 -0.11648114417E+02 -0.19754953597E+03  0.19843109491E+03  0.00000000000E+00 0. -1.
        -12    1    3    3    0    0  0.28885581429E+01  0.92156368556E+02 -0.45225688851E+03  0.46155978295E+03  0.00000000000E+00 0.  1.
          5    1    4    4  501    0 -0.84211448764E+02 -0.19994850995E+03 -0.90239786113E+03  0.92812194614E+03  0.41800000000E+01 0. -1.
         -5    1    4    4    0  501 -0.67069832092E+01  0.17583407772E+02 -0.44475612487E+02  0.48473831690E+02  0.41800000000E+01 0. -1.
</event>
<event>
11    1  0.8563745E-009  0.1735336E+03  0.7561462E-02  0.1074997E+00
         22   -1    0    0    0    0  0.00000000000E+00  0.00000000000E+00  0.13729644097E+04  0.13729644097E+04  0.00000000000E+00 0.  1.
         22   -1    0    0    0    0 -0.00000000000E+00 -0.00000000000E+00 -0.11586737200E+04  0.11586737200E+04  0.00000000000E+00 0.  1.
         24    2    1    2    0    0  0.43889903500E+02  0.15453868023E+02 -0.74960755742E+03  0.75546710483E+03  0.81571506497E+02 0.  0.
         25    2    1    2    0    0 -0.97587067063E+02 -0.12272482493E+03 -0.37728253114E+03  0.42728662146E+03  0.12508848973E+03 0.  0.
        -24    2    1    2    0    0  0.53697163563E+02  0.10727095691E+03  0.13411807782E+04  0.13488844034E+04  0.79578956887E+02 0.  0.
        -11    1    3    3    0    0  0.51127175239E+02 -0.99990121348E+01 -0.26127306285E+03  0.26641618131E+03  0.00000000000E+00 0.  1.
         12    1    3    3    0    0 -0.72372717388E+01  0.25452880157E+02 -0.48833449457E+03  0.48905092352E+03  0.00000000000E+00 0. -1.
         13    1    5    5    0    0  0.39585204600E+02  0.35932632774E+02  0.27023631953E+03  0.27547379352E+03  0.00000000000E+00 0. -1.
        -14    1    5    5    0    0  0.14111958963E+02  0.71338324133E+02  0.10709444587E+04  0.10734106099E+04  0.00000000000E+00 0.  1.
          5    1    4    4  501    0 -0.56693421335E+02 -0.12702510302E+03 -0.35278333181E+03  0.37924012502E+03  0.41800000000E+01 0. -1.
         -5    1    4    4    0  501 -0.40893645728E+02  0.43002780937E+01 -0.24499199334E+02  0.48046496445E+02  0.41800000000E+01 0. -1.
</event>
<event>
11    1  0.8551154E-009  0.2652241E+03  0.7561462E-02  0.1016088E+00
         22   -1    0    0    0    0  0.00000000000E+00  0.00000000000E+00  0.31083409788E+03  0.31083409788E+03  0.00000000000E+00 0. -1.
         22   -1    0    0    0    0 -0.00000000000E+00 -0.00000000000E+00 -0.11380960385E+04  0.11380960385E+04  0.00000000000E+00 0. -1.
        -24    2    1    2    0    0 -0.65128267787E+01  0.10899603453E+03 -0.22474947897E+03  0.26179352231E+03  0.78108690730E+02 0.  0.
         25    2    1    2    0    0 -0.21890808734E+03 -0.38272510902E+02 -0.81846864698E+03  0.85727691561E+03  0.12508896092E+03 0.  0.
         24    2    1    2    0    0  0.22542091412E+03 -0.70723523632E+02  0.21595618530E+03  0.32985969850E+03  0.79711614008E+02 0.  0.
        -11    1    5    5    0    0  0.64435115900E+02 -0.48644489015E+02  0.39153568577E+02  0.89728325544E+02  0.00000000000E+00 0.  1.
         12    1    5    5    0    0  0.16098579822E+03 -0.22079034618E+02  0.17680261672E+03  0.24013137295E+03  0.00000000000E+00 0. -1.
         13    1    3    3    0    0  0.20326969975E+02  0.16991616760E+02 -0.10565136829E+03  0.10892250626E+03  0.00000000000E+00 0. -1.
        -14    1    3    3    0    0 -0.26839796754E+02  0.92004417774E+02 -0.11909811068E+03  0.15287101605E+03  0.00000000000E+00 0.  1.
          5    1    4    4  501    0 -0.97205160106E+02 -0.12555651012E+01 -0.16520931246E+03  0.19173421427E+03  0.41800000000E+01 0. -1.
         -5    1    4    4    0  501 -0.12170292723E+03 -0.37016945800E+02 -0.65325933452E+03  0.66554270134E+03  0.41800000000E+01 0. -1.
</event>
<event>
11    1  0.8551154E-009  0.1362562E+03  0.7561462E-02  0.1111812E+00
         22   -1    0    0    0    0  0.00000000000E+00  0.00000000000E+00  0.38097217530E+03  0.38097217530E+03  0.00000000000E+00 0. -1.
         22   -1    0    0    0    0 -0.00000000000E+00 -0.00000000000E+00 -0.10363389822E+04  0.10363389822E+04  0.00000000000E+00 0. -1.
         24    2    1    2    0    0  0.44344249027E+01 -0.30387769375E+02 -0.95616836091E+03  0.95969895491E+03  0.76295930488E+02 0.  0.
         25    2    1    2    0    0  0.42516461215E+02  0.54897073587E+02  0.14610250157E+01  0.14307795179E+03  0.12509127680E+03 0.  0.
        -24    2    1    2    0    0 -0.46950886118E+02 -0.24509304212E+02  0.29934052900E+03  0.31453425080E+03  0.80758596571E+02 0.  0.
        -11    1    3    3    0    0 -0.12797615843E+02 -0.49847814118E+02 -0.46414222984E+03  0.46698671615E+03  0.00000000000E+00 0.  1.
         12    1    3    3    0    0  0.17232040745E+02  0.19460044743E+02 -0.49202613107E+03  0.49271223876E+03  0.00000000000E+00 0. -1.
         13    1    5    5    0    0  0.45201580459E+01 -0.40848197778E+02  0.15713057818E+03  0.16241621129E+03  0.00000000000E+00 0. -1.
        -14    1    5    5    0    0 -0.51471044164E+02  0.16338893566E+02  0.14220995082E+03  0.15211803950E+03  0.00000000000E+00 0.  1.
          5    1    4    4  501    0  0.76381467589E+02  0.63532180504E+02 -0.20584383370E+02  0.10154632337E+03  0.41800000000E+01 0.  1.
         -5    1    4    4    0  501 -0.33865006373E+02 -0.86351069174E+01  0.22045408386E+02  0.41531628418E+02  0.41800000000E+01 0.  1.
</event>
<event>
11    1  0.8551154E-009  0.2182636E+03  0.7561462E-02  0.1042311E+00
         22   -1    0    0    0    0  0.00000000000E+00  0.00000000000E+00  0.97847372442E+03  0.97847372442E+03  0.00000000000E+00 0. -1.
         22   -1    0    0    0    0 -0.00000000000E+00 -0.00000000000E+00 -0.26679630862E+03  0.26679630862E+03  0.00000000000E+00 0.  1.
         24    2    1    2    0    0 -0.17051661596E+03  0.27361714418E+02 -0.15541508943E+03  0.24544948108E+03  0.79164499656E+02 0.  0.
         25    2    1    2    0    0  0.20219287052E+03 -0.78005432503E+02  0.18536559782E+03  0.31140804752E+03  0.12509101812E+03 0.  0.
        -24    2    1    2    0    0 -0.31676254569E+02  0.50643718085E+02  0.68172690741E+03  0.68841250444E+03  0.74779868282E+02 0.  0.
        -11    1    3    3    0    0 -0.14871222181E+03  0.50978367468E+02 -0.13619674331E+03  0.20799921095E+03  0.00000000000E+00 0.  1.
         12    1    3    3    0    0 -0.21804394141E+02 -0.23616653050E+02 -0.19218346117E+02  0.37450270127E+02  0.00000000000E+00 0. -1.
         11    1    5    5    0    0 -0.14965005495E+02  0.41976538001E+02  0.64996452491E+03  0.65149049477E+03  0.00000000000E+00 0. -1.
        -12    1    5    5    0    0 -0.16711249074E+02  0.86671800837E+01  0.31762382496E+02  0.36922009669E+02  0.00000000000E+00 0.  1.
          5    1    4    4  501    0  0.65470347467E+02  0.31051841743E+02  0.34335329452E+02  0.80293029098E+02  0.41800000000E+01 0.  1.
         -5    1    4    4    0  501  0.13672252306E+03 -0.10905727425E+03  0.15103026837E+03  0.23111501842E+03  0.41800000000E+01 0.  1.
</event>
<event>
11    1  0.8551154E-009  0.1309420E+03  0.7561462E-02  0.1118117E+00
         22   -1    0    0    0    0  0.00000000000E+00  0.00000000000E+00  0.33255595870E+03  0.33255595870E+03  0.00000000000E+00 0.  1.
         22   -1    0    0    0    0 -0.00000000000E+00 -0.00000000000E+00 -0.14480187154E+04  0.14480187154E+04  0.00000000000E+00 0.  1.
         24    2    1    2    0    0  0.27071114117E+02 -0.28087416080E+02 -0.13899958588E+04  0.13928291746E+04  0.79767625181E+02 0.  0.
         25    2    1    2    0    0  0.58916376763E+01  0.32172406360E+02  0.30626328279E+02  0.13288334308E+03  0.12510090231E+03 0.  0.
        -24    2    1    2    0    0 -0.32962751793E+02 -0.40849902801E+01  0.24390677382E+03  0.25486215640E+03  0.66037673333E+02 0.  0.
        -11    1    3    3    0    0  0.14683664641E+02  0.27351497214E+02 -0.39849942555E+03  0.39970677574E+03  0.00000000000E+00 0.  1.
         12    1    3    3    0    0  0.12387449476E+02 -0.55438913294E+02 -0.99149643323E+03  0.99312239886E+03  0.00000000000E+00 0. -1.
         11    1    5    5    0    0 -0.14947255859E+02 -0.30050000031E+02  0.64667358643E+02  0.72858014201E+02  0.00000000000E+00 0. -1.
        -12    1    5    5    0    0 -0.18015495934E+02  0.25965009750E+02  0.17923941518E+03  0.18200414220E+03  0.00000000000E+00 0.  1.
          5    1    4    4  501    0 -0.19467087091E+02  0.36929388342E+01  0.72981050368E+02  0.75738440635E+02  0.41800000000E+01 0.  1.
         -5    1    4    4    0  501  0.25358724767E+02  0.28479467526E+02 -0.42354722089E+02  0.57144902447E+02  0.41800000000E+01 0.  1.
</event>
<event>
11    1  0.8551154E-009  0.2287592E+03  0.7561462E-02  0.1035865E+00
         22   -1    0    0    0    0  0.00000000000E+00  0.00000000000E+00  0.11818258802E+04  0.11818258802E+04  0.00000000000E+00 0.  1.
         22   -1    0    0    0    0 -0.00000000000E+00 -0.00000000000E+00 -0.51870797556E+03  0.51870797556E+03  0.00000000000E+00 0. -1.
         24    2    1    2    0    0 -0.30298406491E+02  0.19324499194E+03 -0.45843597468E+03  0.50529715009E+03  0.83066519446E+02 0.  0.
         25    2    1    2    0    0  0.35093429297E+02 -0.14120205899E+03  0.23323068198E+03  0.30201555437E+03  0.12508906355E+03 0.  0.
        -24    2    1    2    0    0 -0.47950228063E+01 -0.52042932951E+02  0.88832319733E+03  0.89322115130E+03  0.77423918142E+02 0.  0.
        -13    1    3    3    0    0 -0.55542363475E+02  0.88940671789E+02 -0.24081849085E+03  0.26265746281E+03  0.00000000000E+00 0.  1.
         14    1    3    3    0    0  0.25243956984E+02  0.10430432015E+03 -0.21761748384E+03  0.24263968727E+03  0.00000000000E+00 0. -1.
         11    1    5    5    0    0  0.26594012190E+02 -0.21653877433E+02  0.16225726086E+03  0.16584194461E+03  0.00000000000E+00 0. -1.
        -12    1    5    5    0    0 -0.31389034997E+02 -0.30389055519E+02  0.72606593648E+03  0.72737920669E+03  0.00000000000E+00 0.  1.
          5    1    4    4  501    0 -0.39239891104E+02 -0.76915801485E+02  0.15015864073E+03  0.17326540150E+03  0.41800000000E+01 0. -1.
         -5    1    4    4    0  501  0.74333320401E+02 -0.64286257507E+02  0.83072041256E+02  0.12875015287E+03  0.41800000000E+01 0. -1.
</event>
<event>
11    1  0.8551154E-009  0.1533392E+03  0.7561462E-02  0.1093515E+00
         22   -1    0    0    0    0  0.00000000000E+00  0.00000000000E+00  0.74505803830E+03  0.74505803830E+03  0.00000000000E+00 0. -1.
         22   -1    0    0    0    0 -0.00000000000E+00 -0.00000000000E+00 -0.63837525314E+03  0.63837525314E+03  0.00000000000E+00 0.  1.
         24    2    1    2    0    0  0.12397206598E+01 -0.90233951496E+00 -0.22565957537E+03  0.24059965505E+03  0.83448181114E+02 0.  0.
         25    2    1    2    0    0 -0.44847601277E+02  0.78105793807E+02 -0.38543545400E+03  0.41511463592E+03  0.12509136417E+03 0.  0.
        -24    2    1    2    0    0  0.43607880617E+02 -0.77203454292E+02  0.71777781452E+03  0.72771900047E+03  0.80671754781E+02 0.  0.
        -11    1    3    3    0    0  0.25296682533E+02 -0.12281717130E+02 -0.20497220529E+03  0.20689216434E+03  0.00000000000E+00 0.  1.
         12    1    3    3    0    0 -0.24056961873E+02  0.11379377615E+02 -0.20687370080E+02  0.33707490715E+02  0.00000000000E+00 0. -1.
         13    1    5    5    0    0  0.15416703597E+02 -0.30474676274E+02  0.55473012434E+03  0.55578043461E+03  0.00000000000E+00 0. -1.
        -14    1    5    5    0    0  0.28191177020E+02 -0.46728778018E+02  0.16304769018E+03  0.17193856586E+03  0.00000000000E+00 0.  1.
          5    1    4    4  501    0  0.20672688423E+02  0.76317842650E+02 -0.13790334736E+03  0.15901754232E+03  0.41800000000E+01 0.  1.
         -5    1    4    4    0  501 -0.65520289700E+02  0.17879511577E+01 -0.24753210664E+03  0.25609709360E+03  0.41800000000E+01 0.  1.
</event>
<event>
11    1  0.8551154E-009  0.1411016E+03  0.7561462E-02  0.1106335E+00
         22   -1    0    0    0    0  0.00000000000E+00  0.00000000000E+00  0.25760814588E+02  0.25760814588E+02  0.00000000000E+00 0. -1.
         22   -1    0    0    0    0 -0.00000000000E+00 -0.00000000000E+00 -0.20279468846E+04  0.20279468846E+04  0.00000000000E+00 0. -1.
        -24    2    1    2    0    0  0.17887955772E+02  0.69348654601E+01 -0.13625678350E+04  0.13651790854E+04  0.82187339857E+02 0.  0.
         25    2    1    2    0    0  0.11372789316E+02 -0.65602985640E+02 -0.48034505044E+03  0.50081109264E+03  0.12508913212E+03 0.  0.
         24    2    1    2    0    0 -0.29260745088E+02  0.58668120180E+02 -0.15927318449E+03  0.18771752109E+03  0.74644362797E+02 0.  0.
        -11    1    5    5    0    0  0.70749923764E+01 -0.88944554839E+01 -0.49216821936E+00  0.11375811401E+02  0.00000000000E+00 0.  1.
         12    1    5    5    0    0 -0.36335737465E+02  0.67562575664E+02 -0.15878101627E+03  0.17634170969E+03  0.00000000000E+00 0. -1.
         11    1    3    3    0    0 -0.20680340157E+01  0.42388283198E+02 -0.81337222185E+03  0.81447861519E+03  0.00000000000E+00 0. -1.
        -12    1    3    3    0    0  0.19955989787E+02 -0.35453417738E+02 -0.54919561319E+03  0.55070047022E+03  0.00000000000E+00 0.  1.
          5    1    4    4  501    0 -0.26554662861E+01  0.21142223320E+02 -0.13107112294E+02  0.25363633430E+02  0.41800000000E+01 0.  1.
         -5    1    4    4    0  501  0.14028255603E+02 -0.86745208960E+02 -0.46723793814E+03  0.47544745921E+03  0.41800000000E+01 0.  1.
</event>
<event>
11    1  0.8551154E-009  0.1507452E+03  0.7561462E-02  0.1096120E+00
         22   -1    0    0    0    0  0.00000000000E+00  0.00000000000E+00  0.57006540067E+03  0.57006540067E+03  0.00000000000E+00 0.  1.
         22   -1    0    0    0    0 -0.00000000000E+00 -0.00000000000E+00 -0.52639401020E+03  0.52639401020E+03  0.00000000000E+00 0. -1.
         24    2    1    2    0    0 -0.60113195582E+01 -0.11752702517E+02 -0.47906346702E+03  0.48583818227E+03  0.79766358434E+02 0.  0.
         25    2    1    2    0    0  0.87002556559E+02  0.27696610134E+02  0.13281146181E+03  0.20401851623E+03  0.12509245987E+03 0.  0.
        -24    2    1    2    0    0 -0.80991237000E+02 -0.15943907617E+02  0.38992339568E+03  0.40660271237E+03  0.80447017026E+02 0.  0.
        -13    1    3    3    0    0 -0.24558946830E+02 -0.39786580337E+02 -0.25212128913E+03  0.25642008165E+03  0.00000000000E+00 0.  1.
         14    1    3    3    0    0  0.18547627271E+02  0.28033877819E+02 -0.22694217789E+03  0.22941810062E+03  0.00000000000E+00 0. -1.
         13    1    5    5    0    0  0.13157901011E+02 -0.16115245270E+02  0.59760961943E+02  0.63278780500E+02  0.00000000000E+00 0. -1.
        -14    1    5    5    0    0 -0.94149138012E+02  0.17133765357E+00  0.33016243373E+03  0.34332393187E+03  0.00000000000E+00 0.  1.
          5    1    4    4  501    0 -0.25462736860E+01  0.33064101326E+02  0.10471362652E+03  0.10991876221E+03  0.41800000000E+01 0. -1.
         -5    1    4    4    0  501  0.89548830245E+02 -0.53674911917E+01  0.28097835291E+02  0.94099754027E+02  0.41800000000E+01 0. -1.
</event>
<event>
11    1  0.8551154E-009  0.1477726E+03  0.7561462E-02  0.1099177E+00
         22   -1    0    0    0    0  0.00000000000E+00  0.00000000000E+00  0.91516327699E+03  0.91516327699E+03  0.00000000000E+00 0. -1.
         22   -1    0    0    0    0 -0.00000000000E+00 -0.00000000000E+00 -0.77185968122E+03  0.77185968122E+03  0.00000000000E+00 0.  1.
        -24    2    1    2    0    0 -0.68896346644E+02  0.38369225749E+02 -0.74514295784E+03  0.75328728741E+03  0.77361525860E+02 0.  0.
         25    2    1    2    0    0  0.27371436800E+02 -0.82323914119E+02  0.29530094216E+03  0.33222944883E+03  0.12508931946E+03 0.  0.
         24    2    1    2    0    0  0.41524909845E+02  0.43954688370E+02  0.59314561145E+03  0.60150622197E+03  0.79571891521E+02 0.  0.
        -11    1    5    5    0    0  0.11053617744E+02 -0.22522575921E+02  0.20523538005E+03  0.20676317399E+03  0.00000000000E+00 0.  1.
         12    1    5    5    0    0  0.30471292101E+02  0.66477264291E+02  0.38791023140E+03  0.39474304798E+03  0.00000000000E+00 0. -1.
         11    1    3    3    0    0 -0.54626125023E+02  0.40896103586E+02 -0.29025463990E+03  0.29816817538E+03  0.00000000000E+00 0. -1.
        -12    1    3    3    0    0 -0.14270221621E+02 -0.25268778367E+01 -0.45488831794E+03  0.45511911203E+03  0.00000000000E+00 0.  1.
          5    1    4    4  501    0  0.65297044697E+02 -0.27499513165E+02  0.22195566457E+03  0.23302728747E+03  0.41800000000E+01 0.  1.
         -5    1    4    4    0  501 -0.37925607897E+02 -0.54824400954E+02  0.73345277586E+02  0.99202161361E+02  0.41800000000E+01 0.  1.
</event>
<event>
11    1  0.8551154E-009  0.1592117E+03  0.7561462E-02  0.1087821E+00
         22   -1    0    0    0    0  0.00000000000E+00  0.00000000000E+00  0.33739650875E+03  0.33739650875E+03  0.00000000000E+00 0.  1.
         22   -1    0    0    0    0 -0.00000000000E+00 -0.00000000000E+00 -0.11547757727E+04  0.11547757727E+04  0.00000000000E+00 0.  1.
        -24    2    1    2    0    0  0.30296123743E+02  0.93774919012E+02 -0.10240214674E+04  0.10318692550E+04  0.80141145735E+02 0.  0.
         25    2    1    2    0    0 -0.38785064174E+02 -0.90064986144E+02 -0.68940988495E+02  0.17325672315E+03  0.12509616017E+03 0.  0.
         24    2    1    2    0    0  0.84889404310E+01 -0.37099328672E+01  0.27558319190E+03  0.28704630331E+03  0.79772544619E+02 0.  0.
        -11    1    5    5    0    0 -0.29617267346E+02 -0.15509599376E+02  0.18602782425E+03  0.18900815218E+03  0.00000000000E+00 0.  1.
         12    1    5    5    0    0  0.38106207777E+02  0.11799666509E+02  0.89555367651E+02  0.98038151125E+02  0.00000000000E+00 0. -1.
         11    1    3    3    0    0 -0.99179328696E+00  0.81229395279E+02 -0.48176101361E+03  0.48856204575E+03  0.00000000000E+00 0. -1.
        -12    1    3    3    0    0  0.31287917030E+02  0.12545523733E+02 -0.54226045376E+03  0.54330720926E+03  0.00000000000E+00 0.  1.
          5    1    4    4  501    0 -0.17078140872E+02 -0.16427222149E+02  0.35917013156E+02  0.43232172710E+02  0.41800000000E+01 0.  1.
         -5    1    4    4    0  501 -0.21706923303E+02 -0.73637763995E+02 -0.10485800165E+03  0.13002455044E+03  0.41800000000E+01 0.  1.
</event>
<event>
11    1  0.8551154E-009  0.1739249E+03  0.7561462E-02  0.1074666E+00
         22   -1    0    0    0    0  0.00000000000E+00  0.00000000000E+00  0.57726288679E+03  0.57726288679E+03  0.00000000000E+00 0.  1.
         22   -1    0    0    0    0 -0.00000000000E+00 -0.00000000000E+00 -0.43649222421E+03  0.43649222421E+03  0.00000000000E+00 0. -1.
        -24    2    1    2    0    0  0.50390080558E+02  0.53719610669E+02 -0.36815522564E+03  0.38352685181E+03  0.78291884009E+02 0.  0.
         25    2    1    2    0    0  0.81944113181E+01 -0.15284855085E+03  0.16087454161E+03  0.25486902108E+03  0.12509105441E+03 0.  0.
         24    2    1    2    0    0 -0.58584491876E+02  0.99128940179E+02  0.34805134661E+03  0.37535923812E+03  0.80598562641E+02 0.  0.
        -13    1    5    5    0    0  0.12761048477E+02  0.35455426142E+02  0.16015939712E+03  0.16453256239E+03  0.00000000000E+00 0.  1.
         14    1    5    5    0    0 -0.71345540353E+02  0.63673514037E+02  0.18789194949E+03  0.21082667573E+03  0.00000000000E+00 0. -1.
         13    1    3    3    0    0  0.56796424362E+02  0.10730452254E+02 -0.27095403605E+03  0.27705065616E+03  0.00000000000E+00 0. -1.
        -14    1    3    3    0    0 -0.64063438034E+01  0.42989158415E+02 -0.97201189592E+02  0.10647619565E+03  0.00000000000E+00 0.  1.
          5    1    4    4  501    0 -0.27796195046E+02 -0.55071089651E+02  0.13340489110E+03  0.14703669863E+03  0.41800000000E+01 0.  1.
         -5    1    4    4    0  501  0.35990606364E+02 -0.97777461197E+02  0.27469650507E+02  0.10783232244E+03  0.41800000000E+01 0.  1.
</event>
<event>
11    1  0.8551154E-009  0.1740610E+03  0.7561462E-02  0.1074551E+00
         22   -1    0    0    0    0  0.00000000000E+00  0.00000000000E+00  0.16313478506E+03  0.16313478506E+03  0.00000000000E+00 0.  1.
         22   -1    0    0    0    0 -0.00000000000E+00 -0.00000000000E+00 -0.12059087424E+04  0.12059087424E+04  0.00000000000E+00 0. -1.
        -24    2    1    2    0    0  0.76851584359E+02  0.18593359321E+02 -0.10260325482E+04  0.10323549200E+04  0.82231453552E+02 0.  0.
         25    2    1    2    0    0 -0.13926604048E+03 -0.93795294642E+02 -0.19517805796E+02  0.21028845525E+03  0.12509077640E+03 0.  0.
         24    2    1    2    0    0  0.62414456125E+02  0.75201935321E+02  0.27763966463E+01  0.12640015217E+03  0.80114884272E+02 0.  0.
        -13    1    5    5    0    0  0.54554709114E+02  0.44631048891E+02  0.37196669196E+02  0.79697798030E+02  0.00000000000E+00 0.  1.
         14    1    5    5    0    0  0.78597470108E+01  0.30570886430E+02 -0.34420272549E+02  0.46702354143E+02  0.00000000000E+00 0. -1.
         13    1    3    3    0    0  0.87376408329E+02  0.25275758537E+02 -0.67498684697E+03  0.68108791230E+03  0.00000000000E+00 0. -1.
        -14    1    3    3    0    0 -0.10524823970E+02 -0.66823992158E+01 -0.35104570120E+03  0.35126700772E+03  0.00000000000E+00 0.  1.
          5    1    4    4  501    0  0.12400455736E+01  0.90892621542E+01 -0.34026191659E+02  0.35488117988E+02  0.41800000000E+01 0.  1.
         -5    1    4    4    0  501 -0.14050608606E+03 -0.10288455680E+03  0.14508385863E+02  0.17480033726E+03  0.41800000000E+01 0.  1.
</event>
<event>
11    1  0.8551154E-009  0.1545752E+03  0.7561462E-02  0.1092293E+00
         22   -1    0    0    0    0  0.00000000000E+00  0.00000000000E+00  0.78780487228E+03  0.78780487228E+03  0.00000000000E+00 0. -1.
         22   -1    0    0    0    0 -0.00000000000E+00 -0.00000000000E+00 -0.14118913477E+04  0.14118913477E+04  0.00000000000E+00 0. -1.
        -24    2    1    2    0    0  0.27957125206E+02 -0.55885484264E+02 -0.13724180783E+04  0.13761518910E+04  0.79736173376E+02 0.  0.
         25    2    1    2    0    0 -0.22447705432E+02  0.13705270951E+03  0.24961509436E+03  0.31183190970E+03  0.12507637632E+03 0.  0.
         24    2    1    2    0    0 -0.55094197734E+01 -0.81167225245E+02  0.49871650854E+03  0.51171241924E+03  0.80702986080E+02 0.  0.
        -13    1    5    5    0    0 -0.69539594494E+01 -0.43981139523E+02  0.81763050519E+02  0.93101528537E+02  0.00000000000E+00 0.  1.
         14    1    5    5    0    0  0.14445396761E+01 -0.37186085722E+02  0.41695345802E+03  0.41861089071E+03  0.00000000000E+00 0. -1.
         13    1    3    3    0    0  0.15704904983E+02 -0.18057303837E+02 -0.11472689805E+04  0.11475185506E+04  0.00000000000E+00 0. -1.
        -14    1    3    3    0    0  0.12252220223E+02 -0.37828180427E+02 -0.22514909776E+03  0.22863334043E+03  0.00000000000E+00 0.  1.
          5    1    4    4  501    0 -0.37545240323E+02  0.15658026591E+03  0.22509797831E+03  0.27679161292E+03  0.41800000000E+01 0. -1.
         -5    1    4    4    0  501  0.15097534890E+02 -0.19527556406E+02  0.24517116050E+02  0.35040296779E+02  0.41800000000E+01 0. -1.
</event>
<event>
11    1  0.8551154E-009  0.1498327E+03  0.7561462E-02  0.1097050E+00
         22   -1    0    0    0    0  0.00000000000E+00  0.00000000000E+00  0.14164322154E+04  0.14164322154E+04  0.00000000000E+00 0. -1.
         22   -1    0    0    0    0 -0.00000000000E+00 -0.00000000000E+00 -0.23486633769E+03  0.23486633769E+03  0.00000000000E+00 0. -1.
         24    2    1    2    0    0  0.18478929511E+02 -0.28614138162E+02 -0.20178033710E+03  0.22253850686E+03  0.87451945998E+02 0.  0.
         25    2    1    2    0    0 -0.69483888788E+02 -0.37975126474E+02  0.25854281065E+03  0.29793243543E+03  0.12509688289E+03 0.  0.
        -24    2    1    2    0    0  0.51004959277E+02  0.66589264636E+02  0.11248034041E+04  0.11308276108E+04  0.80949066267E+02 0.  0.
        -13    1    3    3    0    0  0.52677676843E+02 -0.24992854320E+02 -0.10945116629E+03  0.12401265341E+03  0.00000000000E+00 0.  1.
         14    1    3    3    0    0 -0.34198747332E+02 -0.36212838415E+01 -0.92329170808E+02  0.98525853449E+02  0.00000000000E+00 0. -1.
         13    1    5    5    0    0  0.50134114551E+02  0.76553224558E+02  0.11035586620E+04  0.11073461727E+04  0.00000000000E+00 0. -1.
        -14    1    5    5    0    0  0.87084472625E+00 -0.99639599219E+01  0.21244742082E+02  0.23481438074E+02  0.00000000000E+00 0.  1.
          5    1    4    4  501    0 -0.66477028542E+01 -0.27467641967E+02 -0.29855673986E+01  0.28723671791E+02  0.41800000000E+01 0.  1.
         -5    1    4    4    0  501 -0.62836185934E+02 -0.10507484507E+02  0.26152837805E+03  0.26920876364E+03  0.41800000000E+01 0.  1.
</event>
<event>
11    1  0.8551154E-009  0.1273164E+03  0.7561462E-02  0.1122611E+00
         22   -1    0    0    0    0  0.00000000000E+00  0.00000000000E+00  0.54804628496E+03  0.54804628496E+03  0.00000000000E+00 0. -1.
         22   -1    0    0    0    0 -0.00000000000E+00 -0.00000000000E+00 -0.15280704227E+03  0.15280704227E+03  0.00000000000E+00 0. -1.
        -24    2    1    2    0    0 -0.12313551871E+02  0.19987971758E+02 -0.51458997202E+02  0.98236873301E+02  0.80320061679E+02 0.  0.
         25    2    1    2    0    0 -0.15716666406E+01 -0.27595341139E+02 -0.19008246188E+02  0.12950943924E+03  0.12508960165E+03 0.  0.
         24    2    1    2    0    0  0.13885218512E+02  0.76073693812E+01  0.46570648608E+03  0.47310701469E+03  0.81835474034E+02 0.  0.
        -11    1    5    5    0    0  0.18382103785E+02  0.43433841579E+02  0.25332239827E+03  0.25767545052E+03  0.00000000000E+00 0.  1.
         12    1    5    5    0    0 -0.44968852731E+01 -0.35826472198E+02  0.21238408780E+03  0.21543156417E+03  0.00000000000E+00 0. -1.
         13    1    3    3    0    0 -0.45573270758E+02  0.21357252498E+02 -0.32835642477E+02  0.60093549227E+02  0.00000000000E+00 0. -1.
        -14    1    3    3    0    0  0.33259718887E+02 -0.13692807400E+01 -0.18623354725E+02  0.38143324073E+02  0.00000000000E+00 0.  1.
          5    1    4    4  501    0  0.76755202127E+01  0.31611831333E+02 -0.51619453271E+02  0.61157680194E+02  0.41800000000E+01 0. -1.
         -5    1    4    4    0  501 -0.92471868533E+01 -0.59207172472E+02  0.32611207082E+02  0.68351759043E+02  0.41800000000E+01 0. -1.
</event>
<event>
11    1  0.8551154E-009  0.1386974E+03  0.7561462E-02  0.1109022E+00
         22   -1    0    0    0    0  0.00000000000E+00  0.00000000000E+00  0.35879459857E+03  0.35879459857E+03  0.00000000000E+00 0. -1.
         22   -1    0    0    0    0 -0.00000000000E+00 -0.00000000000E+00 -0.58721893677E+03  0.58721893677E+03  0.00000000000E+00 0. -1.
        -24    2    1    2    0    0  0.19883160248E+02 -0.37928539440E+02 -0.50609924074E+03  0.51409476884E+03  0.79517769707E+02 0.  0.
         25    2    1    2    0    0  0.16275434991E+02 -0.16035999085E+02 -0.85007094223E+01  0.12744444860E+03  0.12509109628E+03 0.  0.
         24    2    1    2    0    0 -0.36158595239E+02  0.53964538525E+02  0.28617561197E+03  0.30447431789E+03  0.81169661466E+02 0.  0.
        -11    1    5    5    0    0 -0.10760646670E+02 -0.15807462184E+02  0.13169209479E+03  0.13307319493E+03  0.00000000000E+00 0.  1.
         12    1    5    5    0    0 -0.25397948569E+02  0.69772000709E+02  0.15448351718E+03  0.17140112297E+03  0.00000000000E+00 0. -1.
         13    1    3    3    0    0  0.28860658559E+02 -0.50934466139E+02 -0.48019482717E+03  0.48375027596E+03  0.00000000000E+00 0. -1.
        -14    1    3    3    0    0 -0.89774983106E+01  0.13005926699E+02 -0.25904413575E+02  0.30344492876E+02  0.00000000000E+00 0.  1.
          5    1    4    4  501    0  0.99394393330E+01 -0.50294206384E+02 -0.50930117724E+02  0.72385419398E+02  0.41800000000E+01 0. -1.
         -5    1    4    4    0  501  0.63359956578E+01  0.34258207299E+02  0.42429408301E+02  0.55059029206E+02  0.41800000000E+01 0. -1.
</event>
<event>
11    1  0.2483529E-008  0.1763990E+03  0.7561462E-02  0.1072593E+00
         22   -1    0    0    0    0  0.00000000000E+00  0.00000000000E+00  0.17877332425E+03  0.17877332425E+03  0.00000000000E+00 0.  1.
         22   -1    0    0    0    0 -0.00000000000E+00 -0.00000000000E+00 -0.15198254282E+04  0.15198254282E+04  0.00000000000E+00 0.  1.
         24    2    1    2    0    0 -0.91203756251E+01 -0.42387321503E+02 -0.73044734430E+03  0.73617516102E+03  0.80750719041E+02 0.  0.
         25    2    1    2    0    0 -0.82818283329E+02  0.12475725165E+03 -0.74003915372E+03  0.76532906893E+03  0.12508954716E+03 0.  0.
        -24    2    1    2    0    0  0.91938658954E+02 -0.82369930146E+02  0.12943439412E+03  0.19709452247E+03  0.82797741549E+02 0.  0.
        -11    1    3    3    0    0 -0.17526966942E+02 -0.36061130065E+02 -0.72075750389E+03  0.72187185780E+03  0.00000000000E+00 0.  1.
         12    1    3    3    0    0  0.84065913169E+01 -0.63261914376E+01 -0.96898404107E+01  0.14303303215E+02  0.00000000000E+00 0. -1.
         13    1    5    5    0    0 -0.11181873737E+02  0.51818169287E+01  0.50233997065E+01  0.13308646496E+02  0.00000000000E+00 0. -1.
        -14    1    5    5    0    0  0.10312053269E+03 -0.87551747074E+02  0.12441099441E+03  0.18378587598E+03  0.00000000000E+00 0.  1.
          5    1    4    4  501    0 -0.10582659719E+03  0.13056960013E+03 -0.68342278006E+03  0.70379816557E+03  0.41800000000E+01 0.  1.
         -5    1    4    4    0  501  0.23008313857E+02 -0.58123484835E+01 -0.56616373662E+02  0.61530903358E+02  0.41800000000E+01 0.  1.
</event>
<event>
11    1  0.8551154E-009  0.1479640E+03  0.7561462E-02  0.1098977E+00
         22   -1    0    0    0    0  0.00000000000E+00  0.00000000000E+00  0.82517411156E+02  0.82517411156E+02  0.00000000000E+00 0.  1.
         22   -1    0    0    0    0 -0.00000000000E+00 -0.00000000000E+00 -0.27455476550E+04  0.27455476550E+04  0.00000000000E+00 0.  1.
        -24    2    1    2    0    0  0.10199699372E+02 -0.14368050412E+02 -0.25146033402E+04  0.25161768033E+04  0.87208210139E+02 0.  0.
         25    2    1    2    0    0  0.72116065892E+02  0.14446489496E+02 -0.11823664050E+03  0.18717890722E+03  0.12508641866E+03 0.  0.
         24    2    1    2    0    0 -0.82315765264E+02 -0.78439083611E-01 -0.30190263139E+02  0.12470935568E+03  0.88685286501E+02 0.  0.
        -11    1    5    5    0    0 -0.22931620528E+02 -0.36384876686E+02  0.10246866436E+02  0.44212178675E+02  0.00000000000E+00 0.  1.
         12    1    5    5    0    0 -0.59384144736E+02  0.36306437602E+02 -0.40437129575E+02  0.80497177004E+02  0.00000000000E+00 0. -1.
         11    1    3    3    0    0 -0.58981037026E+01  0.27069355718E+02 -0.34251955558E+03  0.34363815795E+03  0.00000000000E+00 0. -1.
        -12    1    3    3    0    0  0.16097803075E+02 -0.41437406130E+02 -0.21720837847E+04  0.21725386453E+04  0.00000000000E+00 0.  1.
          5    1    4    4  501    0 -0.17177817203E+01  0.50018417208E+02 -0.97647327969E+01  0.51162635200E+02  0.41800000000E+01 0. -1.
         -5    1    4    4    0  501  0.73833847613E+02 -0.35571927712E+02 -0.10847190770E+03  0.13601627202E+03  0.41800000000E+01 0. -1.
</event>
<event>
11    1  0.8551154E-009  0.1874044E+03  0.7561462E-02  0.1063806E+00
         22   -1    0    0    0    0  0.00000000000E+00  0.00000000000E+00  0.15959764389E+04  0.15959764389E+04  0.00000000000E+00 0.  1.
         22   -1    0    0    0    0 -0.00000000000E+00 -0.00000000000E+00 -0.12876431578E+03  0.12876431578E+03  0.00000000000E+00 0.  1.
         24    2    1    2    0    0  0.59257789408E+02 -0.10970244086E+02 -0.62884781166E+02  0.11886558220E+03  0.80886952398E+02 0.  0.
         25    2    1    2    0    0 -0.92441130309E+02  0.14288057458E+03  0.30655403988E+03  0.37226846878E+03  0.12509281479E+03 0.  0.
        -24    2    1    2    0    0  0.33183340901E+02 -0.13191033049E+03  0.12235428644E+04  0.12336067037E+04  0.78910639113E+02 0.  0.
        -11    1    3    3    0    0  0.69461425433E+02 -0.26995156874E+02 -0.66081080890E+02  0.99600890404E+02  0.00000000000E+00 0.  1.
         12    1    3    3    0    0 -0.10203636025E+02  0.16024912788E+02  0.31962997241E+01  0.19264691794E+02  0.00000000000E+00 0. -1.
         11    1    5    5    0    0  0.31643910331E+01 -0.65236169305E+02  0.29279870369E+03  0.29999475335E+03  0.00000000000E+00 0. -1.
        -12    1    5    5    0    0  0.30018949868E+02 -0.66674161188E+02  0.93074416073E+03  0.93361195036E+03  0.00000000000E+00 0.  1.
          5    1    4    4  501    0 -0.10064013907E+03  0.14443657990E+03  0.31421534454E+03  0.36019316811E+03  0.41800000000E+01 0.  1.
         -5    1    4    4    0  501  0.81990087586E+01 -0.15560053208E+01 -0.76613046608E+01  0.12075300671E+02  0.41800000000E+01 0.  1.
</event>
<event>
11    1  0.8551154E-009  0.2077301E+03  0.7561462E-02  0.1049188E+00
         22   -1    0    0    0    0  0.00000000000E+00  0.00000000000E+00  0.10654236160E+04  0.10654236160E+04  0.00000000000E+00 0.  1.
         22   -1    0    0    0    0 -0.00000000000E+00 -0.00000000000E+00 -0.45720122333E+03  0.45720122333E+03  0.00000000000E+00 0.  1.
         24    2    1    2    0    0  0.38005916931E+02 -0.47883553559E+01 -0.37722013228E+03  0.38717710657E+03  0.78381793689E+02 0.  0.
         25    2    1    2    0    0 -0.19582887187E+03 -0.28277300926E+02  0.14363324996E+03  0.27463892694E+03  0.12508987526E+03 0.  0.
        -24    2    1    2    0    0  0.15782295494E+03  0.33065656282E+02  0.84180927498E+03  0.86080880580E+03  0.79671337119E+02 0.  0.
        -11    1    3    3    0    0  0.60339090779E+02 -0.14095360065E+02 -0.24183733099E+03  0.24964931346E+03  0.00000000000E+00 0.  1.
         12    1    3    3    0    0 -0.22333173848E+02  0.93070047096E+01 -0.13538280129E+03  0.13752779311E+03  0.00000000000E+00 0. -1.
         13    1    5    5    0    0  0.16382508998E+02  0.25654743262E+02  0.27039516873E+03  0.27210310496E+03  0.00000000000E+00 0. -1.
        -14    1    5    5    0    0  0.14144044594E+03  0.74109130196E+01  0.57141410625E+03  0.58870570084E+03  0.00000000000E+00 0.  1.
          5    1    4    4  501    0 -0.18563609791E+03 -0.11348309640E+02  0.16249355875E+03  0.24700440080E+03  0.41800000000E+01 0.  1.
         -5    1    4    4    0  501 -0.10192773963E+02 -0.16928991286E+02 -0.18860308798E+02  0.27634526140E+02  0.41800000000E+01 0.  1.
</event>
<event>
11    1  0.8551154E-009  0.2105826E+03  0.7561462E-02  0.1047283E+00
         22   -1    0    0    0    0  0.00000000000E+00  0.00000000000E+00  0.18495614533E+04  0.18495614533E+04  0.00000000000E+00 0. -1.
         22   -1    0    0    0    0 -0.00000000000E+00 -0.00000000000E+00 -0.20251083894E+04  0.20251083894E+04  0.00000000000E+00 0. -1.
         24    2    1    2    0    0 -0.16584018872E+03 -0.38766982429E+02 -0.19989243979E+04  0.20077865196E+04  0.80635678257E+02 0.  0.
         25    2    1    2    0    0  0.95742990040E+02  0.37367937255E+02  0.31029472141E+03  0.34999083735E+03  0.12509072393E+03 0.  0.
        -24    2    1    2    0    0  0.70097198682E+02  0.13990451738E+01  0.15130827404E+04  0.15168924859E+04  0.81411668702E+02 0.  0.
        -13    1    3    3    0    0 -0.14338367059E+02 -0.30517483064E+02 -0.24458260092E+03  0.24689583677E+03  0.00000000000E+00 0.  1.
         14    1    3    3    0    0 -0.15150182166E+03 -0.82494993645E+01 -0.17543417970E+04  0.17608906828E+04  0.00000000000E+00 0. -1.
         13    1    5    5    0    0  0.83049333967E+02  0.84168578025E+01  0.14354104322E+04  0.14378355762E+04  0.00000000000E+00 0. -1.
        -14    1    5    5    0    0 -0.12952135285E+02 -0.70178126288E+01  0.77672308156E+02  0.79056909609E+02  0.00000000000E+00 0.  1.
          5    1    4    4  501    0  0.27032836199E+02 -0.11082685856E+02  0.23562767855E+03  0.23746889366E+03  0.41800000000E+01 0.  1.
         -5    1    4    4    0  501  0.68710153840E+02  0.48450623111E+02  0.74667042863E+02  0.11252194368E+03  0.41800000000E+01 0.  1.
</event>
<event>
11    1  0.8551154E-009  0.1360297E+03  0.7561462E-02  0.1112075E+00
         22   -1    0    0    0    0  0.00000000000E+00  0.00000000000E+00  0.54137219314E+03  0.54137219314E+03  0.00000000000E+00 0.  1.
         22   -1    0    0    0    0 -0.00000000000E+00 -0.00000000000E+00 -0.17444909891E+03  0.17444909891E+03  0.00000000000E+00 0. -1.
         24    2    1    2    0    0 -0.28602788865E+02  0.28075302747E+02 -0.10613727416E+03  0.13965660858E+03  0.81440194007E+02 0.  0.
         25    2    1    2    0    0  0.72884769086E+02 -0.49592447071E+02  0.81813588382E+02  0.17352920186E+03  0.12508924926E+03 0.  0.
        -24    2    1    2    0    0 -0.44281980221E+02  0.21517144325E+02  0.39124678001E+03  0.40263548162E+03  0.81347445684E+02 0.  0.
        -13    1    3    3    0    0 -0.29338992538E+02  0.30762317761E+02 -0.10249182174E+02  0.43728050635E+02  0.00000000000E+00 0.  1.
         14    1    3    3    0    0  0.73620367213E+00 -0.26870150138E+01 -0.95888091982E+02  0.95928557945E+02  0.00000000000E+00 0. -1.
         11    1    5    5    0    0 -0.34454218544E+02  0.11274594222E+02  0.53704911072E+02  0.64795270842E+02  0.00000000000E+00 0. -1.
        -12    1    5    5    0    0 -0.98277616770E+01  0.10242550103E+02  0.33754186894E+03  0.33784021078E+03  0.00000000000E+00 0.  1.
          5    1    4    4  501    0 -0.16252796288E+02  0.29380008092E+02  0.16559105897E+02  0.37669810867E+02  0.41800000000E+01 0.  1.
         -5    1    4    4    0  501  0.89137565374E+02 -0.78972455164E+02  0.65254482485E+02  0.13585939099E+03  0.41800000000E+01 0.  1.
</event>
<event>
11    1  0.1030528E-008  0.1768854E+03  0.7561462E-02  0.1072190E+00
         22   -1    0    0    0    0  0.00000000000E+00  0.00000000000E+00  0.69070654358E+03  0.69070654358E+03  0.00000000000E+00 0. -1.
         22   -1    0    0    0    0 -0.00000000000E+00 -0.00000000000E+00 -0.34435387417E+03  0.34435387417E+03  0.00000000000E+00 0.  1.
        -24    2    1    2    0    0 -0.16281072079E+02  0.10603809323E+02 -0.24988933977E+03  0.26338253632E+03  0.80920728066E+02 0.  0.
         25    2    1    2    0    0  0.77349044237E+02 -0.11760625353E+03  0.34958804184E+02  0.19152972457E+03  0.12508961544E+03 0.  0.
         24    2    1    2    0    0 -0.61067972159E+02  0.10700244421E+03  0.56128320499E+03  0.58014815686E+03  0.79713407958E+02 0.  0.
        -13    1    5    5    0    0 -0.10342689585E+02 -0.12756647738E+02  0.52778652250E+02  0.55274672524E+02  0.00000000000E+00 0.  1.
         14    1    5    5    0    0 -0.50725282574E+02  0.11975909195E+03  0.50850455274E+03  0.52487348433E+03  0.00000000000E+00 0. -1.
         13    1    3    3    0    0  0.18576368885E+02  0.67170546252E+01 -0.12412443258E+02  0.23329574608E+02  0.00000000000E+00 0. -1.
        -14    1    3    3    0    0 -0.34857440963E+02  0.38867546977E+01 -0.23747689651E+03  0.24005296171E+03  0.00000000000E+00 0.  1.
          5    1    4    4  501    0  0.73067261648E+00 -0.10643059922E+03  0.10589641007E+00  0.10651520993E+03  0.41800000000E+01 0. -1.
         -5    1    4    4    0  501  0.76618371621E+02 -0.11175654308E+02  0.34852907774E+02  0.85014514639E+02  0.41800000000E+01 0. -1.
</event>
<event>
11    1  0.8551154E-009  0.1406334E+03  0.7561462E-02  0.1106853E+00
         22   -1    0    0    0    0  0.00000000000E+00  0.00000000000E+00  0.18569979228E+03  0.18569979228E+03  0.00000000000E+00 0. -1.
         22   -1    0    0    0    0 -0.00000000000E+00 -0.00000000000E+00 -0.46185068560E+03  0.46185068560E+03  0.00000000000E+00 0. -1.
        -24    2    1    2    0    0  0.89976939116E+01  0.15669440006E+02 -0.36084505801E+03  0.37012345650E+03  0.80347540807E+02 0.  0.
         25    2    1    2    0    0 -0.59015876987E+02 -0.49236213688E+02  0.17612716824E+01  0.14682155359E+03  0.12508552292E+03 0.  0.
         24    2    1    2    0    0  0.50018183075E+02  0.33566773682E+02  0.82932893004E+02  0.13060546779E+03  0.80940574137E+02 0.  0.
        -11    1    5    5    0    0 -0.10868638699E+02 -0.17644121587E+02  0.11594276536E+02  0.23745938224E+02  0.00000000000E+00 0.  1.
         12    1    5    5    0    0  0.60886821774E+02  0.51210895269E+02  0.71338616467E+02  0.10685952957E+03  0.00000000000E+00 0. -1.
         13    1    3    3    0    0 -0.29643387694E+01  0.36684429040E+02 -0.32379946990E+03  0.32588438340E+03  0.00000000000E+00 0. -1.
        -14    1    3    3    0    0  0.11962032681E+02 -0.21014989034E+02 -0.37045588117E+02  0.44239073101E+02  0.00000000000E+00 0.  1.
          5    1    4    4  501    0  0.17986599748E+02 -0.64627307356E+02  0.91710062786E+01  0.67836467941E+02  0.41800000000E+01 0.  1.
         -5    1    4    4    0  501 -0.77002476735E+02  0.15391093668E+02 -0.74097345962E+01  0.78985085646E+02  0.41800000000E+01 0.  1.
</event>
<event>
11    1  0.8551154E-009  0.3265378E+03  0.7561462E-02  0.9895460E-01
         22   -1    0    0    0    0  0.00000000000E+00  0.00000000000E+00  0.86600905850E+03  0.86600905850E+03  0.00000000000E+00 0.  1.
         22   -1    0    0    0    0 -0.00000000000E+00 -0.00000000000E+00 -0.20168573711E+03  0.20168573711E+03  0.00000000000E+00 0.  1.
        -24    2    1    2    0    0 -0.17414002048E+03  0.27019831582E+03  0.85134660157E+02  0.34308377126E+03  0.84419708252E+02 0.  0.
         25    2    1    2    0    0  0.18536698192E+03 -0.19856391543E+03  0.29176256179E+03  0.41780612864E+03  0.12509205478E+03 0.  0.
         24    2    1    2    0    0 -0.11226961439E+02 -0.71634400385E+02  0.28742609944E+03  0.30680489571E+03  0.79107201999E+02 0.  0.
        -13    1    5    5    0    0  0.33587799904E+02 -0.41114925197E+02  0.14222744893E+03  0.15181312396E+03  0.00000000000E+00 0.  1.
         14    1    5    5    0    0 -0.44814761343E+02 -0.30519475188E+02  0.14519865051E+03  0.15499177175E+03  0.00000000000E+00 0. -1.
         11    1    3    3    0    0 -0.37474709347E+02  0.13485624274E+03  0.38686113967E+02  0.14521423986E+03  0.00000000000E+00 0. -1.
        -12    1    3    3    0    0 -0.13666531113E+03  0.13534207308E+03  0.46448546190E+02  0.19786953140E+03  0.00000000000E+00 0.  1.
          5    1    4    4  501    0 -0.12665478694E+01 -0.51447404278E+02  0.16671901213E+02  0.54257388810E+02  0.41800000000E+01 0.  1.
         -5    1    4    4    0  501  0.18663352979E+03 -0.14711651115E+03  0.27509066058E+03  0.36354873983E+03  0.41800000000E+01 0.  1.
</event>
<event>
11    1  0.8551154E-009  0.2792173E+03  0.7561462E-02  0.1009392E+00
         22   -1    0    0    0    0  0.00000000000E+00  0.00000000000E+00  0.12365601163E+04  0.12365601163E+04  0.00000000000E+00 0. -1.
         22   -1    0    0    0    0 -0.00000000000E+00 -0.00000000000E+00 -0.33919347951E+03  0.33919347951E+03  0.00000000000E+00 0. -1.
        -24    2    1    2    0    0 -0.75138970605E+02  0.29608406496E+02 -0.26220280499E+03  0.28571355557E+03  0.79745860393E+02 0.  0.
         25    2    1    2    0    0 -0.16609172475E+03  0.10920471746E+03  0.28827034738E+03  0.37183189951E+03  0.12508811682E+03 0.  0.
         24    2    1    2    0    0  0.24123069535E+03 -0.13881312395E+03  0.87129909443E+03  0.91820814076E+03  0.80515501973E+02 0.  0.
        -13    1    5    5    0    0  0.12757786054E+03 -0.28302525280E+02  0.36627178866E+03  0.38888580150E+03  0.00000000000E+00 0.  1.
         14    1    5    5    0    0  0.11365283481E+03 -0.11051059867E+03  0.50502730576E+03  0.52932233926E+03  0.00000000000E+00 0. -1.
         11    1    3    3    0    0 -0.57537042777E+01  0.31989634052E+02 -0.15221859294E+03  0.15565006212E+03  0.00000000000E+00 0. -1.
        -12    1    3    3    0    0 -0.69385266327E+02 -0.23812275565E+01 -0.10998421205E+03  0.13006349345E+03  0.00000000000E+00 0.  1.
          5    1    4    4  501    0 -0.12927476058E+03  0.13002859969E+03  0.26798568450E+03  0.32473558468E+03  0.41800000000E+01 0.  1.
         -5    1    4    4    0  501 -0.36816964173E+02 -0.20823882234E+02  0.20284662872E+02  0.47096314824E+02  0.41800000000E+01 0.  1.
</event>
<event>
11    1  0.8551154E-009  0.1604768E+03  0.7561462E-02  0.1086630E+00
         22   -1    0    0    0    0  0.00000000000E+00  0.00000000000E+00  0.10031736676E+04  0.10031736676E+04  0.00000000000E+00 0. -1.
         22   -1    0    0    0    0 -0.00000000000E+00 -0.00000000000E+00 -0.10935605157E+03  0.10935605157E+03  0.00000000000E+00 0.  1.
        -24    2    1    2    0    0 -0.88153839177E+02 -0.33649606360E+02 -0.10566953187E+02  0.12266837082E+03  0.77668998516E+02 0.  0.
         25    2    1    2    0    0  0.14244102208E+03 -0.33286031388E+02  0.20685320414E+03  0.28254702415E+03  0.12508864112E+03 0.  0.
         24    2    1    2    0    0 -0.54287182903E+02  0.66935637748E+02  0.69753136505E+03  0.70731432416E+03  0.79473707029E+02 0.  0.
        -13    1    5    5    0    0  0.17854647942E+01  0.16083213470E+02  0.39924365617E+03  0.39957146374E+03  0.00000000000E+00 0.  1.
         14    1    5    5    0    0 -0.56072647697E+02  0.50852424278E+02  0.29828770888E+03  0.30774286042E+03  0.00000000000E+00 0. -1.
         13    1    3    3    0    0  0.16809393204E+01  0.16211984900E+02  0.81656742298E+01  0.18229982091E+02  0.00000000000E+00 0. -1.
        -14    1    3    3    0    0 -0.89834778497E+02 -0.49861591260E+02 -0.18732627416E+02  0.10443838873E+03  0.00000000000E+00 0.  1.
          5    1    4    4  501    0 -0.20114662755E+02  0.11830872680E+02  0.24546878704E+02  0.34126102330E+02  0.41800000000E+01 0.  1.
         -5    1    4    4    0  501  0.16255568483E+03 -0.45116904068E+02  0.18230632543E+03  0.24842092182E+03  0.41800000000E+01 0.  1.
</event>
<event>
11    1  0.8551154E-009  0.1402705E+03  0.7561462E-02  0.1107257E+00
         22   -1    0    0    0    0  0.00000000000E+00  0.00000000000E+00  0.16824389876E+03  0.16824389876E+03  0.00000000000E+00 0. -1.
         22   -1    0    0    0    0 -0.00000000000E+00 -0.00000000000E+00 -0.10069502062E+04  0.10069502062E+04  0.00000000000E+00 0. -1.
         24    2    1    2    0    0  0.59419612617E+02  0.16976163409E+02 -0.86674403433E+03  0.87263185511E+03  0.80138960688E+02 0.  0.
         25    2    1    2    0    0 -0.92840922126E+02 -0.95552762647E+01 -0.71241887171E+02  0.17156124031E+03  0.12508841898E+03 0.  0.
        -24    2    1    2    0    0  0.33421309509E+02 -0.74208871445E+01  0.99279614014E+02  0.13100100959E+03  0.78311999461E+02 0.  0.
        -11    1    3    3    0    0 -0.10214365915E+02  0.23390828219E+02 -0.12377804700E+03  0.12638223385E+03  0.00000000000E+00 0.  1.
         12    1    3    3    0    0  0.69633978532E+02 -0.64146648095E+01 -0.74296598733E+03  0.74624962125E+03  0.00000000000E+00 0. -1.
         11    1    5    5    0    0  0.49548106506E+02  0.83250080418E+01  0.95826430181E+02  0.10819900803E+03  0.00000000000E+00 0. -1.
        -12    1    5    5    0    0 -0.16126796997E+02 -0.15745895186E+02  0.34531838328E+01  0.22802001561E+02  0.00000000000E+00 0.  1.
          5    1    4    4  501    0 -0.11037833822E+02  0.51700582629E+02 -0.32446477597E+02  0.62169368085E+02  0.41800000000E+01 0.  1.
         -5    1    4    4    0  501 -0.81803088304E+02 -0.61255858893E+02 -0.38795409574E+02  0.10939187222E+03  0.41800000000E+01 0.  1.
</event>
<event>
11    1  0.8551154E-009  0.2579879E+03  0.7561462E-02  0.1019728E+00
         22   -1    0    0    0    0  0.00000000000E+00  0.00000000000E+00  0.73384099658E+03  0.73384099658E+03  0.00000000000E+00 0.  1.
         22   -1    0    0    0    0 -0.00000000000E+00 -0.00000000000E+00 -0.46200068338E+03  0.46200068338E+03  0.00000000000E+00 0.  1.
         24    2    1    2    0    0 -0.16664424308E+03 -0.14792530315E+03 -0.32849208464E+03  0.40480396546E+03  0.79416633770E+02 0.  0.
         25    2    1    2    0    0  0.17140767235E+03  0.16883574308E+03  0.10793883945E+03  0.29186402031E+03  0.12509082704E+03 0.  0.
        -24    2    1    2    0    0 -0.47634292747E+01 -0.20910439930E+02  0.49239355839E+03  0.49917369419E+03  0.79139268831E+02 0.  0.
        -11    1    3    3    0    0 -0.11835829342E+03 -0.90125812042E+02 -0.27421223799E+03  0.31196746478E+03  0.00000000000E+00 0.  1.
         12    1    3    3    0    0 -0.48285949654E+02 -0.57799491106E+02 -0.54279846650E+02  0.92836500680E+02  0.00000000000E+00 0. -1.
         11    1    5    5    0    0  0.19147177026E+02  0.22660877127E+02  0.12721040024E+03  0.13062394754E+03  0.00000000000E+00 0. -1.
        -12    1    5    5    0    0 -0.23910606301E+02 -0.43571317057E+02  0.36518315815E+03  0.36854974665E+03  0.00000000000E+00 0.  1.
          5    1    4    4  501    0  0.77084931003E+02  0.53366268916E+02 -0.19297244726E+02  0.95811801464E+02  0.41800000000E+01 0. -1.
         -5    1    4    4    0  501  0.94322741350E+02  0.11546947416E+03  0.12723608418E+03  0.19605221885E+03  0.41800000000E+01 0. -1.
</event>
<event>
11    1  0.8551154E-009  0.2304579E+03  0.7561462E-02  0.1034857E+00
         22   -1    0    0    0    0  0.00000000000E+00  0.00000000000E+00  0.74736451342E+03  0.74736451342E+03  0.00000000000E+00 0. -1.
         22   -1    0    0    0    0 -0.00000000000E+00 -0.00000000000E+00 -0.55718947649E+03  0.55718947649E+03  0.00000000000E+00 0. -1.
         24    2    1    2    0    0 -0.80995879142E+02  0.17185638365E+03 -0.38815099102E+03  0.43953028404E+03  0.80191830739E+02 0.  0.
         25    2    1    2    0    0  0.16484700423E+03 -0.15097858703E+03 -0.18042135026E+02  0.25679108109E+03  0.12508825743E+03 0.  0.
        -24    2    1    2    0    0 -0.83851125091E+02 -0.20877796619E+02  0.59636816298E+03  0.60823262478E+03  0.82613839435E+02 0.  0.
        -13    1    3    3    0    0 -0.56747014757E+02  0.61729834621E+02 -0.10250251141E+03  0.13242945673E+03  0.00000000000E+00 0.  1.
         14    1    3    3    0    0 -0.24248864385E+02  0.11012654903E+03 -0.28564847962E+03  0.30710082731E+03  0.00000000000E+00 0. -1.
         13    1    5    5    0    0 -0.66441460132E+02  0.12444982091E+02  0.50389534623E+03  0.50840915133E+03  0.00000000000E+00 0. -1.
        -14    1    5    5    0    0 -0.17409664960E+02 -0.33322778710E+02  0.92472816744E+02  0.99823473449E+02  0.00000000000E+00 0.  1.
          5    1    4    4  501    0  0.91034347677E+02 -0.14949993174E+03  0.15145338191E+02  0.17573939716E+03  0.41800000000E+01 0.  1.
         -5    1    4    4    0  501  0.73812656556E+02 -0.14786552921E+01 -0.33187473218E+02  0.81051683930E+02  0.41800000000E+01 0.  1.
</event>
<event>
11    1  0.8551154E-009  0.2977314E+03  0.7561462E-02  0.1001156E+00
         22   -1    0    0    0    0  0.00000000000E+00  0.00000000000E+00  0.20423949635E+03  0.20423949635E+03  0.00000000000E+00 0. -1.
         22   -1    0    0    0    0 -0.00000000000E+00 -0.00000000000E+00 -0.97231151082E+03  0.97231151082E+03  0.00000000000E+00 0. -1.
         24    2    1    2    0    0 -0.20667232999E+01  0.25605680739E+03 -0.48944085570E+03  0.55866062026E+03  0.83546259286E+02 0.  0.
         25    2    1    2    0    0  0.65809555960E+02  0.10014785578E+03 -0.10857387263E+03  0.20444282809E+03  0.12509233977E+03 0.  0.
        -24    2    1    2    0    0 -0.63742832660E+02 -0.35620466317E+03 -0.17005728614E+03  0.41344755881E+03  0.10523541486E+03 0.  0.
        -13    1    3    3    0    0 -0.21862707420E+02  0.44161688317E+02 -0.15130200655E+03  0.15912425924E+03  0.00000000000E+00 0.  1.
         14    1    3    3    0    0  0.19795984120E+02  0.21189511907E+03 -0.33813884915E+03  0.39953636102E+03  0.00000000000E+00 0. -1.
         11    1    5    5    0    0 -0.50361184057E+02 -0.17650437688E+03 -0.13980449019E+03  0.23072784703E+03  0.00000000000E+00 0. -1.
        -12    1    5    5    0    0 -0.13381648602E+02 -0.17970028629E+03 -0.30252795947E+02  0.18271971179E+03  0.00000000000E+00 0.  1.
          5    1    4    4  501    0 -0.29451208565E+02  0.49498528787E+02 -0.67726746402E+02  0.89004846027E+02  0.41800000000E+01 0. -1.
         -5    1    4    4    0  501  0.95260764524E+02  0.50649326996E+02 -0.40847126228E+02  0.11543798207E+03  0.41800000000E+01 0. -1.
</event>
<event>
11    1  0.8551154E-009  0.1595597E+03  0.7561462E-02  0.1087492E+00
         22   -1    0    0    0    0  0.00000000000E+00  0.00000000000E+00  0.15466412507E+03  0.15466412507E+03  0.00000000000E+00 0.  1.
         22   -1    0    0    0    0 -0.00000000000E+00 -0.00000000000E+00 -0.16117636097E+04  0.16117636097E+04  0.00000000000E+00 0. -1.
        -24    2    1    2    0    0  0.58605998854E+02  0.10019869145E+02 -0.13701042894E+04  0.13737289501E+04  0.80064997243E+02 0.  0.
         25    2    1    2    0    0  0.43416604163E+02  0.24433903355E+02 -0.18239872098E+03  0.22671455219E+03  0.12509267610E+03 0.  0.
         24    2    1    2    0    0 -0.10202260302E+03 -0.34453772500E+02  0.95403525668E+02  0.16598423250E+03  0.82784411347E+02 0.  0.
        -13    1    5    5    0    0 -0.11240150415E+03 -0.31085174942E+02  0.64627018115E+02  0.13333055804E+03  0.00000000000E+00 0.  1.
         14    1    5    5    0    0  0.10378901137E+02 -0.33685975585E+01  0.30776507553E+02  0.32653674456E+02  0.00000000000E+00 0. -1.
         13    1    3    3    0    0  0.66292344750E+02  0.57696283477E+01 -0.13516928797E+04  0.13533298210E+04  0.00000000000E+00 0. -1.
        -14    1    3    3    0    0 -0.76863458958E+01  0.42502407975E+01 -0.18411409708E+02  0.20399129087E+02  0.00000000000E+00 0.  1.
          5    1    4    4  501    0  0.74015592306E+02 -0.18434705570E+02 -0.13786677612E+03  0.15761620041E+03  0.41800000000E+01 0. -1.
         -5    1    4    4    0  501 -0.30598988142E+02  0.42868608925E+02 -0.44531944852E+02  0.69098351781E+02  0.41800000000E+01 0. -1.
</event>
<event>
11    1  0.8551154E-009  0.1485033E+03  0.7561462E-02  0.1098418E+00
         22   -1    0    0    0    0  0.00000000000E+00  0.00000000000E+00  0.92268902712E+02  0.92268902712E+02  0.00000000000E+00 0.  1.
         22   -1    0    0    0    0 -0.00000000000E+00 -0.00000000000E+00 -0.17392885866E+04  0.17392885866E+04  0.00000000000E+00 0. -1.
         24    2    1    2    0    0  0.65952714592E+02 -0.44187359565E+02 -0.13870240322E+04  0.13911621810E+04  0.72071247603E+02 0.  0.
         25    2    1    2    0    0 -0.69705647151E+02  0.49965875021E+02 -0.30850078906E+03  0.34376299492E+03  0.12507915059E+03 0.  0.
        -24    2    1    2    0    0  0.37529325581E+01 -0.57785154558E+01  0.48505137356E+02  0.96632313379E+02  0.83292135856E+02 0.  0.
        -13    1    3    3    0    0  0.99450023372E+01 -0.23231408056E+02 -0.11547546099E+03  0.11820822087E+03  0.00000000000E+00 0.  1.
         14    1    3    3    0    0  0.56007712255E+02 -0.20955951509E+02 -0.12715485712E+04  0.12729539602E+04  0.00000000000E+00 0. -1.
         11    1    5    5    0    0  0.34217269882E+02 -0.29177734932E+02  0.22864686876E+02  0.50447553755E+02  0.00000000000E+00 0. -1.
        -12    1    5    5    0    0 -0.30464337324E+02  0.23399219476E+02  0.25640450480E+02  0.46184759624E+02  0.00000000000E+00 0.  1.
          5    1    4    4  501    0  0.33489710575E+02  0.31720590678E+02 -0.10724227314E+03  0.11681666892E+03  0.41800000000E+01 0.  1.
         -5    1    4    4    0  501 -0.10319535773E+03  0.18245284343E+02 -0.20125851592E+03  0.22694632600E+03  0.41800000000E+01 0.  1.
</event>
<event>
11    1  0.8551154E-009  0.1365544E+03  0.7561462E-02  0.1111468E+00
         22   -1    0    0    0    0  0.00000000000E+00  0.00000000000E+00  0.19205654332E+04  0.19205654332E+04  0.00000000000E+00 0.  1.
         22   -1    0    0    0    0 -0.00000000000E+00 -0.00000000000E+00 -0.23052926615E+03  0.23052926615E+03  0.00000000000E+00 0. -1.
         24    2    1    2    0    0 -0.47663054727E+02 -0.26713509613E+02 -0.21301955189E+03  0.23391179395E+03  0.79699557590E+02 0.  0.
         25    2    1    2    0    0  0.57368971341E+02  0.33450836760E+02  0.92808117197E+03  0.93882495675E+03  0.12508988885E+03 0.  0.
        -24    2    1    2    0    0 -0.97059166146E+01 -0.67373271465E+01  0.97497454694E+03  0.97835794864E+03  0.80432033971E+02 0.  0.
        -13    1    3    3    0    0 -0.13196480668E+02  0.19709059582E+00  0.29802170559E+01  0.13530249089E+02  0.00000000000E+00 0.  1.
         14    1    3    3    0    0 -0.34466574059E+02 -0.26910600209E+02 -0.21599976894E+03  0.22038154486E+03  0.00000000000E+00 0. -1.
         13    1    5    5    0    0  0.22043926168E+02  0.21577905079E+02  0.21593585196E+03  0.21812801936E+03  0.00000000000E+00 0. -1.
        -14    1    5    5    0    0 -0.31749842783E+02 -0.28315232225E+02  0.75903869498E+03  0.76022992928E+03  0.00000000000E+00 0.  1.
          5    1    4    4  501    0  0.16556169749E+02  0.41387754157E+02  0.98566027820E+02  0.10825796595E+03  0.41800000000E+01 0. -1.
         -5    1    4    4    0  501  0.40812801592E+02 -0.79369173973E+01  0.82951514415E+03  0.83056699080E+03  0.41800000000E+01 0. -1.
</event>
<event>
11    1  0.8551154E-009  0.1931086E+03  0.7561462E-02  0.1059507E+00
         22   -1    0    0    0    0  0.00000000000E+00  0.00000000000E+00  0.25608424745E+03  0.25608424745E+03  0.00000000000E+00 0. -1.
         22   -1    0    0    0    0 -0.00000000000E+00 -0.00000000000E+00 -0.81290317408E+03  0.81290317408E+03  0.00000000000E+00 0. -1.
         24    2    1    2    0    0 -0.13805735851E+03 -0.48730121225E+02 -0.62062468510E+03  0.64258430795E+03  0.79404874666E+02 0.  0.
         25    2    1    2    0    0  0.16302303025E+03 -0.14268861190E+02 -0.10208374728E+03  0.22988790703E+03  0.12508896654E+03 0.  0.
        -24    2    1    2    0    0 -0.24965671736E+02  0.62998982415E+02  0.16588950576E+03  0.19651520654E+03  0.80664377097E+02 0.  0.
        -11    1    3    3    0    0  0.17271771059E+01  0.53883951455E+01 -0.19115605058E+01  0.59726046719E+01  0.00000000000E+00 0.  1.
         12    1    3    3    0    0 -0.13978453562E+03 -0.54118516371E+02 -0.61871312459E+03  0.63661170328E+03  0.00000000000E+00 0. -1.
         13    1    5    5    0    0 -0.45778133588E+02  0.29591763292E+02  0.13771524932E+03  0.14811076890E+03  0.00000000000E+00 0. -1.
        -14    1    5    5    0    0  0.20812461852E+02  0.33407219123E+02  0.28174256442E+02  0.48404437647E+02  0.00000000000E+00 0.  1.
          5    1    4    4  501    0  0.15103023894E+03  0.34864609477E+02 -0.80919586329E+02  0.17490319014E+03  0.41800000000E+01 0.  1.
         -5    1    4    4    0  501  0.11992791305E+02 -0.49133470667E+02 -0.21164160952E+02  0.54984716894E+02  0.41800000000E+01 0.  1.
</event>
<event>
11    1  0.8551154E-009  0.1287131E+03  0.7561462E-02  0.1120860E+00
         22   -1    0    0    0    0  0.00000000000E+00  0.00000000000E+00  0.50236495807E+03  0.50236495807E+03  0.00000000000E+00 0. -1.
         22   -1    0    0    0    0 -0.00000000000E+00 -0.00000000000E+00 -0.26395067454E+03  0.26395067454E+03  0.00000000000E+00 0. -1.
         24    2    1    2    0    0 -0.55301506720E+01  0.17906362178E+02 -0.15158133831E+03  0.17335102928E+03  0.81990590040E+02 0.  0.
         25    2    1    2    0    0 -0.22956141998E+02 -0.61673222697E+01 -0.55630046883E+02  0.13895068894E+03  0.12509025350E+03 0.  0.
        -24    2    1    2    0    0  0.28486292670E+02 -0.11739039908E+02  0.44562566871E+03  0.45401391440E+03  0.81222681087E+02 0.  0.
        -13    1    3    3    0    0 -0.19611850893E+02  0.19721410261E+02 -0.78215154479E+01  0.28891777758E+02  0.00000000000E+00 0.  1.
         14    1    3    3    0    0  0.14081700221E+02 -0.18150480832E+01 -0.14375982286E+03  0.14445925152E+03  0.00000000000E+00 0. -1.
         13    1    5    5    0    0  0.24097162715E+00  0.22637811259E+02  0.31893958256E+03  0.31974206150E+03  0.00000000000E+00 0. -1.
        -14    1    5    5    0    0  0.28245321043E+02 -0.34376851167E+02  0.12668608615E+03  0.13427185290E+03  0.00000000000E+00 0.  1.
          5    1    4    4  501    0  0.72320886494E+01  0.27037237405E+02 -0.81991146771E+02  0.86737165399E+02  0.41800000000E+01 0. -1.
         -5    1    4    4    0  501 -0.30188230647E+02 -0.33204559675E+02  0.26361099888E+02  0.52213523537E+02  0.41800000000E+01 0. -1.
</event>
<event>
11    1  0.8551154E-009  0.1590636E+03  0.7561462E-02  0.1087961E+00
         22   -1    0    0    0    0  0.00000000000E+00  0.00000000000E+00  0.26324288655E+04  0.26324288655E+04  0.00000000000E+00 0. -1.
         22   -1    0    0    0    0 -0.00000000000E+00 -0.00000000000E+00 -0.13824464727E+04  0.13824464727E+04  0.00000000000E+00 0. -1.
         24    2    1    2    0    0  0.86547018247E+02  0.57206832957E+02 -0.13216005798E+04  0.13280971584E+04  0.80317878847E+02 0.  0.
         25    2    1    2    0    0 -0.16825900209E+03 -0.50896239356E+01  0.14113462283E+03  0.25278960588E+03  0.12508639824E+03 0.  0.
        -24    2    1    2    0    0  0.81711983842E+02 -0.52117209022E+02  0.24304483498E+04  0.24339885739E+04  0.88476806492E+02 0.  0.
        -11    1    3    3    0    0  0.44105354035E+02  0.54728921035E+02 -0.44963515792E+03  0.45509593746E+03  0.00000000000E+00 0.  1.
         12    1    3    3    0    0  0.42441664212E+02  0.24779119222E+01 -0.87196542186E+03  0.87300122097E+03  0.00000000000E+00 0. -1.
         13    1    5    5    0    0  0.93450147180E+02 -0.20208439250E+02  0.16103959572E+04  0.16132316789E+04  0.00000000000E+00 0. -1.
        -14    1    5    5    0    0 -0.11738163338E+02 -0.31908769772E+02  0.82005239258E+03  0.82075689497E+03  0.00000000000E+00 0.  1.
          5    1    4    4  501    0 -0.17931093748E+03 -0.13540136066E+02  0.15131391802E+03  0.23505131731E+03  0.41800000000E+01 0. -1.
         -5    1    4    4    0  501  0.11051935389E+02  0.84505121304E+01 -0.10179295184E+02  0.17738288575E+02  0.41800000000E+01 0. -1.
</event>
<event>
11    1  0.8551154E-009  0.1718831E+03  0.7561462E-02  0.1076404E+00
         22   -1    0    0    0    0  0.00000000000E+00  0.00000000000E+00  0.12694953473E+04  0.12694953473E+04  0.00000000000E+00 0. -1.
         22   -1    0    0    0    0 -0.00000000000E+00 -0.00000000000E+00 -0.38225217967E+03  0.38225217967E+03  0.00000000000E+00 0. -1.
         24    2    1    2    0    0  0.24541598508E+02 -0.18504681394E+02 -0.33058615445E+03  0.34223140487E+03  0.83008527707E+02 0.  0.
         25    2    1    2    0    0  0.65050653757E+02  0.96071727310E+02  0.13579792429E+03  0.21805914245E+03  0.12508936414E+03 0.  0.
        -24    2    1    2    0    0 -0.89592252266E+02 -0.77567045916E+02  0.10820313978E+04  0.10914569796E+04  0.80268140259E+02 0.  0.
        -13    1    3    3    0    0 -0.24254789880E+02 -0.12824354038E+02 -0.47003319216E+02  0.54424910712E+02  0.00000000000E+00 0.  1.
         14    1    3    3    0    0  0.48796388388E+02 -0.56803273558E+01 -0.28358283524E+03  0.28780649416E+03  0.00000000000E+00 0. -1.
         13    1    5    5    0    0 -0.95580269975E+02 -0.60679703965E+02  0.10342234514E+04  0.10404017310E+04  0.00000000000E+00 0. -1.
        -14    1    5    5    0    0  0.59880177096E+01 -0.16887341951E+02  0.47807946344E+02  0.51055248583E+02  0.00000000000E+00 0.  1.
          5    1    4    4  501    0  0.10109229363E+03  0.57074203702E+02  0.80856782085E+02  0.14153589004E+03  0.41800000000E+01 0. -1.
         -5    1    4    4    0  501 -0.36041639875E+02  0.38997523608E+02  0.54941142206E+02  0.76523252410E+02  0.41800000000E+01 0. -1.
</event>
<event>
11    1  0.8551154E-009  0.5242691E+03  0.7561462E-02  0.9340869E-01
         22   -1    0    0    0    0  0.00000000000E+00  0.00000000000E+00  0.18173331289E+03  0.18173331289E+03  0.00000000000E+00 0.  1.
         22   -1    0    0    0    0 -0.00000000000E+00 -0.00000000000E+00 -0.24096047486E+04  0.24096047486E+04  0.00000000000E+00 0.  1.
        -24    2    1    2    0    0 -0.50622660404E+03  0.34007182531E+02 -0.10195587374E+04  0.11415126822E+04  0.78289983101E+02 0.  0.
         25    2    1    2    0    0  0.47249136474E+03 -0.26296702841E+03 -0.85100826504E+03  0.10160090957E+04  0.12513859351E+03 0.  0.
         24    2    1    2    0    0  0.33735239294E+02  0.22895984588E+03 -0.35730443323E+03  0.43381628358E+03  0.83483126981E+02 0.  0.
        -11    1    5    5    0    0  0.13280475682E+02  0.17219578286E+03 -0.31780123138E+03  0.36169791448E+03  0.00000000000E+00 0.  1.
         12    1    5    5    0    0  0.20454763611E+02  0.56764063019E+02 -0.39503201854E+02  0.72118369100E+02  0.00000000000E+00 0. -1.
         11    1    3    3    0    0 -0.22998746059E+03  0.42156513696E+02 -0.53114813086E+03  0.58033588601E+03  0.00000000000E+00 0. -1.
        -12    1    3    3    0    0 -0.27623914345E+03 -0.81493311652E+01 -0.48841060656E+03  0.56117679618E+03  0.00000000000E+00 0.  1.
          5    1    4    4  501    0  0.32186263777E+03 -0.12221415777E+03 -0.46783939033E+03  0.58088124904E+03  0.41800000000E+01 0.  1.
         -5    1    4    4    0  501  0.15062872698E+03 -0.14075287064E+03 -0.38316887471E+03  0.43512784665E+03  0.41800000000E+01 0.  1.
</event>
<event>
11    1  0.8551154E-009  0.1884629E+03  0.7561462E-02  0.1062996E+00
         22   -1    0    0    0    0  0.00000000000E+00  0.00000000000E+00  0.26210276913E+03  0.26210276913E+03  0.00000000000E+00 0. -1.
         22   -1    0    0    0    0 -0.00000000000E+00 -0.00000000000E+00 -0.35787974642E+03  0.35787974642E+03  0.00000000000E+00 0. -1.
        -24    2    1    2    0    0  0.47184590641E+02  0.12129119577E+02 -0.90629970331E+02  0.12881799540E+03  0.77503440454E+02 0.  0.
         25    2    1    2    0    0 -0.17851641517E+03  0.18060290604E+02 -0.15673258918E+03  0.26909916170E+03  0.12511982152E+03 0.  0.
         24    2    1    2    0    0  0.13133182453E+03 -0.30189410180E+02  0.15158558222E+03  0.22206535845E+03  0.90417841522E+02 0.  0.
        -11    1    5    5    0    0  0.12167419817E+03  0.88983114987E+01  0.11538556934E+03  0.16792146991E+03  0.00000000000E+00 0.  1.
         12    1    5    5    0    0  0.96576263614E+01 -0.39087721679E+02  0.36200012880E+02  0.54143888533E+02  0.00000000000E+00 0. -1.
         11    1    3    3    0    0  0.63424418483E+02 -0.94887432615E+01 -0.58273176912E+02  0.86651348842E+02  0.00000000000E+00 0. -1.
        -12    1    3    3    0    0 -0.16239827842E+02  0.21617862838E+02 -0.32356793419E+02  0.42166646563E+02  0.00000000000E+00 0.  1.
          5    1    4    4  501    0 -0.46936413112E+02  0.39927739880E+02  0.19082706963E+01  0.61792921802E+02  0.41800000000E+01 0.  1.
         -5    1    4    4    0  501 -0.13158000206E+03 -0.21867449276E+02 -0.15864085988E+03  0.20730623990E+03  0.41800000000E+01 0.  1.
</event>
<event>
11    1  0.8551154E-009  0.3721472E+03  0.7561462E-02  0.9735713E-01
         22   -1    0    0    0    0  0.00000000000E+00  0.00000000000E+00  0.12777801010E+04  0.12777801010E+04  0.00000000000E+00 0.  1.
         22   -1    0    0    0    0 -0.00000000000E+00 -0.00000000000E+00 -0.37982804874E+03  0.37982804874E+03  0.00000000000E+00 0. -1.
        -24    2    1    2    0    0 -0.18884539706E+02  0.75555978398E+02 -0.22323482746E+03  0.24879828634E+03  0.77469138259E+02 0.  0.
         25    2    1    2    0    0  0.36452726331E+03 -0.42349344286E+02  0.23433366988E+03  0.45302700507E+03  0.12509039063E+03 0.  0.
         24    2    1    2    0    0 -0.34564272360E+03 -0.33206634113E+02  0.88685320980E+03  0.95578285828E+03  0.80253869142E+02 0.  0.
        -13    1    5    5    0    0 -0.28358485064E+03 -0.94856550403E+01  0.63870876140E+03  0.69889858138E+03  0.00000000000E+00 0.  1.
         14    1    5    5    0    0 -0.62057872962E+02 -0.23720979072E+02  0.24814444841E+03  0.25688427690E+03  0.00000000000E+00 0. -1.
         11    1    3    3    0    0 -0.16331745150E+02  0.58394147166E+02 -0.22336334446E+03  0.23144715589E+03  0.00000000000E+00 0. -1.
        -12    1    3    3    0    0 -0.25527945567E+01  0.17161831232E+02  0.12851699478E+00  0.17351130451E+02  0.00000000000E+00 0.  1.
          5    1    4    4  501    0  0.36576845365E+03 -0.56000548308E+02  0.23552311755E+03  0.43864704991E+03  0.41800000000E+01 0.  1.
         -5    1    4    4    0  501 -0.12411903387E+01  0.13651204022E+02 -0.11894476684E+01  0.14379955162E+02  0.41800000000E+01 0.  1.
</event>
<event>
11    1  0.8551154E-009  0.1474117E+03  0.7561462E-02  0.1099553E+00
         22   -1    0    0    0    0  0.00000000000E+00  0.00000000000E+00  0.24398412693E+04  0.24398412693E+04  0.00000000000E+00 0.  1.
         22   -1    0    0    0    0 -0.00000000000E+00 -0.00000000000E+00 -0.28502665678E+03  0.28502665678E+03  0.00000000000E+00 0.  1.
        -24    2    1    2    0    0 -0.30461734822E+02  0.43254617076E+02 -0.22980039072E+03  0.24941683712E+03  0.81250599265E+02 0.  0.
         25    2    1    2    0    0  0.59564332453E+02 -0.11390883269E+03  0.13871325171E+03  0.22673490402E+03  0.12507685092E+03 0.  0.
         24    2    1    2    0    0 -0.29102597631E+02  0.70654215614E+02  0.22459017515E+04  0.22487161849E+04  0.82527713347E+02 0.  0.
        -11    1    5    5    0    0  0.11982360310E+02  0.17575925966E+02  0.13980116655E+04  0.13981734895E+04  0.00000000000E+00 0.  1.
         12    1    5    5    0    0 -0.41084957941E+02  0.53078289648E+02  0.84789008606E+03  0.85054269537E+03  0.00000000000E+00 0. -1.
         11    1    3    3    0    0 -0.23308695853E+02  0.19630212688E+02 -0.16424506689E+02  0.34617986257E+02  0.00000000000E+00 0. -1.
        -12    1    3    3    0    0 -0.71530389690E+01  0.23624404388E+02 -0.21337588403E+03  0.21479885087E+03  0.00000000000E+00 0.  1.
          5    1    4    4  501    0 -0.54093596020E+01 -0.27786964965E+01  0.88005592081E+02  0.88314432360E+02  0.41800000000E+01 0.  1.
         -5    1    4    4    0  501  0.64973692055E+02 -0.11113013619E+03  0.50707659626E+02  0.13842047166E+03  0.41800000000E+01 0.  1.
</event>
<event>
11    1  0.8551154E-009  0.1556240E+03  0.7561462E-02  0.1091267E+00
         22   -1    0    0    0    0  0.00000000000E+00  0.00000000000E+00  0.25011920875E+04  0.25011920875E+04  0.00000000000E+00 0. -1.
         22   -1    0    0    0    0 -0.00000000000E+00 -0.00000000000E+00 -0.63312406055E+03  0.63312406055E+03  0.00000000000E+00 0.  1.
         24    2    1    2    0    0 -0.89874998977E+02  0.23432069734E+02 -0.61940574349E+03  0.63154161973E+03  0.80961503525E+02 0.  0.
         25    2    1    2    0    0  0.57142149438E+02 -0.72329371125E+01  0.71258011765E+03  0.72576560222E+03  0.12509094565E+03 0.  0.
        -24    2    1    2    0    0  0.32732849539E+02 -0.16199132622E+02  0.17748936528E+04  0.17770089261E+04  0.78609117464E+02 0.  0.
        -11    1    3    3    0    0 -0.91644653529E+02  0.29299069670E+02 -0.61774454633E+03  0.62519237242E+03  0.00000000000E+00 0.  1.
         12    1    3    3    0    0  0.17696545517E+01 -0.58669999354E+01 -0.16611971560E+01  0.63492473149E+01  0.00000000000E+00 0. -1.
         13    1    5    5    0    0  0.18458900893E+02 -0.46850741959E+02  0.12603198504E+04  0.12613254331E+04  0.00000000000E+00 0. -1.
        -14    1    5    5    0    0  0.14273948646E+02  0.30651609337E+02  0.51457380244E+03  0.51568349297E+03  0.00000000000E+00 0.  1.
          5    1    4    4  501    0  0.50003970182E+02  0.17520775363E+02  0.68755830288E+03  0.68960950317E+03  0.41800000000E+01 0. -1.
         -5    1    4    4    0  501  0.71381792558E+01 -0.24753712475E+02  0.25021814764E+02  0.36156099049E+02  0.41800000000E+01 0. -1.
</event>
<event>
11    1  0.8551154E-009  0.2206977E+03  0.7561462E-02  0.1040781E+00
         22   -1    0    0    0    0  0.00000000000E+00  0.00000000000E+00  0.73648226034E+02  0.73648226034E+02  0.00000000000E+00 0. -1.
         22   -1    0    0    0    0 -0.00000000000E+00 -0.00000000000E+00 -0.11219216546E+04  0.11219216546E+04  0.00000000000E+00 0. -1.
        -24    2    1    2    0    0 -0.11056602249E+03  0.17101662551E+03 -0.67761770412E+03  0.71220632691E+03  0.81243877434E+02 0.  0.
         25    2    1    2    0    0  0.38281713405E+02 -0.14306636750E+03 -0.27421315620E+03  0.33581404871E+03  0.12507895582E+03 0.  0.
         24    2    1    2    0    0  0.72284309088E+02 -0.27950258009E+02 -0.96442568197E+02  0.14754950496E+03  0.80395579426E+02 0.  0.
        -11    1    5    5    0    0  0.63074452364E+01 -0.42873592118E+02 -0.45776091554E+02  0.63034746961E+02  0.00000000000E+00 0.  1.
         12    1    5    5    0    0  0.65976863852E+02  0.14923334109E+02 -0.50666476644E+02  0.84514758002E+02  0.00000000000E+00 0. -1.
         13    1    3    3    0    0 -0.10117323961E+03  0.17828505948E+03 -0.60917542689E+03  0.64274122909E+03  0.00000000000E+00 0. -1.
        -14    1    3    3    0    0 -0.93927828799E+01 -0.72684339635E+01 -0.68442277224E+02  0.69465097813E+02  0.00000000000E+00 0.  1.
          5    1    4    4  501    0 -0.12333355864E+02  0.13755385099E+02 -0.41082739476E+01  0.19382275432E+02  0.41800000000E+01 0.  1.
         -5    1    4    4    0  501  0.50615069269E+02 -0.15682175260E+03 -0.27010488225E+03  0.31643177328E+03  0.41800000000E+01 0.  1.
</event>
<event>
11    1  0.8551154E-009  0.1356930E+03  0.7561462E-02  0.1112465E+00
         22   -1    0    0    0    0  0.00000000000E+00  0.00000000000E+00  0.96947818011E+03  0.96947818011E+03  0.00000000000E+00 0.  1.
         22   -1    0    0    0    0 -0.00000000000E+00 -0.00000000000E+00 -0.46549213581E+03  0.46549213581E+03  0.00000000000E+00 0. -1.
         24    2    1    2    0    0  0.50765326228E+02 -0.12116416804E+02 -0.39852576652E+03  0.40913835651E+03  0.76468832105E+02 0.  0.
         25    2    1    2    0    0 -0.49767578000E+02  0.42849311400E+02  0.24297205061E+02  0.14335357707E+03  0.12508804330E+03 0.  0.
        -24    2    1    2    0    0 -0.99774822763E+00 -0.30732894597E+02  0.87821460576E+03  0.88247838235E+03  0.81004291454E+02 0.  0.
        -13    1    3    3    0    0 -0.11748564850E+01 -0.16207568932E+02 -0.15080093849E+02  0.22169231131E+02  0.00000000000E+00 0.  1.
         14    1    3    3    0    0  0.51940182713E+02  0.40911521284E+01 -0.38344567267E+03  0.38696912538E+03  0.00000000000E+00 0. -1.
         13    1    5    5    0    0 -0.36781200317E+02 -0.62760094357E+01  0.24985883239E+03  0.25262953334E+03  0.00000000000E+00 0. -1.
        -14    1    5    5    0    0  0.35783452089E+02 -0.24456885161E+02  0.62835577337E+03  0.62984884901E+03  0.00000000000E+00 0.  1.
          5    1    4    4  501    0  0.12479225742E+02  0.58305500464E+02  0.46098319565E+02  0.75483706362E+02  0.41800000000E+01 0.  1.
         -5    1    4    4    0  501 -0.62246803742E+02 -0.15456189064E+02 -0.21801114503E+02  0.67869870709E+02  0.41800000000E+01 0.  1.
</event>
<event>
11    1  0.8551154E-009  0.1278164E+03  0.7561462E-02  0.1121981E+00
         22   -1    0    0    0    0  0.00000000000E+00  0.00000000000E+00  0.19764945902E+04  0.19764945902E+04  0.00000000000E+00 0.  1.
         22   -1    0    0    0    0 -0.00000000000E+00 -0.00000000000E+00 -0.23322316064E+03  0.23322316064E+03  0.00000000000E+00 0. -1.
        -24    2    1    2    0    0  0.53887900194E+01 -0.29147920926E+01 -0.21928669407E+03  0.23333403083E+03  0.79502079693E+02 0.  0.
         25    2    1    2    0    0 -0.29139391048E+02 -0.59803812371E+01  0.75865649491E+03  0.76947526763E+03  0.12509053187E+03 0.  0.
         24    2    1    2    0    0  0.23750601028E+02  0.88951733297E+01  0.12039016287E+04  0.12069084524E+04  0.81275246102E+02 0.  0.
        -11    1    5    5    0    0  0.54131120520E+02  0.60346957996E+01  0.73559968389E+03  0.73761337481E+03  0.00000000000E+00 0.  1.
         12    1    5    5    0    0 -0.30380519492E+02  0.28604775301E+01  0.46830194482E+03  0.46929507756E+03  0.00000000000E+00 0. -1.
         13    1    3    3    0    0  0.30861020850E+01 -0.40820919109E+02 -0.13039461781E+03  0.13666977653E+03  0.00000000000E+00 0. -1.
        -14    1    3    3    0    0  0.23026879344E+01  0.37906127016E+02 -0.88892076254E+02  0.96664254292E+02  0.00000000000E+00 0.  1.
          5    1    4    4  501    0 -0.29240827757E+02 -0.38372909491E+02  0.70499087448E+03  0.70665204429E+03  0.41800000000E+01 0. -1.
         -5    1    4    4    0  501  0.10143670939E+00  0.32392528254E+02  0.53665620426E+02  0.62823223347E+02  0.41800000000E+01 0. -1.
</event>
<event>
11    1  0.8551154E-009  0.2817004E+03  0.7561462E-02  0.1008248E+00
         22   -1    0    0    0    0  0.00000000000E+00  0.00000000000E+00  0.78802782316E+03  0.78802782316E+03  0.00000000000E+00 0.  1.
         22   -1    0    0    0    0 -0.00000000000E+00 -0.00000000000E+00 -0.12413589219E+04  0.12413589219E+04  0.00000000000E+00 0. -1.
        -24    2    1    2    0    0 -0.34361327124E+02  0.74022105792E+02 -0.11218113520E+04  0.11273018034E+04  0.75423295170E+02 0.  0.
         25    2    1    2    0    0  0.27476192019E+03 -0.87557282664E+02  0.21017252613E+03  0.37812741571E+03  0.12508981268E+03 0.  0.
         24    2    1    2    0    0 -0.24040059307E+03  0.13535176872E+02  0.45830772720E+03  0.52395752591E+03  0.80683765331E+02 0.  0.
        -13    1    5    5    0    0 -0.18633455022E+03  0.42264770338E+02  0.31996201397E+03  0.37266951284E+03  0.00000000000E+00 0.  1.
         14    1    5    5    0    0 -0.54066042850E+02 -0.28729593466E+02  0.13834571323E+03  0.15128801307E+03  0.00000000000E+00 0. -1.
         13    1    3    3    0    0  0.11646277553E+02  0.37474747112E+01 -0.46246749916E+03  0.46262929774E+03  0.00000000000E+00 0. -1.
        -14    1    3    3    0    0 -0.46007604676E+02  0.70274631081E+02 -0.65934385288E+03  0.66467250567E+03  0.00000000000E+00 0.  1.
          5    1    4    4  501    0  0.23235350166E+03 -0.27378721372E+02  0.19069244240E+03  0.30185894736E+03  0.41800000000E+01 0.  1.
         -5    1    4    4    0  501  0.42408418534E+02 -0.60178561292E+02  0.19480083734E+02  0.76268468347E+02  0.41800000000E+01 0.  1.
</event>
<event>
11    1  0.8551154E-009  0.1407266E+03  0.7561462E-02  0.1106750E+00
         22   -1    0    0    0    0  0.00000000000E+00  0.00000000000E+00  0.36984205066E+03  0.36984205066E+03  0.00000000000E+00 0.  1.
         22   -1    0    0    0    0 -0.00000000000E+00 -0.00000000000E+00 -0.18024498551E+04  0.18024498551E+04  0.00000000000E+00 0. -1.
         24    2    1    2    0    0  0.88650799134E+01  0.13943932468E+02 -0.14309504916E+04  0.14332640077E+04  0.79708113808E+02 0.  0.
         25    2    1    2    0    0  0.51608968519E+02 -0.36475021130E+02 -0.34958862376E+03  0.37663498018E+03  0.12509112533E+03 0.  0.
        -24    2    1    2    0    0 -0.60474048433E+02  0.22531088662E+02  0.34793131097E+03  0.36239291785E+03  0.78151578757E+02 0.  0.
        -11    1    3    3    0    0  0.36696052901E+01  0.23150392244E+02 -0.11983128399E+03  0.12210218379E+03  0.00000000000E+00 0.  1.
         12    1    3    3    0    0  0.51954746234E+01 -0.92064597759E+01 -0.13111192076E+04  0.13111618239E+04  0.00000000000E+00 0. -1.
         13    1    5    5    0    0 -0.31846812389E+01 -0.33900477437E+01 -0.32192860107E+01  0.56567146575E+01  0.00000000000E+00 0. -1.
        -14    1    5    5    0    0 -0.57289367194E+02  0.25921136405E+02  0.35115059698E+03  0.35673620319E+03  0.00000000000E+00 0.  1.
          5    1    4    4  501    0  0.41044042163E+02  0.16545290037E+02 -0.32807114801E+02  0.55246169107E+02  0.41800000000E+01 0.  1.
         -5    1    4    4    0  501  0.10564926357E+02 -0.53020311167E+02 -0.31678150896E+03  0.32138881107E+03  0.41800000000E+01 0.  1.
</event>
<event>
11    1  0.8551154E-009  0.1434884E+03  0.7561462E-02  0.1103724E+00
         22   -1    0    0    0    0  0.00000000000E+00  0.00000000000E+00  0.30783909238E+03  0.30783909238E+03  0.00000000000E+00 0.  1.
         22   -1    0    0    0    0 -0.00000000000E+00 -0.00000000000E+00 -0.19103808471E+04  0.19103808471E+04  0.00000000000E+00 0. -1.
         24    2    1    2    0    0  0.78456992192E+00  0.69533579556E+02 -0.15729294871E+04  0.15757576027E+04  0.63791197539E+02 0.  0.
         25    2    1    2    0    0  0.18004541217E+02 -0.79272247262E+02 -0.31310767207E+03  0.34683264424E+03  0.12509282998E+03 0.  0.
        -24    2    1    2    0    0 -0.18789111139E+02  0.97386677060E+01  0.28349540450E+03  0.29562969247E+03  0.81113490540E+02 0.  0.
        -11    1    3    3    0    0 -0.19562407908E+02  0.53037572702E+00 -0.20319191592E+03  0.20413212338E+03  0.00000000000E+00 0.  1.
         12    1    3    3    0    0  0.20346977830E+02  0.69003203829E+02 -0.13697375712E+04  0.13716254794E+04  0.00000000000E+00 0. -1.
         11    1    5    5    0    0  0.14668644429E+02 -0.29038574244E+02  0.11645909745E+03  0.12091786180E+03  0.00000000000E+00 0. -1.
        -12    1    5    5    0    0 -0.33457755568E+02  0.38777241950E+02  0.16703630706E+03  0.17471183067E+03  0.00000000000E+00 0.  1.
          5    1    4    4  501    0 -0.53601384768E+02 -0.30322014809E+02 -0.14590070596E+03  0.15842039462E+03  0.41800000000E+01 0. -1.
         -5    1    4    4    0  501  0.71605925985E+02 -0.48950232454E+02 -0.16720696611E+03  0.18841224962E+03  0.41800000000E+01 0. -1.
</event>
<event>
11    1  0.8551154E-009  0.1454724E+03  0.7561462E-02  0.1101597E+00
         22   -1    0    0    0    0  0.00000000000E+00  0.00000000000E+00  0.36272784530E+04  0.36272784530E+04  0.00000000000E+00 0. -1.
         22   -1    0    0    0    0 -0.00000000000E+00 -0.00000000000E+00 -0.46251348626E+02  0.46251348626E+02  0.00000000000E+00 0.  1.
        -24    2    1    2    0    0 -0.15627378021E+02  0.46618474068E+02  0.58800476575E+02  0.11231939559E+03  0.82101483014E+02 0.  0.
         25    2    1    2    0    0  0.86777519358E+02 -0.63084268430E+02  0.34674360415E+03  0.38391368508E+03  0.12509447542E+03 0.  0.
         24    2    1    2    0    0 -0.71150141337E+02  0.16465794362E+02  0.31754830236E+04  0.31772967209E+04  0.78667366255E+02 0.  0.
        -11    1    5    5    0    0 -0.75090282524E+02 -0.10249310837E+02  0.18710834095E+04  0.18726176129E+04  0.00000000000E+00 0.  1.
         12    1    5    5    0    0  0.39401411869E+01  0.26715105199E+02  0.13043996142E+04  0.13046791080E+04  0.00000000000E+00 0. -1.
         11    1    3    3    0    0 -0.37619942678E+01  0.25887327930E+02  0.77620187293E+02  0.81909705308E+02  0.00000000000E+00 0. -1.
        -12    1    3    3    0    0 -0.11865383753E+02  0.20731146138E+02 -0.18819710718E+02  0.30409690286E+02  0.00000000000E+00 0.  1.
          5    1    4    4  501    0  0.31866090391E+02  0.19902330362E+02  0.21742832053E+03  0.22069004834E+03  0.41800000000E+01 0. -1.
         -5    1    4    4    0  501  0.54911428967E+02 -0.82986598792E+02  0.12931528363E+03  0.16322363674E+03  0.41800000000E+01 0. -1.
</event>
<event>
11    1  0.8551154E-009  0.1629653E+03  0.7561462E-02  0.1084321E+00
         22   -1    0    0    0    0  0.00000000000E+00  0.00000000000E+00  0.24503545135E+04  0.24503545135E+04  0.00000000000E+00 0.  1.
         22   -1    0    0    0    0 -0.00000000000E+00 -0.00000000000E+00 -0.74248860845E+03  0.74248860845E+03  0.00000000000E+00 0. -1.
         24    2    1    2    0    0  0.25281248127E+02  0.43217800032E+01 -0.71767223393E+03  0.72265257204E+03  0.80718555674E+02 0.  0.
         25    2    1    2    0    0 -0.12583635868E+03 -0.21998426890E+02  0.37390208842E+03  0.41444945015E+03  0.12508738969E+03 0.  0.
        -24    2    1    2    0    0  0.10055511055E+03  0.17676646887E+02  0.20516360506E+04  0.20557410998E+04  0.80232107921E+02 0.  0.
        -13    1    3    3    0    0  0.30379977252E+02  0.34360021915E+02 -0.26367969321E+03  0.26763881396E+03  0.00000000000E+00 0.  1.
         14    1    3    3    0    0 -0.50987291247E+01 -0.30038241912E+02 -0.45399254072E+03  0.45501375808E+03  0.00000000000E+00 0. -1.
         11    1    5    5    0    0 -0.87184844804E+01 -0.53997811709E+01  0.52761311085E+02  0.53748726085E+02  0.00000000000E+00 0. -1.
        -12    1    5    5    0    0  0.10927359503E+03  0.23076428058E+02  0.19988747395E+04  0.20019923737E+04  0.00000000000E+00 0.  1.
          5    1    4    4  501    0 -0.56937258155E+02 -0.72968539459E+02  0.18141010295E+03  0.20369918254E+03  0.41800000000E+01 0. -1.
         -5    1    4    4    0  501 -0.68899100523E+02  0.50970112569E+02  0.19249198547E+03  0.21075026761E+03  0.41800000000E+01 0. -1.
</event>
<event>
11    1  0.8551154E-009  0.1830719E+03  0.7561462E-02  0.1067185E+00
         22   -1    0    0    0    0  0.00000000000E+00  0.00000000000E+00  0.13125344870E+04  0.13125344870E+04  0.00000000000E+00 0.  1.
         22   -1    0    0    0    0 -0.00000000000E+00 -0.00000000000E+00 -0.52231878000E+02  0.52231878000E+02  0.00000000000E+00 0. -1.
        -24    2    1    2    0    0  0.10541285118E+03  0.56446656595E+02  0.23875592926E+03  0.27896087375E+03  0.80725962926E+02 0.  0.
         25    2    1    2    0    0 -0.14986596701E+03 -0.37298383741E+02  0.30842747246E+03  0.36691384083E+03  0.12508910154E+03 0.  0.
         24    2    1    2    0    0  0.44453115830E+02 -0.19148272854E+02  0.71311920728E+03  0.71889165043E+03  0.76964052666E+02 0.  0.
        -13    1    5    5    0    0  0.51537303153E+02  0.16270459059E+02  0.38098875147E+03  0.38480287188E+03  0.00000000000E+00 0.  1.
         14    1    5    5    0    0 -0.70841873231E+01 -0.35418731913E+02  0.33213045580E+03  0.33408877855E+03  0.00000000000E+00 0. -1.
         13    1    3    3    0    0  0.28430163965E+02 -0.14527431632E+02  0.23676355253E+02  0.39747833789E+02  0.00000000000E+00 0. -1.
        -14    1    3    3    0    0  0.76982687212E+02  0.70974088228E+02  0.21507957401E+03  0.23921303996E+03  0.00000000000E+00 0.  1.
          5    1    4    4  501    0 -0.12375586512E+03 -0.74912704780E+02  0.18291066415E+03  0.23324067173E+03  0.41800000000E+01 0. -1.
         -5    1    4    4    0  501 -0.26110101887E+02  0.37614321039E+02  0.12551680831E+03  0.13367316910E+03  0.41800000000E+01 0. -1.
</event>
<event>
11    1  0.8551154E-009  0.1740472E+03  0.7561462E-02  0.1074562E+00
         22   -1    0    0    0    0  0.00000000000E+00  0.00000000000E+00  0.27517103384E+03  0.27517103384E+03  0.00000000000E+00 0.  1.
         22   -1    0    0    0    0 -0.00000000000E+00 -0.00000000000E+00 -0.80705810831E+03  0.80705810831E+03  0.00000000000E+00 0. -1.
         24    2    1    2    0    0  0.55174197383E+02 -0.22029289444E+02 -0.66658837307E+03  0.67399003091E+03  0.79956369391E+02 0.  0.
         25    2    1    2    0    0 -0.68042326050E+02  0.13654057692E+03 -0.22509666185E+02  0.19855383297E+03  0.12507538621E+03 0.  0.
        -24    2    1    2    0    0  0.12868128668E+02 -0.11451128748E+03  0.15721096479E+03  0.20968527827E+03  0.77292980130E+02 0.  0.
        -11    1    3    3    0    0 -0.10797038355E+02  0.10665516883E+02 -0.28254789205E+03  0.28295519184E+03  0.00000000000E+00 0.  1.
         12    1    3    3    0    0  0.65971235737E+02 -0.32694806327E+02 -0.38404048102E+03  0.39103483907E+03  0.00000000000E+00 0. -1.
         11    1    5    5    0    0 -0.11469509967E+02 -0.75424965114E+02  0.45433248974E+02  0.88795580598E+02  0.00000000000E+00 0. -1.
        -12    1    5    5    0    0  0.24337638635E+02 -0.39086322364E+02  0.11177771581E+03  0.12088969767E+03  0.00000000000E+00 0.  1.
          5    1    4    4  501    0 -0.31988655852E+02 -0.18869168793E+02 -0.86482805054E+01  0.38361240724E+02  0.41800000000E+01 0.  1.
         -5    1    4    4    0  501 -0.36053670198E+02  0.15540974572E+03 -0.13861385680E+02  0.16019259225E+03  0.41800000000E+01 0.  1.
</event>
<event>
11    1  0.8551154E-009  0.1606936E+03  0.7561462E-02  0.1086427E+00
         22   -1    0    0    0    0  0.00000000000E+00  0.00000000000E+00  0.15681575597E+04  0.15681575597E+04  0.00000000000E+00 0. -1.
         22   -1    0    0    0    0 -0.00000000000E+00 -0.00000000000E+00 -0.24296269465E+03  0.24296269465E+03  0.00000000000E+00 0.  1.
        -24    2    1    2    0    0 -0.77051994948E+02  0.65646802846E+02 -0.16367735499E+03  0.20793195603E+03  0.78733151551E+02 0.  0.
         25    2    1    2    0    0  0.12950490032E+03  0.81395511258E+01  0.94224823184E+02  0.20337743729E+03  0.12508514379E+03 0.  0.
         24    2    1    2    0    0 -0.52452905373E+02 -0.73786353972E+02  0.13946473968E+04  0.13998108610E+04  0.78951578404E+02 0.  0.
        -11    1    5    5    0    0 -0.19605648170E+02 -0.97766622737E+01  0.73243449700E+02  0.76449771022E+02  0.00000000000E+00 0.  1.
         12    1    5    5    0    0 -0.32847257203E+02 -0.64009691698E+02  0.13214039471E+04  0.13233610900E+04  0.00000000000E+00 0. -1.
         11    1    3    3    0    0  0.14856814997E+02  0.97757428129E+00 -0.28386959856E+02  0.32054642303E+02  0.00000000000E+00 0. -1.
        -12    1    3    3    0    0 -0.91908809945E+02  0.64669228565E+02 -0.13529039514E+03  0.17587731373E+03  0.00000000000E+00 0.  1.
          5    1    4    4  501    0  0.17167859272E+02 -0.48711722531E+02  0.12782306451E+02  0.53370657314E+02  0.41800000000E+01 0. -1.
         -5    1    4    4    0  501  0.11233704105E+03  0.56851273657E+02  0.81442516734E+02  0.15000677998E+03  0.41800000000E+01 0. -1.
</event>
<event>
11    1  0.8551154E-009  0.1789592E+03  0.7561462E-02  0.1070488E+00
         22   -1    0    0    0    0  0.00000000000E+00  0.00000000000E+00  0.13018930221E+04  0.13018930221E+04  0.00000000000E+00 0.  1.
         22   -1    0    0    0    0 -0.00000000000E+00 -0.00000000000E+00 -0.51797493482E+03  0.51797493482E+03  0.00000000000E+00 0. -1.
         24    2    1    2    0    0  0.64732588189E+02  0.11883044074E+02 -0.47695781617E+03  0.48826691655E+03  0.81143753193E+02 0.  0.
         25    2    1    2    0    0 -0.13872095770E+03  0.86221504990E+02  0.32700030111E+03  0.38633527335E+03  0.12509234383E+03 0.  0.
        -24    2    1    2    0    0  0.73988369512E+02 -0.98104549064E+02  0.93387560231E+03  0.94526576699E+03  0.79403704372E+02 0.  0.
        -11    1    3    3    0    0  0.20530086737E+02 -0.33065935547E+02 -0.23656333232E+03  0.23974371891E+03  0.00000000000E+00 0.  1.
         12    1    3    3    0    0  0.44202501452E+02  0.44948979621E+02 -0.24039448385E+03  0.24852319765E+03  0.00000000000E+00 0. -1.
         11    1    5    5    0    0 -0.10811570138E+02  0.69820277821E+00  0.27026899374E+02  0.29117534678E+02  0.00000000000E+00 0. -1.
        -12    1    5    5    0    0  0.84799939650E+02 -0.98802751843E+02  0.90684870294E+03  0.91614823231E+03  0.00000000000E+00 0.  1.
          5    1    4    4  501    0 -0.13919345143E+03  0.10652177223E+03  0.31920729978E+03  0.36418742086E+03  0.41800000000E+01 0.  1.
         -5    1    4    4    0  501  0.47249373032E+00 -0.20300267241E+02  0.77930013313E+01  0.22147852495E+02  0.41800000000E+01 0.  1.
</event>
<event>
11    1  0.8551154E-009  0.1801816E+03  0.7561462E-02  0.1069496E+00
         22   -1    0    0    0    0  0.00000000000E+00  0.00000000000E+00  0.32625039749E+03  0.32625039749E+03  0.00000000000E+00 0.  1.
         22   -1    0    0    0    0 -0.00000000000E+00 -0.00000000000E+00 -0.84690708215E+03  0.84690708215E+03  0.00000000000E+00 0. -1.
        -24    2    1    2    0    0  0.89390943682E+02  0.29568151738E+02 -0.71510035607E+03  0.72566349012E+03  0.79711763419E+02 0.  0.
         25    2    1    2    0    0 -0.17232388409E+03  0.57581397656E+02  0.20108615305E+02  0.22150397341E+03  0.12509402641E+03 0.  0.
         24    2    1    2    0    0  0.82932940403E+02 -0.87149549394E+02  0.17433505610E+03  0.22599001613E+03  0.78777274888E+02 0.  0.
        -11    1    5    5    0    0  0.75704683117E+02 -0.72169443417E+02  0.18019897391E+03  0.20835378040E+03  0.00000000000E+00 0.  1.
         12    1    5    5    0    0  0.72282572858E+01 -0.14980105977E+02 -0.58639178079E+01  0.17636235725E+02  0.00000000000E+00 0. -1.
         11    1    3    3    0    0  0.59323260641E+02  0.24891669290E+02 -0.65639775360E+03  0.65954291398E+03  0.00000000000E+00 0. -1.
        -12    1    3    3    0    0  0.30067683041E+02  0.46764824486E+01 -0.58702602466E+02  0.66120576131E+02  0.00000000000E+00 0.  1.
          5    1    4    4  501    0 -0.61379590183E+02  0.78393708603E+00 -0.49246006725E+02  0.78808059402E+02  0.41800000000E+01 0. -1.
         -5    1    4    4    0  501 -0.11094429390E+03  0.56797460570E+02  0.69354622031E+02  0.14269591400E+03  0.41800000000E+01 0. -1.
</event>
<event>
11    1  0.8551154E-009  0.1680075E+03  0.7561462E-02  0.1079779E+00
         22   -1    0    0    0    0  0.00000000000E+00  0.00000000000E+00  0.26769344133E+04  0.26769344133E+04  0.00000000000E+00 0.  1.
         22   -1    0    0    0    0 -0.00000000000E+00 -0.00000000000E+00 -0.54368877071E+02  0.54368877071E+02  0.00000000000E+00 0.  1.
        -24    2    1    2    0    0 -0.54269847651E+02  0.14309635623E+02  0.16792608799E+02  0.98968962687E+02  0.79767674088E+02 0.  0.
         25    2    1    2    0    0 -0.51465612212E+02  0.48239897367E+02  0.47395319086E+03  0.49523245946E+03  0.12509102621E+03 0.  0.
         24    2    1    2    0    0  0.10573545986E+03 -0.62549532990E+02  0.21318197366E+04  0.21371018683E+04  0.86351458487E+02 0.  0.
        -11    1    5    5    0    0  0.10005833147E+03 -0.69499888187E+02  0.21099259801E+04  0.21134402158E+04  0.00000000000E+00 0.  1.
         12    1    5    5    0    0  0.56771283968E+01  0.69503551968E+01  0.21893756468E+02  0.23661652446E+02  0.00000000000E+00 0. -1.
         11    1    3    3    0    0  0.18024634889E+02 -0.56771870573E+01  0.14685629650E+02  0.23932940353E+02  0.00000000000E+00 0. -1.
        -12    1    3    3    0    0 -0.72294482540E+02  0.19986822680E+02  0.21069791489E+01  0.75036022334E+02  0.00000000000E+00 0.  1.
          5    1    4    4  501    0 -0.22214214431E+02  0.68181924725E+02  0.12273446393E+03  0.14220923746E+03  0.41800000000E+01 0. -1.
         -5    1    4    4    0  501 -0.29251397781E+02 -0.19942027358E+02  0.35121872693E+03  0.35302322200E+03  0.41800000000E+01 0. -1.
</event>
<event>
11    1  0.8551154E-009  0.1393684E+03  0.7561462E-02  0.1108266E+00
         22   -1    0    0    0    0  0.00000000000E+00  0.00000000000E+00  0.30360326482E+04  0.30360326482E+04  0.00000000000E+00 0.  1.
         22   -1    0    0    0    0 -0.00000000000E+00 -0.00000000000E+00 -0.23697085797E+03  0.23697085797E+03  0.00000000000E+00 0. -1.
         24    2    1    2    0    0  0.23650942187E+02  0.21606095901E+02 -0.21871531674E+03  0.23588111725E+03  0.82324487558E+02 0.  0.
         25    2    1    2    0    0 -0.56814660715E+02 -0.69409041041E+02  0.67489650592E+03  0.69222831091E+03  0.12509684276E+03 0.  0.
        -24    2    1    2    0    0  0.33163718528E+02  0.47802945140E+02  0.23428806010E+04  0.23448940780E+04  0.77805992908E+02 0.  0.
        -13    1    3    3    0    0  0.32241090016E+02  0.17819791071E+02 -0.31611476989E+02  0.48541923290E+02  0.00000000000E+00 0.  1.
         14    1    3    3    0    0 -0.85901478285E+01  0.37863048302E+01 -0.18710383975E+03  0.18733919396E+03  0.00000000000E+00 0. -1.
         13    1    5    5    0    0  0.37926160666E+02  0.81551470376E+01  0.47332422283E+03  0.47491127593E+03  0.00000000000E+00 0. -1.
        -14    1    5    5    0    0 -0.47624421374E+01  0.39647798102E+02  0.18695563782E+04  0.18699828021E+04  0.00000000000E+00 0.  1.
          5    1    4    4  501    0  0.28808657479E+02 -0.39148924098E+02  0.39346875369E+03  0.39648166355E+03  0.41800000000E+01 0.  1.
         -5    1    4    4    0  501 -0.85623318194E+02 -0.30260116943E+02  0.28142775223E+03  0.29574664736E+03  0.41800000000E+01 0.  1.
</event>
<event>
11    1  0.1153913E-008  0.1573197E+03  0.7561462E-02  0.1089626E+00
         22   -1    0    0    0    0  0.00000000000E+00  0.00000000000E+00  0.54624544237E+03  0.54624544237E+03  0.00000000000E+00 0.  1.
         22   -1    0    0    0    0 -0.00000000000E+00 -0.00000000000E+00 -0.12217516839E+04  0.12217516839E+04  0.00000000000E+00 0.  1.
        -24    2    1    2    0    0  0.30135748819E+02 -0.44462402172E+02 -0.95380995623E+03  0.95851059368E+03  0.78128464944E+02 0.  0.
         25    2    1    2    0    0 -0.15333802924E+02  0.13755879467E+03 -0.22418818266E+03  0.29166025604E+03  0.12509123152E+03 0.  0.
         24    2    1    2    0    0 -0.14801945895E+02 -0.93096392496E+02  0.50249189740E+03  0.51782627651E+03  0.82218670587E+02 0.  0.
        -13    1    5    5    0    0 -0.29884062887E+02 -0.36556151574E+02  0.36982624593E+03  0.37282819316E+03  0.00000000000E+00 0.  1.
         14    1    5    5    0    0  0.15082116992E+02 -0.56540240922E+02  0.13266565147E+03  0.14499808335E+03  0.00000000000E+00 0. -1.
         13    1    3    3    0    0  0.14885025764E+02 -0.51724928350E+02 -0.32144800175E+03  0.32592307380E+03  0.00000000000E+00 0. -1.
        -14    1    3    3    0    0  0.15250723055E+02  0.72625261776E+01 -0.63236195447E+03  0.63258751988E+03  0.00000000000E+00 0.  1.
          5    1    4    4  501    0  0.26063715233E+02  0.14051524156E+03 -0.15499847938E+03  0.21086927555E+03  0.41800000000E+01 0.  1.
         -5    1    4    4    0  501 -0.41397518156E+02 -0.29564468873E+01 -0.69189703284E+02  0.80790980488E+02  0.41800000000E+01 0.  1.
</event>
<event>
11    1  0.8551154E-009  0.2263718E+03  0.7561462E-02  0.1037298E+00
         22   -1    0    0    0    0  0.00000000000E+00  0.00000000000E+00  0.69969206964E+02  0.69969206964E+02  0.00000000000E+00 0. -1.
         22   -1    0    0    0    0 -0.00000000000E+00 -0.00000000000E+00 -0.20191426242E+04  0.20191426242E+04  0.00000000000E+00 0. -1.
        -24    2    1    2    0    0 -0.16435636314E+03  0.50271103540E+02 -0.12306169669E+04  0.12452557532E+04  0.81875354507E+02 0.  0.
         25    2    1    2    0    0  0.24868981651E+03 -0.82035875613E+02 -0.62864664408E+03  0.69240238798E+03  0.12509178247E+03 0.  0.
         24    2    1    2    0    0 -0.84333453366E+02  0.31764772074E+02 -0.89909806271E+02  0.15145369001E+03  0.82056778225E+02 0.  0.
        -13    1    5    5    0    0 -0.38182319340E+02  0.11996441620E+02 -0.92903685232E+02  0.10115779185E+03  0.00000000000E+00 0.  1.
         14    1    5    5    0    0 -0.46151134026E+02  0.19768330454E+02  0.29938789615E+01  0.50295898163E+02  0.00000000000E+00 0. -1.
         11    1    3    3    0    0 -0.92718621745E+02 -0.58759953745E+01 -0.78193718076E+03  0.78743699735E+03  0.00000000000E+00 0. -1.
        -12    1    3    3    0    0 -0.71637741397E+02  0.56147098914E+02 -0.44867978611E+03  0.45781875581E+03  0.00000000000E+00 0.  1.
          5    1    4    4  501    0  0.24416963639E+02  0.12670063880E+02 -0.13715572549E+02  0.31021088995E+02  0.41800000000E+01 0.  1.
         -5    1    4    4    0  501  0.22427285287E+03 -0.94705939493E+02 -0.61493107153E+03  0.66138129898E+03  0.41800000000E+01 0.  1.
</event>
<event>
11    1  0.8551154E-009  0.1717570E+03  0.7561462E-02  0.1076513E+00
         22   -1    0    0    0    0  0.00000000000E+00  0.00000000000E+00  0.32951608408E+04  0.32951608408E+04  0.00000000000E+00 0. -1.
         22   -1    0    0    0    0 -0.00000000000E+00 -0.00000000000E+00 -0.32851899971E+03  0.32851899971E+03  0.00000000000E+00 0. -1.
         24    2    1    2    0    0  0.11111827841E+03  0.44396575263E+02 -0.29405500194E+03  0.32712280457E+03  0.78883822232E+02 0.  0.
         25    2    1    2    0    0 -0.47715866125E+02 -0.80334457274E+02  0.34515992559E+03  0.37883225496E+03  0.12509226298E+03 0.  0.
        -24    2    1    2    0    0 -0.63402412290E+02  0.35937882011E+02  0.29155369175E+04  0.29177247810E+04  0.86319078405E+02 0.  0.
        -13    1    3    3    0    0 -0.30581757825E-01 -0.14341434731E+02 -0.13528819338E+02  0.19715644501E+02  0.00000000000E+00 0.  1.
         14    1    3    3    0    0  0.11114886017E+03  0.58738009994E+02 -0.28052618260E+03  0.30740716007E+03  0.00000000000E+00 0. -1.
         13    1    5    5    0    0 -0.21259031701E+02  0.53915009509E+02  0.21748996697E+04  0.21756717004E+04  0.00000000000E+00 0. -1.
        -14    1    5    5    0    0 -0.42143380589E+02 -0.17977127498E+02  0.74063724778E+03  0.74205308061E+03  0.00000000000E+00 0.  1.
          5    1    4    4  501    0 -0.52155074900E+02 -0.11176984060E+03  0.28771113439E+03  0.31306200401E+03  0.41800000000E+01 0.  1.
         -5    1    4    4    0  501  0.44392087743E+01  0.31435383322E+02  0.57448791198E+02  0.65770250945E+02  0.41800000000E+01 0.  1.
</event>
<event>
11    1  0.8551154E-009  0.1321054E+03  0.7561462E-02  0.1116709E+00
         22   -1    0    0    0    0  0.00000000000E+00  0.00000000000E+00  0.43949378580E+03  0.43949378580E+03  0.00000000000E+00 0. -1.
         22   -1    0    0    0    0 -0.00000000000E+00 -0.00000000000E+00 -0.28118502645E+03  0.28118502645E+03  0.00000000000E+00 0.  1.
         24    2    1    2    0    0 -0.46525833176E+01 -0.93132720408E+01 -0.24070848465E+03  0.25367510669E+03  0.79385777098E+02 0.  0.
         25    2    1    2    0    0 -0.37144855169E+02  0.19675301986E+02  0.16257105161E+03  0.20938993320E+03  0.12509172447E+03 0.  0.
        -24    2    1    2    0    0  0.41797438487E+02 -0.10362029945E+02  0.23644619239E+03  0.25761377237E+03  0.92755896255E+02 0.  0.
        -13    1    3    3    0    0  0.30713753688E+02  0.17562326340E+02 -0.11707314778E+03  0.12230246074E+03  0.00000000000E+00 0.  1.
         14    1    3    3    0    0 -0.35366337006E+02 -0.26875598381E+02 -0.12363533687E+03  0.13137264595E+03  0.00000000000E+00 0. -1.
         13    1    5    5    0    0  0.65663390655E+02 -0.28887175973E+02  0.17532526378E+03  0.18943362407E+03  0.00000000000E+00 0. -1.
        -14    1    5    5    0    0 -0.23865952168E+02  0.18525146028E+02  0.61120928613E+02  0.68180148304E+02  0.00000000000E+00 0.  1.
          5    1    4    4  501    0  0.45331954927E+02 -0.27723920782E+01  0.67624176932E+02  0.81566990879E+02  0.41800000000E+01 0.  1.
         -5    1    4    4    0  501 -0.82476810097E+02  0.22447694064E+02  0.94946874674E+02  0.12782294232E+03  0.41800000000E+01 0.  1.
</event>
<event>
11    1  0.8551154E-009  0.2738793E+03  0.7561462E-02  0.1011895E+00
         22   -1    0    0    0    0  0.00000000000E+00  0.00000000000E+00  0.36024747426E+03  0.36024747426E+03  0.00000000000E+00 0. -1.
         22   -1    0    0    0    0 -0.00000000000E+00 -0.00000000000E+00 -0.73887636736E+03  0.73887636736E+03  0.00000000000E+00 0.  1.
        -24    2    1    2    0    0 -0.32114445125E+02 -0.17780399643E+02 -0.29707740554E+03  0.31021293995E+03  0.81422374282E+02 0.  0.
         25    2    1    2    0    0 -0.52560028549E+02 -0.21431246246E+03 -0.33922352315E+03  0.42356929934E+03  0.12508382994E+03 0.  0.
         24    2    1    2    0    0  0.84674473674E+02  0.23209286210E+03  0.25767203560E+03  0.36534160234E+03  0.77735097224E+02 0.  0.
        -13    1    5    5    0    0  0.59227665658E+02  0.69591474505E+02  0.12008614153E+03  0.15090252182E+03  0.00000000000E+00 0.  1.
         14    1    5    5    0    0  0.25446808016E+02  0.16250138760E+03  0.13758589407E+03  0.21443908052E+03  0.00000000000E+00 0. -1.
         13    1    3    3    0    0 -0.84736774123E+01 -0.49223468396E+02 -0.17003724643E+03  0.17722138196E+03  0.00000000000E+00 0. -1.
        -14    1    3    3    0    0 -0.23640767713E+02  0.31443068753E+02 -0.12704015911E+03  0.13299155799E+03  0.00000000000E+00 0.  1.
          5    1    4    4  501    0 -0.76195492901E+02 -0.59669112559E+02 -0.12001386837E+03  0.15423020824E+03  0.41800000000E+01 0.  1.
         -5    1    4    4    0  501  0.23635464352E+02 -0.15464334990E+03 -0.21920965479E+03  0.26933909110E+03  0.41800000000E+01 0.  1.
</event>
<event>
11    1  0.8551154E-009  0.2899865E+03  0.7561462E-02  0.1004520E+00
         22   -1    0    0    0    0  0.00000000000E+00  0.00000000000E+00  0.13415472879E+04  0.13415472879E+04  0.00000000000E+00 0. -1.
         22   -1    0    0    0    0 -0.00000000000E+00 -0.00000000000E+00 -0.10570858592E+04  0.10570858592E+04  0.00000000000E+00 0.  1.
         24    2    1    2    0    0  0.29248826368E+01 -0.50183601174E+01 -0.84616139395E+03  0.84994613011E+03  0.79909827983E+02 0.  0.
         25    2    1    2    0    0  0.23153970801E+03 -0.11184475691E+03 -0.88146551426E+02  0.29922871926E+03  0.12509246927E+03 0.  0.
        -24    2    1    2    0    0 -0.23446459065E+03  0.11686311702E+03  0.12187693740E+04  0.12494582978E+04  0.84360052345E+02 0.  0.
        -13    1    3    3    0    0 -0.45524445467E+00  0.15697324010E+02 -0.78726022130E+03  0.78741683324E+03  0.00000000000E+00 0.  1.
         14    1    3    3    0    0  0.33801270914E+01 -0.20715684127E+02 -0.58901172645E+02  0.62529296869E+02  0.00000000000E+00 0. -1.
         13    1    5    5    0    0 -0.17324154280E+03  0.42888275083E+02  0.83475325857E+03  0.85361879020E+03  0.00000000000E+00 0. -1.
        -14    1    5    5    0    0 -0.61223047850E+02  0.73974841939E+02  0.38401611543E+03  0.39583950755E+03  0.00000000000E+00 0.  1.
          5    1    4    4  501    0  0.16450505212E+03 -0.11837136377E+03 -0.10692772955E+03  0.22918268626E+03  0.41800000000E+01 0.  1.
         -5    1    4    4    0  501  0.67034655891E+02  0.65266068659E+01  0.18781178123E+02  0.70046033001E+02  0.41800000000E+01 0.  1.
</event>
<event>
11    1  0.8551154E-009  0.1586742E+03  0.7561462E-02  0.1088331E+00
         22   -1    0    0    0    0  0.00000000000E+00  0.00000000000E+00  0.42234982183E+03  0.42234982183E+03  0.00000000000E+00 0. -1.
         22   -1    0    0    0    0 -0.00000000000E+00 -0.00000000000E+00 -0.58044444447E+03  0.58044444447E+03  0.00000000000E+00 0. -1.
         24    2    1    2    0    0  0.77678434025E+02 -0.39911953551E+02 -0.47634989604E+03  0.49085632066E+03  0.80023752297E+02 0.  0.
         25    2    1    2    0    0  0.75363735688E+01  0.97065848369E+02 -0.97600812017E+01  0.15880816381E+03  0.12508476270E+03 0.  0.
        -24    2    1    2    0    0 -0.85214807594E+02 -0.57153894818E+02  0.32801535460E+03  0.35312978183E+03  0.81107575676E+02 0.  0.
        -11    1    3    3    0    0  0.34064629047E+02  0.23568457178E+02 -0.16368929536E+03  0.16884921244E+03  0.00000000000E+00 0.  1.
         12    1    3    3    0    0  0.43613804978E+02 -0.63480410730E+02 -0.31266060067E+03  0.32200710822E+03  0.00000000000E+00 0. -1.
         11    1    5    5    0    0 -0.92200528948E+02 -0.44579798012E+02  0.32135316194E+03  0.33727755724E+03  0.00000000000E+00 0. -1.
        -12    1    5    5    0    0  0.69857213541E+01 -0.12574096806E+02  0.66621926656E+01  0.15852224590E+02  0.00000000000E+00 0.  1.
          5    1    4    4  501    0  0.19321968881E+02 -0.78236583178E+01  0.37482791323E+02  0.43092692609E+02  0.41800000000E+01 0. -1.
         -5    1    4    4    0  501 -0.11785595312E+02  0.10488950669E+03 -0.47242872525E+02  0.11571547120E+03  0.41800000000E+01 0. -1.
</event>
<event>
11    1  0.8551154E-009  0.2146168E+03  0.7561462E-02  0.1044643E+00
         22   -1    0    0    0    0  0.00000000000E+00  0.00000000000E+00  0.11365666475E+03  0.11365666475E+03  0.00000000000E+00 0.  1.
         22   -1    0    0    0    0 -0.00000000000E+00 -0.00000000000E+00 -0.15529310437E+04  0.15529310437E+04  0.00000000000E+00 0. -1.
        -24    2    1    2    0    0 -0.16398084101E+03  0.38786619687E+02 -0.11282664669E+04  0.11438157178E+04  0.83276993763E+02 0.  0.
         25    2    1    2    0    0  0.19417307952E+03 -0.52760292531E+02 -0.36220018740E+03  0.43280864743E+03  0.12509003262E+03 0.  0.
         24    2    1    2    0    0 -0.30192238502E+02  0.13973672844E+02  0.51192275416E+02  0.89963343232E+02  0.66075103213E+02 0.  0.
        -13    1    5    5    0    0 -0.34733206137E+02  0.22728197989E+02  0.62456501562E+02  0.74991874091E+02  0.00000000000E+00 0.  1.
         14    1    5    5    0    0  0.45409676344E+01 -0.87545251441E+01 -0.11264226146E+02  0.14971469140E+02  0.00000000000E+00 0. -1.
         11    1    3    3    0    0 -0.83785348157E+02  0.34602091852E+02 -0.35501259710E+03  0.36640310237E+03  0.00000000000E+00 0. -1.
        -12    1    3    3    0    0 -0.80195492857E+02  0.41845278345E+01 -0.77325386984E+03  0.77741261539E+03  0.00000000000E+00 0.  1.
          5    1    4    4  501    0  0.40774009810E+02 -0.24800054402E+02 -0.11918826684E+02  0.49366926214E+02  0.41800000000E+01 0.  1.
         -5    1    4    4    0  501  0.15339906971E+03 -0.27960238129E+02 -0.35028136072E+03  0.38344172122E+03  0.41800000000E+01 0.  1.
</event>
<event>
11    1  0.8551154E-009  0.3897495E+03  0.7561462E-02  0.9680496E-01
         22   -1    0    0    0    0  0.00000000000E+00  0.00000000000E+00  0.12380436479E+04  0.12380436479E+04  0.00000000000E+00 0. -1.
         22   -1    0    0    0    0 -0.00000000000E+00 -0.00000000000E+00 -0.89515647527E+03  0.89515647527E+03  0.00000000000E+00 0. -1.
        -24    2    1    2    0    0 -0.33016033678E+02 -0.80581017968E+02 -0.57974504838E+03  0.59171802721E+03  0.80265457520E+02 0.  0.
         25    2    1    2    0    0  0.34586669186E+03  0.26226516523E+03 -0.92266390832E+02  0.46104937084E+03  0.12508657018E+03 0.  0.
         24    2    1    2    0    0 -0.31285065818E+03 -0.18168414727E+03  0.10148986118E+04  0.10804327251E+04  0.80193625189E+02 0.  0.
        -13    1    5    5    0    0 -0.33557180275E+02 -0.56222651799E+01  0.16891510484E+03  0.17230788391E+03  0.00000000000E+00 0.  1.
         14    1    5    5    0    0 -0.27929347790E+03 -0.17606188209E+03  0.84598350696E+03  0.90812484118E+03  0.00000000000E+00 0. -1.
         11    1    3    3    0    0 -0.42865608001E+02 -0.57688096875E+02 -0.22727473810E+03  0.23836774834E+03  0.00000000000E+00 0. -1.
        -12    1    3    3    0    0  0.98495743233E+01 -0.22892921093E+02 -0.35247031027E+03  0.35335027887E+03  0.00000000000E+00 0.  1.
          5    1    4    4  501    0  0.45784258722E+02  0.66011223866E+01  0.20826540776E+02  0.50901771720E+02  0.41800000000E+01 0. -1.
         -5    1    4    4    0  501  0.30008243313E+03  0.25566404285E+03 -0.11309293161E+03  0.41014759912E+03  0.41800000000E+01 0. -1.
</event>
<event>
11    1  0.8551154E-009  0.1426967E+03  0.7561462E-02  0.1104584E+00
         22   -1    0    0    0    0  0.00000000000E+00  0.00000000000E+00  0.52297469013E+03  0.52297469013E+03  0.00000000000E+00 0. -1.
         22   -1    0    0    0    0 -0.00000000000E+00 -0.00000000000E+00 -0.22208550513E+04  0.22208550513E+04  0.00000000000E+00 0.  1.
         24    2    1    2    0    0  0.36771741772E+02 -0.56335093943E+02 -0.19153398090E+04  0.19181804268E+04  0.79773190990E+02 0.  0.
         25    2    1    2    0    0 -0.57095091923E+02  0.67227356841E+02 -0.28135180988E+03  0.32029243362E+03  0.12509610337E+03 0.  0.
        -24    2    1    2    0    0  0.20323350152E+02 -0.10892262898E+02  0.49881125773E+03  0.50535688099E+03  0.77725326490E+02 0.  0.
        -11    1    3    3    0    0  0.40833239597E+02 -0.74620831340E+02 -0.16396934751E+04  0.16418983873E+04  0.00000000000E+00 0.  1.
         12    1    3    3    0    0 -0.40614978254E+01  0.18285737397E+02 -0.27564633389E+03  0.27628203949E+03  0.00000000000E+00 0. -1.
         11    1    5    5    0    0  0.20734369977E+02 -0.15230107517E+02  0.50014020447E+03  0.50080145207E+03  0.00000000000E+00 0. -1.
        -12    1    5    5    0    0 -0.41101982489E+00  0.43378446187E+01 -0.13289467375E+01  0.45554289220E+01  0.00000000000E+00 0.  1.
          5    1    4    4  501    0 -0.78475399053E+02  0.61310803052E+02 -0.28052123439E+03  0.29770293612E+03  0.41800000000E+01 0.  1.
         -5    1    4    4    0  501  0.21380307129E+02  0.59165537884E+01 -0.83057549025E+00  0.22589497500E+02  0.41800000000E+01 0.  1.
</event>
<event>
11    1  0.8551154E-009  0.1518949E+03  0.7561462E-02  0.1094958E+00
         22   -1    0    0    0    0  0.00000000000E+00  0.00000000000E+00  0.16932937645E+03  0.16932937645E+03  0.00000000000E+00 0. -1.
         22   -1    0    0    0    0 -0.00000000000E+00 -0.00000000000E+00 -0.62657229645E+03  0.62657229645E+03  0.00000000000E+00 0.  1.
        -24    2    1    2    0    0 -0.17775510341E+01 -0.84906743756E+02 -0.44809276015E+03  0.46475934517E+03  0.89452850130E+02 0.  0.
         25    2    1    2    0    0  0.63576027174E+02  0.88310510662E+02 -0.10316617684E+03  0.19527292413E+03  0.12509035667E+03 0.  0.
         24    2    1    2    0    0 -0.61798476140E+02 -0.34037669056E+01  0.94016016990E+02  0.13586940359E+03  0.76097609024E+02 0.  0.
        -11    1    5    5    0    0 -0.17262970162E+02  0.34288604264E+02  0.26558160106E+02  0.46680342645E+02  0.00000000000E+00 0.  1.
         12    1    5    5    0    0 -0.44535505979E+02 -0.37692371170E+02  0.67457856883E+02  0.89189060946E+02  0.00000000000E+00 0. -1.
         11    1    3    3    0    0  0.54382591954E+01 -0.28887091792E+02 -0.27055688153E+02  0.39950581932E+02  0.00000000000E+00 0. -1.
        -12    1    3    3    0    0 -0.72158102296E+01 -0.56019651964E+02 -0.42103707200E+03  0.42480876323E+03  0.00000000000E+00 0.  1.
          5    1    4    4  501    0 -0.20274952145E+02  0.76571626310E+02 -0.35952258306E+02  0.87088029703E+02  0.41800000000E+01 0.  1.
         -5    1    4    4    0  501  0.83850979319E+02  0.11738884351E+02 -0.67213918531E+02  0.10818489443E+03  0.41800000000E+01 0.  1.
</event>
<event>
11    1  0.8551154E-009  0.1293717E+03  0.7561462E-02  0.1120043E+00
         22   -1    0    0    0    0  0.00000000000E+00  0.00000000000E+00  0.21830840089E+03  0.21830840089E+03  0.00000000000E+00 0.  1.
         22   -1    0    0    0    0 -0.00000000000E+00 -0.00000000000E+00 -0.16241748844E+04  0.16241748844E+04  0.00000000000E+00 0. -1.
         24    2    1    2    0    0 -0.32439477872E+02  0.88366144276E+01 -0.14933359972E+04  0.14958698526E+04  0.80273345763E+02 0.  0.
         25    2    1    2    0    0  0.18918758810E+02  0.58618613163E+01 -0.86766223844E+02  0.15351986035E+03  0.12509072335E+03 0.  0.
        -24    2    1    2    0    0  0.13520719062E+02 -0.14698475744E+02  0.17423573753E+03  0.19309357231E+03  0.80797155904E+02 0.  0.
        -13    1    3    3    0    0  0.25779322587E+02 -0.69423120906E+01 -0.44631017503E+03  0.44710797522E+03  0.00000000000E+00 0.  1.
         14    1    3    3    0    0 -0.58218800459E+02  0.15778926518E+02 -0.10470258222E+04  0.10487618774E+04  0.00000000000E+00 0. -1.
         13    1    5    5    0    0  0.63704436090E+01  0.36706039848E+01 -0.73764507308E+01  0.10414792882E+02  0.00000000000E+00 0. -1.
        -14    1    5    5    0    0  0.71502754534E+01 -0.18369079729E+02  0.18161218826E+03  0.18267877943E+03  0.00000000000E+00 0.  1.
          5    1    4    4  501    0 -0.12382002231E+02  0.49823188268E+02 -0.30057268789E+00  0.51509482742E+02  0.41800000000E+01 0.  1.
         -5    1    4    4    0  501  0.31300761041E+02 -0.43961326951E+02 -0.86465651156E+02  0.10201037760E+03  0.41800000000E+01 0.  1.
</event>
<event>
11    1  0.8551154E-009  0.1534252E+03  0.7561462E-02  0.1093429E+00
         22   -1    0    0    0    0  0.00000000000E+00  0.00000000000E+00  0.26299515768E+03  0.26299515768E+03  0.00000000000E+00 0. -1.
         22   -1    0    0    0    0 -0.00000000000E+00 -0.00000000000E+00 -0.11336352681E+04  0.11336352681E+04  0.00000000000E+00 0. -1.
         24    2    1    2    0    0  0.30944087359E+02  0.51095174079E+02 -0.93659649309E+03  0.94198468247E+03  0.80956147360E+02 0.  0.
         25    2    1    2    0    0 -0.11643513592E+03 -0.58423621928E+02 -0.13256434951E+03  0.22404891712E+03  0.12511654578E+03 0.  0.
        -24    2    1    2    0    0  0.85491048558E+02  0.73284478489E+01  0.19852073221E+03  0.23059682615E+03  0.80012433933E+02 0.  0.
        -11    1    3    3    0    0 -0.13923514791E+02 -0.52899849196E+01 -0.43369702654E+02  0.45856071712E+02  0.00000000000E+00 0.  1.
         12    1    3    3    0    0  0.44867602150E+02  0.56385158999E+02 -0.89322679043E+03  0.89612861076E+03  0.00000000000E+00 0. -1.
         13    1    5    5    0    0  0.84231677115E+02  0.33780202122E+02  0.15731681546E+03  0.18161678863E+03  0.00000000000E+00 0. -1.
        -14    1    5    5    0    0  0.12593714425E+01 -0.26451754273E+02  0.41203916747E+02  0.48980037524E+02  0.00000000000E+00 0.  1.
          5    1    4    4  501    0 -0.14257252578E+03 -0.58391749986E+02 -0.11456303695E+03  0.19203823424E+03  0.41800000000E+01 0.  1.
         -5    1    4    4    0  501  0.26137389865E+02 -0.31871942427E-01 -0.18001312561E+02  0.32010682884E+02  0.41800000000E+01 0.  1.
</event>
<event>
11    1  0.8551154E-009  0.2508300E+03  0.7561462E-02  0.1023458E+00
         22   -1    0    0    0    0  0.00000000000E+00  0.00000000000E+00  0.11083162513E+04  0.11083162513E+04  0.00000000000E+00 0. -1.
         22   -1    0    0    0    0 -0.00000000000E+00 -0.00000000000E+00 -0.12334362523E+04  0.12334362523E+04  0.00000000000E+00 0. -1.
        -24    2    1    2    0    0  0.13316025855E+03 -0.13760642654E+03 -0.11137088566E+04  0.11329363450E+04  0.80809413747E+02 0.  0.
         25    2    1    2    0    0 -0.11236837794E+03  0.33519816809E+03  0.27872285102E+03  0.46724844751E+03  0.12510083840E+03 0.  0.
         24    2    1    2    0    0 -0.20791880605E+02 -0.19759174155E+03  0.70986600459E+03  0.74156771116E+03  0.80858686256E+02 0.  0.
        -13    1    5    5    0    0  0.59430399071E+01 -0.13707249396E+03  0.35507509432E+03  0.38066062435E+03  0.00000000000E+00 0.  1.
         14    1    5    5    0    0 -0.26734920512E+02 -0.60519247589E+02  0.35479091027E+03  0.36090708682E+03  0.00000000000E+00 0. -1.
         11    1    3    3    0    0  0.12776850453E+02 -0.42053333524E+00 -0.24137610653E+03  0.24171439667E+03  0.00000000000E+00 0. -1.
        -12    1    3    3    0    0  0.12038340810E+03 -0.13718589320E+03 -0.87233275010E+03  0.89122194830E+03  0.00000000000E+00 0.  1.
          5    1    4    4  501    0 -0.13576689863E+03  0.26342420611E+03  0.24467551621E+03  0.38432869235E+03  0.41800000000E+01 0.  1.
         -5    1    4    4    0  501  0.23398520688E+02  0.71773961981E+02  0.34047334809E+02  0.82919755164E+02  0.41800000000E+01 0.  1.
</event>
<event>
11    1  0.8551154E-009  0.1454685E+03  0.7561462E-02  0.1101601E+00
         22   -1    0    0    0    0  0.00000000000E+00  0.00000000000E+00  0.55297688138E+03  0.55297688138E+03  0.00000000000E+00 0.  1.
         22   -1    0    0    0    0 -0.00000000000E+00 -0.00000000000E+00 -0.53041052972E+03  0.53041052972E+03  0.00000000000E+00 0.  1.
         24    2    1    2    0    0 -0.43477847725E+02 -0.28147277703E+02 -0.44529120418E+03  0.45547116581E+03  0.80542745692E+02 0.  0.
         25    2    1    2    0    0  0.25685913108E+02 -0.47588953063E+02 -0.79488344885E+01  0.13651682906E+03  0.12509670683E+03 0.  0.
        -24    2    1    2    0    0  0.17791934617E+02  0.75736230766E+02  0.47580639032E+03  0.49139941623E+03  0.95021763873E+02 0.  0.
        -11    1    3    3    0    0 -0.60988742630E+02 -0.45450637553E+00 -0.24261569047E+03  0.25016435910E+03  0.00000000000E+00 0.  1.
         12    1    3    3    0    0  0.17510894905E+02 -0.27692771328E+02 -0.20267551371E+03  0.20530680671E+03  0.00000000000E+00 0. -1.
         11    1    5    5    0    0  0.16060333249E+01  0.37454475960E+02  0.44898980901E+02  0.58492184080E+02  0.00000000000E+00 0. -1.
        -12    1    5    5    0    0  0.16185901292E+02  0.38281754806E+02  0.43090740942E+03  0.43290723215E+03  0.00000000000E+00 0.  1.
          5    1    4    4  501    0 -0.13785485340E+02  0.37048218299E+02  0.10760221441E+02  0.41180879673E+02  0.41800000000E+01 0.  1.
         -5    1    4    4    0  501  0.39471398448E+02 -0.84637171362E+02 -0.18709055929E+02  0.95335949386E+02  0.41800000000E+01 0.  1.
</event>
<event>
11    1  0.8551154E-009  0.1963492E+03  0.7561462E-02  0.1057136E+00
         22   -1    0    0    0    0  0.00000000000E+00  0.00000000000E+00  0.14215538199E+04  0.14215538199E+04  0.00000000000E+00 0. -1.
         22   -1    0    0    0    0 -0.00000000000E+00 -0.00000000000E+00 -0.28591504737E+03  0.28591504737E+03  0.00000000000E+00 0. -1.
        -24    2    1    2    0    0 -0.71223995093E+02 -0.13175661391E+03 -0.23381887923E+03  0.28970823297E+03  0.82625233291E+02 0.  0.
         25    2    1    2    0    0  0.11710194189E+03  0.14675041669E+03  0.57680463680E+03  0.61935429407E+03  0.12509037912E+03 0.  0.
         24    2    1    2    0    0 -0.45877946798E+02 -0.14993802783E+02  0.79265301495E+03  0.79840634023E+03  0.82609211789E+02 0.  0.
        -13    1    5    5    0    0 -0.13340812080E+02  0.29629397889E+02  0.46480765962E+03  0.46594209826E+03  0.00000000000E+00 0.  1.
         14    1    5    5    0    0 -0.32537134718E+02 -0.44623200673E+02  0.32784535533E+03  0.33246424197E+03  0.00000000000E+00 0. -1.
         13    1    3    3    0    0 -0.57924726999E+02 -0.86363820915E+02 -0.21494876502E+03  0.23878223373E+03  0.00000000000E+00 0. -1.
        -14    1    3    3    0    0 -0.13299268093E+02 -0.45392792997E+02 -0.18870114212E+02  0.50925999237E+02  0.00000000000E+00 0.  1.
          5    1    4    4  501    0  0.73537807672E+02  0.19995714578E+02  0.11155648773E+03  0.13516641637E+03  0.41800000000E+01 0. -1.
         -5    1    4    4    0  501  0.43564134219E+02  0.12675470212E+03  0.46524814907E+03  0.48418787770E+03  0.41800000000E+01 0. -1.
</event>
<event>
11    1  0.8551154E-009  0.1325502E+03  0.7561462E-02  0.1116175E+00
         22   -1    0    0    0    0  0.00000000000E+00  0.00000000000E+00  0.64825917337E+03  0.64825917337E+03  0.00000000000E+00 0.  1.
         22   -1    0    0    0    0 -0.00000000000E+00 -0.00000000000E+00 -0.48751437955E+03  0.48751437955E+03  0.00000000000E+00 0. -1.
         24    2    1    2    0    0 -0.48498522266E+02  0.21697085838E+02 -0.34901938498E+03  0.36200384866E+03  0.80058635720E+02 0.  0.
         25    2    1    2    0    0 -0.21875867459E+01 -0.50712385689E+01 -0.97704499383E+02  0.15882037688E+03  0.12508892803E+03 0.  0.
        -24    2    1    2    0    0  0.50686109012E+02 -0.16625847269E+02  0.60746867818E+03  0.61494932739E+03  0.79366112681E+02 0.  0.
        -13    1    3    3    0    0  0.18012178284E+01 -0.26383918263E+02 -0.90690751282E+02  0.94467814078E+02  0.00000000000E+00 0.  1.
         14    1    3    3    0    0 -0.50299740094E+02  0.48081004101E+02 -0.25832863370E+03  0.26753603458E+03  0.00000000000E+00 0. -1.
         11    1    5    5    0    0  0.14779206500E+02 -0.41288551803E+02  0.17992594257E+03  0.18519318094E+03  0.00000000000E+00 0. -1.
        -12    1    5    5    0    0  0.35906902512E+02  0.24662704534E+02  0.42754273561E+03  0.42975614645E+03  0.00000000000E+00 0.  1.
          5    1    4    4  501    0 -0.68733161900E+01 -0.53952040291E+02 -0.94897438460E+02  0.10945803467E+03  0.41800000000E+01 0. -1.
         -5    1    4    4    0  501  0.46857294441E+01  0.48880801722E+02 -0.28070609228E+01  0.49362342210E+02  0.41800000000E+01 0. -1.
</event>
<event>
11    1  0.8551154E-009  0.1633963E+03  0.7561462E-02  0.1083926E+00
         22   -1    0    0    0    0  0.00000000000E+00  0.00000000000E+00  0.67111898996E+03  0.67111898996E+03  0.00000000000E+00 0.  1.
         22   -1    0    0    0    0 -0.00000000000E+00 -0.00000000000E+00 -0.10071880541E+04  0.10071880541E+04  0.00000000000E+00 0.  1.
         24    2    1    2    0    0 -0.37094279936E+01 -0.27210386796E+01 -0.89878774183E+03  0.90229835053E+03  0.79383528467E+02 0.  0.
         25    2    1    2    0    0  0.53757950579E+02  0.94871043810E+02 -0.30140705463E+02  0.16864553053E+03  0.12506966315E+03 0.  0.
        -24    2    1    2    0    0 -0.50048522585E+02 -0.92150005130E+02  0.59285938319E+03  0.60736316295E+03  0.80070502738E+02 0.  0.
        -13    1    3    3    0    0 -0.17449397759E+02 -0.24131377483E+02 -0.79056742078E+03  0.79112808803E+03  0.00000000000E+00 0.  1.
         14    1    3    3    0    0  0.13739969765E+02  0.21410338803E+02 -0.10822032105E+03  0.11117026250E+03  0.00000000000E+00 0. -1.
         13    1    5    5    0    0 -0.21454352277E+01 -0.44224287582E+02  0.93802635563E+02  0.10372716589E+03  0.00000000000E+00 0. -1.
        -14    1    5    5    0    0 -0.47903087358E+02 -0.47925717548E+02  0.49905674763E+03  0.50363599706E+03  0.00000000000E+00 0.  1.
          5    1    4    4  501    0  0.27157586444E+02  0.91478151322E+02  0.32083548670E+02  0.10076017649E+03  0.41800000000E+01 0.  1.
         -5    1    4    4    0  501  0.26600364135E+02  0.33928924875E+01 -0.62224254133E+02  0.67885354046E+02  0.41800000000E+01 0.  1.
</event>
<event>
11    1  0.8551154E-009  0.1357659E+03  0.7561462E-02  0.1112381E+00
         22   -1    0    0    0    0  0.00000000000E+00  0.00000000000E+00  0.26517701044E+03  0.26517701044E+03  0.00000000000E+00 0.  1.
         22   -1    0    0    0    0 -0.00000000000E+00 -0.00000000000E+00 -0.15864572538E+04  0.15864572538E+04  0.00000000000E+00 0.  1.
        -24    2    1    2    0    0  0.83815416399E+01  0.41733405923E+02 -0.11134004209E+04  0.11172450872E+04  0.82244515132E+02 0.  0.
         25    2    1    2    0    0  0.44497609787E+02 -0.40840304752E+02 -0.45177702553E+03  0.47265566565E+03  0.12511166895E+03 0.  0.
         24    2    1    2    0    0 -0.52879151427E+02 -0.89310117103E+00  0.24389720313E+03  0.26173351130E+03  0.78877011596E+02 0.  0.
        -11    1    5    5    0    0 -0.57678892181E+02 -0.29124861182E+02  0.19022315571E+03  0.20089788727E+03  0.00000000000E+00 0.  1.
         12    1    5    5    0    0  0.47997407544E+01  0.28231760011E+02  0.53674047421E+02  0.60835624031E+02  0.00000000000E+00 0. -1.
         11    1    3    3    0    0 -0.31805327295E+02  0.19217081333E+02 -0.26472353366E+03  0.26731895618E+03  0.00000000000E+00 0. -1.
        -12    1    3    3    0    0  0.40186868935E+02  0.22516324590E+02 -0.84867688726E+03  0.84992613107E+03  0.00000000000E+00 0.  1.
          5    1    4    4  501    0  0.12034415803E+02 -0.83887825056E+02 -0.27566184097E+03  0.28842489026E+03  0.41800000000E+01 0. -1.
         -5    1    4    4    0  501  0.32463193984E+02  0.43047520304E+02 -0.17611518456E+03  0.18423077539E+03  0.41800000000E+01 0. -1.
</event>
<event>
11    1  0.8551154E-009  0.1377916E+03  0.7561462E-02  0.1110050E+00
         22   -1    0    0    0    0  0.00000000000E+00  0.00000000000E+00  0.99634177301E+03  0.99634177301E+03  0.00000000000E+00 0.  1.
         22   -1    0    0    0    0 -0.00000000000E+00 -0.00000000000E+00 -0.83488797041E+02  0.83488797041E+02  0.00000000000E+00 0.  1.
        -24    2    1    2    0    0 -0.21175688010E+02 -0.49425202369E+02 -0.26085257725E+02  0.99979289521E+02  0.80150840736E+02 0.  0.
         25    2    1    2    0    0  0.52367834717E+02  0.86372136001E+02  0.37342799359E+03  0.40656903042E+03  0.12508946442E+03 0.  0.
         24    2    1    2    0    0 -0.31192146707E+02 -0.36946933633E+02  0.56551024010E+03  0.57328225011E+03  0.80701181575E+02 0.  0.
        -13    1    5    5    0    0 -0.31095242219E+02 -0.42659766567E+02  0.17639025357E+03  0.18412031753E+03  0.00000000000E+00 0.  1.
         14    1    5    5    0    0 -0.96904488746E-01  0.57128329339E+01  0.38911998653E+03  0.38916193258E+03  0.00000000000E+00 0. -1.
         11    1    3    3    0    0 -0.33048572880E+02 -0.45833967967E+02  0.13835826456E+02  0.58175517898E+02  0.00000000000E+00 0. -1.
        -12    1    3    3    0    0  0.11872884870E+02 -0.35912344015E+01 -0.39921084182E+02  0.41803771623E+02  0.00000000000E+00 0.  1.
          5    1    4    4  501    0  0.85328431471E+02  0.79931364586E+02  0.33754050883E+03  0.35724085959E+03  0.41800000000E+01 0. -1.
         -5    1    4    4    0  501 -0.32960596753E+02  0.64407714159E+01  0.35887484767E+02  0.49328170832E+02  0.41800000000E+01 0. -1.
</event>
<event>
11    1  0.8551154E-009  0.1318190E+03  0.7561462E-02  0.1117054E+00
         22   -1    0    0    0    0  0.00000000000E+00  0.00000000000E+00  0.51473337948E+03  0.51473337948E+03  0.00000000000E+00 0.  1.
         22   -1    0    0    0    0 -0.00000000000E+00 -0.00000000000E+00 -0.46457985032E+03  0.46457985032E+03  0.00000000000E+00 0.  1.
        -24    2    1    2    0    0 -0.26206499288E+02 -0.11898850785E+02 -0.38538703473E+03  0.39462156309E+03  0.79841394427E+02 0.  0.
         25    2    1    2    0    0  0.66080553698E+02  0.11864125333E+02  0.24436777024E+01  0.14199206793E+03  0.12509348003E+03 0.  0.
         24    2    1    2    0    0 -0.39874054410E+02  0.34725451997E-01  0.43309688619E+03  0.44269959877E+03  0.82583778727E+02 0.  0.
        -11    1    5    5    0    0 -0.63805181557E+02  0.10431046732E+02  0.27763154457E+03  0.28505996294E+03  0.00000000000E+00 0.  1.
         12    1    5    5    0    0  0.23931127147E+02 -0.10396321280E+02  0.15546534162E+03  0.15763963584E+03  0.00000000000E+00 0. -1.
         11    1    3    3    0    0 -0.14535589255E+02 -0.14616143303E+01 -0.75208863133E+01  0.16431171668E+02  0.00000000000E+00 0. -1.
        -12    1    3    3    0    0 -0.11670910033E+02 -0.10437236455E+02 -0.37786614842E+03  0.37819039143E+03  0.00000000000E+00 0.  1.
          5    1    4    4  501    0  0.74572775089E+02 -0.24335582364E+02 -0.37684675716E+02  0.87125923451E+02  0.41800000000E+01 0. -1.
         -5    1    4    4    0  501 -0.84922213905E+01  0.36199707697E+02  0.40128353418E+02  0.54866144475E+02  0.41800000000E+01 0. -1.
</event>
<event>
11    1  0.8551154E-009  0.2219216E+03  0.7561462E-02  0.1040020E+00
         22   -1    0    0    0    0  0.00000000000E+00  0.00000000000E+00  0.20764907404E+03  0.20764907404E+03  0.00000000000E+00 0.  1.
         22   -1    0    0    0    0 -0.00000000000E+00 -0.00000000000E+00 -0.72106005848E+03  0.72106005848E+03  0.00000000000E+00 0. -1.
         24    2    1    2    0    0  0.13989869931E+03 -0.11518168537E+03 -0.54917988391E+03  0.58387022558E+03  0.80420325267E+02 0.  0.
         25    2    1    2    0    0 -0.16289805755E+03  0.10942743607E+03 -0.33690991795E+02  0.23514511197E+03  0.12509196552E+03 0.  0.
        -24    2    1    2    0    0  0.22999358245E+02  0.57542493034E+01  0.69459891260E+02  0.10969379496E+03  0.81522820698E+02 0.  0.
        -11    1    3    3    0    0 -0.69629533695E+01 -0.16007235686E+02 -0.90080432507E+02  0.91756191260E+02  0.00000000000E+00 0.  1.
         12    1    3    3    0    0  0.14686165267E+03 -0.99174449688E+02 -0.45909945140E+03  0.49211403432E+03  0.00000000000E+00 0. -1.
         11    1    5    5    0    0 -0.60677093504E+01  0.51756593870E+01 -0.16837511332E+02  0.18630789965E+02  0.00000000000E+00 0. -1.
        -12    1    5    5    0    0  0.29067067596E+02  0.57858991639E+00  0.86297402592E+02  0.91063004997E+02  0.00000000000E+00 0.  1.
          5    1    4    4  501    0 -0.11390651253E+03  0.10398949330E+03  0.27221796400E+02  0.15667484454E+03  0.41800000000E+01 0.  1.
         -5    1    4    4    0  501 -0.48991545019E+02  0.54379427732E+01 -0.60912788194E+02  0.78470267430E+02  0.41800000000E+01 0.  1.
</event>
<event>
11    1  0.8551154E-009  0.1275911E+03  0.7561462E-02  0.1122265E+00
         22   -1    0    0    0    0  0.00000000000E+00  0.00000000000E+00  0.93310925790E+03  0.93310925790E+03  0.00000000000E+00 0.  1.
         22   -1    0    0    0    0 -0.00000000000E+00 -0.00000000000E+00 -0.27072068270E+03  0.27072068270E+03  0.00000000000E+00 0. -1.
        -24    2    1    2    0    0 -0.51330609358E+01  0.62325674874E+01 -0.24220786059E+03  0.25392160457E+03  0.75804619395E+02 0.  0.
         25    2    1    2    0    0 -0.17317142059E+02 -0.17908591221E+02  0.18131113106E+03  0.22167987044E+03  0.12509051789E+03 0.  0.
         24    2    1    2    0    0  0.22450202995E+02  0.11676023734E+02  0.72328530473E+03  0.72822846559E+03  0.80837645353E+02 0.  0.
        -11    1    5    5    0    0 -0.12097422053E+02  0.31106301377E+01  0.59404709841E+03  0.59417840651E+03  0.00000000000E+00 0.  1.
         12    1    5    5    0    0  0.34547625048E+02  0.85653935959E+01  0.12923820632E+03  0.13405005907E+03  0.00000000000E+00 0. -1.
         13    1    3    3    0    0 -0.30001420406E+02  0.34182095810E+00 -0.21303609904E+03  0.21513851715E+03  0.00000000000E+00 0. -1.
        -14    1    3    3    0    0  0.24868359470E+02  0.58907465293E+01 -0.29171761546E+02  0.38783087411E+02  0.00000000000E+00 0.  1.
          5    1    4    4  501    0  0.36729939337E+02 -0.16063532623E+02  0.15726633030E+03  0.16234930419E+03  0.41800000000E+01 0. -1.
         -5    1    4    4    0  501 -0.54047081396E+02 -0.18450585984E+01  0.24044800753E+02  0.59330566253E+02  0.41800000000E+01 0. -1.
</event>
<event>
11    1  0.8551154E-009  0.1342572E+03  0.7561462E-02  0.1114146E+00
         22   -1    0    0    0    0  0.00000000000E+00  0.00000000000E+00  0.98587171645E+03  0.98587171645E+03  0.00000000000E+00 0.  1.
         22   -1    0    0    0    0 -0.00000000000E+00 -0.00000000000E+00 -0.22409429343E+04  0.22409429343E+04  0.00000000000E+00 0.  1.
        -24    2    1    2    0    0  0.41650432208E+02  0.31202995672E+01 -0.20098552733E+04  0.20118863584E+04  0.80149891462E+02 0.  0.
         25    2    1    2    0    0  0.13400304224E+01  0.20715507594E+02 -0.21016568517E+03  0.24545008046E+03  0.12508076926E+03 0.  0.
         24    2    1    2    0    0 -0.42990462630E+02 -0.23835807161E+02  0.96494974062E+03  0.96947821180E+03  0.79647194917E+02 0.  0.
        -11    1    5    5    0    0 -0.54793708003E+02 -0.42168605197E+02  0.81838317292E+03  0.82129870292E+03  0.00000000000E+00 0.  1.
         12    1    5    5    0    0  0.11803245373E+02  0.18332798036E+02  0.14656656770E+03  0.14817950888E+03  0.00000000000E+00 0. -1.
         11    1    3    3    0    0  0.10695822419E+02  0.40247913157E+02 -0.10246294298E+04  0.10254753842E+04  0.00000000000E+00 0. -1.
        -12    1    3    3    0    0  0.30954609789E+02 -0.37127613590E+02 -0.98522584344E+03  0.98641097426E+03  0.00000000000E+00 0.  1.
          5    1    4    4  501    0 -0.30543502867E+02 -0.20827835763E+02 -0.10028010734E+02  0.38532294368E+02  0.41800000000E+01 0.  1.
         -5    1    4    4    0  501  0.31883533290E+02  0.41543343357E+02 -0.20013767443E+03  0.20691778609E+03  0.41800000000E+01 0.  1.
</event>
<event>
11    1  0.8551154E-009  0.1381414E+03  0.7561462E-02  0.1109652E+00
         22   -1    0    0    0    0  0.00000000000E+00  0.00000000000E+00  0.11078804337E+04  0.11078804337E+04  0.00000000000E+00 0.  1.
         22   -1    0    0    0    0 -0.00000000000E+00 -0.00000000000E+00 -0.13425777561E+04  0.13425777561E+04  0.00000000000E+00 0.  1.
        -24    2    1    2    0    0 -0.24018261120E+02 -0.66770201697E+01 -0.12529271568E+04  0.12557500280E+04  0.80375450311E+02 0.  0.
         25    2    1    2    0    0  0.13420282935E+02 -0.51318314280E+02 -0.31408590282E+02  0.13945488476E+03  0.12508993551E+03 0.  0.
         24    2    1    2    0    0  0.10597978186E+02  0.57995334450E+02  0.10496384247E+04  0.10552532771E+04  0.91339368730E+02 0.  0.
        -13    1    5    5    0    0 -0.61612522762E+01  0.80437912682E+02  0.76806074435E+03  0.77228590939E+03  0.00000000000E+00 0.  1.
         14    1    5    5    0    0  0.16759230462E+02 -0.22442578233E+02  0.28157768037E+03  0.28296736774E+03  0.00000000000E+00 0. -1.
         13    1    3    3    0    0 -0.19649339837E+02  0.17286195543E+02 -0.13259133153E+03  0.13514943696E+03  0.00000000000E+00 0. -1.
        -14    1    3    3    0    0 -0.43689212830E+01 -0.23963215713E+02 -0.11203358253E+04  0.11206005910E+04  0.00000000000E+00 0.  1.
          5    1    4    4  501    0  0.57328877463E+02  0.11444916526E+02 -0.74034627770E+01  0.59075121384E+02  0.41800000000E+01 0. -1.
         -5    1    4    4    0  501 -0.43908594528E+02 -0.62763230806E+02 -0.24005127505E+02  0.80379763381E+02  0.41800000000E+01 0. -1.
</event>
<event>
11    1  0.8551154E-009  0.1802118E+03  0.7561462E-02  0.1069472E+00
         22   -1    0    0    0    0  0.00000000000E+00  0.00000000000E+00  0.26939566946E+04  0.26939566946E+04  0.00000000000E+00 0. -1.
         22   -1    0    0    0    0 -0.00000000000E+00 -0.00000000000E+00 -0.59350715005E+03  0.59350715005E+03  0.00000000000E+00 0.  1.
        -24    2    1    2    0    0 -0.14954555737E+02 -0.12853444312E+03 -0.57243573949E+03  0.59232715112E+03  0.80150086087E+02 0.  0.
         25    2    1    2    0    0  0.66437628935E+02  0.16120583801E+03  0.12169011961E+04  0.12356784208E+04  0.12510538695E+03 0.  0.
         24    2    1    2    0    0 -0.51483073198E+02 -0.32671394890E+02  0.14559840879E+04  0.14594582727E+04  0.80067837667E+02 0.  0.
        -13    1    5    5    0    0 -0.13629101484E+02 -0.13087016750E+02  0.61825848228E+02  0.64648727162E+02  0.00000000000E+00 0.  1.
         14    1    5    5    0    0 -0.37853971714E+02 -0.19584378140E+02  0.13941582397E+04  0.13948095455E+04  0.00000000000E+00 0. -1.
         11    1    3    3    0    0 -0.20362438659E+02 -0.23391223579E+02 -0.27626388618E+03  0.27799912420E+03  0.00000000000E+00 0. -1.
        -12    1    3    3    0    0  0.54078829220E+01 -0.10514321954E+03 -0.29617185332E+03  0.31432802692E+03  0.00000000000E+00 0.  1.
          5    1    4    4  501    0  0.13739437780E+02  0.61349825996E+02  0.14842820371E+03  0.16124818559E+03  0.41800000000E+01 0.  1.
         -5    1    4    4    0  501  0.52698191155E+02  0.99856012009E+02  0.10684729924E+04  0.10744302352E+04  0.41800000000E+01 0.  1.
</event>
<event>
11    1  0.8551154E-009  0.1445053E+03  0.7561462E-02  0.1102629E+00
         22   -1    0    0    0    0  0.00000000000E+00  0.00000000000E+00  0.33354236232E+03  0.33354236232E+03  0.00000000000E+00 0. -1.
         22   -1    0    0    0    0 -0.00000000000E+00 -0.00000000000E+00 -0.10244093923E+04  0.10244093923E+04  0.00000000000E+00 0.  1.
        -24    2    1    2    0    0  0.71836726735E+02 -0.13453064994E+01 -0.97128315324E+03  0.97727836394E+03  0.80744731686E+02 0.  0.
         25    2    1    2    0    0 -0.98755966164E+02 -0.20392380282E+01  0.11665826440E+03  0.19751704938E+03  0.12508770843E+03 0.  0.
         24    2    1    2    0    0  0.26919239429E+02  0.33845445275E+01  0.16375785889E+03  0.18315634126E+03  0.77417752490E+02 0.  0.
        -11    1    5    5    0    0  0.51059117285E+02 -0.10030487424E+02  0.84627106606E+02  0.99344810173E+02  0.00000000000E+00 0.  1.
         12    1    5    5    0    0 -0.24139877856E+02  0.13415031951E+02  0.79130752289E+02  0.83811531086E+02  0.00000000000E+00 0. -1.
         13    1    3    3    0    0  0.79697195502E+01 -0.33478991574E+02 -0.23079300444E+03  0.23334474539E+03  0.00000000000E+00 0. -1.
        -14    1    3    3    0    0  0.63867007185E+02  0.32133685074E+02 -0.74049014881E+03  0.74393361855E+03  0.00000000000E+00 0.  1.
          5    1    4    4  501    0 -0.96377096149E+02  0.47928165015E+02  0.66706234564E+02  0.12669983344E+03  0.41800000000E+01 0.  1.
         -5    1    4    4    0  501 -0.23788700148E+01 -0.49967403043E+02  0.49952029834E+02  0.70817215943E+02  0.41800000000E+01 0.  1.
</event>
<event>
11    1  0.8551154E-009  0.1572315E+03  0.7561462E-02  0.1089710E+00
         22   -1    0    0    0    0  0.00000000000E+00  0.00000000000E+00  0.50001688041E+03  0.50001688041E+03  0.00000000000E+00 0. -1.
         22   -1    0    0    0    0 -0.00000000000E+00 -0.00000000000E+00 -0.90271087807E+03  0.90271087807E+03  0.00000000000E+00 0.  1.
         24    2    1    2    0    0 -0.41603788310E+02  0.69868654073E+02 -0.42571571478E+03  0.44100311789E+03  0.81470093616E+02 0.  0.
         25    2    1    2    0    0  0.15123060702E+02 -0.13529783960E+03 -0.44491559526E+03  0.48180098459E+03  0.12509232382E+03 0.  0.
        -24    2    1    2    0    0  0.26480727608E+02  0.65429185531E+02  0.46793731238E+03  0.47992365600E+03  0.79869769094E+02 0.  0.
        -11    1    3    3    0    0 -0.40024921707E+02  0.87450600641E+02 -0.33246259639E+03  0.34609388886E+03  0.00000000000E+00 0.  1.
         12    1    3    3    0    0 -0.15788666031E+01 -0.17581946568E+02 -0.93253118392E+02  0.94909229028E+02  0.00000000000E+00 0. -1.
         11    1    5    5    0    0  0.26662881512E+02  0.33405701593E+02  0.42063272885E+03  0.42279870237E+03  0.00000000000E+00 0. -1.
        -12    1    5    5    0    0 -0.18215390381E+00  0.32023483938E+02  0.47304583529E+02  0.57124953622E+02  0.00000000000E+00 0.  1.
          5    1    4    4  501    0  0.16164106913E+02  0.11492719157E+02 -0.15987275250E+03  0.16115250646E+03  0.41800000000E+01 0. -1.
         -5    1    4    4    0  501 -0.10410462102E+01 -0.14679055876E+03 -0.28504284275E+03  0.32064847813E+03  0.41800000000E+01 0. -1.
</event>
<event>
11    1  0.8551154E-009  0.1644560E+03  0.7561462E-02  0.1082960E+00
         22   -1    0    0    0    0  0.00000000000E+00  0.00000000000E+00  0.19647649881E+04  0.19647649881E+04  0.00000000000E+00 0.  1.
         22   -1    0    0    0    0 -0.00000000000E+00 -0.00000000000E+00 -0.11098978428E+04  0.11098978428E+04  0.00000000000E+00 0.  1.
         24    2    1    2    0    0 -0.41005678350E+02 -0.10015727424E+03 -0.98805284489E+03  0.99723679394E+03  0.80745610733E+02 0.  0.
         25    2    1    2    0    0  0.13262192717E+02  0.91734972194E+02 -0.64151145903E+02  0.16838856265E+03  0.12509255627E+03 0.  0.
        -24    2    1    2    0    0  0.27743485633E+02  0.84223020468E+01  0.19070711360E+04  0.19090374743E+04  0.81627962833E+02 0.  0.
        -13    1    3    3    0    0 -0.49676753350E+02 -0.39878724841E+02 -0.69558138612E+03  0.69849234587E+03  0.00000000000E+00 0.  1.
         14    1    3    3    0    0  0.86710749994E+01 -0.60278549400E+02 -0.29247145876E+03  0.29874444807E+03  0.00000000000E+00 0. -1.
         13    1    5    5    0    0  0.46812302144E+02  0.36506591952E+01  0.60547677353E+03  0.60729469142E+03  0.00000000000E+00 0. -1.
        -14    1    5    5    0    0 -0.19068816511E+02  0.47716428516E+01  0.13015943625E+04  0.13017427829E+04  0.00000000000E+00 0.  1.
          5    1    4    4  501    0 -0.45519612532E+02  0.72072297141E+02 -0.99135969392E+01  0.85919747117E+02  0.41800000000E+01 0. -1.
         -5    1    4    4    0  501  0.58781805249E+02  0.19662675053E+02 -0.54237548964E+02  0.82468815538E+02  0.41800000000E+01 0. -1.
</event>
<event>
11    1  0.8551154E-009  0.2336563E+03  0.7561462E-02  0.1032985E+00
         22   -1    0    0    0    0  0.00000000000E+00  0.00000000000E+00  0.88386438579E+03  0.88386438579E+03  0.00000000000E+00 0. -1.
         22   -1    0    0    0    0 -0.00000000000E+00 -0.00000000000E+00 -0.52517728072E+03  0.52517728072E+03  0.00000000000E+00 0. -1.
         24    2    1    2    0    0 -0.83975064827E+02 -0.19029637312E+03 -0.39416537885E+03  0.45302579390E+03  0.81249633340E+02 0.  0.
         25    2    1    2    0    0  0.75680895868E+02  0.14089883671E+03  0.58065586869E+01  0.20312982695E+03  0.12509168753E+03 0.  0.
        -24    2    1    2    0    0  0.82941689590E+01  0.49397536415E+02  0.74704592523E+03  0.75288604567E+03  0.79062465880E+02 0.  0.
        -13    1    3    3    0    0  0.96552561006E+01 -0.46074735094E+02 -0.12558669438E+03  0.13411980834E+03  0.00000000000E+00 0.  1.
         14    1    3    3    0    0 -0.93630320928E+02 -0.14422163803E+03 -0.26857868447E+03  0.31890598555E+03  0.00000000000E+00 0. -1.
         11    1    5    5    0    0  0.35075138736E+02  0.18193990384E+02  0.55909372909E+03  0.56048825550E+03  0.00000000000E+00 0. -1.
        -12    1    5    5    0    0 -0.26780969777E+02  0.31203546031E+02  0.18795219614E+03  0.19239779017E+03  0.00000000000E+00 0.  1.
          5    1    4    4  501    0  0.89011753948E+02  0.14088823220E+03  0.35385296812E+02  0.17041765737E+03  0.41800000000E+01 0.  1.
         -5    1    4    4    0  501 -0.13330858080E+02  0.10604505906E-01 -0.29578738125E+02  0.32712169581E+02  0.41800000000E+01 0.  1.
</event>
<event>
11    1  0.8551154E-009  0.1382928E+03  0.7561462E-02  0.1109480E+00
         22   -1    0    0    0    0  0.00000000000E+00  0.00000000000E+00  0.21989910316E+03  0.21989910316E+03  0.00000000000E+00 0. -1.
         22   -1    0    0    0    0 -0.00000000000E+00 -0.00000000000E+00 -0.82584103296E+03  0.82584103296E+03  0.00000000000E+00 0.  1.
        -24    2    1    2    0    0 -0.23083790883E+02 -0.17918434219E+02 -0.71781496307E+03  0.72298712760E+03  0.81228897472E+02 0.  0.
         25    2    1    2    0    0  0.16363488619E+02 -0.43544277279E+02 -0.40853416151E+02  0.13957096425E+03  0.12508870695E+03 0.  0.
         24    2    1    2    0    0  0.67203022635E+01  0.61462711498E+02  0.15272644942E+03  0.18318204428E+03  0.80046646574E+02 0.  0.
        -13    1    5    5    0    0 -0.13213956475E+02 -0.30599960458E+01 -0.25995494829E+01  0.13810498870E+02  0.00000000000E+00 0.  1.
         14    1    5    5    0    0  0.19934258738E+02  0.64522707544E+02  0.15532599890E+03  0.16937154541E+03  0.00000000000E+00 0. -1.
         11    1    3    3    0    0  0.24261508159E+02  0.12399324600E+02 -0.15552976758E+03  0.15789829839E+03  0.00000000000E+00 0. -1.
        -12    1    3    3    0    0 -0.47345299041E+02 -0.30317758819E+02 -0.56228519548E+03  0.56508882921E+03  0.00000000000E+00 0.  1.
          5    1    4    4  501    0  0.71320424050E+01 -0.79757453112E+02  0.49154030235E+01  0.80335240976E+02  0.41800000000E+01 0.  1.
         -5    1    4    4    0  501  0.92314462141E+01  0.36213175832E+02 -0.45768819175E+02  0.59235723273E+02  0.41800000000E+01 0.  1.
</event>
<event>
11    1  0.8551154E-009  0.1569645E+03  0.7561462E-02  0.1089968E+00
         22   -1    0    0    0    0  0.00000000000E+00  0.00000000000E+00  0.44819897456E+03  0.44819897456E+03  0.00000000000E+00 0. -1.
         22   -1    0    0    0    0 -0.00000000000E+00 -0.00000000000E+00 -0.96259994511E+03  0.96259994511E+03  0.00000000000E+00 0. -1.
         24    2    1    2    0    0  0.37257554270E+01 -0.41776836587E+01 -0.49150124163E+03  0.49847755957E+03  0.82916057451E+02 0.  0.
         25    2    1    2    0    0  0.60663141860E+02 -0.65570785501E+02 -0.44586173295E+03  0.47161366400E+03  0.12508884234E+03 0.  0.
        -24    2    1    2    0    0 -0.64388897287E+02  0.69748469160E+02  0.42296200403E+03  0.44070769609E+03  0.79470985249E+02 0.  0.
        -13    1    3    3    0    0 -0.10184388467E+02 -0.22718647849E+02 -0.45194662620E+03  0.45263187212E+03  0.00000000000E+00 0.  1.
         14    1    3    3    0    0  0.13910143894E+02  0.18540964190E+02 -0.39554615432E+02  0.45845687455E+02  0.00000000000E+00 0. -1.
         11    1    5    5    0    0 -0.55484744235E+02  0.21098439622E+01  0.19620523673E+03  0.20391052744E+03  0.00000000000E+00 0. -1.
        -12    1    5    5    0    0 -0.89041530523E+01  0.67638625198E+02  0.22675676730E+03  0.23679716865E+03  0.00000000000E+00 0.  1.
          5    1    4    4  501    0 -0.33561648446E+02  0.32693212540E+01 -0.14399926502E+03  0.14795382196E+03  0.41800000000E+01 0.  1.
         -5    1    4    4    0  501  0.94224790306E+02 -0.68840106755E+02 -0.30186246793E+03  0.32365984204E+03  0.41800000000E+01 0.  1.
</event>
<event>
11    1  0.8551154E-009  0.2110791E+03  0.7561462E-02  0.1046954E+00
         22   -1    0    0    0    0  0.00000000000E+00  0.00000000000E+00  0.75788824056E+03  0.75788824056E+03  0.00000000000E+00 0.  1.
         22   -1    0    0    0    0 -0.00000000000E+00 -0.00000000000E+00 -0.32453369309E+03  0.32453369309E+03  0.00000000000E+00 0.  1.
        -24    2    1    2    0    0  0.15851211890E+03 -0.50707400758E+02 -0.20736709904E+03  0.27785580432E+03  0.80656071692E+02 0.  0.
         25    2    1    2    0    0 -0.17750474970E+03  0.56520067703E+02  0.80579244310E+02  0.23841816550E+03  0.12509097813E+03 0.  0.
         24    2    1    2    0    0  0.18992630793E+02 -0.58126669453E+01  0.56014240219E+03  0.56614796383E+03  0.79809141692E+02 0.  0.
        -11    1    5    5    0    0  0.75610859207E+01  0.12348850666E+02  0.52338123207E+03  0.52358149148E+03  0.00000000000E+00 0.  1.
         12    1    5    5    0    0  0.11431544873E+02 -0.18161517612E+02  0.36761170116E+02  0.42566472351E+02  0.00000000000E+00 0. -1.
         13    1    3    3    0    0  0.26058011432E+02  0.16642336818E+02 -0.13873646939E+02  0.33889016126E+02  0.00000000000E+00 0. -1.
        -14    1    3    3    0    0  0.13245410747E+03 -0.67349737576E+02 -0.19349345210E+03  0.24396678819E+03  0.00000000000E+00 0.  1.
          5    1    4    4  501    0 -0.18441502941E+03  0.32799791508E+02  0.41342721188E+02  0.19186303028E+03  0.41800000000E+01 0.  1.
         -5    1    4    4    0  501  0.69102797093E+01  0.23720276195E+02  0.39236523122E+02  0.46555135217E+02  0.41800000000E+01 0.  1.
</event>
<event>
11    1  0.1207584E-008  0.1609981E+03  0.7561462E-02  0.1086142E+00
         22   -1    0    0    0    0  0.00000000000E+00  0.00000000000E+00  0.97980059969E+03  0.97980059969E+03  0.00000000000E+00 0. -1.
         22   -1    0    0    0    0 -0.00000000000E+00 -0.00000000000E+00 -0.72604949369E+03  0.72604949369E+03  0.00000000000E+00 0.  1.
        -24    2    1    2    0    0 -0.34870345560E+02  0.29773135192E+02 -0.47364495531E+03  0.48261562288E+03  0.80473071178E+02 0.  0.
         25    2    1    2    0    0  0.13528972061E+03 -0.37234561913E+02 -0.20722277262E+03  0.27978261394E+03  0.12508921803E+03 0.  0.
         24    2    1    2    0    0 -0.10041937505E+03  0.74614267206E+01  0.93461883393E+03  0.94345185656E+03  0.80307640597E+02 0.  0.
        -13    1    5    5    0    0  0.13791945478E+02 -0.29546151724E+01  0.10574337396E+03  0.10667993554E+03  0.00000000000E+00 0.  1.
         14    1    5    5    0    0 -0.11421132053E+03  0.10416041893E+02  0.82887545997E+03  0.83677192102E+03  0.00000000000E+00 0. -1.
         13    1    3    3    0    0  0.19749948019E+02 -0.15025875530E+00 -0.40979128337E+02  0.45490350446E+02  0.00000000000E+00 0. -1.
        -14    1    3    3    0    0 -0.54620293579E+02  0.29923393948E+02 -0.43266582697E+03  0.43712527244E+03  0.00000000000E+00 0.  1.
          5    1    4    4  501    0  0.78472805836E+02 -0.50212456376E+02 -0.20029830263E+03  0.22094378124E+03  0.41800000000E+01 0.  1.
         -5    1    4    4    0  501  0.56816914772E+02  0.12977894463E+02 -0.69244699907E+01  0.58838832700E+02  0.41800000000E+01 0.  1.
</event>
<event>
11    1  0.8551154E-009  0.2591531E+03  0.7561462E-02  0.1019133E+00
         22   -1    0    0    0    0  0.00000000000E+00  0.00000000000E+00  0.40370906718E+03  0.40370906718E+03  0.00000000000E+00 0.  1.
         22   -1    0    0    0    0 -0.00000000000E+00 -0.00000000000E+00 -0.15420936664E+04  0.15420936664E+04  0.00000000000E+00 0. -1.
        -24    2    1    2    0    0  0.17206807479E+03 -0.15378383391E+03 -0.14032638879E+04  0.14243382362E+04  0.79580035530E+02 0.  0.
         25    2    1    2    0    0 -0.13989384168E+03  0.12667632275E+03 -0.15415871148E+02  0.22694118388E+03  0.12508986439E+03 0.  0.
         24    2    1    2    0    0 -0.32174233109E+02  0.27107511160E+02  0.28029515977E+03  0.29452331356E+03  0.80053776919E+02 0.  0.
        -11    1    5    5    0    0 -0.17788157535E+02  0.13139519965E+02  0.27187935049E+03  0.27277728417E+03  0.00000000000E+00 0.  1.
         12    1    5    5    0    0 -0.14386075573E+02  0.13967991195E+02  0.84158092821E+01  0.21746029391E+02  0.00000000000E+00 0. -1.
         13    1    3    3    0    0  0.93646638935E+02 -0.76405082803E+02 -0.50094984231E+03  0.51532336855E+03  0.00000000000E+00 0. -1.
        -14    1    3    3    0    0  0.78421435855E+02 -0.77378751105E+02 -0.90231404557E+03  0.90901486762E+03  0.00000000000E+00 0.  1.
          5    1    4    4  501    0 -0.67178360394E+01  0.37231530141E+02 -0.49938364331E+02  0.62790355865E+02  0.41800000000E+01 0. -1.
         -5    1    4    4    0  501 -0.13317600564E+03  0.89444792608E+02  0.34522493183E+02  0.16415082802E+03  0.41800000000E+01 0. -1.
</event>
<event>
11    1  0.8551154E-009  0.1785483E+03  0.7561462E-02  0.1070823E+00
         22   -1    0    0    0    0  0.00000000000E+00  0.00000000000E+00  0.50383136443E+03  0.50383136443E+03  0.00000000000E+00 0.  1.
         22   -1    0    0    0    0 -0.00000000000E+00 -0.00000000000E+00 -0.96709822124E+03  0.96709822124E+03  0.00000000000E+00 0. -1.
        -24    2    1    2    0    0  0.77614481148E+02  0.10176113956E+03 -0.91463639182E+03  0.92731115650E+03  0.83468044876E+02 0.  0.
         25    2    1    2    0    0 -0.12162867784E+03 -0.40462732094E+02  0.19779562945E+03  0.26683307895E+03  0.12508402389E+03 0.  0.
         24    2    1    2    0    0  0.44014196688E+02 -0.61298407461E+02  0.25357390556E+03  0.27678535023E+03  0.81336709134E+02 0.  0.
        -11    1    5    5    0    0  0.14251693531E+02 -0.44772550148E+02  0.23148219977E+03  0.23620266896E+03  0.00000000000E+00 0.  1.
         12    1    5    5    0    0  0.29762503158E+02 -0.16525857313E+02  0.22091705796E+02  0.40582681271E+02  0.00000000000E+00 0. -1.
         11    1    3    3    0    0  0.50451236729E+02  0.98021634352E+02 -0.51160410886E+03  0.52334723874E+03  0.00000000000E+00 0. -1.
        -12    1    3    3    0    0  0.27163244420E+02  0.37395052038E+01 -0.40303228296E+03  0.40396391776E+03  0.00000000000E+00 0.  1.
          5    1    4    4  501    0 -0.42841232736E+02  0.44963082059E+02  0.79273447472E+02  0.10079088175E+03  0.41800000000E+01 0.  1.
         -5    1    4    4    0  501 -0.78787445100E+02 -0.85425814153E+02  0.11852218197E+03  0.16604219719E+03  0.41800000000E+01 0.  1.
</event>
<event>
11    1  0.8551154E-009  0.1338042E+03  0.7561462E-02  0.1114681E+00
         22   -1    0    0    0    0  0.00000000000E+00  0.00000000000E+00  0.40441451122E+03  0.40441451122E+03  0.00000000000E+00 0.  1.
         22   -1    0    0    0    0 -0.00000000000E+00 -0.00000000000E+00 -0.12403499819E+04  0.12403499819E+04  0.00000000000E+00 0.  1.
        -24    2    1    2    0    0  0.10450808406E+02  0.15798709312E+02 -0.10010307144E+04  0.10045496324E+04  0.81845306103E+02 0.  0.
         25    2    1    2    0    0  0.37229129826E+02 -0.17901374706E+02 -0.21329672161E+03  0.25069764860E+03  0.12508937699E+03 0.  0.
         24    2    1    2    0    0 -0.47679938232E+02  0.21026653945E+01  0.37839196530E+03  0.38951721218E+03  0.79154162694E+02 0.  0.
        -11    1    5    5    0    0 -0.47575661221E+02 -0.24912889575E+02  0.32774167334E+03  0.33211248102E+03  0.00000000000E+00 0.  1.
         12    1    5    5    0    0 -0.10427701031E+00  0.27015554969E+02  0.50650291966E+02  0.57404731166E+02  0.00000000000E+00 0. -1.
         13    1    3    3    0    0  0.42828116450E+02  0.91225372950E+01 -0.76025887780E+03  0.76151889637E+03  0.00000000000E+00 0. -1.
        -14    1    3    3    0    0 -0.32377308045E+02  0.66761720168E+01 -0.24077183659E+03  0.24303073601E+03  0.00000000000E+00 0.  1.
          5    1    4    4  501    0  0.65122255655E+02 -0.32047506969E+02 -0.60219876765E+02  0.94402631542E+02  0.41800000000E+01 0.  1.
         -5    1    4    4    0  501 -0.27893125829E+02  0.14146132263E+02 -0.15307684485E+03  0.15629501705E+03  0.41800000000E+01 0.  1.
</event>
<event>
11    1  0.8551154E-009  0.3478721E+03  0.7561462E-02  0.9817469E-01
         22   -1    0    0    0    0  0.00000000000E+00  0.00000000000E+00  0.22437136220E+03  0.22437136220E+03  0.00000000000E+00 0.  1.
         22   -1    0    0    0    0 -0.00000000000E+00 -0.00000000000E+00 -0.28055134209E+04  0.28055134209E+04  0.00000000000E+00 0. -1.
         24    2    1    2    0    0  0.36940187407E+01 -0.43262102037E+02 -0.14183261754E+04  0.14211218053E+04  0.77799680627E+02 0.  0.
         25    2    1    2    0    0 -0.39530989285E+02 -0.28370879271E+03 -0.12254554287E+04  0.12646902833E+04  0.12508847497E+03 0.  0.
        -24    2    1    2    0    0  0.35836970544E+02  0.32697089475E+03  0.62639545468E+02  0.34407269454E+03  0.79171030073E+02 0.  0.
        -13    1    3    3    0    0 -0.34380367494E+02 -0.12539885477E+02 -0.41759850888E+03  0.41919896590E+03  0.00000000000E+00 0.  1.
         14    1    3    3    0    0  0.38074386235E+02 -0.30722216559E+02 -0.10007276666E+04  0.10019228394E+04  0.00000000000E+00 0. -1.
         11    1    5    5    0    0  0.35527889080E+02  0.50505918624E+02  0.80978097103E+01  0.62278834612E+02  0.00000000000E+00 0. -1.
        -12    1    5    5    0    0  0.30908146416E+00  0.27646497613E+03  0.54541735758E+02  0.28179385993E+03  0.00000000000E+00 0.  1.
          5    1    4    4  501    0 -0.71156275112E+02 -0.15731875424E+03 -0.84655800769E+03  0.86399672378E+03  0.41800000000E+01 0.  1.
         -5    1    4    4    0  501  0.31625285827E+02 -0.12639003848E+03 -0.37889742105E+03  0.40069355948E+03  0.41800000000E+01 0.  1.
</event>
<event>
11    1  0.8551154E-009  0.1333896E+03  0.7561462E-02  0.1115173E+00
         22   -1    0    0    0    0  0.00000000000E+00  0.00000000000E+00  0.77643874376E+03  0.77643874376E+03  0.00000000000E+00 0.  1.
         22   -1    0    0    0    0 -0.00000000000E+00 -0.00000000000E+00 -0.90206845041E+03  0.90206845041E+03  0.00000000000E+00 0.  1.
        -24    2    1    2    0    0  0.27076599912E+01 -0.60201474084E+01 -0.73775736236E+03  0.74172388063E+03  0.76320480821E+02 0.  0.
         25    2    1    2    0    0  0.32876884539E+01 -0.40004672910E+02 -0.13240959538E+03  0.18652708711E+03  0.12509544567E+03 0.  0.
         24    2    1    2    0    0 -0.59953484451E+01  0.46024820319E+02  0.74453725109E+03  0.75025622642E+03  0.79965359583E+02 0.  0.
        -11    1    5    5    0    0  0.16228580647E+02  0.18798847491E+02  0.62904368109E+03  0.62953372921E+03  0.00000000000E+00 0.  1.
         12    1    5    5    0    0 -0.22223929093E+02  0.27225972828E+02  0.11549357000E+03  0.12072249721E+03  0.00000000000E+00 0. -1.
         11    1    3    3    0    0 -0.34070968603E+02 -0.45442047867E+01 -0.22097805696E+03  0.22363537815E+03  0.00000000000E+00 0. -1.
        -12    1    3    3    0    0  0.36778628594E+02 -0.14759426217E+01 -0.51677930539E+03  0.51808850249E+03  0.00000000000E+00 0.  1.
          5    1    4    4  501    0  0.71075165420E+01  0.44747776455E+01  0.22967502811E+02  0.24809655615E+02  0.41800000000E+01 0.  1.
         -5    1    4    4    0  501 -0.38198280881E+01 -0.44479450556E+02 -0.15537709819E+03  0.16171743150E+03  0.41800000000E+01 0.  1.
</event>
<event>
11    1  0.8551154E-009  0.1943964E+03  0.7561462E-02  0.1058559E+00
         22   -1    0    0    0    0  0.00000000000E+00  0.00000000000E+00  0.51225555215E+03  0.51225555215E+03  0.00000000000E+00 0. -1.
         22   -1    0    0    0    0 -0.00000000000E+00 -0.00000000000E+00 -0.72516040064E+03  0.72516040064E+03  0.00000000000E+00 0.  1.
         24    2    1    2    0    0 -0.42495746411E+01 -0.14978184727E+03 -0.67237756312E+03  0.69352754104E+03  0.80225944337E+02 0.  0.
         25    2    1    2    0    0 -0.62163875906E+02  0.11898459725E+03  0.29050981081E+03  0.34360635983E+03  0.12509076100E+03 0.  0.
        -24    2    1    2    0    0  0.66413450548E+02  0.30797250024E+02  0.16896290382E+03  0.20028205192E+03  0.78773221533E+02 0.  0.
        -11    1    3    3    0    0 -0.38809106265E+02 -0.93469537691E+02 -0.34446722643E+03  0.35902697850E+03  0.00000000000E+00 0.  1.
         12    1    3    3    0    0  0.34559531624E+02 -0.56312309583E+02 -0.32791033669E+03  0.33450056254E+03  0.00000000000E+00 0. -1.
         11    1    5    5    0    0  0.75829656895E+02  0.27622110346E+01  0.13786132160E+03  0.15736426109E+03  0.00000000000E+00 0. -1.
        -12    1    5    5    0    0 -0.94162063470E+01  0.28035038989E+02  0.31101582216E+02  0.42917790827E+02  0.00000000000E+00 0.  1.
          5    1    4    4  501    0 -0.70094449315E+02  0.13603122911E+03  0.20441446936E+03  0.25538299630E+03  0.41800000000E+01 0.  1.
         -5    1    4    4    0  501  0.79305734082E+01 -0.17046631858E+02  0.86095341452E+02  0.88223363527E+02  0.41800000000E+01 0.  1.
</event>
<event>
11    1  0.8551154E-009  0.3031082E+03  0.7561462E-02  0.9988843E-01
         22   -1    0    0    0    0  0.00000000000E+00  0.00000000000E+00  0.37030176138E+03  0.37030176138E+03  0.00000000000E+00 0.  1.
         22   -1    0    0    0    0 -0.00000000000E+00 -0.00000000000E+00 -0.13082407017E+04  0.13082407017E+04  0.00000000000E+00 0.  1.
         24    2    1    2    0    0  0.15824777705E+02  0.13653891028E+01 -0.46545549885E+03  0.47267271405E+03  0.80736517876E+02 0.  0.
         25    2    1    2    0    0 -0.21905427668E+03  0.18435197883E+03 -0.74648238104E+03  0.80923020075E+03  0.12508854614E+03 0.  0.
        -24    2    1    2    0    0  0.20322949898E+03 -0.18571736794E+03  0.27399893959E+03  0.39663954826E+03  0.80338921688E+02 0.  0.
        -13    1    3    3    0    0  0.33144849843E+02  0.29631814992E+02 -0.34066950820E+03  0.34355834926E+03  0.00000000000E+00 0.  1.
         14    1    3    3    0    0 -0.17320072138E+02 -0.28266425889E+02 -0.12478599065E+03  0.12911436479E+03  0.00000000000E+00 0. -1.
         11    1    5    5    0    0  0.84793024835E+02 -0.10482645203E+03  0.85009722391E+02  0.15938975816E+03  0.00000000000E+00 0. -1.
        -12    1    5    5    0    0  0.11843647414E+03 -0.80890915909E+02  0.18898921720E+03  0.23724979010E+03  0.00000000000E+00 0.  1.
          5    1    4    4  501    0 -0.11595424670E+03  0.19141889388E+02 -0.28837120482E+03  0.31142771782E+03  0.41800000000E+01 0. -1.
         -5    1    4    4    0  501 -0.10310002998E+03  0.16521008944E+03 -0.45811117622E+03  0.49780248293E+03  0.41800000000E+01 0. -1.
</event>
<event>
11    1  0.8551154E-009  0.2376367E+03  0.7561462E-02  0.1030699E+00
         22   -1    0    0    0    0  0.00000000000E+00  0.00000000000E+00  0.43591476810E+03  0.43591476810E+03  0.00000000000E+00 0. -1.
         22   -1    0    0    0    0 -0.00000000000E+00 -0.00000000000E+00 -0.36240802500E+03  0.36240802500E+03  0.00000000000E+00 0.  1.
        -24    2    1    2    0    0 -0.11228168650E+00 -0.34090962576E+02 -0.18160149851E+03  0.20146171397E+03  0.80283943611E+02 0.  0.
         25    2    1    2    0    0  0.31557069190E+02  0.22637178753E+03 -0.80203554604E+01  0.26068794832E+03  0.12511532876E+03 0.  0.
         24    2    1    2    0    0 -0.31444787504E+02 -0.19228082495E+03  0.26312859707E+03  0.33617313081E+03  0.76256311065E+02 0.  0.
        -11    1    5    5    0    0 -0.22280722042E+02 -0.82789237214E+02  0.58123116739E+02  0.10357984878E+03  0.00000000000E+00 0.  1.
         12    1    5    5    0    0 -0.91640654618E+01 -0.10949158774E+03  0.20500548033E+03  0.23259328203E+03  0.00000000000E+00 0. -1.
         13    1    3    3    0    0 -0.77768192722E+01  0.24846926064E+02 -0.38170538361E+02  0.46204314210E+02  0.00000000000E+00 0. -1.
        -14    1    3    3    0    0  0.76645375857E+01 -0.58937888640E+02 -0.14343096014E+03  0.15525739976E+03  0.00000000000E+00 0.  1.
          5    1    4    4  501    0  0.44444482482E+02  0.34305470961E+02  0.30941433654E+02  0.64241902817E+02  0.41800000000E+01 0. -1.
         -5    1    4    4    0  501 -0.12887413292E+02  0.19206631657E+03 -0.38961789115E+02  0.19644604550E+03  0.41800000000E+01 0. -1.
</event>
<event>
11    1  0.8551154E-009  0.1315218E+03  0.7561462E-02  0.1117413E+00
         22   -1    0    0    0    0  0.00000000000E+00  0.00000000000E+00  0.37101628880E+03  0.37101628880E+03  0.00000000000E+00 0.  1.
         22   -1    0    0    0    0 -0.00000000000E+00 -0.00000000000E+00 -0.96144036537E+03  0.96144036537E+03  0.00000000000E+00 0. -1.
        -24    2    1    2    0    0 -0.11533614299E+02  0.86660287123E+00 -0.88806408685E+03  0.89159412327E+03  0.78412263242E+02 0.  0.
         25    2    1    2    0    0  0.84621953698E+01 -0.41304319597E+02  0.32575578429E+01  0.13206179254E+03  0.12510815241E+03 0.  0.
         24    2    1    2    0    0  0.30714189296E+01  0.40437716726E+02  0.29438245243E+03  0.30880073836E+03  0.83977527714E+02 0.  0.
        -11    1    5    5    0    0 -0.38933706994E+01 -0.11019441327E+02  0.20571950183E+03  0.20605120688E+03  0.00000000000E+00 0.  1.
         12    1    5    5    0    0  0.69647896290E+01  0.51457158053E+02  0.88662950601E+02  0.10274953148E+03  0.00000000000E+00 0. -1.
         13    1    3    3    0    0  0.13287206994E+02 -0.15227248772E+02 -0.75546925159E+03  0.75573951139E+03  0.00000000000E+00 0. -1.
        -14    1    3    3    0    0 -0.24820821293E+02  0.16093851643E+02 -0.13259483526E+03  0.13585461188E+03  0.00000000000E+00 0.  1.
          5    1    4    4  501    0  0.34186704215E+02  0.28005478525E+02 -0.27126508120E+02  0.52022662516E+02  0.41800000000E+01 0. -1.
         -5    1    4    4    0  501 -0.25724508845E+02 -0.69309798122E+02  0.30384065962E+02  0.80039130027E+02  0.41800000000E+01 0. -1.
</event>
<event>
11    1  0.8551154E-009  0.1949811E+03  0.7561462E-02  0.1058131E+00
         22   -1    0    0    0    0  0.00000000000E+00  0.00000000000E+00  0.52064444649E+03  0.52064444649E+03  0.00000000000E+00 0.  1.
         22   -1    0    0    0    0 -0.00000000000E+00 -0.00000000000E+00 -0.25309809384E+03  0.25309809384E+03  0.00000000000E+00 0.  1.
         24    2    1    2    0    0  0.75391901252E+02 -0.10712671514E+03 -0.74918934663E+02  0.17050548068E+03  0.79367501538E+02 0.  0.
         25    2    1    2    0    0 -0.12382289132E+03  0.14566003792E+03 -0.17708052487E+02  0.22913934431E+03  0.12506921653E+03 0.  0.
        -24    2    1    2    0    0  0.48430990070E+02 -0.38533322785E+02  0.36017333980E+03  0.37409771535E+03  0.79961791911E+02 0.  0.
        -13    1    3    3    0    0  0.78644675122E+02 -0.11229484027E+03 -0.83086514661E+02  0.16030747017E+03  0.00000000000E+00 0.  1.
         14    1    3    3    0    0 -0.32527738698E+01  0.51681251304E+01  0.81675799981E+01  0.10198010504E+02  0.00000000000E+00 0. -1.
         11    1    5    5    0    0  0.19713259873E+02  0.92342055137E+01  0.20566548065E+02  0.29947722211E+02  0.00000000000E+00 0. -1.
        -12    1    5    5    0    0  0.28717730197E+02 -0.47767528299E+02  0.33960679173E+03  0.34414999314E+03  0.00000000000E+00 0.  1.
          5    1    4    4  501    0 -0.13892455368E+03  0.91775878752E+02 -0.35450151138E+02  0.17028514072E+03  0.41800000000E+01 0.  1.
         -5    1    4    4    0  501  0.15101662354E+02  0.53884159169E+02  0.17742098650E+02  0.58854203586E+02  0.41800000000E+01 0.  1.
</event>
<event>
11    1  0.8551154E-009  0.1631868E+03  0.7561462E-02  0.1084118E+00
         22   -1    0    0    0    0  0.00000000000E+00  0.00000000000E+00  0.10887257419E+04  0.10887257419E+04  0.00000000000E+00 0. -1.
         22   -1    0    0    0    0 -0.00000000000E+00 -0.00000000000E+00 -0.10462609793E+03  0.10462609793E+03  0.00000000000E+00 0.  1.
        -24    2    1    2    0    0  0.66829768271E+02 -0.25934733677E+01 -0.39286787241E+02  0.11249865337E+03  0.81483442036E+02 0.  0.
         25    2    1    2    0    0 -0.29168030491E+02  0.10412884905E+03  0.27766933855E+03  0.32317241028E+03  0.12508618625E+03 0.  0.
         24    2    1    2    0    0 -0.37661737780E+02 -0.10153537568E+03  0.74571709268E+03  0.75768077620E+03  0.79109653613E+02 0.  0.
        -13    1    5    5    0    0  0.34764975438E+01 -0.63905231646E+02  0.22309896079E+03  0.23209720156E+03  0.00000000000E+00 0.  1.
         14    1    5    5    0    0 -0.41138235324E+02 -0.37630144033E+02  0.52261813190E+03  0.52558357464E+03  0.00000000000E+00 0. -1.
         13    1    3    3    0    0  0.13553076637E+02  0.34505920367E+02 -0.91104018917E+00  0.37083344252E+02  0.00000000000E+00 0. -1.
        -14    1    3    3    0    0  0.53276691634E+02 -0.37099393734E+02 -0.38375747052E+02  0.75415309114E+02  0.00000000000E+00 0.  1.
          5    1    4    4  501    0  0.41335464989E+02  0.76264689930E+02  0.17621416169E+03  0.19645311598E+03  0.41800000000E+01 0.  1.
         -5    1    4    4    0  501 -0.70503495480E+02  0.27864159117E+02  0.10145517685E+03  0.12671929430E+03  0.41800000000E+01 0.  1.
</event>
<event>
11    1  0.8551154E-009  0.2507047E+03  0.7561462E-02  0.1023524E+00
         22   -1    0    0    0    0  0.00000000000E+00  0.00000000000E+00  0.31155241342E+03  0.31155241342E+03  0.00000000000E+00 0.  1.
         22   -1    0    0    0    0 -0.00000000000E+00 -0.00000000000E+00 -0.20236217861E+04  0.20236217861E+04  0.00000000000E+00 0. -1.
        -24    2    1    2    0    0  0.11529952088E+02 -0.22006706044E+03 -0.16733380028E+04  0.16898348317E+04  0.83181943915E+02 0.  0.
         25    2    1    2    0    0  0.11166656188E+03  0.19889595825E+03 -0.26748704349E+03  0.37312991461E+03  0.12509033332E+03 0.  0.
         24    2    1    2    0    0 -0.12319651397E+03  0.21171102193E+02  0.22875567361E+03  0.27220945324E+03  0.78378770125E+02 0.  0.
        -11    1    5    5    0    0 -0.10217801124E+03 -0.17062187132E+02  0.16894765212E+03  0.19817864004E+03  0.00000000000E+00 0.  1.
         12    1    5    5    0    0 -0.21018502724E+02  0.38233289325E+02  0.59808021483E+02  0.74030813201E+02  0.00000000000E+00 0. -1.
         13    1    3    3    0    0  0.23232262576E+02 -0.10716193935E+02 -0.15771036534E+03  0.15977213202E+03  0.00000000000E+00 0. -1.
        -14    1    3    3    0    0 -0.11702310488E+02 -0.20935086650E+03 -0.15156276375E+04  0.15300626996E+04  0.00000000000E+00 0.  1.
          5    1    4    4  501    0  0.11416372983E+03  0.18732220722E+03 -0.27978388979E+03  0.35555514891E+03  0.41800000000E+01 0. -1.
         -5    1    4    4    0  501 -0.24971679515E+01  0.11573751021E+02  0.12296846300E+02  0.17574765700E+02  0.41800000000E+01 0. -1.
</event>
<event>
11    1  0.8551154E-009  0.1587440E+03  0.7561462E-02  0.1088265E+00
         22   -1    0    0    0    0  0.00000000000E+00  0.00000000000E+00  0.89586949997E+02  0.89586949997E+02  0.00000000000E+00 0.  1.
         22   -1    0    0    0    0 -0.00000000000E+00 -0.00000000000E+00 -0.11671581628E+04  0.11671581628E+04  0.00000000000E+00 0.  1.
         24    2    1    2    0    0 -0.61279023442E+01  0.20949498398E+02 -0.88087749412E+03  0.88449561145E+03  0.76882340981E+02 0.  0.
         25    2    1    2    0    0 -0.20824324973E+02  0.78282372096E+02 -0.19274008353E+03  0.24363230623E+03  0.12508468551E+03 0.  0.
        -24    2    1    2    0    0  0.26952227317E+02 -0.99231870494E+02 -0.39536351625E+01  0.12861719512E+03  0.77158051887E+02 0.  0.
        -11    1    3    3    0    0 -0.58280033051E+01  0.30548366284E+02 -0.86734158785E+03  0.86789895628E+03  0.00000000000E+00 0.  1.
         12    1    3    3    0    0 -0.29989903913E+00 -0.95988678860E+01 -0.13535906274E+02  0.16596655169E+02  0.00000000000E+00 0. -1.
         13    1    5    5    0    0  0.33085828626E+02 -0.51458933122E+02 -0.35793650543E+02  0.70879328955E+02  0.00000000000E+00 0. -1.
        -14    1    5    5    0    0 -0.61336013083E+01 -0.47772937372E+02  0.31840015380E+02  0.57737866168E+02  0.00000000000E+00 0.  1.
          5    1    4    4  501    0 -0.21259816841E+02  0.88714442357E+01  0.12775182860E+02  0.26671333526E+02  0.41800000000E+01 0. -1.
         -5    1    4    4    0  501  0.43549186772E+00  0.69410927860E+02 -0.20551526639E+03  0.21696097271E+03  0.41800000000E+01 0. -1.
</event>
<event>
11    1  0.8551154E-009  0.2391306E+03  0.7561462E-02  0.1029854E+00
         22   -1    0    0    0    0  0.00000000000E+00  0.00000000000E+00  0.17470565173E+03  0.17470565173E+03  0.00000000000E+00 0. -1.
         22   -1    0    0    0    0 -0.00000000000E+00 -0.00000000000E+00 -0.17398335946E+04  0.17398335946E+04  0.00000000000E+00 0. -1.
         24    2    1    2    0    0 -0.17558142900E+02 -0.45706982416E+02 -0.13324443576E+04  0.13362042384E+04  0.87386405924E+02 0.  0.
         25    2    1    2    0    0  0.96521373703E+02  0.22099282453E+03 -0.25013579972E+03  0.36928425929E+03  0.12509493108E+03 0.  0.
        -24    2    1    2    0    0 -0.78963230803E+02 -0.17528584212E+03  0.17452214411E+02  0.20905074870E+03  0.80232895251E+02 0.  0.
        -11    1    3    3    0    0  0.13985511719E+02  0.17174542619E+02 -0.14541815930E+03  0.14709520899E+03  0.00000000000E+00 0.  1.
         12    1    3    3    0    0 -0.31543654619E+02 -0.62881525035E+02 -0.11870261983E+04  0.11891090294E+04  0.00000000000E+00 0. -1.
         13    1    5    5    0    0 -0.95058392938E+02 -0.13888743986E+03  0.10323129698E+02  0.16861905594E+03  0.00000000000E+00 0. -1.
        -14    1    5    5    0    0  0.16095162135E+02 -0.36398402258E+02  0.71290847132E+01  0.40431692766E+02  0.00000000000E+00 0.  1.
          5    1    4    4  501    0  0.97406550075E+02  0.22566396593E+03 -0.25984100715E+03  0.35769691488E+03  0.41800000000E+01 0.  1.
         -5    1    4    4    0  501 -0.88517637139E+00 -0.46711414024E+01  0.97052074306E+01  0.11587344410E+02  0.41800000000E+01 0.  1.
</event>
<event>
11    1  0.8551154E-009  0.1292370E+03  0.7561462E-02  0.1120210E+00
         22   -1    0    0    0    0  0.00000000000E+00  0.00000000000E+00  0.46872251629E+03  0.46872251629E+03  0.00000000000E+00 0.  1.
         22   -1    0    0    0    0 -0.00000000000E+00 -0.00000000000E+00 -0.25992962726E+03  0.25992962726E+03  0.00000000000E+00 0.  1.
         24    2    1    2    0    0  0.54448689005E+01 -0.31789183123E+02 -0.18220123708E+03  0.20212992105E+03  0.81357331743E+02 0.  0.
         25    2    1    2    0    0  0.21653606467E+01  0.34695627797E+02  0.26252092226E+01  0.12985726850E+03  0.12509013984E+03 0.  0.
        -24    2    1    2    0    0 -0.76102295472E+01 -0.29064446741E+01  0.38836891689E+03  0.39666495400E+03  0.80288897831E+02 0.  0.
        -13    1    3    3    0    0 -0.15481750005E+02 -0.51635572930E+02 -0.84241211509E+02  0.10001249268E+03  0.00000000000E+00 0.  1.
         14    1    3    3    0    0  0.20926618905E+02  0.19846389807E+02 -0.97960025574E+02  0.10211742837E+03  0.00000000000E+00 0. -1.
         11    1    5    5    0    0 -0.14879717000E+02  0.10592739940E+02  0.16913796678E+02  0.24893546061E+02  0.00000000000E+00 0. -1.
        -12    1    5    5    0    0  0.72694874526E+01 -0.13499184614E+02  0.37145512021E+03  0.37177140794E+03  0.00000000000E+00 0.  1.
          5    1    4    4  501    0  0.51709628811E+02 -0.18689144249E+02  0.11618397200E+02  0.56352722898E+02  0.41800000000E+01 0. -1.
         -5    1    4    4    0  501 -0.49544268164E+02  0.53384772046E+02 -0.89931879775E+01  0.73504545603E+02  0.41800000000E+01 0. -1.
</event>
<event>
11    1  0.8551154E-009  0.1364496E+03  0.7561462E-02  0.1111589E+00
         22   -1    0    0    0    0  0.00000000000E+00  0.00000000000E+00  0.15779620407E+04  0.15779620407E+04  0.00000000000E+00 0.  1.
         22   -1    0    0    0    0 -0.00000000000E+00 -0.00000000000E+00 -0.76299877842E+02  0.76299877842E+02  0.00000000000E+00 0. -1.
        -24    2    1    2    0    0 -0.41484384823E+02  0.38047924590E+02 -0.23949744199E+02  0.10095118446E+03  0.80305371216E+02 0.  0.
         25    2    1    2    0    0  0.15588541896E+02 -0.39120725642E+02  0.33894838330E+03  0.36374016259E+03  0.12508982984E+03 0.  0.
         24    2    1    2    0    0  0.25895842926E+02  0.10728010518E+01  0.11866635237E+04  0.11895705715E+04  0.78968856900E+02 0.  0.
        -13    1    5    5    0    0  0.51339835930E+02  0.56850503071E+01  0.56101739142E+03  0.56339028393E+03  0.00000000000E+00 0.  1.
         14    1    5    5    0    0 -0.25443993003E+02 -0.46122492552E+01  0.62564613232E+03  0.62618028754E+03  0.00000000000E+00 0. -1.
         13    1    3    3    0    0 -0.49333381339E+02 -0.78800958682E+01 -0.35423801156E+01  0.50084197928E+02  0.00000000000E+00 0. -1.
        -14    1    3    3    0    0  0.78489965165E+01  0.45928020458E+02 -0.20407364084E+02  0.50866986527E+02  0.00000000000E+00 0.  1.
          5    1    4    4  501    0 -0.48830250398E+02 -0.14292932328E+02  0.73915669157E+02  0.89831396601E+02  0.41800000000E+01 0. -1.
         -5    1    4    4    0  501  0.64418792294E+02 -0.24827793314E+02  0.26503271414E+03  0.27390876599E+03  0.41800000000E+01 0. -1.
</event>
<event>
11    1  0.8551154E-009  0.1967077E+03  0.7561462E-02  0.1056877E+00
         22   -1    0    0    0    0  0.00000000000E+00  0.00000000000E+00  0.79884751865E+03  0.79884751865E+03  0.00000000000E+00 0.  1.
         22   -1    0    0    0    0 -0.00000000000E+00 -0.00000000000E+00 -0.38319507588E+03  0.38319507588E+03  0.00000000000E+00 0. -1.
         24    2    1    2    0    0  0.70037708680E+02 -0.13291713855E+03 -0.27508060202E+03  0.32345153277E+03  0.79870583390E+02 0.  0.
         25    2    1    2    0    0 -0.16108503704E+03  0.93969734618E+02  0.85402208187E+02  0.24024882926E+03  0.12508901877E+03 0.  0.
        -24    2    1    2    0    0  0.91047328355E+02  0.38947403930E+02  0.60533083660E+03  0.61834223249E+03  0.78199606607E+02 0.  0.
        -13    1    3    3    0    0  0.37394757093E+02 -0.75790016999E+02 -0.75572880118E+02  0.11337440074E+03  0.00000000000E+00 0.  1.
         14    1    3    3    0    0  0.32642951588E+02 -0.57127121549E+02 -0.19950772190E+03  0.21007713203E+03  0.00000000000E+00 0. -1.
         11    1    5    5    0    0  0.49086675844E+02  0.16537803509E+01  0.11835252481E+03  0.12813881872E+03  0.00000000000E+00 0. -1.
        -12    1    5    5    0    0  0.41960652511E+02  0.37293623579E+02  0.48697831179E+03  0.49020341377E+03  0.00000000000E+00 0.  1.
          5    1    4    4  501    0 -0.16226484210E+03  0.68950403955E+02  0.10754168622E+03  0.20655925025E+03  0.41800000000E+01 0. -1.
         -5    1    4    4    0  501  0.11798050634E+01  0.25019330662E+02 -0.22139478033E+02  0.33689579017E+02  0.41800000000E+01 0. -1.
</event>
<event>
11    1  0.9723555E-009  0.1529831E+03  0.7561462E-02  0.1093869E+00
         22   -1    0    0    0    0  0.00000000000E+00  0.00000000000E+00  0.73941348061E+03  0.73941348061E+03  0.00000000000E+00 0. -1.
         22   -1    0    0    0    0 -0.00000000000E+00 -0.00000000000E+00 -0.99226621990E+03  0.99226621990E+03  0.00000000000E+00 0.  1.
        -24    2    1    2    0    0 -0.22762867178E+02  0.57606042665E+02 -0.86937673151E+03  0.87529360912E+03  0.80538168573E+02 0.  0.
         25    2    1    2    0    0 -0.15551021372E+02  0.24729028667E+02 -0.78623199992E+02  0.15060567964E+03  0.12508838491E+03 0.  0.
         24    2    1    2    0    0  0.38313888551E+02 -0.82335071332E+02  0.69514719222E+03  0.70578041174E+03  0.81543563363E+02 0.  0.
        -11    1    5    5    0    0  0.36496502722E+02 -0.76944232533E+00  0.30621674449E+03  0.30838495644E+03  0.00000000000E+00 0.  1.
         12    1    5    5    0    0  0.18173858287E+01 -0.81565629007E+02  0.38893044773E+03  0.39739545531E+03  0.00000000000E+00 0. -1.
         11    1    3    3    0    0 -0.78436234917E+01  0.12048471698E+02 -0.20358125413E+02  0.24922707920E+02  0.00000000000E+00 0. -1.
        -12    1    3    3    0    0 -0.14919243687E+02  0.45557570968E+02 -0.84901860610E+03  0.85037090120E+03  0.00000000000E+00 0.  1.
          5    1    4    4  501    0 -0.92501220911E+01 -0.12530206305E+02 -0.10377483088E+03  0.10502027782E+03  0.41800000000E+01 0.  1.
         -5    1    4    4    0  501 -0.63008992814E+01  0.37259234972E+02  0.25151630892E+02  0.45585401818E+02  0.41800000000E+01 0.  1.
</event>
<event>
11    1  0.8551154E-009  0.1761355E+03  0.7561462E-02  0.1072812E+00
         22   -1    0    0    0    0  0.00000000000E+00  0.00000000000E+00  0.71000075216E+03  0.71000075216E+03  0.00000000000E+00 0.  1.
         22   -1    0    0    0    0 -0.00000000000E+00 -0.00000000000E+00 -0.30396603491E+04  0.30396603491E+04  0.00000000000E+00 0.  1.
        -24    2    1    2    0    0 -0.46211761785E+02 -0.10871914863E+02 -0.28677831153E+04  0.28693018706E+04  0.80371031126E+02 0.  0.
         25    2    1    2    0    0  0.13199554263E+03 -0.76999134958E+02 -0.10296633068E+03  0.22271252224E+03  0.12508841773E+03 0.  0.
         24    2    1    2    0    0 -0.85783780844E+02  0.87871049820E+02  0.64108984909E+03  0.65764670840E+03  0.80142498182E+02 0.  0.
        -13    1    5    5    0    0 -0.61418103839E+02  0.68616998348E+02  0.59491522440E+03  0.60200049848E+03  0.00000000000E+00 0.  1.
         14    1    5    5    0    0 -0.24365677005E+02  0.19254051472E+02  0.46174624685E+02  0.55646209923E+02  0.00000000000E+00 0. -1.
         11    1    3    3    0    0  0.64163037095E+01  0.27482300878E+02 -0.87610687768E+03  0.87656129674E+03  0.00000000000E+00 0. -1.
        -12    1    3    3    0    0 -0.52628065494E+02 -0.38354215741E+02 -0.19916762376E+04  0.19927405739E+04  0.00000000000E+00 0.  1.
          5    1    4    4  501    0  0.47408517077E+02 -0.91130235459E+02 -0.22935034825E+02  0.10533648717E+03  0.41800000000E+01 0. -1.
         -5    1    4    4    0  501  0.84587025551E+02  0.14131100501E+02 -0.80031295851E+02  0.11737603507E+03  0.41800000000E+01 0. -1.
</event>
<event>
11    1  0.8551154E-009  0.1648754E+03  0.7561462E-02  0.1082579E+00
         22   -1    0    0    0    0  0.00000000000E+00  0.00000000000E+00  0.62031992810E+03  0.62031992810E+03  0.00000000000E+00 0. -1.
         22   -1    0    0    0    0 -0.00000000000E+00 -0.00000000000E+00 -0.51415556125E+03  0.51415556125E+03  0.00000000000E+00 0. -1.
        -24    2    1    2    0    0 -0.27590789940E+02 -0.45643280172E+02 -0.25658031742E+03  0.27609886806E+03  0.86905494332E+02 0.  0.
         25    2    1    2    0    0  0.57686864692E+02  0.14705676880E+03 -0.19767268062E+03  0.28226363552E+03  0.12507918957E+03 0.  0.
         24    2    1    2    0    0 -0.30096074752E+02 -0.10141348863E+03  0.56041736488E+03  0.57611298577E+03  0.81535759758E+02 0.  0.
        -11    1    5    5    0    0 -0.24848429372E+01 -0.36324655785E+02  0.56205021924E+02  0.66967600762E+02  0.00000000000E+00 0.  1.
         12    1    5    5    0    0 -0.27611231814E+02 -0.65088832845E+02  0.50421234296E+03  0.50914538501E+03  0.00000000000E+00 0. -1.
         13    1    3    3    0    0  0.24787013701E+02 -0.42815936531E+02 -0.12072462908E+03  0.13046852699E+03  0.00000000000E+00 0. -1.
        -14    1    3    3    0    0 -0.52377803642E+02 -0.28273436407E+01 -0.13585568834E+03  0.14563034107E+03  0.00000000000E+00 0.  1.
          5    1    4    4  501    0  0.67862928466E+02  0.16070452232E+03 -0.19901772052E+03  0.26468253821E+03  0.41800000000E+01 0.  1.
         -5    1    4    4    0  501 -0.10176063774E+02 -0.13647753516E+02  0.13450399048E+01  0.17581097301E+02  0.41800000000E+01 0.  1.
</event>
<event>
11    1  0.8551154E-009  0.2606119E+03  0.7561462E-02  0.1018393E+00
         22   -1    0    0    0    0  0.00000000000E+00  0.00000000000E+00  0.69216027998E+03  0.69216027998E+03  0.00000000000E+00 0. -1.
         22   -1    0    0    0    0 -0.00000000000E+00 -0.00000000000E+00 -0.42338839946E+03  0.42338839946E+03  0.00000000000E+00 0.  1.
        -24    2    1    2    0    0 -0.32096540199E+02 -0.99457980367E+02 -0.17562730770E+03  0.21910249152E+03  0.78986535748E+02 0.  0.
         25    2    1    2    0    0 -0.14407821289E+03  0.23822391594E+03 -0.84400549855E+02  0.31667251202E+03  0.12509540957E+03 0.  0.
         24    2    1    2    0    0  0.17617475309E+03 -0.13876593558E+03  0.52879973808E+03  0.57977367590E+03  0.78834153550E+02 0.  0.
        -11    1    5    5    0    0  0.15655746852E+03 -0.83297781471E+02  0.42392649394E+03  0.45952413823E+03  0.00000000000E+00 0.  1.
         12    1    5    5    0    0  0.19617284573E+02 -0.55468154105E+02  0.10487324414E+03  0.12024953767E+03  0.00000000000E+00 0. -1.
         13    1    3    3    0    0 -0.54709460806E+02 -0.44874842715E+02 -0.81091631833E+02  0.10762308936E+03  0.00000000000E+00 0. -1.
        -14    1    3    3    0    0  0.22612920607E+02 -0.54583137653E+02 -0.94535675865E+02  0.11147940216E+03  0.00000000000E+00 0.  1.
          5    1    4    4  501    0 -0.21732641323E+02  0.14228421775E+03 -0.71045177320E+02  0.16056773007E+03  0.41800000000E+01 0. -1.
         -5    1    4    4    0  501 -0.12234557157E+03  0.95939698198E+02 -0.13355372535E+02  0.15610478195E+03  0.41800000000E+01 0. -1.
</event>
<event>
11    1  0.8551154E-009  0.1360506E+03  0.7561462E-02  0.1112050E+00
         22   -1    0    0    0    0  0.00000000000E+00  0.00000000000E+00  0.63718928901E+03  0.63718928901E+03  0.00000000000E+00 0. -1.
         22   -1    0    0    0    0 -0.00000000000E+00 -0.00000000000E+00 -0.30190115575E+03  0.30190115575E+03  0.00000000000E+00 0.  1.
        -24    2    1    2    0    0  0.28549613921E+02  0.29688209844E+02 -0.25456859975E+03  0.27023914676E+03  0.80793280657E+02 0.  0.
         25    2    1    2    0    0 -0.75459159376E+02 -0.43641514216E+02  0.13374876629E+03  0.20281634341E+03  0.12508824955E+03 0.  0.
         24    2    1    2    0    0  0.46909545455E+02  0.13953304372E+02  0.45610796672E+03  0.46603495460E+03  0.82212538218E+02 0.  0.
        -13    1    5    5    0    0 -0.20082128772E+02  0.13611443285E+01  0.44761414839E+02  0.49078802637E+02  0.00000000000E+00 0.  1.
         14    1    5    5    0    0  0.66991674226E+02  0.12592160043E+02  0.41134655188E+03  0.41695615196E+03  0.00000000000E+00 0. -1.
         11    1    3    3    0    0 -0.13403626243E+02  0.67692934106E+01 -0.45485688509E+01  0.15689805873E+02  0.00000000000E+00 0. -1.
        -12    1    3    3    0    0  0.41953240164E+02  0.22918916434E+02 -0.25002003090E+03  0.25454934088E+03  0.00000000000E+00 0.  1.
          5    1    4    4  501    0 -0.24078463118E+02 -0.49241286698E+02  0.14017225691E+03  0.15056630005E+03  0.41800000000E+01 0. -1.
         -5    1    4    4    0  501 -0.51380696257E+02  0.55997724823E+01 -0.64234906261E+01  0.52250043364E+02  0.41800000000E+01 0. -1.
</event>
<event>
11    1  0.8551154E-009  0.1359777E+03  0.7561462E-02  0.1112135E+00
         22   -1    0    0    0    0  0.00000000000E+00  0.00000000000E+00  0.17721882677E+03  0.17721882677E+03  0.00000000000E+00 0. -1.
         22   -1    0    0    0    0 -0.00000000000E+00 -0.00000000000E+00 -0.50690562577E+03  0.50690562577E+03  0.00000000000E+00 0. -1.
         24    2    1    2    0    0  0.24308458291E+02 -0.51112149575E+02 -0.40940579026E+03  0.42063273661E+03  0.78201310961E+02 0.  0.
         25    2    1    2    0    0 -0.14259328542E+02  0.16186252656E+02 -0.16526745530E+02  0.12800524110E+03  0.12508751020E+03 0.  0.
        -24    2    1    2    0    0 -0.10049129749E+02  0.34925896919E+02  0.96245736787E+02  0.13548647483E+03  0.88162008416E+02 0.  0.
        -13    1    3    3    0    0  0.24830143917E+02 -0.46066591219E+02 -0.11685656451E+03  0.12803953898E+03  0.00000000000E+00 0.  1.
         14    1    3    3    0    0 -0.52168562669E+00 -0.50455583554E+01 -0.29254922575E+03  0.29259319763E+03  0.00000000000E+00 0. -1.
         11    1    5    5    0    0 -0.28572889078E+02  0.28628705491E+02  0.10612292050E+03  0.11356974520E+03  0.00000000000E+00 0. -1.
        -12    1    5    5    0    0  0.18523759329E+02  0.62971914286E+01 -0.98771837166E+01  0.21916729631E+02  0.00000000000E+00 0.  1.
          5    1    4    4  501    0 -0.19330827611E+02 -0.44062305114E+02 -0.40300857776E+02  0.62903093450E+02  0.41800000000E+01 0. -1.
         -5    1    4    4    0  501  0.50714990697E+01  0.60248557769E+02  0.23774112246E+02  0.65102147654E+02  0.41800000000E+01 0. -1.
</event>
<event>
11    1  0.8551154E-009  0.1859214E+03  0.7561462E-02  0.1064951E+00
         22   -1    0    0    0    0  0.00000000000E+00  0.00000000000E+00  0.54600357179E+03  0.54600357179E+03  0.00000000000E+00 0.  1.
         22   -1    0    0    0    0 -0.00000000000E+00 -0.00000000000E+00 -0.14052142330E+04  0.14052142330E+04  0.00000000000E+00 0.  1.
        -24    2    1    2    0    0 -0.10877641250E+03  0.87670875136E+02 -0.13025242909E+04  0.13128903783E+04  0.87138548948E+02 0.  0.
         25    2    1    2    0    0  0.35691961240E+02 -0.11713923844E+03 -0.62945983036E+01  0.17516669384E+03  0.12509289101E+03 0.  0.
         24    2    1    2    0    0  0.73084451262E+02  0.29468363306E+02  0.44960822799E+03  0.46316073269E+03  0.78489388896E+02 0.  0.
        -11    1    5    5    0    0  0.28248040923E+02  0.28815187048E+02  0.36660901942E+03  0.36882304692E+03  0.00000000000E+00 0.  1.
         12    1    5    5    0    0  0.44836410339E+02  0.65317625817E+00  0.82999208577E+02  0.94337685766E+02  0.00000000000E+00 0. -1.
         11    1    3    3    0    0 -0.16745424180E+02 -0.72836255863E+01 -0.47018804676E+02  0.50440345219E+02  0.00000000000E+00 0. -1.
        -12    1    3    3    0    0 -0.92030988323E+02  0.94954500722E+02 -0.12555054862E+04  0.12624500330E+04  0.00000000000E+00 0.  1.
          5    1    4    4  501    0  0.58953582341E+02 -0.99812226716E+02 -0.46875086483E+02  0.12511095718E+03  0.41800000000E+01 0.  1.
         -5    1    4    4    0  501 -0.23261621101E+02 -0.17327011726E+02  0.40580488179E+02  0.50055736659E+02  0.41800000000E+01 0.  1.
</event>
<event>
11    1  0.8551154E-009  0.1374567E+03  0.7561462E-02  0.1110432E+00
         22   -1    0    0    0    0  0.00000000000E+00  0.00000000000E+00  0.36384563747E+03  0.36384563747E+03  0.00000000000E+00 0.  1.
         22   -1    0    0    0    0 -0.00000000000E+00 -0.00000000000E+00 -0.50362516111E+03  0.50362516111E+03  0.00000000000E+00 0. -1.
         24    2    1    2    0    0 -0.27237239667E+02 -0.43933008280E+01 -0.41658733402E+03  0.42566711133E+03  0.82983820656E+02 0.  0.
         25    2    1    2    0    0 -0.32934055525E+02 -0.15933920290E+01 -0.13934154765E+02  0.13011458743E+03  0.12509378195E+03 0.  0.
        -24    2    1    2    0    0  0.60171295192E+02  0.59866928570E+01  0.29074196514E+03  0.31168909981E+03  0.94671956738E+02 0.  0.
        -11    1    3    3    0    0 -0.18311471759E+02 -0.19018768262E+02 -0.35736639648E+02  0.44431193519E+02  0.00000000000E+00 0.  1.
         12    1    3    3    0    0 -0.89257679076E+01  0.14625467434E+02 -0.38085069437E+03  0.38123591781E+03  0.00000000000E+00 0. -1.
         13    1    5    5    0    0  0.79394428750E+01  0.44873596171E+02  0.94265311841E+02  0.10470254726E+03  0.00000000000E+00 0. -1.
        -14    1    5    5    0    0  0.52231852317E+02 -0.38886903314E+02  0.19647665330E+03  0.20698655255E+03  0.00000000000E+00 0.  1.
          5    1    4    4  501    0 -0.43934593184E+02  0.20939203297E+02 -0.60078684910E+02  0.77431385713E+02  0.41800000000E+01 0. -1.
         -5    1    4    4    0  501  0.11000537659E+02 -0.22532595326E+02  0.46144530144E+02  0.52683201717E+02  0.41800000000E+01 0. -1.
</event>
<event>
11    1  0.8551154E-009  0.1277538E+03  0.7561462E-02  0.1122060E+00
         22   -1    0    0    0    0  0.00000000000E+00  0.00000000000E+00  0.19819006096E+04  0.19819006096E+04  0.00000000000E+00 0. -1.
         22   -1    0    0    0    0 -0.00000000000E+00 -0.00000000000E+00 -0.24757885443E+02  0.24757885443E+02  0.00000000000E+00 0. -1.
         24    2    1    2    0    0 -0.17126469922E+02 -0.17649948125E+02  0.94254802876E+02  0.13025725623E+03  0.86476287463E+02 0.  0.
         25    2    1    2    0    0  0.50806065130E+02  0.21072996081E+01  0.10737344459E+04  0.10821914157E+04  0.12508758089E+03 0.  0.
        -24    2    1    2    0    0 -0.33679595208E+02  0.15542648517E+02  0.78915347531E+03  0.79420982306E+03  0.81425710973E+02 0.  0.
        -13    1    3    3    0    0 -0.45427681405E+02 -0.61918836060E+01  0.87799951309E+02  0.99049710299E+02  0.00000000000E+00 0.  1.
         14    1    3    3    0    0  0.28301211484E+02 -0.11458064519E+02  0.64548515668E+01  0.31207545926E+02  0.00000000000E+00 0. -1.
         11    1    5    5    0    0 -0.35189910654E+02  0.31589468293E+02  0.75461973427E+03  0.75609997200E+03  0.00000000000E+00 0. -1.
        -12    1    5    5    0    0  0.15103154456E+01 -0.16046819776E+02  0.34533741038E+02  0.38109851059E+02  0.00000000000E+00 0.  1.
          5    1    4    4  501    0  0.64918069539E+01 -0.45989738560E+02  0.17616284793E+03  0.18223068073E+03  0.41800000000E+01 0.  1.
         -5    1    4    4    0  501  0.44314258176E+02  0.48097038169E+02  0.89757159801E+03  0.89996073499E+03  0.41800000000E+01 0.  1.
</event>
<event>
11    1  0.8551154E-009  0.1504755E+03  0.7561462E-02  0.1096394E+00
         22   -1    0    0    0    0  0.00000000000E+00  0.00000000000E+00  0.12334616255E+03  0.12334616255E+03  0.00000000000E+00 0.  1.
         22   -1    0    0    0    0 -0.00000000000E+00 -0.00000000000E+00 -0.77596931008E+03  0.77596931008E+03  0.00000000000E+00 0. -1.
        -24    2    1    2    0    0  0.32852869144E+02 -0.23028188222E+02 -0.37529089160E+03  0.38538638428E+03  0.77908943058E+02 0.  0.
         25    2    1    2    0    0  0.73620757866E+01 -0.53831493179E+02 -0.34807156553E+03  0.37383627160E+03  0.12509082067E+03 0.  0.
         24    2    1    2    0    0 -0.40214944931E+02  0.76859681401E+02  0.70739309593E+02  0.14009281676E+03  0.84245444771E+02 0.  0.
        -11    1    5    5    0    0 -0.63014600788E+02  0.51175472201E+02  0.67539898358E+02  0.10560022130E+03  0.00000000000E+00 0.  1.
         12    1    5    5    0    0  0.22799655858E+02  0.25684209200E+02  0.31994112347E+01  0.34492595462E+02  0.00000000000E+00 0. -1.
         11    1    3    3    0    0  0.82155574923E+01 -0.88156822968E+01 -0.33929727397E+03  0.33951119534E+03  0.00000000000E+00 0. -1.
        -12    1    3    3    0    0  0.24637311652E+02 -0.14212505925E+02 -0.35993617626E+02  0.45875188936E+02  0.00000000000E+00 0.  1.
          5    1    4    4  501    0  0.22965636712E+02 -0.13965217842E+02 -0.32280647143E+03  0.32395051809E+03  0.41800000000E+01 0. -1.
         -5    1    4    4    0  501 -0.15603560926E+02 -0.39866275336E+02 -0.25265094101E+02  0.49885753504E+02  0.41800000000E+01 0. -1.
</event>
<event>
11    1  0.8551154E-009  0.1414617E+03  0.7561462E-02  0.1105937E+00
         22   -1    0    0    0    0  0.00000000000E+00  0.00000000000E+00  0.28839154894E+03  0.28839154894E+03  0.00000000000E+00 0.  1.
         22   -1    0    0    0    0 -0.00000000000E+00 -0.00000000000E+00 -0.44476208897E+03  0.44476208897E+03  0.00000000000E+00 0.  1.
         24    2    1    2    0    0 -0.64879450331E+02  0.30429997156E+02 -0.29482709907E+03  0.31326044269E+03  0.77934323676E+02 0.  0.
         25    2    1    2    0    0  0.46024442890E+02 -0.90713567387E+01 -0.99788962531E+02  0.16674941969E+03  0.12508794134E+03 0.  0.
        -24    2    1    2    0    0  0.18855007441E+02 -0.21358640417E+02  0.23824552156E+03  0.25314377553E+03  0.80679239708E+02 0.  0.
        -13    1    3    3    0    0 -0.69471868495E+02  0.34904527267E+02 -0.15614591001E+03  0.17443110889E+03  0.00000000000E+00 0.  1.
         14    1    3    3    0    0  0.45924181647E+01 -0.44745301110E+01 -0.13868118906E+03  0.13882933380E+03  0.00000000000E+00 0. -1.
         13    1    5    5    0    0  0.38375075324E+02  0.17317323911E+02  0.11024934193E+03  0.11801463260E+03  0.00000000000E+00 0. -1.
        -14    1    5    5    0    0 -0.19520067883E+02 -0.38675964328E+02  0.12799617964E+03  0.13512914293E+03  0.00000000000E+00 0.  1.
          5    1    4    4  501    0  0.51153046891E+02  0.51465386136E+02 -0.53067568791E+02  0.89994218891E+02  0.41800000000E+01 0.  1.
         -5    1    4    4    0  501 -0.51286040010E+01 -0.60536742874E+02 -0.46721393740E+02  0.76755200800E+02  0.41800000000E+01 0.  1.
</event>
<event>
11    1  0.8551154E-009  0.5506677E+03  0.7561462E-02  0.9286925E-01
         22   -1    0    0    0    0  0.00000000000E+00  0.00000000000E+00  0.17975518978E+04  0.17975518978E+04  0.00000000000E+00 0. -1.
         22   -1    0    0    0    0 -0.00000000000E+00 -0.00000000000E+00 -0.67269346539E+03  0.67269346539E+03  0.00000000000E+00 0. -1.
        -24    2    1    2    0    0 -0.45008057540E+03 -0.23662106998E+03 -0.31114626726E+03  0.60195874642E+03  0.83548055903E+02 0.  0.
         25    2    1    2    0    0  0.47566109859E+03  0.61626982790E+03  0.80393228417E+03  0.11260536215E+04  0.12509060463E+03 0.  0.
         24    2    1    2    0    0 -0.25580523188E+02 -0.37964875792E+03  0.63207241547E+03  0.74223299530E+03  0.81281845158E+02 0.  0.
        -13    1    5    5    0    0  0.93660749709E+01 -0.16830984157E+01  0.15321244837E+02  0.18035984142E+02  0.00000000000E+00 0.  1.
         14    1    5    5    0    0 -0.34946598159E+02 -0.37796565950E+03  0.61675117064E+03  0.72419701116E+03  0.00000000000E+00 0. -1.
         13    1    3    3    0    0 -0.25322385302E+03 -0.16684236151E+03 -0.15095260929E+03  0.33874087971E+03  0.00000000000E+00 0. -1.
        -14    1    3    3    0    0 -0.19685672238E+03 -0.69778708473E+02 -0.16019365796E+03  0.26321786671E+03  0.00000000000E+00 0.  1.
          5    1    4    4  501    0  0.10440528575E+03  0.22632549309E+03  0.27774605996E+03  0.37320776886E+03  0.41800000000E+01 0.  1.
         -5    1    4    4    0  501  0.37125581284E+03  0.38994433481E+03  0.52618622422E+03  0.75284585260E+03  0.41800000000E+01 0.  1.
</event>
<event>
11    1  0.8551154E-009  0.1336026E+03  0.7561462E-02  0.1114920E+00
         22   -1    0    0    0    0  0.00000000000E+00  0.00000000000E+00  0.16440450073E+04  0.16440450073E+04  0.00000000000E+00 0.  1.
         22   -1    0    0    0    0 -0.00000000000E+00 -0.00000000000E+00 -0.10121573583E+03  0.10121573583E+03  0.00000000000E+00 0.  1.
         24    2    1    2    0    0 -0.39994393884E+02  0.19294388884E+02 -0.55548599446E+02  0.10666896359E+03  0.79503433307E+02 0.  0.
         25    2    1    2    0    0  0.49461284944E+02 -0.73609825159E+02  0.29716533043E+03  0.33439375030E+03  0.12508845493E+03 0.  0.
        -24    2    1    2    0    0 -0.94668910603E+01  0.54315436275E+02  0.13012125405E+04  0.13041980293E+04  0.68837746633E+02 0.  0.
        -13    1    3    3    0    0  0.15470039001E+02  0.25687255832E+02 -0.37453205376E+02  0.47978118052E+02  0.00000000000E+00 0.  1.
         14    1    3    3    0    0 -0.55464432885E+02 -0.63928669474E+01 -0.18095394070E+02  0.58690845535E+02  0.00000000000E+00 0. -1.
         11    1    5    5    0    0 -0.25813846749E+02  0.26598594880E+02  0.27565505736E+03  0.27813584915E+03  0.00000000000E+00 0. -1.
        -12    1    5    5    0    0  0.16346955689E+02  0.27716841395E+02  0.10255574832E+04  0.10260621801E+04  0.00000000000E+00 0.  1.
          5    1    4    4  501    0 -0.21069585854E+02 -0.48065954524E+02  0.39001312084E+02  0.65519754094E+02  0.41800000000E+01 0.  1.
         -5    1    4    4    0  501  0.70530870798E+02 -0.25543870636E+02  0.25816401835E+03  0.26887399620E+03  0.41800000000E+01 0.  1.
</event>
<event>
11    1  0.8551154E-009  0.1559599E+03  0.7561462E-02  0.1090940E+00
         22   -1    0    0    0    0  0.00000000000E+00  0.00000000000E+00  0.30644874513E+03  0.30644874513E+03  0.00000000000E+00 0. -1.
         22   -1    0    0    0    0 -0.00000000000E+00 -0.00000000000E+00 -0.75765714802E+03  0.75765714802E+03  0.00000000000E+00 0. -1.
         24    2    1    2    0    0 -0.25508703308E+02 -0.24437136987E+01 -0.67259561187E+03  0.67772421395E+03  0.79174411141E+02 0.  0.
         25    2    1    2    0    0  0.90308307094E+01 -0.90619766278E+02  0.29420658650E+02  0.15750302218E+03  0.12509248138E+03 0.  0.
        -24    2    1    2    0    0  0.16477872598E+02  0.93063479977E+02  0.19196655034E+03  0.22887865702E+03  0.81252394417E+02 0.  0.
        -11    1    3    3    0    0 -0.93904250724E+01 -0.39719563852E+02 -0.26715414083E+03  0.27025387841E+03  0.00000000000E+00 0.  1.
         12    1    3    3    0    0 -0.16118278235E+02  0.37275850153E+02 -0.40544147105E+03  0.40747033554E+03  0.00000000000E+00 0. -1.
         13    1    5    5    0    0 -0.20134100999E+02  0.60980003336E+02  0.15492723396E+03  0.16770924438E+03  0.00000000000E+00 0. -1.
        -14    1    5    5    0    0  0.36611973598E+02  0.32083476641E+02  0.37039316383E+02  0.61169412636E+02  0.00000000000E+00 0.  1.
          5    1    4    4  501    0 -0.19268413348E+02  0.19289269959E+02 -0.19566032644E+02  0.33817890560E+02  0.41800000000E+01 0.  1.
         -5    1    4    4    0  501  0.28299244057E+02 -0.10990903624E+03  0.48986691294E+02  0.12368513162E+03  0.41800000000E+01 0.  1.
</event>
<event>
11    1  0.8551154E-009  0.1589704E+03  0.7561462E-02  0.1088050E+00
         22   -1    0    0    0    0  0.00000000000E+00  0.00000000000E+00  0.63500511508E+03  0.63500511508E+03  0.00000000000E+00 0.  1.
         22   -1    0    0    0    0 -0.00000000000E+00 -0.00000000000E+00 -0.47729786998E+03  0.47729786998E+03  0.00000000000E+00 0.  1.
         24    2    1    2    0    0  0.43586164793E+02  0.18741893977E+02 -0.26921914024E+03  0.28546562514E+03  0.82223265049E+02 0.  0.
         25    2    1    2    0    0  0.49361015330E+02  0.17349265999E+02 -0.16938899287E+03  0.21697397566E+03  0.12509024080E+03 0.  0.
        -24    2    1    2    0    0 -0.92947180123E+02 -0.36091159976E+02  0.59631537821E+03  0.60986338426E+03  0.79997294035E+02 0.  0.
        -11    1    3    3    0    0  0.19280684551E+02  0.11948669057E+02 -0.25594957865E+03  0.25695272386E+03  0.00000000000E+00 0.  1.
         12    1    3    3    0    0  0.24305480243E+02  0.67932249202E+01 -0.13269561589E+02  0.28512901280E+02  0.00000000000E+00 0. -1.
         13    1    5    5    0    0  0.98535323846E+01  0.87809342389E+01  0.10951708429E+03  0.11030951300E+03  0.00000000000E+00 0. -1.
        -14    1    5    5    0    0 -0.10280071251E+03 -0.44872094215E+02  0.48679829391E+03  0.49955387126E+03  0.00000000000E+00 0.  1.
          5    1    4    4  501    0  0.21018130130E+02  0.23305553093E+02  0.11536957503E+02  0.33696949232E+02  0.41800000000E+01 0. -1.
         -5    1    4    4    0  501  0.28342885200E+02 -0.59562870941E+01 -0.18092595037E+03  0.18327702642E+03  0.41800000000E+01 0. -1.
</event>
<event>
11    1  0.8551154E-009  0.1898792E+03  0.7561462E-02  0.1061921E+00
         22   -1    0    0    0    0  0.00000000000E+00  0.00000000000E+00  0.73822666079E+03  0.73822666079E+03  0.00000000000E+00 0. -1.
         22   -1    0    0    0    0 -0.00000000000E+00 -0.00000000000E+00 -0.15115233905E+04  0.15115233905E+04  0.00000000000E+00 0. -1.
        -24    2    1    2    0    0  0.83133577345E+02  0.11989528784E+03 -0.14415979740E+04  0.14512044371E+04  0.80644453264E+02 0.  0.
         25    2    1    2    0    0 -0.85152513788E+02 -0.36367504909E+02  0.41053569500E+02  0.16095527559E+03  0.12509060378E+03 0.  0.
         24    2    1    2    0    0  0.20189364430E+01 -0.83527782927E+02  0.62724767485E+03  0.63759033856E+03  0.78107794717E+02 0.  0.
        -13    1    5    5    0    0 -0.80829557012E+01 -0.18989982270E+02  0.27955923802E+02  0.34748917611E+02  0.00000000000E+00 0.  1.
         14    1    5    5    0    0  0.10101892144E+02 -0.64537800657E+02  0.59929175104E+03  0.60284142095E+03  0.00000000000E+00 0. -1.
         13    1    3    3    0    0  0.63918567744E+02  0.38221659016E+02 -0.90812448390E+03  0.91117317607E+03  0.00000000000E+00 0. -1.
        -14    1    3    3    0    0  0.19215009600E+02  0.81673628821E+02 -0.53347349014E+03  0.54003126105E+03  0.00000000000E+00 0.  1.
          5    1    4    4  501    0 -0.24349793737E+02 -0.31566289253E+02  0.79290685421E+02  0.88847218677E+02  0.41800000000E+01 0.  1.
         -5    1    4    4    0  501 -0.60802720051E+02 -0.48012156557E+01 -0.38237115920E+02  0.72108056910E+02  0.41800000000E+01 0.  1.
</event>
<event>
11    1  0.8551154E-009  0.1317272E+03  0.7561462E-02  0.1117165E+00
         22   -1    0    0    0    0  0.00000000000E+00  0.00000000000E+00  0.97817257164E+02  0.97817257164E+02  0.00000000000E+00 0. -1.
         22   -1    0    0    0    0 -0.00000000000E+00 -0.00000000000E+00 -0.14605970872E+04  0.14605970872E+04  0.00000000000E+00 0. -1.
        -24    2    1    2    0    0  0.11150388153E+02  0.62685419277E+01 -0.13308414435E+04  0.13333130878E+04  0.80132494029E+02 0.  0.
         25    2    1    2    0    0 -0.75740663619E+01 -0.44727520406E+02 -0.87665546517E+01  0.13335031955E+03  0.12509011823E+03 0.  0.
         24    2    1    2    0    0 -0.35763217915E+01  0.38458978478E+02 -0.23171831937E+02  0.91750937067E+02  0.79933832350E+02 0.  0.
        -11    1    5    5    0    0  0.14040420038E+02 -0.13951346961E+02 -0.30102012238E+02  0.36026443311E+02  0.00000000000E+00 0.  1.
         12    1    5    5    0    0 -0.17616741830E+02  0.52410325439E+02  0.69301803006E+01  0.55724493756E+02  0.00000000000E+00 0. -1.
         11    1    3    3    0    0 -0.98938183744E+01  0.32450890745E+02 -0.10375119670E+04  0.10380664861E+04  0.00000000000E+00 0. -1.
        -12    1    3    3    0    0  0.21044206528E+02 -0.26182348818E+02 -0.29332947645E+03  0.29524660163E+03  0.00000000000E+00 0.  1.
          5    1    4    4  501    0 -0.20796897371E+02 -0.78682403310E+02  0.23165105259E+02  0.84720281117E+02  0.41800000000E+01 0. -1.
         -5    1    4    4    0  501  0.13222831009E+02  0.33954882904E+02 -0.31931659911E+02  0.48630038429E+02  0.41800000000E+01 0. -1.
</event>
<event>
11    1  0.8551154E-009  0.1250945E+03  0.7561462E-02  0.1125448E+00
         22   -1    0    0    0    0  0.00000000000E+00  0.00000000000E+00  0.78868160127E+03  0.78868160127E+03  0.00000000000E+00 0. -1.
         22   -1    0    0    0    0 -0.00000000000E+00 -0.00000000000E+00 -0.21397539959E+03  0.21397539959E+03  0.00000000000E+00 0.  1.
        -24    2    1    2    0    0 -0.30165762822E+02 -0.26085216177E+02 -0.17582830166E+03  0.19771311340E+03  0.81144758266E+02 0.  0.
         25    2    1    2    0    0  0.26017449626E+02  0.23561016772E+02  0.15357371841E+03  0.20115878998E+03  0.12509173676E+03 0.  0.
         24    2    1    2    0    0  0.41483131958E+01  0.25241994052E+01  0.59696078493E+03  0.60378509748E+03  0.90391842022E+02 0.  0.
        -13    1    5    5    0    0  0.50361969240E+00  0.44717306533E+02  0.22345302639E+03  0.22788406293E+03  0.00000000000E+00 0.  1.
         14    1    5    5    0    0  0.36446935034E+01 -0.42193107128E+02  0.37350775855E+03  0.37590103455E+03  0.00000000000E+00 0. -1.
         11    1    3    3    0    0 -0.16599184356E+02 -0.36178288157E+02 -0.27397087397E+02  0.48321856888E+02  0.00000000000E+00 0. -1.
        -12    1    3    3    0    0 -0.13566578465E+02  0.10093071980E+02 -0.14843121426E+03  0.14939125651E+03  0.00000000000E+00 0.  1.
          5    1    4    4  501    0  0.51383187554E+02 -0.33004386701E+02  0.10786531408E+03  0.12402386821E+03  0.41800000000E+01 0. -1.
         -5    1    4    4    0  501 -0.25365737928E+02  0.56565403473E+02  0.45708404326E+02  0.77134921772E+02  0.41800000000E+01 0. -1.
</event>
<event>
11    1  0.8551154E-009  0.1483716E+03  0.7561462E-02  0.1098554E+00
         22   -1    0    0    0    0  0.00000000000E+00  0.00000000000E+00  0.16783985827E+04  0.16783985827E+04  0.00000000000E+00 0.  1.
         22   -1    0    0    0    0 -0.00000000000E+00 -0.00000000000E+00 -0.17291218526E+04  0.17291218526E+04  0.00000000000E+00 0.  1.
        -24    2    1    2    0    0  0.39507274344E+02 -0.28741541246E+02 -0.16783285157E+04  0.16810419355E+04  0.82027321149E+02 0.  0.
         25    2    1    2    0    0 -0.11688272859E+03  0.16612964545E+02  0.10881667478E+03  0.20353608721E+03  0.12509319427E+03 0.  0.
         24    2    1    2    0    0  0.77375454246E+02  0.12128576701E+02  0.15187885710E+04  0.15229424126E+04  0.80627572696E+02 0.  0.
        -11    1    5    5    0    0  0.57075481381E+02 -0.91047498053E+01  0.13734109781E+04  0.13746265754E+04  0.00000000000E+00 0.  1.
         12    1    5    5    0    0  0.20299972865E+02  0.21233326506E+02  0.14537759290E+03  0.14831583722E+03  0.00000000000E+00 0. -1.
         13    1    3    3    0    0  0.55956059742E+02  0.56346531371E+00 -0.74043857141E+03  0.74255011692E+03  0.00000000000E+00 0. -1.
        -14    1    3    3    0    0 -0.16448785398E+02 -0.29305006559E+02 -0.93788994427E+03  0.93849181857E+03  0.00000000000E+00 0.  1.
          5    1    4    4  501    0 -0.11720855748E+03  0.56890441629E+02  0.92691171175E+02  0.15994841015E+03  0.41800000000E+01 0.  1.
         -5    1    4    4    0  501  0.32582889202E+00 -0.40277477084E+02  0.16125503609E+02  0.43587677058E+02  0.41800000000E+01 0.  1.
</event>
<event>
11    1  0.8551154E-009  0.1360612E+03  0.7561462E-02  0.1112038E+00
         22   -1    0    0    0    0  0.00000000000E+00  0.00000000000E+00  0.30720716779E+04  0.30720716779E+04  0.00000000000E+00 0.  1.
         22   -1    0    0    0    0 -0.00000000000E+00 -0.00000000000E+00 -0.58093863993E+03  0.58093863993E+03  0.00000000000E+00 0. -1.
        -24    2    1    2    0    0 -0.35814898915E+02 -0.26466672759E+02 -0.56269512540E+03  0.57013213053E+03  0.80259892631E+02 0.  0.
         25    2    1    2    0    0  0.83356610620E+02  0.50557666074E+01  0.40089075301E+03  0.42817762122E+03  0.12509514041E+03 0.  0.
         24    2    1    2    0    0 -0.47541711705E+02  0.21410906152E+02  0.26529374104E+04  0.26547005661E+04  0.81483439814E+02 0.  0.
        -11    1    5    5    0    0 -0.69975619856E+02  0.80860677903E+01  0.18567752766E+04  0.18581109762E+04  0.00000000000E+00 0.  1.
         12    1    5    5    0    0  0.22433908151E+02  0.13324838362E+02  0.79616213376E+03  0.79658958993E+03  0.00000000000E+00 0. -1.
         11    1    3    3    0    0 -0.14082649066E+02  0.38258897853E+01 -0.46991757711E+03  0.47014411377E+03  0.00000000000E+00 0. -1.
        -12    1    3    3    0    0 -0.21732249849E+02 -0.30292562545E+02 -0.92777548294E+02  0.99988016765E+02  0.00000000000E+00 0.  1.
          5    1    4    4  501    0  0.86406513684E+02 -0.26597856021E+01  0.12448127926E+03  0.15161207522E+03  0.41800000000E+01 0.  1.
         -5    1    4    4    0  501 -0.30499030642E+01  0.77155522095E+01  0.27640947375E+03  0.27656554600E+03  0.41800000000E+01 0.  1.
</event>
<event>
11    1  0.8551154E-009  0.2164110E+03  0.7561462E-02  0.1043489E+00
         22   -1    0    0    0    0  0.00000000000E+00  0.00000000000E+00  0.14086914607E+03  0.14086914607E+03  0.00000000000E+00 0. -1.
         22   -1    0    0    0    0 -0.00000000000E+00 -0.00000000000E+00 -0.22640002523E+04  0.22640002523E+04  0.00000000000E+00 0.  1.
         24    2    1    2    0    0  0.91161121959E+01 -0.51584447938E+01 -0.18870466144E+04  0.18885712994E+04  0.75145958170E+02 0.  0.
         25    2    1    2    0    0 -0.10347643050E+03  0.15162789166E+03 -0.23651474146E+03  0.32447658162E+03  0.12508972738E+03 0.  0.
        -24    2    1    2    0    0  0.94360318299E+02 -0.14646944687E+03  0.43024955914E+00  0.19182151741E+03  0.80238026465E+02 0.  0.
        -11    1    3    3    0    0 -0.29260352513E+02  0.11612705132E+02 -0.57982512735E+03  0.58067908647E+03  0.00000000000E+00 0.  1.
         12    1    3    3    0    0  0.38376464709E+02 -0.16771149926E+02 -0.13072214870E+04  0.13078922129E+04  0.00000000000E+00 0. -1.
         11    1    5    5    0    0  0.66749963574E+02 -0.14915376237E+03  0.60364782170E+01  0.16352015635E+03  0.00000000000E+00 0. -1.
        -12    1    5    5    0    0  0.27610354725E+02  0.26843154982E+01 -0.56062286579E+01  0.28301361054E+02  0.00000000000E+00 0.  1.
          5    1    4    4  501    0 -0.22974237183E+02  0.13719593377E+03 -0.16402408690E+03  0.21510907303E+03  0.41800000000E+01 0.  1.
         -5    1    4    4    0  501 -0.80502193313E+02  0.14431957892E+02 -0.72490654564E+02  0.10936750859E+03  0.41800000000E+01 0.  1.
</event>
<event>
11    1  0.8551154E-009  0.1323006E+03  0.7561462E-02  0.1116474E+00
         22   -1    0    0    0    0  0.00000000000E+00  0.00000000000E+00  0.77201817856E+02  0.77201817856E+02  0.00000000000E+00 0.  1.
         22   -1    0    0    0    0 -0.00000000000E+00 -0.00000000000E+00 -0.15138704350E+04  0.15138704350E+04  0.00000000000E+00 0.  1.
         24    2    1    2    0    0 -0.38004605723E+02 -0.21723740944E+02 -0.13124500088E+04  0.13157806698E+04  0.82689021948E+02 0.  0.
         25    2    1    2    0    0  0.47266292987E+02 -0.23808753215E+02 -0.12088737299E+03  0.18182997222E+03  0.12508965851E+03 0.  0.
        -24    2    1    2    0    0 -0.92616872644E+01  0.45532494159E+02 -0.33312352834E+01  0.93461610799E+02  0.81024617798E+02 0.  0.
        -11    1    3    3    0    0 -0.59339775062E+02 -0.49547626662E+01 -0.10990944759E+04  0.11007063303E+04  0.00000000000E+00 0.  1.
         12    1    3    3    0    0  0.21335169339E+02 -0.16768978278E+02 -0.21335553290E+03  0.21507433948E+03  0.00000000000E+00 0. -1.
         11    1    5    5    0    0 -0.23535500273E+02  0.39894860268E+02 -0.35142310433E+02  0.58142081416E+02  0.00000000000E+00 0. -1.
        -12    1    5    5    0    0  0.14273813008E+02  0.56376338910E+01  0.31811075149E+02  0.35319529383E+02  0.00000000000E+00 0.  1.
          5    1    4    4  501    0  0.33163730247E+00  0.48041088002E+02 -0.57562275163E+02  0.75092902738E+02  0.41800000000E+01 0. -1.
         -5    1    4    4    0  501  0.46934655685E+02 -0.71849841216E+02 -0.63325097824E+02  0.10673706948E+03  0.41800000000E+01 0. -1.
</event>
<event>
11    1  0.8551154E-009  0.1286594E+03  0.7561462E-02  0.1120927E+00
         22   -1    0    0    0    0  0.00000000000E+00  0.00000000000E+00  0.27373140238E+03  0.27373140238E+03  0.00000000000E+00 0. -1.
         22   -1    0    0    0    0 -0.00000000000E+00 -0.00000000000E+00 -0.23860381471E+03  0.23860381471E+03  0.00000000000E+00 0.  1.
        -24    2    1    2    0    0  0.74665030042E+01 -0.36173404839E+02 -0.14917410862E+03  0.17408922177E+03  0.81791677862E+02 0.  0.
         25    2    1    2    0    0 -0.40682654032E+02 -0.19941159391E+02 -0.69547164944E+00  0.13304159015E+03  0.12508738087E+03 0.  0.
         24    2    1    2    0    0  0.33216151028E+02  0.56114564231E+02  0.18499716794E+03  0.20520440518E+03  0.60272205447E+02 0.  0.
        -11    1    5    5    0    0  0.72216446244E+01 -0.25589645550E+01 -0.16463174658E+01  0.78365050803E+01  0.00000000000E+00 0.  1.
         12    1    5    5    0    0  0.25994506403E+02  0.58673528786E+02  0.18664348541E+03  0.19736790010E+03  0.00000000000E+00 0. -1.
         11    1    3    3    0    0 -0.37212658341E+02 -0.17000598299E+02 -0.62217547810E+02  0.74463585321E+02  0.00000000000E+00 0. -1.
        -12    1    3    3    0    0  0.44679161345E+02 -0.19172806540E+02 -0.86956560811E+02  0.99625636445E+02  0.00000000000E+00 0.  1.
          5    1    4    4  501    0  0.17158060377E+01  0.43851755503E+02  0.26753825103E+02  0.51567043823E+02  0.41800000000E+01 0.  1.
         -5    1    4    4    0  501 -0.42398460070E+02 -0.63792914894E+02 -0.27449296753E+02  0.81474546327E+02  0.41800000000E+01 0.  1.
</event>
<event>
11    1  0.8551154E-009  0.1295109E+03  0.7561462E-02  0.1119871E+00
         22   -1    0    0    0    0  0.00000000000E+00  0.00000000000E+00  0.62744874755E+02  0.62744874755E+02  0.00000000000E+00 0.  1.
         22   -1    0    0    0    0 -0.00000000000E+00 -0.00000000000E+00 -0.24638771646E+04  0.24638771646E+04  0.00000000000E+00 0.  1.
         24    2    1    2    0    0 -0.23323840297E+02  0.24757466826E+02 -0.19267873075E+04  0.19287269882E+04  0.79508068441E+02 0.  0.
         25    2    1    2    0    0  0.50014874612E+00 -0.39038236444E+02 -0.49387082149E+03  0.51095761056E+03  0.12508020396E+03 0.  0.
        -24    2    1    2    0    0  0.22823691551E+02  0.14280769619E+02  0.19525839159E+02  0.86937440582E+02  0.80324335684E+02 0.  0.
        -13    1    3    3    0    0 -0.13847906562E+02  0.52320809522E+02 -0.14804839347E+04  0.14814728862E+04  0.00000000000E+00 0.  1.
         14    1    3    3    0    0 -0.94759337352E+01 -0.27563342696E+02 -0.44630337277E+03  0.44725410197E+03  0.00000000000E+00 0. -1.
         11    1    5    5    0    0  0.35816485097E+02  0.26319716996E+02 -0.16001133295E+02  0.47239648328E+02  0.00000000000E+00 0. -1.
        -12    1    5    5    0    0 -0.12992793545E+02 -0.12038947378E+02  0.35526972454E+02  0.39697792254E+02  0.00000000000E+00 0.  1.
          5    1    4    4  501    0 -0.18608709427E+02  0.40226922753E+02 -0.11340148774E+03  0.12182716940E+03  0.41800000000E+01 0.  1.
         -5    1    4    4    0  501  0.19108858173E+02 -0.79265159197E+02 -0.38046933374E+03  0.38913044117E+03  0.41800000000E+01 0.  1.
</event>
<event>
11    1  0.8551154E-009  0.1594782E+03  0.7561462E-02  0.1087569E+00
         22   -1    0    0    0    0  0.00000000000E+00  0.00000000000E+00  0.10114834698E+04  0.10114834698E+04  0.00000000000E+00 0. -1.
         22   -1    0    0    0    0 -0.00000000000E+00 -0.00000000000E+00 -0.91702143255E+03  0.91702143255E+03  0.00000000000E+00 0. -1.
        -24    2    1    2    0    0 -0.64840210967E+01  0.29901904800E+02 -0.85193729936E+03  0.85625761950E+03  0.80273174016E+02 0.  0.
         25    2    1    2    0    0 -0.61687676969E+01 -0.12592472555E+03  0.76614856042E+02  0.19342227565E+03  0.12508896974E+03 0.  0.
         24    2    1    2    0    0  0.12652788794E+02  0.96022820750E+02  0.86978448055E+03  0.87882500717E+03  0.80174032317E+02 0.  0.
        -13    1    5    5    0    0  0.13287688922E+02  0.42265004632E+02  0.13516390460E+03  0.14223984814E+03  0.00000000000E+00 0.  1.
         14    1    5    5    0    0 -0.63490012828E+00  0.53757816118E+02  0.73462057595E+03  0.73658515903E+03  0.00000000000E+00 0. -1.
         11    1    3    3    0    0  0.94278974370E+00  0.56862305515E+02 -0.63099733690E+03  0.63355493039E+03  0.00000000000E+00 0. -1.
        -12    1    3    3    0    0 -0.74268108404E+01 -0.26960400714E+02 -0.22093996246E+03  0.22270268911E+03  0.00000000000E+00 0.  1.
          5    1    4    4  501    0 -0.50148250500E+02 -0.34582134185E+02  0.68304752954E+02  0.91617589518E+02  0.41800000000E+01 0. -1.
         -5    1    4    4    0  501  0.43979482804E+02 -0.91342591365E+02  0.83101030884E+01  0.10180468613E+03  0.41800000000E+01 0. -1.
</event>
<event>
11    1  0.8551154E-009  0.2583928E+03  0.7561462E-02  0.1019521E+00
         22   -1    0    0    0    0  0.00000000000E+00  0.00000000000E+00  0.29627837898E+03  0.29627837898E+03  0.00000000000E+00 0.  1.
         22   -1    0    0    0    0 -0.00000000000E+00 -0.00000000000E+00 -0.10915638037E+04  0.10915638037E+04  0.00000000000E+00 0.  1.
         24    2    1    2    0    0 -0.64215825985E+02 -0.16718892398E+03 -0.38789002374E+03  0.43489766931E+03  0.81249637823E+02 0.  0.
         25    2    1    2    0    0  0.17862787078E+03  0.26868766983E+03 -0.60102341864E+03  0.69352619950E+03  0.12509380279E+03 0.  0.
        -24    2    1    2    0    0 -0.11441204480E+03 -0.10149874585E+03  0.19362801772E+03  0.25941831383E+03  0.80087083226E+02 0.  0.
        -11    1    3    3    0    0 -0.67552355133E+02 -0.11319693054E+03 -0.33153919945E+03  0.35678439784E+03  0.00000000000E+00 0.  1.
         12    1    3    3    0    0  0.33365291480E+01 -0.53991993435E+02 -0.56350824285E+02  0.78113271468E+02  0.00000000000E+00 0. -1.
         11    1    5    5    0    0 -0.38039077058E+02 -0.63576357619E+02  0.41230016446E+02  0.84787020750E+02  0.00000000000E+00 0. -1.
        -12    1    5    5    0    0 -0.76372967738E+02 -0.37922388234E+02  0.15239800127E+03  0.17463129308E+03  0.00000000000E+00 0.  1.
          5    1    4    4  501    0  0.76847388674E+02  0.14616778059E+03 -0.18491610158E+03  0.24795559734E+03  0.41800000000E+01 0. -1.
         -5    1    4    4    0  501  0.10178048211E+03  0.12251988924E+03 -0.41610731706E+03  0.44557060216E+03  0.41800000000E+01 0. -1.
</event>
<event>
11    1  0.8551154E-009  0.1281822E+03  0.7561462E-02  0.1121523E+00
         22   -1    0    0    0    0  0.00000000000E+00  0.00000000000E+00  0.17452648506E+04  0.17452648506E+04  0.00000000000E+00 0.  1.
         22   -1    0    0    0    0 -0.00000000000E+00 -0.00000000000E+00 -0.37403739077E+03  0.37403739077E+03  0.00000000000E+00 0. -1.
        -24    2    1    2    0    0  0.17302199271E+02 -0.22610889739E+02 -0.34331043592E+03  0.35351410383E+03  0.79369690442E+02 0.  0.
         25    2    1    2    0    0  0.20204509335E+01  0.17613791525E+02  0.13805556756E+03  0.18713786722E+03  0.12508762425E+03 0.  0.
         24    2    1    2    0    0 -0.19322650204E+02  0.49970982136E+01  0.15764823282E+04  0.15786502703E+04  0.80260881208E+02 0.  0.
        -11    1    5    5    0    0 -0.49030101215E+02  0.14273035703E+02  0.10627164863E+04  0.10639426679E+04  0.00000000000E+00 0.  1.
         12    1    5    5    0    0  0.29707451011E+02 -0.92759374890E+01  0.51376584195E+03  0.51470760245E+03  0.00000000000E+00 0. -1.
         11    1    3    3    0    0  0.14854505376E+02  0.21019830280E+02 -0.23952488526E+03  0.24090384026E+03  0.00000000000E+00 0. -1.
        -12    1    3    3    0    0  0.24476938944E+01 -0.43630720019E+02 -0.10378555066E+03  0.11261026357E+03  0.00000000000E+00 0.  1.
          5    1    4    4  501    0 -0.59859808899E+02  0.58903841251E+01  0.47509477538E+02  0.76762726648E+02  0.41800000000E+01 0. -1.
         -5    1    4    4    0  501  0.61880259833E+02  0.11723407400E+02  0.90546090020E+02  0.11037514057E+03  0.41800000000E+01 0. -1.
</event>
<event>
11    1  0.8551154E-009  0.1880780E+03  0.7561462E-02  0.1063290E+00
         22   -1    0    0    0    0  0.00000000000E+00  0.00000000000E+00  0.35894163883E+03  0.35894163883E+03  0.00000000000E+00 0. -1.
         22   -1    0    0    0    0 -0.00000000000E+00 -0.00000000000E+00 -0.16474405967E+04  0.16474405967E+04  0.00000000000E+00 0. -1.
         24    2    1    2    0    0  0.79087600662E+02  0.99253983210E+01 -0.15059080634E+04  0.15101802035E+04  0.80819487950E+02 0.  0.
         25    2    1    2    0    0 -0.15320977695E+03  0.10118452044E+03 -0.70968252113E+01  0.22228133455E+03  0.12508830414E+03 0.  0.
        -24    2    1    2    0    0  0.74122176288E+02 -0.11110991876E+03  0.22450593067E+03  0.27392069752E+03  0.82402212114E+02 0.  0.
        -13    1    3    3    0    0  0.18335030732E+02  0.25483397830E+02 -0.98656909280E+03  0.98706846358E+03  0.00000000000E+00 0.  1.
         14    1    3    3    0    0  0.60752569931E+02 -0.15557999509E+02 -0.51933897055E+03  0.52311173992E+03  0.00000000000E+00 0. -1.
         13    1    5    5    0    0  0.83588129692E+02 -0.78039934155E+02  0.20402335786E+03  0.23388616312E+03  0.00000000000E+00 0. -1.
        -14    1    5    5    0    0 -0.94659534040E+01 -0.33069984606E+02  0.20482572808E+02  0.40034534399E+02  0.00000000000E+00 0.  1.
          5    1    4    4  501    0 -0.16066528543E+03  0.47326603152E+02 -0.25812001307E+01  0.16756275333E+03  0.41800000000E+01 0.  1.
         -5    1    4    4    0  501  0.74555084817E+01  0.53857917288E+02 -0.45156250806E+01  0.54718581224E+02  0.41800000000E+01 0.  1.
</event>
<event>
11    1  0.8551154E-009  0.1613621E+03  0.7561462E-02  0.1085803E+00
         22   -1    0    0    0    0  0.00000000000E+00  0.00000000000E+00  0.56478817845E+03  0.56478817845E+03  0.00000000000E+00 0. -1.
         22   -1    0    0    0    0 -0.00000000000E+00 -0.00000000000E+00 -0.56399016199E+03  0.56399016199E+03  0.00000000000E+00 0. -1.
         24    2    1    2    0    0  0.92010618807E+01  0.10476692472E+03 -0.46765530258E+03  0.48618216489E+03  0.81307117572E+02 0.  0.
         25    2    1    2    0    0  0.60477872265E+01 -0.79587488650E+02 -0.17219974313E+02  0.14937976885E+03  0.12508814391E+03 0.  0.
        -24    2    1    2    0    0 -0.15248849107E+02 -0.25179436066E+02  0.48567329336E+03  0.49321640670E+03  0.80730072202E+02 0.  0.
        -13    1    3    3    0    0  0.12347491587E+02  0.22178708090E+02 -0.24133170996E+02  0.35025213538E+02  0.00000000000E+00 0.  1.
         14    1    3    3    0    0 -0.31464297058E+01  0.82588216626E+02 -0.44352213158E+03  0.45115695135E+03  0.00000000000E+00 0. -1.
         13    1    5    5    0    0 -0.20977285666E+01  0.15460755708E+02  0.36270549852E+03  0.36304092619E+03  0.00000000000E+00 0. -1.
        -14    1    5    5    0    0 -0.13151120541E+02 -0.40640191774E+02  0.12296779484E+03  0.13017548051E+03  0.00000000000E+00 0.  1.
          5    1    4    4  501    0 -0.26729663009E+02 -0.82051030764E-01  0.38330023132E+02  0.46916358450E+02  0.41800000000E+01 0. -1.
         -5    1    4    4    0  501  0.32777450235E+02 -0.79505437620E+02 -0.55549997445E+02  0.10246341040E+03  0.41800000000E+01 0. -1.
</event>
<event>
11    1  0.8551154E-009  0.1309110E+03  0.7561462E-02  0.1118155E+00
         22   -1    0    0    0    0  0.00000000000E+00  0.00000000000E+00  0.88671708779E+03  0.88671708779E+03  0.00000000000E+00 0. -1.
         22   -1    0    0    0    0 -0.00000000000E+00 -0.00000000000E+00 -0.10240502886E+03  0.10240502886E+03  0.00000000000E+00 0. -1.
        -24    2    1    2    0    0 -0.24735732993E+02  0.30255986691E+02 -0.65144388289E+02  0.11047607240E+03  0.80211533026E+02 0.  0.
         25    2    1    2    0    0  0.13626073235E+02 -0.28971786369E+02  0.35875011824E+03  0.38127795468E+03  0.12508475970E+03 0.  0.
         24    2    1    2    0    0  0.11109659758E+02 -0.12842003220E+01  0.49070632898E+03  0.49736808956E+03  0.80356963012E+02 0.  0.
        -11    1    5    5    0    0  0.27945152761E+01 -0.31330076984E+02  0.87922649665E+02  0.93379737435E+02  0.00000000000E+00 0.  1.
         12    1    5    5    0    0  0.83151444822E+01  0.30045876662E+02  0.40278367932E+03  0.40398835213E+03  0.00000000000E+00 0. -1.
         11    1    3    3    0    0 -0.24982601538E+02  0.55766223973E+02 -0.57342402234E+02  0.83798288823E+02  0.00000000000E+00 0. -1.
        -12    1    3    3    0    0  0.24686854473E+00 -0.25510237282E+02 -0.78019860554E+01  0.26677783579E+02  0.00000000000E+00 0.  1.
          5    1    4    4  501    0 -0.30969346775E+01  0.23954321720E+02  0.29752253370E+03  0.29853061986E+03  0.41800000000E+01 0. -1.
         -5    1    4    4    0  501  0.16723007913E+02 -0.52926108088E+02  0.61227584539E+02  0.82747334819E+02  0.41800000000E+01 0. -1.
</event>
<event>
11    1  0.8551154E-009  0.1347138E+03  0.7561462E-02  0.1113609E+00
         22   -1    0    0    0    0  0.00000000000E+00  0.00000000000E+00  0.11315686285E+04  0.11315686285E+04  0.00000000000E+00 0. -1.
         22   -1    0    0    0    0 -0.00000000000E+00 -0.00000000000E+00 -0.16746725025E+03  0.16746725025E+03  0.00000000000E+00 0.  1.
         24    2    1    2    0    0  0.33928311283E+02  0.36801980440E+02 -0.14059974723E+03  0.16724256531E+03  0.75473642138E+02 0.  0.
         25    2    1    2    0    0 -0.23948920317E+02 -0.43849768117E+02  0.39417055334E+03  0.41655006959E+03  0.12508869814E+03 0.  0.
        -24    2    1    2    0    0 -0.99793909658E+01  0.70477876769E+01  0.71053057213E+03  0.71524324385E+03  0.81055193464E+02 0.  0.
        -11    1    3    3    0    0 -0.17530637804E+02  0.69355619770E+01 -0.80480561967E+02  0.82659216886E+02  0.00000000000E+00 0.  1.
         12    1    3    3    0    0  0.51458949087E+02  0.29866418463E+02 -0.60119185265E+02  0.84583348420E+02  0.00000000000E+00 0. -1.
         11    1    5    5    0    0 -0.78109658455E+01  0.31257632488E+02  0.63669484394E+03  0.63750950979E+03  0.00000000000E+00 0. -1.
        -12    1    5    5    0    0 -0.21684251203E+01 -0.24209844811E+02  0.73835728190E+02  0.77733734058E+02  0.00000000000E+00 0.  1.
          5    1    4    4  501    0  0.30190191014E+02 -0.58784055294E+01  0.29887735187E+03  0.30048485344E+03  0.41800000000E+01 0.  1.
         -5    1    4    4    0  501 -0.54139111331E+02 -0.37971362588E+02  0.95293201472E+02  0.11606521615E+03  0.41800000000E+01 0.  1.
</event>
<event>
11    1  0.8551154E-009  0.1900529E+03  0.7561462E-02  0.1061789E+00
         22   -1    0    0    0    0  0.00000000000E+00  0.00000000000E+00  0.11498844274E+04  0.11498844274E+04  0.00000000000E+00 0.  1.
         22   -1    0    0    0    0 -0.00000000000E+00 -0.00000000000E+00 -0.77542218643E+03  0.77542218643E+03  0.00000000000E+00 0.  1.
         24    2    1    2    0    0  0.39052335888E+02 -0.14496830428E+03 -0.57484576413E+03  0.59944748708E+03  0.79679000014E+02 0.  0.
         25    2    1    2    0    0 -0.79924066165E+02  0.99108830367E+02 -0.14322212134E+03  0.22884364869E+03  0.12508566224E+03 0.  0.
        -24    2    1    2    0    0  0.40871730277E+02  0.45859473917E+02  0.10925301265E+04  0.10970154781E+04  0.77764337940E+02 0.  0.
        -11    1    3    3    0    0  0.16017645206E+02 -0.49460319572E+02 -0.35316605402E+03  0.35697219763E+03  0.00000000000E+00 0.  1.
         12    1    3    3    0    0  0.23034690682E+02 -0.95507984711E+02 -0.22167971011E+03  0.24247528945E+03  0.00000000000E+00 0. -1.
         13    1    5    5    0    0  0.25195871607E+02  0.38206097917E+02  0.24101958162E+03  0.24532626559E+03  0.00000000000E+00 0. -1.
        -14    1    5    5    0    0  0.15675858669E+02  0.76533760000E+01  0.85151054486E+03  0.85168921251E+03  0.00000000000E+00 0.  1.
          5    1    4    4  501    0 -0.19224184832E+02  0.11310139679E+03 -0.79534302771E+02  0.13965913130E+03  0.41800000000E+01 0. -1.
         -5    1    4    4    0  501 -0.60699881333E+02 -0.13992566422E+02 -0.63687818570E+02  0.89184517396E+02  0.41800000000E+01 0. -1.
</event>
<event>
11    1  0.8551154E-009  0.1732351E+03  0.7561462E-02  0.1075250E+00
         22   -1    0    0    0    0  0.00000000000E+00  0.00000000000E+00  0.75185355841E+03  0.75185355841E+03  0.00000000000E+00 0.  1.
         22   -1    0    0    0    0 -0.00000000000E+00 -0.00000000000E+00 -0.91900798855E+03  0.91900798855E+03  0.00000000000E+00 0. -1.
         24    2    1    2    0    0 -0.13705807387E+03 -0.69229958247E+02 -0.84767903165E+03  0.86524529745E+03  0.80696848369E+02 0.  0.
         25    2    1    2    0    0  0.24245177054E+01  0.44743274785E+02  0.30334473814E+02  0.13629160591E+03  0.12508949842E+03 0.  0.
        -24    2    1    2    0    0  0.13463355616E+03  0.24486683462E+02  0.65019012769E+03  0.66932464359E+03  0.80761898541E+02 0.  0.
        -11    1    3    3    0    0 -0.51233705669E+02  0.91096084956E+01 -0.17387916008E+03  0.18149887018E+03  0.00000000000E+00 0.  1.
         12    1    3    3    0    0 -0.85824368200E+02 -0.78339566743E+02 -0.67379987156E+03  0.68374642728E+03  0.00000000000E+00 0. -1.
         11    1    5    5    0    0 -0.10323403527E+02 -0.36218650725E+01  0.56376465387E+02  0.57428184862E+02  0.00000000000E+00 0. -1.
        -12    1    5    5    0    0  0.14495695969E+03  0.28108548535E+02  0.59381366231E+03  0.61189645873E+03  0.00000000000E+00 0.  1.
          5    1    4    4  501    0 -0.13234760088E+02  0.35669450018E+02 -0.44783621652E+02  0.58911066086E+02  0.41800000000E+01 0.  1.
         -5    1    4    4    0  501  0.15659277793E+02  0.90738247676E+01  0.75118095466E+02  0.77380539823E+02  0.41800000000E+01 0.  1.
</event>
<event>
11    1  0.8551154E-009  0.1831255E+03  0.7561462E-02  0.1067142E+00
         22   -1    0    0    0    0  0.00000000000E+00  0.00000000000E+00  0.81303400034E+02  0.81303400034E+02  0.00000000000E+00 0.  1.
         22   -1    0    0    0    0 -0.00000000000E+00 -0.00000000000E+00 -0.24496864296E+04  0.24496864296E+04  0.00000000000E+00 0. -1.
        -24    2    1    2    0    0  0.26273641374E+02  0.54892342485E+02 -0.19891160846E+04  0.19915893444E+04  0.78369924332E+02 0.  0.
         25    2    1    2    0    0  0.87858160254E+02 -0.12066910104E+03 -0.31801578932E+03  0.37291477385E+03  0.12510514791E+03 0.  0.
         24    2    1    2    0    0 -0.11413180163E+03  0.65776758554E+02 -0.61251155638E+02  0.16648571142E+03  0.81321202220E+02 0.  0.
        -11    1    5    5    0    0 -0.76272829867E+02  0.75238664242E+02 -0.67982640077E+02  0.12688593509E+03  0.00000000000E+00 0.  1.
         12    1    5    5    0    0 -0.37858971761E+02 -0.94619056887E+01  0.67314844399E+01  0.39599776323E+02  0.00000000000E+00 0. -1.
         13    1    3    3    0    0  0.17378711187E+02  0.33773607667E+02 -0.18643144053E+04  0.18647012838E+04  0.00000000000E+00 0. -1.
        -14    1    3    3    0    0  0.88949301863E+01  0.21118734818E+02 -0.12480167938E+03  0.12688806059E+03  0.00000000000E+00 0.  1.
          5    1    4    4  501    0  0.11868985589E+03 -0.92205932417E+02 -0.26974542203E+03  0.30881917196E+03  0.41800000000E+01 0. -1.
         -5    1    4    4    0  501 -0.30831695635E+02 -0.28463168622E+02 -0.48270367288E+02  0.64095601892E+02  0.41800000000E+01 0. -1.
</event>
<event>
11    1  0.8551154E-009  0.1311492E+03  0.7561462E-02  0.1117865E+00
         22   -1    0    0    0    0  0.00000000000E+00  0.00000000000E+00  0.51196744581E+03  0.51196744581E+03  0.00000000000E+00 0.  1.
         22   -1    0    0    0    0 -0.00000000000E+00 -0.00000000000E+00 -0.83969510473E+02  0.83969510473E+02  0.00000000000E+00 0.  1.
         24    2    1    2    0    0 -0.71800603570E+01 -0.17560609408E+02 -0.22148196445E+02  0.86026123409E+02  0.80932212583E+02 0.  0.
         25    2    1    2    0    0  0.37856739423E+02 -0.89281251209E+01  0.16223028008E+03  0.20852110467E+03  0.12509813421E+03 0.  0.
        -24    2    1    2    0    0 -0.30676679066E+02  0.26488734529E+02  0.28791585171E+03  0.30138972820E+03  0.79356908372E+02 0.  0.
        -13    1    3    3    0    0 -0.36084434400E+02 -0.34201897650E+02 -0.14797189125E+02  0.51873047094E+02  0.00000000000E+00 0.  1.
         14    1    3    3    0    0  0.28904374043E+02  0.16641288243E+02 -0.73510073198E+01  0.34153076315E+02  0.00000000000E+00 0. -1.
         11    1    5    5    0    0  0.26527149438E+01 -0.16057733411E+02  0.11975901266E+02  0.20206679836E+02  0.00000000000E+00 0. -1.
        -12    1    5    5    0    0 -0.33329394010E+02  0.42546467939E+02  0.27593995044E+03  0.28118304837E+03  0.00000000000E+00 0.  1.
          5    1    4    4  501    0 -0.38198998217E+02  0.93876557178E+01  0.10292153725E+03  0.11026153806E+03  0.41800000000E+01 0.  1.
         -5    1    4    4    0  501  0.76055737640E+02 -0.18315780839E+02  0.59308742824E+02  0.98259566613E+02  0.41800000000E+01 0.  1.
</event>
<event>
11    1  0.8551154E-009  0.1768155E+03  0.7561462E-02  0.1072248E+00
         22   -1    0    0    0    0  0.00000000000E+00  0.00000000000E+00  0.66125572104E+03  0.66125572104E+03  0.00000000000E+00 0.  1.
         22   -1    0    0    0    0 -0.00000000000E+00 -0.00000000000E+00 -0.30293904645E+03  0.30293904645E+03  0.00000000000E+00 0. -1.
         24    2    1    2    0    0 -0.13777002119E+03  0.16343251815E+02 -0.11833961719E+03  0.19888495362E+03  0.79393193433E+02 0.  0.
         25    2    1    2    0    0  0.10489904735E+03 -0.30051154277E+02 -0.92239373613E+02  0.18990265867E+03  0.12509210893E+03 0.  0.
        -24    2    1    2    0    0  0.32870973834E+02  0.13707902462E+02  0.56889566539E+03  0.57540715520E+03  0.78630201843E+02 0.  0.
        -11    1    3    3    0    0 -0.29359772712E+02 -0.28723524033E+02 -0.19747368924E+02  0.45574067911E+02  0.00000000000E+00 0.  1.
         12    1    3    3    0    0 -0.10841024847E+03  0.45066775848E+02 -0.98592248261E+02  0.15331088571E+03  0.00000000000E+00 0. -1.
         13    1    5    5    0    0 -0.19453238592E+02 -0.59513695175E+01  0.30392517928E+03  0.30460525585E+03  0.00000000000E+00 0. -1.
        -14    1    5    5    0    0  0.52324212426E+02  0.19659271979E+02  0.26497048611E+03  0.27080189934E+03  0.00000000000E+00 0.  1.
          5    1    4    4  501    0  0.40612167930E+02  0.49068913328E+02 -0.31808488172E+02  0.71318712544E+02  0.41800000000E+01 0. -1.
         -5    1    4    4    0  501  0.64286879423E+02 -0.79120067605E+02 -0.60430885442E+02  0.11858394613E+03  0.41800000000E+01 0. -1.
</event>
<event>
11    1  0.8551154E-009  0.1454299E+03  0.7561462E-02  0.1101642E+00
         22   -1    0    0    0    0  0.00000000000E+00  0.00000000000E+00  0.33708416571E+03  0.33708416571E+03  0.00000000000E+00 0.  1.
         22   -1    0    0    0    0 -0.00000000000E+00 -0.00000000000E+00 -0.64381795837E+03  0.64381795837E+03  0.00000000000E+00 0. -1.
        -24    2    1    2    0    0  0.14192538120E+02 -0.68540419350E+02 -0.56025840147E+03  0.57000815783E+03  0.78234304165E+02 0.  0.
         25    2    1    2    0    0 -0.44691959364E+02 -0.92448321941E+01  0.16612565121E+01  0.13316405344E+03  0.12508823766E+03 0.  0.
         24    2    1    2    0    0  0.30499421244E+02  0.77785251544E+02  0.25186335230E+03  0.27772991281E+03  0.81963383166E+02 0.  0.
        -11    1    5    5    0    0  0.33757289931E+02  0.26219781861E+01  0.13149200548E+03  0.13578135697E+03  0.00000000000E+00 0.  1.
         12    1    5    5    0    0 -0.32578686870E+01  0.75163273358E+02  0.12037134682E+03  0.14194855584E+03  0.00000000000E+00 0. -1.
         11    1    3    3    0    0 -0.14310239476E+02 -0.49839174873E+02 -0.48023178022E+03  0.48302307298E+03  0.00000000000E+00 0. -1.
        -12    1    3    3    0    0  0.28502777596E+02 -0.18701244478E+02 -0.80026621257E+02  0.86985084845E+02  0.00000000000E+00 0.  1.
          5    1    4    4  501    0 -0.14976819811E+02 -0.63965359884E+02  0.18772299187E+02  0.68452494575E+02  0.41800000000E+01 0.  1.
         -5    1    4    4    0  501 -0.29715139553E+02  0.54720527690E+02 -0.17111042675E+02  0.64711558865E+02  0.41800000000E+01 0.  1.
</event>
<event>
11    1  0.8551154E-009  0.2138932E+03  0.7561462E-02  0.1045112E+00
         22   -1    0    0    0    0  0.00000000000E+00  0.00000000000E+00  0.10219575898E+04  0.10219575898E+04  0.00000000000E+00 0. -1.
         22   -1    0    0    0    0 -0.00000000000E+00 -0.00000000000E+00 -0.99684836584E+02  0.99684836584E+02  0.00000000000E+00 0. -1.
         24    2    1    2    0    0  0.88236984355E+02  0.82641062812E+01  0.98258287514E+02  0.15952964722E+03  0.89112044174E+02 0.  0.
         25    2    1    2    0    0 -0.14897967029E+03  0.14812265204E+03  0.21590060994E+03  0.32618236081E+03  0.12508635787E+03 0.  0.
        -24    2    1    2    0    0  0.60742685932E+02 -0.15638675832E+03  0.60811385580E+03  0.63593041839E+03  0.80365062965E+02 0.  0.
        -13    1    3    3    0    0  0.11545800718E+02 -0.34406996304E+02  0.17612930826E+02  0.40340578097E+02  0.00000000000E+00 0.  1.
         14    1    3    3    0    0  0.76691183637E+02  0.42671102585E+02  0.80645356689E+02  0.11918906913E+03  0.00000000000E+00 0. -1.
         11    1    5    5    0    0  0.72537560854E+02 -0.14382013024E+03  0.58687316396E+03  0.60857706017E+03  0.00000000000E+00 0. -1.
        -12    1    5    5    0    0 -0.11794874922E+02 -0.12566628084E+02  0.21240691847E+02  0.27353358221E+02  0.00000000000E+00 0.  1.
          5    1    4    4  501    0 -0.41452300135E+02  0.30854837765E+02 -0.69762626841E+01  0.52311134963E+02  0.41800000000E+01 0.  1.
         -5    1    4    4    0  501 -0.10752737015E+03  0.11726781428E+03  0.22287687263E+03  0.27387122585E+03  0.41800000000E+01 0.  1.
</event>
<event>
11    1  0.8551154E-009  0.2174643E+03  0.7561462E-02  0.1042818E+00
         22   -1    0    0    0    0  0.00000000000E+00  0.00000000000E+00  0.31781620797E+03  0.31781620797E+03  0.00000000000E+00 0. -1.
         22   -1    0    0    0    0 -0.00000000000E+00 -0.00000000000E+00 -0.54623591864E+03  0.54623591864E+03  0.00000000000E+00 0. -1.
         24    2    1    2    0    0  0.37813608612E+02 -0.26332888122E+02 -0.27135522717E+03  0.28618942562E+03  0.78405599484E+02 0.  0.
         25    2    1    2    0    0 -0.21043891706E+03  0.18203298550E+02 -0.16534477351E+03  0.29597678777E+03  0.12508983524E+03 0.  0.
        -24    2    1    2    0    0  0.17262530845E+03  0.81295895716E+01  0.20828029000E+03  0.28188591322E+03  0.78825132576E+02 0.  0.
        -13    1    3    3    0    0 -0.21957269107E+02 -0.16551596736E+01 -0.36810370105E+02  0.42893642507E+02  0.00000000000E+00 0.  1.
         14    1    3    3    0    0  0.59770877719E+02 -0.24677728448E+02 -0.23454485706E+03  0.24329578311E+03  0.00000000000E+00 0. -1.
         13    1    5    5    0    0  0.17446980435E+03  0.19240047161E+02  0.20554953054E+03  0.27029706167E+03  0.00000000000E+00 0. -1.
        -14    1    5    5    0    0 -0.18444959006E+01 -0.11110457589E+02  0.27307594640E+01  0.11588851549E+02  0.00000000000E+00 0.  1.
          5    1    4    4  501    0 -0.97118421446E+02  0.35329708599E+02 -0.14714345204E+03  0.17985784379E+03  0.41800000000E+01 0. -1.
         -5    1    4    4    0  501 -0.11332049561E+03 -0.17126410049E+02 -0.18201321462E+02  0.11611894398E+03  0.41800000000E+01 0. -1.
</event>
<event>
11    1  0.8551154E-009  0.1489592E+03  0.7561462E-02  0.1097947E+00
         22   -1    0    0    0    0  0.00000000000E+00  0.00000000000E+00  0.11234720249E+04  0.11234720249E+04  0.00000000000E+00 0.  1.
         22   -1    0    0    0    0 -0.00000000000E+00 -0.00000000000E+00 -0.24362119294E+03  0.24362119294E+03  0.00000000000E+00 0.  1.
         24    2    1    2    0    0  0.79365909509E+02  0.82116198370E+02 -0.17724491700E+03  0.22525589270E+03  0.79261838018E+02 0.  0.
         25    2    1    2    0    0 -0.19028818255E+02  0.27612850620E+02  0.77490335622E+02  0.15091974499E+03  0.12508977523E+03 0.  0.
        -24    2    1    2    0    0 -0.60337091255E+02 -0.10972904899E+03  0.97960541331E+03  0.99091758012E+03  0.81301021071E+02 0.  0.
        -13    1    3    3    0    0  0.85719597329E+02  0.92933485438E+02 -0.15970702383E+03  0.20369294426E+03  0.00000000000E+00 0.  1.
         14    1    3    3    0    0 -0.63536878193E+01 -0.10817287067E+02 -0.17537893169E+02  0.21562948435E+02  0.00000000000E+00 0. -1.
         13    1    5    5    0    0 -0.12967593238E+01 -0.84166163147E+01  0.63476502735E+01  0.10621378391E+02  0.00000000000E+00 0. -1.
        -14    1    5    5    0    0 -0.59040331931E+02 -0.10131243268E+03  0.97325776304E+03  0.98029620173E+03  0.00000000000E+00 0.  1.
          5    1    4    4  501    0 -0.58246040258E+02 -0.21344135063E+02  0.18900582670E+02  0.64983672816E+02  0.41800000000E+01 0.  1.
         -5    1    4    4    0  501  0.39217222004E+02  0.48956985684E+02  0.58589752952E+02  0.85936072169E+02  0.41800000000E+01 0.  1.
</event>
<event>
11    1  0.8551154E-009  0.1980215E+03  0.7561462E-02  0.1055932E+00
         22   -1    0    0    0    0  0.00000000000E+00  0.00000000000E+00  0.22228324546E+03  0.22228324546E+03  0.00000000000E+00 0.  1.
         22   -1    0    0    0    0 -0.00000000000E+00 -0.00000000000E+00 -0.48385152092E+03  0.48385152092E+03  0.00000000000E+00 0.  1.
         24    2    1    2    0    0  0.48000309028E+02 -0.52453008654E+02 -0.30296772165E+03  0.32326642126E+03  0.87500805507E+02 0.  0.
         25    2    1    2    0    0 -0.77952896392E+02 -0.11443340337E+03 -0.13219144730E+02  0.18707216649E+03  0.12509832863E+03 0.  0.
        -24    2    1    2    0    0  0.29952587363E+02  0.16688641203E+03  0.54618590928E+02  0.19579617864E+03  0.81269435121E+02 0.  0.
        -13    1    3    3    0    0  0.39302159015E+02 -0.76998430624E+02 -0.24166060825E+03  0.25665788045E+03  0.00000000000E+00 0.  1.
         14    1    3    3    0    0  0.86981500131E+01  0.24545421970E+02 -0.61307113409E+02  0.66608540803E+02  0.00000000000E+00 0. -1.
         13    1    5    5    0    0  0.60050229985E+01  0.24475819671E+02 -0.20983045906E+02  0.32793509499E+02  0.00000000000E+00 0. -1.
        -14    1    5    5    0    0  0.23947564365E+02  0.14241059235E+03  0.75601636833E+02  0.16300266914E+03  0.00000000000E+00 0.  1.
          5    1    4    4  501    0 -0.10220140116E+03 -0.67902218138E+02  0.20625170151E+02  0.12449380576E+03  0.41800000000E+01 0. -1.
         -5    1    4    4    0  501  0.24248504772E+02 -0.46531185233E+02 -0.33844314881E+02  0.62578360738E+02  0.41800000000E+01 0. -1.
</event>
<event>
11    1  0.8551154E-009  0.1603398E+03  0.7561462E-02  0.1086758E+00
         22   -1    0    0    0    0  0.00000000000E+00  0.00000000000E+00  0.49937741638E+03  0.49937741638E+03  0.00000000000E+00 0.  1.
         22   -1    0    0    0    0 -0.00000000000E+00 -0.00000000000E+00 -0.10544739700E+04  0.10544739700E+04  0.00000000000E+00 0. -1.
        -24    2    1    2    0    0 -0.99403021359E+02 -0.17542678507E+02 -0.97006313730E+03  0.97863821859E+03  0.80756215250E+02 0.  0.
         25    2    1    2    0    0  0.92053208608E+02 -0.13580144664E+02  0.46798458375E+01  0.15597114787E+03  0.12508750724E+03 0.  0.
         24    2    1    2    0    0  0.73498127505E+01  0.31122823171E+02  0.41028673789E+03  0.41924201988E+03  0.80037579112E+02 0.  0.
        -11    1    5    5    0    0  0.52366489633E+01  0.25788893674E+02  0.41231716173E+03  0.41315606178E+03  0.00000000000E+00 0.  1.
         12    1    5    5    0    0  0.21131637872E+01  0.53339294973E+01 -0.20304238318E+01  0.60859581013E+01  0.00000000000E+00 0. -1.
         11    1    3    3    0    0 -0.93448505363E+02 -0.15136658618E+02 -0.96681993723E+03  0.97144353033E+03  0.00000000000E+00 0. -1.
        -12    1    3    3    0    0 -0.59545159954E+01 -0.24060198895E+01 -0.32432000725E+01  0.71946882600E+01  0.00000000000E+00 0.  1.
          5    1    4    4  501    0  0.42272849428E+00 -0.91162763625E+01 -0.48717676957E+02  0.49741025745E+02  0.41800000000E+01 0.  1.
         -5    1    4    4    0  501  0.91630480114E+02 -0.44638683011E+01  0.53397522794E+02  0.10623012212E+03  0.41800000000E+01 0.  1.
</event>
<event>
11    1  0.8551154E-009  0.1416675E+03  0.7561462E-02  0.1105711E+00
         22   -1    0    0    0    0  0.00000000000E+00  0.00000000000E+00  0.13567375790E+03  0.13567375790E+03  0.00000000000E+00 0.  1.
         22   -1    0    0    0    0 -0.00000000000E+00 -0.00000000000E+00 -0.58468149800E+03  0.58468149800E+03  0.00000000000E+00 0.  1.
        -24    2    1    2    0    0  0.19160413431E+02 -0.63938179352E+02 -0.40545191248E+03  0.41863367336E+03  0.80048028759E+02 0.  0.
         25    2    1    2    0    0 -0.74260447376E+02  0.20882840472E+02 -0.10318765009E+03  0.17957398716E+03  0.12509363957E+03 0.  0.
         24    2    1    2    0    0  0.55100033945E+02  0.43055338880E+02  0.59631822468E+02  0.12214759539E+03  0.80463065197E+02 0.  0.
        -13    1    5    5    0    0 -0.18068916411E+01  0.30743924962E+02  0.55878508284E+02  0.63803302951E+02  0.00000000000E+00 0.  1.
         14    1    5    5    0    0  0.56906925586E+02  0.12311413918E+02  0.37533141842E+01  0.58344292435E+02  0.00000000000E+00 0. -1.
         13    1    3    3    0    0  0.28358625758E+02 -0.34616882844E+02 -0.79443319339E+02  0.91179938694E+02  0.00000000000E+00 0. -1.
        -14    1    3    3    0    0 -0.91982123266E+01 -0.29321296509E+02 -0.32600859315E+03  0.32745373466E+03  0.00000000000E+00 0.  1.
          5    1    4    4  501    0  0.13176338166E+02  0.33487436864E+02 -0.80491377135E+02  0.88268672293E+02  0.41800000000E+01 0. -1.
         -5    1    4    4    0  501 -0.87436785542E+02 -0.12604596392E+02 -0.22696272956E+02  0.91305314863E+02  0.41800000000E+01 0. -1.
</event>
<event>
11    1  0.8551154E-009  0.1416423E+03  0.7561462E-02  0.1105738E+00
         22   -1    0    0    0    0  0.00000000000E+00  0.00000000000E+00  0.51347442698E+03  0.51347442698E+03  0.00000000000E+00 0. -1.
         22   -1    0    0    0    0 -0.00000000000E+00 -0.00000000000E+00 -0.27729503720E+03  0.27729503720E+03  0.00000000000E+00 0.  1.
        -24    2    1    2    0    0  0.63956326009E+02  0.12820962338E+02 -0.22903902502E+03  0.25151107326E+03  0.80895959593E+02 0.  0.
         25    2    1    2    0    0 -0.85504243201E+02 -0.11491955961E+02  0.15059318322E+03  0.21393798122E+03  0.12509241512E+03 0.  0.
         24    2    1    2    0    0  0.21547917192E+02 -0.13290063773E+01  0.31462523158E+03  0.32532040970E+03  0.79863969506E+02 0.  0.
        -13    1    5    5    0    0 -0.18281181212E+02 -0.67009988993E+01  0.19803550862E+02  0.27772029085E+02  0.00000000000E+00 0.  1.
         14    1    5    5    0    0  0.39829098404E+02  0.53719925221E+01  0.29482168072E+03  0.29754838061E+03  0.00000000000E+00 0. -1.
         11    1    3    3    0    0  0.40955517266E+02 -0.31452067879E+02 -0.89602451155E+02  0.10341753343E+03  0.00000000000E+00 0. -1.
        -12    1    3    3    0    0  0.23000808743E+02  0.44273030217E+02 -0.13943657386E+03  0.14809353982E+03  0.00000000000E+00 0.  1.
          5    1    4    4  501    0 -0.52627930723E+02  0.42391690819E+01 -0.58180983349E+01  0.53282195102E+02  0.41800000000E+01 0.  1.
         -5    1    4    4    0  501 -0.32876312478E+02 -0.15731125043E+02  0.15641128155E+03  0.16065578612E+03  0.41800000000E+01 0.  1.
</event>
<event>
11    1  0.8551154E-009  0.1341999E+03  0.7561462E-02  0.1114214E+00
         22   -1    0    0    0    0  0.00000000000E+00  0.00000000000E+00  0.20767833843E+04  0.20767833843E+04  0.00000000000E+00 0. -1.
         22   -1    0    0    0    0 -0.00000000000E+00 -0.00000000000E+00 -0.12832063316E+03  0.12832063316E+03  0.00000000000E+00 0.  1.
        -24    2    1    2    0    0  0.90659661557E+00  0.52072666439E+02 -0.88346001401E+02  0.13078696186E+03  0.81165441668E+02 0.  0.
         25    2    1    2    0    0 -0.76872475176E+01 -0.41499970768E+00  0.20720341128E+03  0.24215802898E+03  0.12509193161E+03 0.  0.
         24    2    1    2    0    0  0.67806509020E+01 -0.51657666732E+02  0.18296053412E+04  0.18321590266E+04  0.81464730167E+02 0.  0.
        -11    1    5    5    0    0 -0.88271960467E+01 -0.51992661848E+02  0.56465558608E+03  0.56711294040E+03  0.00000000000E+00 0.  1.
         12    1    5    5    0    0  0.15607846949E+02  0.33499511643E+00  0.12649497552E+04  0.12650460862E+04  0.00000000000E+00 0. -1.
         11    1    3    3    0    0  0.67422854184E+01 -0.18824477191E+02 -0.39014457689E+01  0.20372546067E+02  0.00000000000E+00 0. -1.
        -12    1    3    3    0    0 -0.58356888028E+01  0.70897143630E+02 -0.84444555632E+02  0.11041441579E+03  0.00000000000E+00 0.  1.
          5    1    4    4  501    0  0.40450709138E+02 -0.99242345561E+01  0.16161689501E+02  0.44871181273E+02  0.41800000000E+01 0. -1.
         -5    1    4    4    0  501 -0.48137956656E+02  0.95092348484E+01  0.19104172178E+03  0.19728684771E+03  0.41800000000E+01 0. -1.
</event>
<event>
11    1  0.9316170E-009  0.1681780E+03  0.7561462E-02  0.1079628E+00
         22   -1    0    0    0    0  0.00000000000E+00  0.00000000000E+00  0.14891748654E+03  0.14891748654E+03  0.00000000000E+00 0.  1.
         22   -1    0    0    0    0 -0.00000000000E+00 -0.00000000000E+00 -0.10273057596E+04  0.10273057596E+04  0.00000000000E+00 0. -1.
         24    2    1    2    0    0 -0.54731870454E+02  0.36737256852E+01 -0.40256511459E+03  0.41419936378E+03  0.80581434372E+02 0.  0.
         25    2    1    2    0    0  0.12848118703E+03 -0.85385781460E+02 -0.56561630668E+03  0.59947292772E+03  0.12509131700E+03 0.  0.
        -24    2    1    2    0    0 -0.73749316573E+02  0.81712055774E+02  0.89793148194E+02  0.16255095465E+03  0.79020134412E+02 0.  0.
        -13    1    3    3    0    0  0.48353120011E+01  0.16750113095E+02 -0.18882066873E+02  0.25699785607E+02  0.00000000000E+00 0.  1.
         14    1    3    3    0    0 -0.59567182455E+02 -0.13076387410E+02 -0.38368304772E+03  0.38849957818E+03  0.00000000000E+00 0. -1.
         13    1    5    5    0    0 -0.22568607412E+02  0.77986918001E+02  0.37996208557E+02  0.89638235617E+02  0.00000000000E+00 0. -1.
        -14    1    5    5    0    0 -0.51180709161E+02  0.37251377737E+01  0.51796939637E+02  0.72912719037E+02  0.00000000000E+00 0.  1.
          5    1    4    4  501    0  0.47762393285E+01  0.16260731432E+02 -0.19435419483E+03  0.19513648889E+03  0.41800000000E+01 0.  1.
         -5    1    4    4    0  501  0.12370494770E+03 -0.10164651289E+03 -0.37126211186E+03  0.40433643883E+03  0.41800000000E+01 0.  1.
</event>
<event>
11    1  0.8551154E-009  0.1432491E+03  0.7561462E-02  0.1103984E+00
         22   -1    0    0    0    0  0.00000000000E+00  0.00000000000E+00  0.16608673419E+03  0.16608673419E+03  0.00000000000E+00 0. -1.
         22   -1    0    0    0    0 -0.00000000000E+00 -0.00000000000E+00 -0.83302667754E+03  0.83302667754E+03  0.00000000000E+00 0. -1.
        -24    2    1    2    0    0 -0.22878570921E+02  0.60719854730E+02 -0.54953171327E+03  0.55947022492E+03  0.82531805448E+02 0.  0.
         25    2    1    2    0    0  0.79602370837E+02 -0.68572195608E+02 -0.23475352411E+03  0.28599795451E+03  0.12508768705E+03 0.  0.
         24    2    1    2    0    0 -0.56723799916E+02  0.78523408774E+01  0.11734529403E+03  0.15364523231E+03  0.80979569313E+02 0.  0.
        -11    1    5    5    0    0 -0.61679919811E+02  0.15777716642E+02  0.38824547305E+02  0.74570063187E+02  0.00000000000E+00 0.  1.
         12    1    5    5    0    0  0.49561198947E+01 -0.79253757649E+01  0.78520746724E+02  0.79075169121E+02  0.00000000000E+00 0. -1.
         11    1    3    3    0    0  0.23116566553E+01  0.72208509493E+02 -0.46340673175E+03  0.46900448999E+03  0.00000000000E+00 0. -1.
        -12    1    3    3    0    0 -0.25190227577E+02 -0.11488654763E+02 -0.86124981527E+02  0.90465734931E+02  0.00000000000E+00 0.  1.
          5    1    4    4  501    0  0.95405943124E+02 -0.41899663582E+02 -0.23228104495E+03  0.25461703013E+03  0.41800000000E+01 0.  1.
         -5    1    4    4    0  501 -0.15803572286E+02 -0.26672532026E+02 -0.24724791579E+01  0.31380924379E+02  0.41800000000E+01 0.  1.
</event>
<event>
11    1  0.8551154E-009  0.1920586E+03  0.7561462E-02  0.1060286E+00
         22   -1    0    0    0    0  0.00000000000E+00  0.00000000000E+00  0.74794345551E+02  0.74794345551E+02  0.00000000000E+00 0.  1.
         22   -1    0    0    0    0 -0.00000000000E+00 -0.00000000000E+00 -0.15866710081E+04  0.15866710081E+04  0.00000000000E+00 0. -1.
        -24    2    1    2    0    0 -0.72561150571E+02  0.13632694440E+03 -0.12145861550E+04  0.12269470799E+04  0.79557857453E+02 0.  0.
         25    2    1    2    0    0  0.87932079653E+01 -0.11934477967E+03 -0.28031717227E+03  0.32946752654E+03  0.12510250611E+03 0.  0.
         24    2    1    2    0    0  0.63767942605E+02 -0.16982164731E+02 -0.16973335343E+02  0.10505074724E+03  0.79955118414E+02 0.  0.
        -13    1    5    5    0    0  0.48277230412E+02  0.21630181383E+02  0.12134629676E+02  0.54275270247E+02  0.00000000000E+00 0.  1.
         14    1    5    5    0    0  0.15490712193E+02 -0.38612346114E+02 -0.29107965019E+02  0.50775476997E+02  0.00000000000E+00 0. -1.
         11    1    3    3    0    0 -0.76863078348E+02  0.12995986020E+03 -0.12060387903E+04  0.12154534388E+04  0.00000000000E+00 0. -1.
        -12    1    3    3    0    0  0.43019277770E+01  0.63670842019E+01 -0.85473646610E+01  0.11493641132E+02  0.00000000000E+00 0.  1.
          5    1    4    4  501    0 -0.42062367173E+02 -0.40304392835E+01 -0.10711718948E+03  0.11522609017E+03  0.41800000000E+01 0.  1.
         -5    1    4    4    0  501  0.50855575139E+02 -0.11531434039E+03 -0.17319998278E+03  0.21424143637E+03  0.41800000000E+01 0.  1.
</event>
<event>
11    1  0.8551154E-009  0.1434998E+03  0.7561462E-02  0.1103712E+00
         22   -1    0    0    0    0  0.00000000000E+00  0.00000000000E+00  0.29473526698E+04  0.29473526698E+04  0.00000000000E+00 0. -1.
         22   -1    0    0    0    0 -0.00000000000E+00 -0.00000000000E+00 -0.13003096320E+04  0.13003096320E+04  0.00000000000E+00 0. -1.
         24    2    1    2    0    0 -0.22619426920E+02 -0.68442210661E+02 -0.12198604509E+04  0.12246185646E+04  0.80219289550E+02 0.  0.
         25    2    1    2    0    0 -0.25942231922E+02  0.37355363554E+02 -0.19741922118E+02  0.13455801548E+03  0.12509074089E+03 0.  0.
        -24    2    1    2    0    0  0.48561658842E+02  0.31086847106E+02  0.28866454108E+04  0.28884857217E+04  0.85459990094E+02 0.  0.
        -11    1    3    3    0    0 -0.15148161055E+02 -0.41467472351E+02 -0.22102069653E+03  0.22538670400E+03  0.00000000000E+00 0.  1.
         12    1    3    3    0    0 -0.74712658656E+01 -0.26974738310E+02 -0.99883975441E+03  0.99923186063E+03  0.00000000000E+00 0. -1.
         13    1    5    5    0    0 -0.11894917867E+02 -0.16707718246E+02  0.10835501911E+04  0.10837442749E+04  0.00000000000E+00 0. -1.
        -14    1    5    5    0    0  0.60456576709E+02  0.47794565352E+02  0.18030952197E+04  0.18047414467E+04  0.00000000000E+00 0.  1.
          5    1    4    4  501    0  0.13940859242E+02  0.71624611564E+02  0.10367713292E+02  0.73820013662E+02  0.41800000000E+01 0. -1.
         -5    1    4    4    0  501 -0.39883091163E+02 -0.34269248010E+02 -0.30109635410E+02  0.60738001815E+02  0.41800000000E+01 0. -1.
</event>
<event>
11    1  0.8551154E-009  0.1335910E+03  0.7561462E-02  0.1114934E+00
         22   -1    0    0    0    0  0.00000000000E+00  0.00000000000E+00  0.13991106972E+04  0.13991106972E+04  0.00000000000E+00 0.  1.
         22   -1    0    0    0    0 -0.00000000000E+00 -0.00000000000E+00 -0.27369652579E+03  0.27369652579E+03  0.00000000000E+00 0. -1.
        -24    2    1    2    0    0  0.18163258037E+02 -0.27654220340E+02 -0.14310056813E+03  0.16190422388E+03  0.68121547734E+02 0.  0.
         25    2    1    2    0    0  0.79630489200E+01  0.66410238052E+02 -0.77818246760E+02  0.16179468959E+03  0.12509241457E+03 0.  0.
         24    2    1    2    0    0 -0.26126306957E+02 -0.38756017712E+02  0.13463329863E+04  0.13491083095E+04  0.72774363369E+02 0.  0.
        -11    1    5    5    0    0 -0.13610740101E+01 -0.51250477706E+02  0.11045822143E+04  0.11057713743E+04  0.00000000000E+00 0.  1.
         12    1    5    5    0    0 -0.24765232947E+02  0.12494459994E+02  0.24175077202E+03  0.24333693527E+03  0.00000000000E+00 0. -1.
         13    1    3    3    0    0  0.40613826804E+02 -0.38143798190E+01 -0.98156198487E+02  0.10629521025E+03  0.00000000000E+00 0. -1.
        -14    1    3    3    0    0 -0.22450568767E+02 -0.23839840521E+02 -0.44944369648E+02  0.55609013632E+02  0.00000000000E+00 0.  1.
          5    1    4    4  501    0  0.34868563024E+02  0.58124954121E+02  0.10759081791E+02  0.68757233946E+02  0.41800000000E+01 0.  1.
         -5    1    4    4    0  501 -0.26905514104E+02  0.82852839308E+01 -0.88577328550E+02  0.93037455641E+02  0.41800000000E+01 0.  1.
</event>
<event>
11    1  0.8551154E-009  0.1533905E+03  0.7561462E-02  0.1093464E+00
         22   -1    0    0    0    0  0.00000000000E+00  0.00000000000E+00  0.13251782323E+04  0.13251782323E+04  0.00000000000E+00 0. -1.
         22   -1    0    0    0    0 -0.00000000000E+00 -0.00000000000E+00 -0.31121741887E+03  0.31121741887E+03  0.00000000000E+00 0. -1.
        -24    2    1    2    0    0  0.41267855259E+02 -0.79181012744E+02 -0.26705984546E+03  0.29304045875E+03  0.81111532789E+02 0.  0.
         25    2    1    2    0    0  0.87874340142E+00  0.91012871604E+02  0.17483342056E+03  0.23344369815E+03  0.12508045519E+03 0.  0.
         24    2    1    2    0    0 -0.42146598661E+02 -0.11831858860E+02  0.11061872383E+04  0.11099114943E+04  0.79605214763E+02 0.  0.
        -11    1    5    5    0    0  0.19338441596E+01  0.25895805208E+02  0.57061135671E+03  0.57120193705E+03  0.00000000000E+00 0.  1.
         12    1    5    5    0    0 -0.44080442820E+02 -0.37727664068E+02  0.53557588160E+03  0.53870955721E+03  0.00000000000E+00 0. -1.
         13    1    3    3    0    0  0.48916207187E+02 -0.92217857588E+02 -0.21798466356E+03  0.24169038485E+03  0.00000000000E+00 0. -1.
        -14    1    3    3    0    0 -0.76483519280E+01  0.13036844845E+02 -0.49075181900E+02  0.51350073897E+02  0.00000000000E+00 0.  1.
          5    1    4    4  501    0 -0.58789951380E+02  0.21314556717E+02  0.65565751412E+02  0.90702309064E+02  0.41800000000E+01 0. -1.
         -5    1    4    4    0  501  0.59668694782E+02  0.69698314886E+02  0.10926766915E+03  0.14274138908E+03  0.41800000000E+01 0. -1.
</event>
<event>
11    1  0.8551154E-009  0.1565804E+03  0.7561462E-02  0.1090338E+00
         22   -1    0    0    0    0  0.00000000000E+00  0.00000000000E+00  0.25099285985E+04  0.25099285985E+04  0.00000000000E+00 0.  1.
         22   -1    0    0    0    0 -0.00000000000E+00 -0.00000000000E+00 -0.30477089747E+02  0.30477089747E+02  0.00000000000E+00 0.  1.
        -24    2    1    2    0    0  0.25723206633E+02  0.74276136129E+02  0.21917142586E+03  0.24772114810E+03  0.84563736579E+02 0.  0.
         25    2    1    2    0    0 -0.25202015813E+01 -0.13786209844E+03  0.57990507761E+03  0.60905659763E+03  0.12509088889E+03 0.  0.
         24    2    1    2    0    0 -0.23203005052E+02  0.63585962308E+02  0.16803750052E+04  0.16836279425E+04  0.79757986328E+02 0.  0.
        -13    1    5    5    0    0 -0.85697208756E+01  0.40287402561E+02  0.15416959012E+04  0.15422460137E+04  0.00000000000E+00 0.  1.
         14    1    5    5    0    0 -0.14633284176E+02  0.23298559747E+02  0.13867910401E+03  0.14138192876E+03  0.00000000000E+00 0. -1.
         11    1    3    3    0    0 -0.25603242743E+02  0.28955162408E+02  0.12795242787E+03  0.13366282679E+03  0.00000000000E+00 0. -1.
        -12    1    3    3    0    0  0.51326449376E+02  0.45320973721E+02  0.91218997996E+02  0.11405832131E+03  0.00000000000E+00 0.  1.
          5    1    4    4  501    0 -0.50353272691E+02 -0.96527783809E+02  0.24387338372E+03  0.26710440806E+03  0.41800000000E+01 0.  1.
         -5    1    4    4    0  501  0.47833071109E+02 -0.41334314627E+02  0.33603169389E+03  0.34195218957E+03  0.41800000000E+01 0.  1.
</event>
<event>
11    1  0.8551154E-009  0.1480399E+03  0.7561462E-02  0.1098899E+00
         22   -1    0    0    0    0  0.00000000000E+00  0.00000000000E+00  0.29153685661E+04  0.29153685661E+04  0.00000000000E+00 0. -1.
         22   -1    0    0    0    0 -0.00000000000E+00 -0.00000000000E+00 -0.55734935886E+03  0.55734935886E+03  0.00000000000E+00 0.  1.
        -24    2    1    2    0    0 -0.65823796852E+02 -0.43424933269E+02 -0.54231315219E+03  0.55355037122E+03  0.78076637863E+02 0.  0.
         25    2    1    2    0    0  0.12173656739E+03  0.82537419811E+02  0.11914597995E+04  0.12070027890E+04  0.12508821415E+03 0.  0.
         24    2    1    2    0    0 -0.55912770534E+02 -0.39112486542E+02  0.17088725600E+04  0.17121647648E+04  0.81281800116E+02 0.  0.
        -13    1    5    5    0    0  0.69389753853E+01  0.57632466100E+01  0.25984122692E+02  0.27505254461E+02  0.00000000000E+00 0.  1.
         14    1    5    5    0    0 -0.62851745920E+02 -0.44875733152E+02  0.16828884373E+04  0.16846595103E+04  0.00000000000E+00 0. -1.
         11    1    3    3    0    0 -0.36151476110E+02 -0.25799510120E+02 -0.94577944031E+02  0.10448699175E+03  0.00000000000E+00 0. -1.
        -12    1    3    3    0    0 -0.29672320741E+02 -0.17625423150E+02 -0.44773520816E+03  0.44906337947E+03  0.00000000000E+00 0.  1.
          5    1    4    4  501    0  0.12749759048E+03  0.88344417106E+02  0.11864216237E+04  0.11965258515E+04  0.41800000000E+01 0. -1.
         -5    1    4    4    0  501 -0.57610230952E+01 -0.58069972949E+01  0.50381757747E+01  0.10476937521E+02  0.41800000000E+01 0. -1.
</event>
<event>
11    1  0.8551154E-009  0.2169410E+03  0.7561462E-02  0.1043151E+00
         22   -1    0    0    0    0  0.00000000000E+00  0.00000000000E+00  0.53702178634E+03  0.53702178634E+03  0.00000000000E+00 0.  1.
         22   -1    0    0    0    0 -0.00000000000E+00 -0.00000000000E+00 -0.14691115457E+04  0.14691115457E+04  0.00000000000E+00 0.  1.
        -24    2    1    2    0    0  0.14330420485E+03  0.10497235375E+03 -0.12656915787E+04  0.12805949366E+04  0.79955793518E+02 0.  0.
         25    2    1    2    0    0 -0.12275045637E+03 -0.12645334775E+03 -0.13016846492E+03  0.25228911396E+03  0.12509134289E+03 0.  0.
         24    2    1    2    0    0 -0.20553748480E+02  0.21480994005E+02  0.46377028431E+03  0.47324928150E+03  0.89432187454E+02 0.  0.
        -13    1    5    5    0    0 -0.45193385773E+02  0.40161937694E+02  0.24738760862E+03  0.25466851446E+03  0.00000000000E+00 0.  1.
         14    1    5    5    0    0  0.24639637293E+02 -0.18680943690E+02  0.21638267569E+03  0.21858076704E+03  0.00000000000E+00 0. -1.
         13    1    3    3    0    0  0.74654702470E+02  0.72709993797E+02 -0.47628844361E+03  0.48755589353E+03  0.00000000000E+00 0. -1.
        -14    1    3    3    0    0  0.68649502379E+02  0.32262359949E+02 -0.78940313512E+03  0.79303904303E+03  0.00000000000E+00 0.  1.
          5    1    4    4  501    0 -0.70432287043E+02 -0.86369092523E+01 -0.94911337655E+02  0.11857882473E+03  0.41800000000E+01 0.  1.
         -5    1    4    4    0  501 -0.52318169326E+02 -0.11781643850E+03 -0.35257127265E+02  0.13371028923E+03  0.41800000000E+01 0.  1.
</event>
<event>
11    1  0.8551154E-009  0.1688746E+03  0.7561462E-02  0.1079015E+00
         22   -1    0    0    0    0  0.00000000000E+00  0.00000000000E+00  0.65807600482E+03  0.65807600482E+03  0.00000000000E+00 0. -1.
         22   -1    0    0    0    0 -0.00000000000E+00 -0.00000000000E+00 -0.16461143640E+03  0.16461143640E+03  0.00000000000E+00 0. -1.
         24    2    1    2    0    0 -0.27026476256E+02  0.80302743719E+02 -0.80593304266E+02  0.14186698638E+03  0.80324342915E+02 0.  0.
         25    2    1    2    0    0 -0.91532589955E+02 -0.76059525660E+02  0.13672591936E+03  0.22023880641E+03  0.12509151993E+03 0.  0.
        -24    2    1    2    0    0  0.11855906621E+03 -0.42432180583E+01  0.43733195332E+03  0.46058164843E+03  0.82473998274E+02 0.  0.
        -11    1    3    3    0    0 -0.45093935378E+02  0.23788584883E+02 -0.14407982837E+02  0.52980654469E+02  0.00000000000E+00 0.  1.
         12    1    3    3    0    0  0.18067459122E+02  0.56514158836E+02 -0.66185321429E+02  0.88886331912E+02  0.00000000000E+00 0. -1.
         11    1    5    5    0    0  0.62427988391E+02  0.23955003841E+02  0.32567018366E+03  0.33246377918E+03  0.00000000000E+00 0. -1.
        -12    1    5    5    0    0  0.56131077820E+02 -0.28198221900E+02  0.11166176966E+03  0.12811786924E+03  0.00000000000E+00 0.  1.
          5    1    4    4  501    0  0.16096916605E+02 -0.97506866391E+01  0.78794038429E+02  0.81118182340E+02  0.41800000000E+01 0.  1.
         -5    1    4    4    0  501 -0.10762950656E+03 -0.66308839021E+02  0.57931880930E+02  0.13912062407E+03  0.41800000000E+01 0.  1.
</event>
<event>
11    1  0.8551154E-009  0.3075114E+03  0.7561462E-02  0.9970614E-01
         22   -1    0    0    0    0  0.00000000000E+00  0.00000000000E+00  0.36376468784E+03  0.36376468784E+03  0.00000000000E+00 0.  1.
         22   -1    0    0    0    0 -0.00000000000E+00 -0.00000000000E+00 -0.83766361822E+03  0.83766361822E+03  0.00000000000E+00 0. -1.
         24    2    1    2    0    0 -0.21756691136E+02  0.91214902963E+02 -0.45528001529E+03  0.46984210715E+03  0.68397377118E+02 0.  0.
         25    2    1    2    0    0  0.13538364542E+03  0.18280327024E+03 -0.23935880898E+03  0.35311030386E+03  0.12509388551E+03 0.  0.
        -24    2    1    2    0    0 -0.11362695428E+03 -0.27401817321E+03  0.22073989388E+03  0.37847589506E+03  0.80751832207E+02 0.  0.
        -13    1    3    3    0    0 -0.42520400112E+02  0.72575430613E+02 -0.28021150345E+03  0.29256394894E+03  0.00000000000E+00 0.  1.
         14    1    3    3    0    0  0.20763708976E+02  0.18639472350E+02 -0.17506851184E+03  0.17727815820E+03  0.00000000000E+00 0. -1.
         13    1    5    5    0    0 -0.14757580811E+02 -0.14994084191E+02  0.46449710155E+02  0.50992002565E+02  0.00000000000E+00 0. -1.
        -14    1    5    5    0    0 -0.98869373472E+02 -0.25902408902E+03  0.17429018373E+03  0.32748389250E+03  0.00000000000E+00 0.  1.
          5    1    4    4  501    0  0.33024974773E+02  0.13878405235E+03 -0.16928005004E+03  0.22141560444E+03  0.41800000000E+01 0.  1.
         -5    1    4    4    0  501  0.10235867065E+03  0.44019217892E+02 -0.70078758940E+02  0.13169469942E+03  0.41800000000E+01 0.  1.
</event>
<event>
11    1  0.8551154E-009  0.2767944E+03  0.7561462E-02  0.1010520E+00
         22   -1    0    0    0    0  0.00000000000E+00  0.00000000000E+00  0.27992263661E+03  0.27992263661E+03  0.00000000000E+00 0.  1.
         22   -1    0    0    0    0 -0.00000000000E+00 -0.00000000000E+00 -0.26919330892E+04  0.26919330892E+04  0.00000000000E+00 0.  1.
         24    2    1    2    0    0  0.29748839269E+01  0.96762974104E+01 -0.21892776622E+04  0.21906849501E+04  0.77854916530E+02 0.  0.
         25    2    1    2    0    0  0.12525272935E+03  0.20297472516E+03 -0.38811926104E+03  0.47240929435E+03  0.12508795039E+03 0.  0.
        -24    2    1    2    0    0 -0.12822761327E+03 -0.21265102257E+03  0.16538647065E+03  0.30876148130E+03  0.79487039530E+02 0.  0.
        -13    1    3    3    0    0  0.20652308088E+02  0.10323564700E+02 -0.20675305687E+04  0.20676594851E+04  0.00000000000E+00 0.  1.
         14    1    3    3    0    0 -0.17677424161E+02 -0.64726728984E+00 -0.12174709352E+03  0.12302546509E+03  0.00000000000E+00 0. -1.
         13    1    5    5    0    0 -0.77056313334E+01 -0.24727898975E+02 -0.68524368045E+01  0.26791820246E+02  0.00000000000E+00 0. -1.
        -14    1    5    5    0    0 -0.12052198194E+03 -0.18792312360E+03  0.17223890745E+03  0.28196966105E+03  0.00000000000E+00 0.  1.
          5    1    4    4  501    0  0.14714054635E+03  0.14263755492E+03 -0.29837285919E+03  0.36199398884E+03  0.41800000000E+01 0.  1.
         -5    1    4    4    0  501 -0.21887817001E+02  0.60337170246E+02 -0.89746401847E+02  0.11041530551E+03  0.41800000000E+01 0.  1.
</event>
<event>
11    1  0.8551154E-009  0.1385901E+03  0.7561462E-02  0.1109143E+00
         22   -1    0    0    0    0  0.00000000000E+00  0.00000000000E+00  0.87667693569E+03  0.87667693569E+03  0.00000000000E+00 0.  1.
         22   -1    0    0    0    0 -0.00000000000E+00 -0.00000000000E+00 -0.22369424794E+03  0.22369424794E+03  0.00000000000E+00 0. -1.
        -24    2    1    2    0    0  0.38543060785E+02  0.59922700428E+01 -0.89576547425E+02  0.13150591638E+03  0.88024845125E+02 0.  0.
         25    2    1    2    0    0 -0.17163748139E+02  0.50244030598E+02 -0.68338781763E+02  0.15210521968E+03  0.12508697734E+03 0.  0.
         24    2    1    2    0    0 -0.21379312646E+02 -0.56236300640E+02  0.81089801693E+03  0.81676004757E+03  0.76953134573E+02 0.  0.
        -11    1    5    5    0    0 -0.28948896199E+02 -0.61583882564E+02  0.79789852174E+03  0.80079502008E+03  0.00000000000E+00 0.  1.
         12    1    5    5    0    0  0.75695835536E+01  0.53475819232E+01  0.12999495192E+02  0.15965027492E+02  0.00000000000E+00 0. -1.
         11    1    3    3    0    0  0.63778036085E+02 -0.12339583290E+02 -0.63657610360E+02  0.90951605590E+02  0.00000000000E+00 0. -1.
        -12    1    3    3    0    0 -0.25234975300E+02  0.18331853333E+02 -0.25918937065E+02  0.40554310789E+02  0.00000000000E+00 0.  1.
          5    1    4    4  501    0 -0.28219314217E+02  0.22954460222E+02 -0.10129786727E+03  0.10771242849E+03  0.41800000000E+01 0.  1.
         -5    1    4    4    0  501  0.11055566078E+02  0.27289570375E+02  0.32959085502E+02  0.44392791191E+02  0.41800000000E+01 0.  1.
</event>
<event>
11    1  0.8551154E-009  0.1289213E+03  0.7561462E-02  0.1120602E+00
         22   -1    0    0    0    0  0.00000000000E+00  0.00000000000E+00  0.30817224093E+03  0.30817224093E+03  0.00000000000E+00 0.  1.
         22   -1    0    0    0    0 -0.00000000000E+00 -0.00000000000E+00 -0.43586233469E+03  0.43586233469E+03  0.00000000000E+00 0. -1.
         24    2    1    2    0    0  0.31343450134E+02  0.82082280199E+01 -0.37183730572E+03  0.38185405264E+03  0.80621019094E+02 0.  0.
         25    2    1    2    0    0 -0.12279557164E+02 -0.19593879172E+01  0.25931427677E+02  0.12835727375E+03  0.12509406085E+03 0.  0.
        -24    2    1    2    0    0 -0.19063892970E+02 -0.62488401027E+01  0.21821578429E+03  0.23382324922E+03  0.81564105736E+02 0.  0.
        -13    1    3    3    0    0  0.31274584847E+02 -0.33084594417E+02 -0.18740693807E+03  0.19285759119E+03  0.00000000000E+00 0.  1.
         14    1    3    3    0    0  0.68865286549E-01  0.41292822437E+02 -0.18443036766E+03  0.18899646145E+03  0.00000000000E+00 0. -1.
         11    1    5    5    0    0 -0.99487576935E+01 -0.26879192025E+02  0.21526220089E+02  0.35844761052E+02  0.00000000000E+00 0. -1.
        -12    1    5    5    0    0 -0.91151352766E+01  0.20630351923E+02  0.19668956420E+03  0.19797848816E+03  0.00000000000E+00 0.  1.
          5    1    4    4  501    0 -0.16616641356E+02 -0.62530029357E+02  0.14005337931E+02  0.66330530164E+02  0.41800000000E+01 0.  1.
         -5    1    4    4    0  501  0.43370841924E+01  0.60570641440E+02  0.11926089746E+02  0.62026743590E+02  0.41800000000E+01 0.  1.
</event>
<event>
11    1  0.8551154E-009  0.1452549E+03  0.7561462E-02  0.1101828E+00
         22   -1    0    0    0    0  0.00000000000E+00  0.00000000000E+00  0.18716344401E+04  0.18716344401E+04  0.00000000000E+00 0. -1.
         22   -1    0    0    0    0 -0.00000000000E+00 -0.00000000000E+00 -0.13822638355E+03  0.13822638355E+03  0.00000000000E+00 0. -1.
         24    2    1    2    0    0  0.16416434229E+02 -0.65540840098E+02 -0.61554522330E+02  0.12173588472E+03  0.80408739421E+02 0.  0.
         25    2    1    2    0    0 -0.44355941413E+02  0.96427342514E+02  0.10305545797E+03  0.19373562346E+03  0.12508949780E+03 0.  0.
        -24    2    1    2    0    0  0.27939507184E+02 -0.30886502416E+02  0.16919071209E+04  0.16943893155E+04  0.81675298923E+02 0.  0.
        -11    1    3    3    0    0 -0.96401548879E+01  0.16296722628E+02 -0.14138647148E+02  0.23630850553E+02  0.00000000000E+00 0.  1.
         12    1    3    3    0    0  0.26056589117E+02 -0.81837562726E+02 -0.47415875182E+02  0.98105034165E+02  0.00000000000E+00 0. -1.
         11    1    5    5    0    0  0.45049043335E+02 -0.48220050302E+02  0.13529234861E+04  0.13545318560E+04  0.00000000000E+00 0. -1.
        -12    1    5    5    0    0 -0.17109536152E+02  0.17333547886E+02  0.33898363481E+03  0.33985745950E+03  0.00000000000E+00 0.  1.
          5    1    4    4  501    0  0.25258468762E+02  0.84891042401E+02  0.34138963454E+02  0.95012738882E+02  0.41800000000E+01 0. -1.
         -5    1    4    4    0  501 -0.69614410174E+02  0.11536300113E+02  0.68916494513E+02  0.98722884582E+02  0.41800000000E+01 0. -1.
</event>
<event>
11    1  0.8551154E-009  0.1526193E+03  0.7561462E-02  0.1094232E+00
         22   -1    0    0    0    0  0.00000000000E+00  0.00000000000E+00  0.59822592849E+03  0.59822592849E+03  0.00000000000E+00 0. -1.
         22   -1    0    0    0    0 -0.00000000000E+00 -0.00000000000E+00 -0.44454093296E+03  0.44454093296E+03  0.00000000000E+00 0. -1.
        -24    2    1    2    0    0 -0.21584418510E+01 -0.85417442649E+02 -0.35471569626E+03  0.37373314278E+03  0.80947133733E+02 0.  0.
         25    2    1    2    0    0 -0.24591050307E+00  0.10526995907E+03  0.78482667187E+01  0.16368829626E+03  0.12510171177E+03 0.  0.
         24    2    1    2    0    0  0.24043523541E+01 -0.19852516421E+02  0.50055242507E+03  0.50534542242E+03  0.66493325906E+02 0.  0.
        -13    1    5    5    0    0  0.29114915363E+02 -0.39961395603E+01  0.12074437478E+03  0.12426927001E+03  0.00000000000E+00 0.  1.
         14    1    5    5    0    0 -0.26710563009E+02 -0.15856376861E+02  0.37980805029E+03  0.38107615240E+03  0.00000000000E+00 0. -1.
         11    1    3    3    0    0  0.26962534489E+02 -0.50671067030E+02 -0.28393233545E+03  0.28967586440E+03  0.00000000000E+00 0. -1.
        -12    1    3    3    0    0 -0.29120976340E+02 -0.34746375619E+02 -0.70783360807E+02  0.84057278381E+02  0.00000000000E+00 0.  1.
          5    1    4    4  501    0  0.53514912290E+02  0.61186170591E+02  0.35436258937E+02  0.88773837117E+02  0.41800000000E+01 0. -1.
         -5    1    4    4    0  501 -0.53760822793E+02  0.44083788480E+02 -0.27587992219E+02  0.74914459143E+02  0.41800000000E+01 0. -1.
</event>
<event>
11    1  0.8551154E-009  0.1362430E+03  0.7561462E-02  0.1111828E+00
         22   -1    0    0    0    0  0.00000000000E+00  0.00000000000E+00  0.20564177885E+04  0.20564177885E+04  0.00000000000E+00 0.  1.
         22   -1    0    0    0    0 -0.00000000000E+00 -0.00000000000E+00 -0.93502323888E+03  0.93502323888E+03  0.00000000000E+00 0.  1.
        -24    2    1    2    0    0  0.37254718033E+02 -0.12429294783E+02 -0.92321222567E+03  0.92743541752E+03  0.79203779241E+02 0.  0.
         25    2    1    2    0    0  0.22137166745E+02  0.19470747864E+02  0.50215927451E+03  0.51834369760E+03  0.12508831959E+03 0.  0.
         24    2    1    2    0    0 -0.59391884778E+02 -0.70414530810E+01  0.15424475008E+04  0.15456619123E+04  0.79683601333E+02 0.  0.
        -13    1    5    5    0    0 -0.62260822266E+02 -0.20351184938E+02  0.14911581261E+04  0.14925961067E+04  0.00000000000E+00 0.  1.
         14    1    5    5    0    0  0.28689374884E+01  0.13309731857E+02  0.51289374653E+02  0.53065805532E+02  0.00000000000E+00 0. -1.
         13    1    3    3    0    0  0.25607358759E+02 -0.29856298322E+02 -0.19530465475E+03  0.19922611159E+03  0.00000000000E+00 0. -1.
        -14    1    3    3    0    0  0.11647359274E+02  0.17427003540E+02 -0.72790757092E+03  0.72820930593E+03  0.00000000000E+00 0.  1.
          5    1    4    4  501    0 -0.27930353923E+02 -0.23441979076E+02  0.53708992192E+02  0.65051973802E+02  0.41800000000E+01 0.  1.
         -5    1    4    4    0  501  0.50067520667E+02  0.42912726940E+02  0.44845028231E+03  0.45329172380E+03  0.41800000000E+01 0.  1.
</event>
<event>
11    1  0.8551154E-009  0.1408189E+03  0.7561462E-02  0.1106647E+00
         22   -1    0    0    0    0  0.00000000000E+00  0.00000000000E+00  0.18817193360E+03  0.18817193360E+03  0.00000000000E+00 0.  1.
         22   -1    0    0    0    0 -0.00000000000E+00 -0.00000000000E+00 -0.11016973144E+04  0.11016973144E+04  0.00000000000E+00 0. -1.
        -24    2    1    2    0    0 -0.39937590916E+01 -0.62430318820E+02 -0.54331909477E+03  0.55293758914E+03  0.81429993986E+02 0.  0.
         25    2    1    2    0    0 -0.93034392042E+01  0.69045523537E+02 -0.53465149757E+03  0.55349262073E+03  0.12509204234E+03 0.  0.
         24    2    1    2    0    0  0.13297198296E+02 -0.66152047167E+01  0.16444521157E+03  0.18343903809E+03  0.79919188376E+02 0.  0.
        -13    1    5    5    0    0  0.40871778106E+02 -0.16027346914E+02  0.13523070268E+03  0.14217848305E+03  0.00000000000E+00 0.  1.
         14    1    5    5    0    0 -0.27574579810E+02  0.94121421969E+01  0.29214508885E+02  0.41260555035E+02  0.00000000000E+00 0. -1.
         13    1    3    3    0    0  0.24795607091E+02 -0.51871748097E+02 -0.46943726363E+03  0.47294486451E+03  0.00000000000E+00 0. -1.
        -14    1    3    3    0    0 -0.28789366183E+02 -0.10558570723E+02 -0.73881831142E+02  0.79992724631E+02  0.00000000000E+00 0.  1.
          5    1    4    4  501    0  0.47102429615E+02 -0.26593449595E+01 -0.25329546484E+03  0.25768542043E+03  0.41800000000E+01 0.  1.
         -5    1    4    4    0  501 -0.56405868819E+02  0.71704868497E+02 -0.28135603273E+03  0.29580720031E+03  0.41800000000E+01 0.  1.
</event>
<event>
11    1  0.1065576E-008  0.1548741E+03  0.7561462E-02  0.1092000E+00
         22   -1    0    0    0    0  0.00000000000E+00  0.00000000000E+00  0.13043942477E+04  0.13043942477E+04  0.00000000000E+00 0.  1.
         22   -1    0    0    0    0 -0.00000000000E+00 -0.00000000000E+00 -0.15368433952E+04  0.15368433952E+04  0.00000000000E+00 0. -1.
        -24    2    1    2    0    0 -0.38789141628E+02  0.62671848487E+02 -0.12222309976E+04  0.12271186125E+04  0.80864823208E+02 0.  0.
         25    2    1    2    0    0  0.12922563207E+03 -0.71813599233E+02 -0.27898582761E+03  0.33961412634E+03  0.12509278870E+03 0.  0.
         24    2    1    2    0    0 -0.90436490437E+02  0.91417507461E+01  0.12687676777E+04  0.12745049041E+04  0.79555012751E+02 0.  0.
        -11    1    5    5    0    0 -0.57187835008E+02  0.24115687613E+02  0.11043264940E+04  0.11060691752E+04  0.00000000000E+00 0.  1.
         12    1    5    5    0    0 -0.33248655429E+02 -0.14973936867E+02  0.16444118371E+03  0.16843572891E+03  0.00000000000E+00 0. -1.
         11    1    3    3    0    0 -0.17887501603E+02  0.24400403536E+02 -0.10100452690E+04  0.10104982869E+04  0.00000000000E+00 0. -1.
        -12    1    3    3    0    0 -0.20901640025E+02  0.38271444951E+02 -0.21218572856E+03  0.21662032559E+03  0.00000000000E+00 0.  1.
          5    1    4    4  501    0  0.12178266654E+03 -0.76427848524E+02 -0.29073791939E+03  0.32437361803E+03  0.41800000000E+01 0.  1.
         -5    1    4    4    0  501  0.74429655254E+01  0.46142492913E+01  0.11752091784E+02  0.15240508313E+02  0.41800000000E+01 0.  1.
</event>
<event>
11    1  0.8551154E-009  0.4703499E+03  0.7561462E-02  0.9462330E-01
         22   -1    0    0    0    0  0.00000000000E+00  0.00000000000E+00  0.13588584428E+04  0.13588584428E+04  0.00000000000E+00 0. -1.
         22   -1    0    0    0    0 -0.00000000000E+00 -0.00000000000E+00 -0.10707705661E+04  0.10707705661E+04  0.00000000000E+00 0.  1.
        -24    2    1    2    0    0 -0.50535327131E+02  0.80171319249E+01 -0.73807255538E+03  0.74392727891E+03  0.77837045242E+02 0.  0.
         25    2    1    2    0    0  0.48610378154E+03 -0.10542273579E+03 -0.52483872258E+02  0.51557069857E+03  0.12509096181E+03 0.  0.
         24    2    1    2    0    0 -0.43556845441E+03  0.97405603870E+02  0.10786443043E+04  0.11701310314E+04  0.80779734383E+02 0.  0.
        -13    1    5    5    0    0 -0.46448794585E+01 -0.34374009468E+01  0.20677979604E+01  0.61372973578E+01  0.00000000000E+00 0.  1.
         14    1    5    5    0    0 -0.43092357495E+03  0.10084300482E+03  0.10765765063E+04  0.11639937341E+04  0.00000000000E+00 0. -1.
         13    1    3    3    0    0 -0.15204471769E+02 -0.11142419130E+02 -0.35397876423E+02  0.40104103544E+02  0.00000000000E+00 0. -1.
        -14    1    3    3    0    0 -0.35330855362E+02  0.19159551055E+02 -0.70267467896E+03  0.70382317537E+03  0.00000000000E+00 0.  1.
          5    1    4    4  501    0  0.14421089999E+03 -0.90200954355E+02 -0.68655184225E+01  0.17028682740E+03  0.41800000000E+01 0. -1.
         -5    1    4    4    0  501  0.34189288155E+03 -0.15221781440E+02 -0.45618353835E+02  0.34528387117E+03  0.41800000000E+01 0. -1.
</event>
<event>
11    1  0.8551154E-009  0.1473529E+03  0.7561462E-02  0.1099615E+00
         22   -1    0    0    0    0  0.00000000000E+00  0.00000000000E+00  0.13923953192E+04  0.13923953192E+04  0.00000000000E+00 0.  1.
         22   -1    0    0    0    0 -0.00000000000E+00 -0.00000000000E+00 -0.13503239687E+03  0.13503239687E+03  0.00000000000E+00 0. -1.
         24    2    1    2    0    0 -0.19751925257E+02 -0.70347323880E+02 -0.92755224521E+02  0.14281434484E+03  0.80333809119E+02 0.  0.
         25    2    1    2    0    0 -0.36901513897E+02 -0.87550164409E+01  0.33526644848E+03  0.35984620944E+03  0.12508929181E+03 0.  0.
        -24    2    1    2    0    0  0.56653439154E+02  0.79102340321E+02  0.10148516984E+04  0.10247671618E+04  0.10371583192E+03 0.  0.
        -13    1    3    3    0    0 -0.15022950082E+02 -0.36535566552E+02  0.44825740961E+01  0.39757139271E+02  0.00000000000E+00 0.  1.
         14    1    3    3    0    0 -0.47289751748E+01 -0.33811757328E+02 -0.97237798617E+02  0.10305720557E+03  0.00000000000E+00 0. -1.
         11    1    5    5    0    0 -0.18080587256E+02  0.30012474410E+02  0.10853496178E+03  0.11405040195E+03  0.00000000000E+00 0. -1.
        -12    1    5    5    0    0  0.74734026410E+02  0.49089865910E+02  0.90631673661E+03  0.91071675987E+03  0.00000000000E+00 0.  1.
          5    1    4    4  501    0  0.19666558322E+01  0.15391603960E+01 -0.10579212774E+02  0.11645981831E+02  0.41800000000E+01 0. -1.
         -5    1    4    4    0  501 -0.38868169729E+02 -0.10294176837E+02  0.34584566126E+03  0.34820022761E+03  0.41800000000E+01 0. -1.
</event>
<event>
11    1  0.8551154E-009  0.1887477E+03  0.7561462E-02  0.1062779E+00
         22   -1    0    0    0    0  0.00000000000E+00  0.00000000000E+00  0.70556185185E+03  0.70556185185E+03  0.00000000000E+00 0.  1.
         22   -1    0    0    0    0 -0.00000000000E+00 -0.00000000000E+00 -0.53944048474E+03  0.53944048474E+03  0.00000000000E+00 0. -1.
        -24    2    1    2    0    0  0.47010065808E+01 -0.68221189113E+01 -0.31549342313E+03  0.32563650164E+03  0.80214651953E+02 0.  0.
         25    2    1    2    0    0  0.92522366049E+02  0.10931573945E+03 -0.16555669190E+03  0.25212171820E+03  0.12508406552E+03 0.  0.
         24    2    1    2    0    0 -0.97223372630E+02 -0.10249362054E+03  0.64717148215E+03  0.66724411676E+03  0.80165189497E+02 0.  0.
        -11    1    5    5    0    0 -0.64662237310E+02 -0.10869473562E+03  0.55686404465E+03  0.57104580789E+03  0.00000000000E+00 0.  1.
         12    1    5    5    0    0 -0.32561135320E+02  0.62011150831E+01  0.90307437495E+02  0.96198308865E+02  0.00000000000E+00 0. -1.
         11    1    3    3    0    0  0.16412130487E+02  0.28933456899E+02 -0.22775170752E+03  0.23016807605E+03  0.00000000000E+00 0. -1.
        -12    1    3    3    0    0 -0.11711123906E+02 -0.35755575810E+02 -0.87741715615E+02  0.95468425585E+02  0.00000000000E+00 0.  1.
          5    1    4    4  501    0  0.40316117484E+02  0.34500004084E+02 -0.15040789701E+03  0.15954826070E+03  0.41800000000E+01 0.  1.
         -5    1    4    4    0  501  0.52206248565E+02  0.74815735363E+02 -0.15148794891E+02  0.92573457502E+02  0.41800000000E+01 0.  1.
</event>
<event>
11    1  0.8551154E-009  0.1413210E+03  0.7561462E-02  0.1106092E+00
         22   -1    0    0    0    0  0.00000000000E+00  0.00000000000E+00  0.75332874530E+03  0.75332874530E+03  0.00000000000E+00 0. -1.
         22   -1    0    0    0    0 -0.00000000000E+00 -0.00000000000E+00 -0.17597108519E+04  0.17597108519E+04  0.00000000000E+00 0.  1.
        -24    2    1    2    0    0 -0.61131539171E+02 -0.20107979591E+02 -0.15478895827E+04  0.15513092310E+04  0.80354053948E+02 0.  0.
         25    2    1    2    0    0  0.76702197063E+02  0.53587509027E+02 -0.17803872123E+03  0.23685473319E+03  0.12509008840E+03 0.  0.
         24    2    1    2    0    0 -0.15570657892E+02 -0.33479529436E+02  0.71954619727E+03  0.72487563310E+03  0.79590383726E+02 0.  0.
        -13    1    5    5    0    0 -0.28302602097E+01 -0.42409409842E+02  0.17430046648E+03  0.17940797371E+03  0.00000000000E+00 0.  1.
         14    1    5    5    0    0 -0.12740397682E+02  0.89298804055E+01  0.54524573079E+03  0.54546765939E+03  0.00000000000E+00 0. -1.
         13    1    3    3    0    0  0.39967009310E+01  0.23454255849E+02 -0.28505569022E+03  0.28604688823E+03  0.00000000000E+00 0. -1.
        -14    1    3    3    0    0 -0.65128240102E+02 -0.43562235439E+02 -0.12628338925E+04  0.12652623427E+04  0.00000000000E+00 0.  1.
          5    1    4    4  501    0  0.82582040812E+02  0.31537654872E+01 -0.44558832342E+02  0.93982453900E+02  0.41800000000E+01 0. -1.
         -5    1    4    4    0  501 -0.58798437490E+01  0.50433743540E+02 -0.13347988889E+03  0.14287227929E+03  0.41800000000E+01 0. -1.
</event>
<event>
11    1  0.8551154E-009  0.1671405E+03  0.7561462E-02  0.1080547E+00
         22   -1    0    0    0    0  0.00000000000E+00  0.00000000000E+00  0.22261443349E+04  0.22261443349E+04  0.00000000000E+00 0.  1.
         22   -1    0    0    0    0 -0.00000000000E+00 -0.00000000000E+00 -0.78944536291E+03  0.78944536291E+03  0.00000000000E+00 0.  1.
        -24    2    1    2    0    0 -0.10946127334E+03  0.21217233830E+02 -0.75469111724E+03  0.76723956687E+03  0.81645141701E+02 0.  0.
         25    2    1    2    0    0  0.86659488108E+02 -0.21076184063E+02  0.18572045983E+03  0.24102383670E+03  0.12508528387E+03 0.  0.
         24    2    1    2    0    0  0.22801785233E+02 -0.14104976760E+00  0.20056696294E+04  0.20073262943E+04  0.78283127270E+02 0.  0.
        -13    1    5    5    0    0  0.51452652713E+02  0.66425780064E+01  0.13478917675E+04  0.13488898088E+04  0.00000000000E+00 0.  1.
         14    1    5    5    0    0 -0.28650867480E+02 -0.67836277740E+01  0.65777786186E+03  0.65843648544E+03  0.00000000000E+00 0. -1.
         11    1    3    3    0    0  0.11773626363E+02  0.52198032724E+01 -0.36346709248E+02  0.38560963384E+02  0.00000000000E+00 0. -1.
        -12    1    3    3    0    0 -0.12123489970E+03  0.15997430558E+02 -0.71834440799E+03  0.72867860349E+03  0.00000000000E+00 0.  1.
          5    1    4    4  501    0  0.12887421544E+02  0.48628603659E+02  0.46114661780E+02  0.68372956342E+02  0.41800000000E+01 0.  1.
         -5    1    4    4    0  501  0.73772066564E+02 -0.69704787722E+02  0.13960579805E+03  0.17265088035E+03  0.41800000000E+01 0.  1.
</event>
<event>
11    1  0.8551154E-009  0.1549248E+03  0.7561462E-02  0.1091950E+00
         22   -1    0    0    0    0  0.00000000000E+00  0.00000000000E+00  0.36784484454E+03  0.36784484454E+03  0.00000000000E+00 0.  1.
         22   -1    0    0    0    0 -0.00000000000E+00 -0.00000000000E+00 -0.10953548204E+04  0.10953548204E+04  0.00000000000E+00 0.  1.
         24    2    1    2    0    0  0.90450015553E+02 -0.10501528422E+02 -0.10277939835E+04  0.10349003385E+04  0.79791920564E+02 0.  0.
         25    2    1    2    0    0 -0.97929536307E+02  0.56707474241E+02  0.75110023714E+02  0.18464625031E+03  0.12508713113E+03 0.  0.
        -24    2    1    2    0    0  0.74795207541E+01 -0.46205945819E+02  0.22517398394E+03  0.24365307616E+03  0.80452258020E+02 0.  0.
        -13    1    3    3    0    0  0.17611404849E+02 -0.67543763434E+00 -0.63765539074E+03  0.63789890667E+03  0.00000000000E+00 0.  1.
         14    1    3    3    0    0  0.72838610704E+02 -0.98260907878E+01 -0.39013859280E+03  0.39700143181E+03  0.00000000000E+00 0. -1.
         13    1    5    5    0    0 -0.23596648240E+02 -0.53614070851E+02  0.11675727811E+03  0.13062745650E+03  0.00000000000E+00 0. -1.
        -14    1    5    5    0    0  0.31076168994E+02  0.74081250329E+01  0.10841670584E+03  0.11302561966E+03  0.00000000000E+00 0.  1.
          5    1    4    4  501    0 -0.19063923534E+02 -0.24976444464E+02 -0.19135837634E+02  0.37025783457E+02  0.41800000000E+01 0. -1.
         -5    1    4    4    0  501 -0.78865612773E+02  0.81683918705E+02  0.94245861349E+02  0.14762046685E+03  0.41800000000E+01 0. -1.
</event>
<event>
11    1  0.8551154E-009  0.1368742E+03  0.7561462E-02  0.1111100E+00
         22   -1    0    0    0    0  0.00000000000E+00  0.00000000000E+00  0.54374222104E+03  0.54374222104E+03  0.00000000000E+00 0. -1.
         22   -1    0    0    0    0 -0.00000000000E+00 -0.00000000000E+00 -0.46170708931E+03  0.46170708931E+03  0.00000000000E+00 0.  1.
         24    2    1    2    0    0 -0.54122373183E+02 -0.98307192581E+01 -0.39921230378E+03  0.41095198302E+03  0.80530705568E+02 0.  0.
         25    2    1    2    0    0  0.56188601772E+02  0.52193211001E+02  0.52804889725E+02  0.15593892588E+03  0.12508917612E+03 0.  0.
        -24    2    1    2    0    0 -0.20662285896E+01 -0.42362491743E+02  0.42844254579E+03  0.43855840145E+03  0.83496146213E+02 0.  0.
        -13    1    3    3    0    0 -0.54805957856E+02  0.57207826798E+01 -0.38768630459E+03  0.39158280240E+03  0.00000000000E+00 0.  1.
         14    1    3    3    0    0  0.68358467340E+00 -0.15551501938E+02 -0.11525999193E+02  0.19369180621E+02  0.00000000000E+00 0. -1.
         13    1    5    5    0    0 -0.30632183080E+02 -0.37677656571E+02  0.37170086897E+03  0.37485927018E+03  0.00000000000E+00 0. -1.
        -14    1    5    5    0    0  0.28565954490E+02 -0.46848351719E+01  0.56741676816E+02  0.63699131269E+02  0.00000000000E+00 0.  1.
          5    1    4    4  501    0  0.13280127107E+02  0.35757606734E+02 -0.38050582446E+02  0.54039683935E+02  0.41800000000E+01 0. -1.
         -5    1    4    4    0  501  0.42908474665E+02  0.16435604267E+02  0.90855472170E+02  0.10189924195E+03  0.41800000000E+01 0. -1.
</event>
<event>
11    1  0.8551154E-009  0.2193629E+03  0.7561462E-02  0.1041617E+00
         22   -1    0    0    0    0  0.00000000000E+00  0.00000000000E+00  0.67145270460E+03  0.67145270460E+03  0.00000000000E+00 0. -1.
         22   -1    0    0    0    0 -0.00000000000E+00 -0.00000000000E+00 -0.17212536735E+04  0.17212536735E+04  0.00000000000E+00 0.  1.
        -24    2    1    2    0    0 -0.99405639695E+01  0.76749475830E+02 -0.14330177348E+04  0.14373007494E+04  0.79399742229E+02 0.  0.
         25    2    1    2    0    0  0.16504802300E+03 -0.16337028450E+03 -0.20613999453E+03  0.33476801527E+03  0.12508088165E+03 0.  0.
         24    2    1    2    0    0 -0.15510745903E+03  0.86620808671E+02  0.58935676043E+03  0.62063761344E+03  0.79297968456E+02 0.  0.
        -13    1    5    5    0    0 -0.62651900564E+02  0.31278678924E+02  0.11881011040E+03  0.13791105370E+03  0.00000000000E+00 0.  1.
         14    1    5    5    0    0 -0.92455558463E+02  0.55342129747E+02  0.47054665003E+03  0.48272655973E+03  0.00000000000E+00 0. -1.
         13    1    3    3    0    0 -0.42800695940E+02  0.26007935973E+02 -0.70578900326E+03  0.70756372817E+03  0.00000000000E+00 0. -1.
        -14    1    3    3    0    0  0.32860131970E+02  0.50741539857E+02 -0.72722873155E+03  0.72973702121E+03  0.00000000000E+00 0.  1.
          5    1    4    4  501    0  0.94142708759E+02 -0.18179330147E+02 -0.43165498336E+02  0.10523340869E+03  0.41800000000E+01 0. -1.
         -5    1    4    4    0  501  0.70905314239E+02 -0.14519095435E+03 -0.16297449619E+03  0.22953460659E+03  0.41800000000E+01 0. -1.
</event>
<event>
11    1  0.8551154E-009  0.1497935E+03  0.7561462E-02  0.1097090E+00
         22   -1    0    0    0    0  0.00000000000E+00  0.00000000000E+00  0.21793557266E+04  0.21793557266E+04  0.00000000000E+00 0.  1.
         22   -1    0    0    0    0 -0.00000000000E+00 -0.00000000000E+00 -0.17556850516E+03  0.17556850516E+03  0.00000000000E+00 0. -1.
         24    2    1    2    0    0 -0.50222625221E+02 -0.68828671683E+02 -0.13802363295E+03  0.18336998757E+03  0.85523861936E+02 0.  0.
         25    2    1    2    0    0 -0.33021815974E+01  0.51524385168E+02  0.32462903261E+03  0.35171447185E+03  0.12511352536E+03 0.  0.
        -24    2    1    2    0    0  0.53524806819E+02  0.17304286514E+02  0.18171818218E+04  0.18198397724E+04  0.80639198415E+02 0.  0.
        -13    1    3    3    0    0 -0.32279385038E+02 -0.35595219315E+02 -0.89422967945E+01  0.48876814632E+02  0.00000000000E+00 0.  1.
         14    1    3    3    0    0 -0.17943240183E+02 -0.33233452367E+02 -0.12908133615E+03  0.13449317294E+03  0.00000000000E+00 0. -1.
         11    1    5    5    0    0  0.10303016008E+02  0.28086126281E+02  0.21862003526E+03  0.22065743234E+03  0.00000000000E+00 0. -1.
        -12    1    5    5    0    0  0.43221790811E+02 -0.10781839767E+02  0.15985617865E+04  0.15991823400E+04  0.00000000000E+00 0.  1.
          5    1    4    4  501    0  0.25639935344E+02  0.74619925331E+02  0.11970749451E+03  0.14343254924E+03  0.41800000000E+01 0. -1.
         -5    1    4    4    0  501 -0.28942116942E+02 -0.23095540163E+02  0.20492153810E+03  0.20828192261E+03  0.41800000000E+01 0. -1.
</event>
<event>
11    1  0.8551154E-009  0.1628118E+03  0.7561462E-02  0.1084462E+00
         22   -1    0    0    0    0  0.00000000000E+00  0.00000000000E+00  0.21707055971E+03  0.21707055971E+03  0.00000000000E+00 0.  1.
         22   -1    0    0    0    0 -0.00000000000E+00 -0.00000000000E+00 -0.10730048252E+04  0.10730048252E+04  0.00000000000E+00 0.  1.
         24    2    1    2    0    0  0.73839036117E+02 -0.77025866323E+02 -0.93554336235E+03  0.94502402966E+03  0.80273572593E+02 0.  0.
         25    2    1    2    0    0 -0.65658765112E+02  0.48017733066E+02 -0.75957159995E+02  0.16743307238E+03  0.12509023722E+03 0.  0.
        -24    2    1    2    0    0 -0.81802710046E+01  0.29008133257E+02  0.15556625690E+03  0.17761828283E+03  0.80243413934E+02 0.  0.
        -13    1    3    3    0    0  0.63440539957E+02 -0.76014921432E+02 -0.92463035850E+03  0.92991627056E+03  0.00000000000E+00 0.  1.
         14    1    3    3    0    0  0.10398496160E+02 -0.10109448907E+01 -0.10913003849E+02  0.15107759098E+02  0.00000000000E+00 0. -1.
         13    1    5    5    0    0  0.30009567919E+02 -0.81621862961E+01  0.42933468982E+02  0.53013943550E+02  0.00000000000E+00 0. -1.
        -14    1    5    5    0    0 -0.38189838923E+02  0.37170319553E+02  0.11263278792E+03  0.12460433928E+03  0.00000000000E+00 0.  1.
          5    1    4    4  501    0  0.36460181425E+02  0.24951202933E+02 -0.24776161134E+02  0.50825563625E+02  0.41800000000E+01 0. -1.
         -5    1    4    4    0  501 -0.10211894654E+03  0.23066530133E+02 -0.51180998861E+02  0.11660750876E+03  0.41800000000E+01 0. -1.
</event>
<event>
11    1  0.8551154E-009  0.1427926E+03  0.7561462E-02  0.1104479E+00
         22   -1    0    0    0    0  0.00000000000E+00  0.00000000000E+00  0.10725700735E+04  0.10725700735E+04  0.00000000000E+00 0. -1.
         22   -1    0    0    0    0 -0.00000000000E+00 -0.00000000000E+00 -0.11297785705E+04  0.11297785705E+04  0.00000000000E+00 0. -1.
         24    2    1    2    0    0 -0.69649584155E+02 -0.30651661675E+01 -0.10191309966E+04  0.10246804837E+04  0.80508667873E+02 0.  0.
         25    2    1    2    0    0  0.50554463584E+02  0.51752514177E+02 -0.56259327065E+02  0.15506871468E+03  0.12508844023E+03 0.  0.
        -24    2    1    2    0    0  0.19095120571E+02 -0.48687348009E+02  0.10181818266E+04  0.10225994457E+04  0.79248423865E+02 0.  0.
        -11    1    3    3    0    0 -0.62016620215E+02 -0.87362317433E+01 -0.35504893674E+03  0.36053034603E+03  0.00000000000E+00 0.  1.
         12    1    3    3    0    0 -0.76329639405E+01  0.56710655758E+01 -0.66408205987E+03  0.66415013766E+03  0.00000000000E+00 0. -1.
         11    1    5    5    0    0  0.19160385364E+02 -0.25376939360E+02  0.95020463823E+03  0.95073653760E+03  0.00000000000E+00 0. -1.
        -12    1    5    5    0    0 -0.65264792628E-01 -0.23310408649E+02  0.67977188417E+02  0.71862908068E+02  0.00000000000E+00 0.  1.
          5    1    4    4  501    0  0.84618428895E+02  0.43681151854E+02 -0.68901614099E+02  0.11761473701E+03  0.41800000000E+01 0. -1.
         -5    1    4    4    0  501 -0.34063965310E+02  0.80713623229E+01  0.12642287033E+02  0.37453977677E+02  0.41800000000E+01 0. -1.
</event>
<event>
11    1  0.8551154E-009  0.1487025E+03  0.7561462E-02  0.1098212E+00
         22   -1    0    0    0    0  0.00000000000E+00  0.00000000000E+00  0.14983212624E+04  0.14983212624E+04  0.00000000000E+00 0. -1.
         22   -1    0    0    0    0 -0.00000000000E+00 -0.00000000000E+00 -0.37454450257E+03  0.37454450257E+03  0.00000000000E+00 0. -1.
        -24    2    1    2    0    0 -0.17213874448E+02  0.99725998972E+01 -0.28829718590E+03  0.29982786196E+03  0.79910632510E+02 0.  0.
         25    2    1    2    0    0  0.95738749722E+02  0.52876824406E+01  0.12318842275E+01  0.15760738837E+03  0.12507878935E+03 0.  0.
         24    2    1    2    0    0 -0.78524875274E+02 -0.15260282338E+02  0.14108420615E+04  0.14154305146E+04  0.81050521142E+02 0.  0.
        -13    1    5    5    0    0  0.13320300703E+02 -0.17515336281E+02  0.27135584536E+03  0.27224660187E+03  0.00000000000E+00 0.  1.
         14    1    5    5    0    0 -0.91845175977E+02  0.22550539428E+01  0.11394862161E+04  0.11431839127E+04  0.00000000000E+00 0. -1.
         11    1    3    3    0    0 -0.41581297711E+02 -0.74873492258E+00 -0.24844491951E+03  0.25190165333E+03  0.00000000000E+00 0. -1.
        -12    1    3    3    0    0  0.24367423263E+02  0.10721334820E+02 -0.39852266397E+02  0.47926208632E+02  0.00000000000E+00 0.  1.
          5    1    4    4  501    0 -0.16624993341E+02  0.15232846542E+01  0.35959001126E+02  0.39865184832E+02  0.41800000000E+01 0. -1.
         -5    1    4    4    0  501  0.11236374306E+03  0.37643977863E+01 -0.34727116899E+02  0.11774220354E+03  0.41800000000E+01 0. -1.
</event>
<event>
11    1  0.8551154E-009  0.1363742E+03  0.7561462E-02  0.1111676E+00
         22   -1    0    0    0    0  0.00000000000E+00  0.00000000000E+00  0.90564955922E+03  0.90564955922E+03  0.00000000000E+00 0. -1.
         22   -1    0    0    0    0 -0.00000000000E+00 -0.00000000000E+00 -0.68100181440E+03  0.68100181440E+03  0.00000000000E+00 0.  1.
        -24    2    1    2    0    0  0.87086990351E+00  0.22158628098E+02 -0.61059043846E+03  0.61613170178E+03  0.79409238613E+02 0.  0.
         25    2    1    2    0    0 -0.44215661143E+02  0.11469165426E+02  0.37489149103E+01  0.13322445454E+03  0.12509250369E+03 0.  0.
         24    2    1    2    0    0  0.43344791240E+02 -0.33627793523E+02  0.83148926837E+03  0.83729521730E+03  0.81726850401E+02 0.  0.
        -13    1    5    5    0    0 -0.24200854599E+02 -0.93648723078E+01  0.17914504733E+03  0.18101472365E+03  0.00000000000E+00 0.  1.
         14    1    5    5    0    0  0.67545645839E+02 -0.24262921215E+02  0.65234422104E+03  0.65628049365E+03  0.00000000000E+00 0. -1.
         13    1    3    3    0    0 -0.16808020574E+02  0.41909091630E+02 -0.21691518784E+03  0.22156506997E+03  0.00000000000E+00 0. -1.
        -14    1    3    3    0    0  0.17678890478E+02 -0.19750463533E+02 -0.39367525063E+03  0.39456663181E+03  0.00000000000E+00 0.  1.
          5    1    4    4  501    0  0.21597879973E+02  0.47903963199E+02  0.19588571595E+02  0.56235599460E+02  0.41800000000E+01 0.  1.
         -5    1    4    4    0  501 -0.65813541116E+02 -0.36434797774E+02 -0.15839656685E+02  0.76988855082E+02  0.41800000000E+01 0.  1.
</event>
<event>
11    1  0.8551154E-009  0.2757972E+03  0.7561462E-02  0.1010989E+00
         22   -1    0    0    0    0  0.00000000000E+00  0.00000000000E+00  0.19391340132E+04  0.19391340132E+04  0.00000000000E+00 0.  1.
         22   -1    0    0    0    0 -0.00000000000E+00 -0.00000000000E+00 -0.49045392002E+03  0.49045392002E+03  0.00000000000E+00 0. -1.
        -24    2    1    2    0    0  0.19311597449E+03  0.10930528731E+03 -0.14707693956E+03  0.27826335069E+03  0.80978026330E+02 0.  0.
         25    2    1    2    0    0 -0.15746889162E+03 -0.25671493498E+03 -0.17653318096E+03  0.37082299921E+03  0.12508686219E+03 0.  0.
         24    2    1    2    0    0 -0.35647082870E+02  0.14740964767E+03  0.17722902137E+04  0.17805015833E+04  0.78568237341E+02 0.  0.
        -11    1    5    5    0    0 -0.35672673389E+01  0.13320506594E+03  0.15114342318E+04  0.15172968570E+04  0.00000000000E+00 0.  1.
         12    1    5    5    0    0 -0.32079815531E+02  0.14204581731E+02  0.26085598183E+03  0.26320472633E+03  0.00000000000E+00 0. -1.
         13    1    3    3    0    0  0.18168081615E+03  0.10454989479E+03 -0.15740668580E+03  0.26213634657E+03  0.00000000000E+00 0. -1.
        -14    1    3    3    0    0  0.11435158344E+02  0.47553925250E+01  0.10329746246E+02  0.16127004121E+02  0.00000000000E+00 0.  1.
          5    1    4    4  501    0 -0.16725851483E+03 -0.25010392749E+03 -0.13939153090E+03  0.33162457179E+03  0.41800000000E+01 0.  1.
         -5    1    4    4    0  501  0.97896232134E+01 -0.66110074935E+01 -0.37141650063E+02  0.39198427419E+02  0.41800000000E+01 0.  1.
</event>
<event>
11    1  0.8551154E-009  0.1377225E+03  0.7561462E-02  0.1110129E+00
         22   -1    0    0    0    0  0.00000000000E+00  0.00000000000E+00  0.21611526025E+04  0.21611526025E+04  0.00000000000E+00 0.  1.
         22   -1    0    0    0    0 -0.00000000000E+00 -0.00000000000E+00 -0.44373887037E+02  0.44373887037E+02  0.00000000000E+00 0. -1.
         24    2    1    2    0    0  0.15775563435E+02 -0.17522460000E+02  0.15855202008E+02  0.89208571810E+02  0.84562857375E+02 0.  0.
         25    2    1    2    0    0  0.42347213018E+02  0.32675833663E+02  0.79227210107E+03  0.80386771960E+03  0.12508889611E+03 0.  0.
        -24    2    1    2    0    0 -0.58122776454E+02 -0.15153373663E+02  0.13086514123E+04  0.13124501981E+04  0.79681375143E+02 0.  0.
        -11    1    3    3    0    0 -0.87225659677E+01 -0.58815368046E+01  0.46853005858E+02  0.48019577156E+02  0.00000000000E+00 0.  1.
         12    1    3    3    0    0  0.24498129403E+02 -0.11640923195E+02 -0.30997803850E+02  0.41188994654E+02  0.00000000000E+00 0. -1.
         13    1    5    5    0    0  0.16633339446E+02 -0.17744267002E+02  0.39062762032E+03  0.39138403743E+03  0.00000000000E+00 0. -1.
        -14    1    5    5    0    0 -0.74756115900E+02  0.25908933393E+01  0.91802379202E+03  0.92106616065E+03  0.00000000000E+00 0.  1.
          5    1    4    4  501    0 -0.14404712128E+02  0.66295432270E+02  0.33321672384E+03  0.34007857551E+03  0.41800000000E+01 0. -1.
         -5    1    4    4    0  501  0.56751925147E+02 -0.33619598608E+02  0.45905537723E+03  0.46378914410E+03  0.41800000000E+01 0. -1.
</event>
<event>
11    1  0.8551154E-009  0.2172592E+03  0.7561462E-02  0.1042948E+00
         22   -1    0    0    0    0  0.00000000000E+00  0.00000000000E+00  0.85409761367E+03  0.85409761367E+03  0.00000000000E+00 0. -1.
         22   -1    0    0    0    0 -0.00000000000E+00 -0.00000000000E+00 -0.15225425831E+03  0.15225425831E+03  0.00000000000E+00 0. -1.
         24    2    1    2    0    0  0.36438912367E+01  0.24860039090E+01 -0.42485651008E+02  0.90931379575E+02  0.80274697702E+02 0.  0.
         25    2    1    2    0    0  0.16947095955E+03  0.40380147935E+02  0.91774834000E+02  0.23328795314E+03  0.12509870682E+03 0.  0.
        -24    2    1    2    0    0 -0.17311485079E+03 -0.42866151844E+02  0.65255417236E+03  0.68213253926E+03  0.87587640178E+02 0.  0.
        -13    1    3    3    0    0  0.16019847048E+02  0.36822689133E+02 -0.35856629637E+02  0.53835339911E+02  0.00000000000E+00 0.  1.
         14    1    3    3    0    0 -0.12375955812E+02 -0.34336685224E+02 -0.66290213710E+01  0.37096039664E+02  0.00000000000E+00 0. -1.
         13    1    5    5    0    0 -0.13116286199E+03 -0.65277155022E+02  0.54838469252E+03  0.56761833508E+03  0.00000000000E+00 0. -1.
        -14    1    5    5    0    0 -0.41951988794E+02  0.22411003178E+02  0.10416947985E+03  0.11451420418E+03  0.00000000000E+00 0.  1.
          5    1    4    4  501    0  0.94049989055E+02  0.43262067507E+02  0.11443861314E+03  0.15437187407E+03  0.41800000000E+01 0.  1.
         -5    1    4    4    0  501  0.75420970497E+02 -0.28819195726E+01 -0.22663779144E+02  0.78916079073E+02  0.41800000000E+01 0.  1.
</event>
