<event>
11    1  0.8328696E-009  0.2279849E+03  0.7561462E-02  0.1036328E+00
         22   -1    0    0    0    0  0.00000000000E+00  0.00000000000E+00  0.35599189582E+03  0.35599189582E+03  0.00000000000E+00 0.  1.
         22   -1    0    0    0    0 -0.00000000000E+00 -0.00000000000E+00 -0.33127804364E+03  0.33127804364E+03  0.00000000000E+00 0. -1.
        -24    2    1    2    0    0  0.25361065583E+02 -0.28232991134E+02 -0.16852499844E+03  0.18925388323E+03  0.77305056628E+02 0.  0.
         25    2    1    2    0    0 -0.14736019935E+03  0.15818372427E+03  0.49023876133E+02  0.25453580480E+03  0.12509203219E+03 0.  0.
         24    2    1    2    0    0  0.12199913377E+03 -0.12995073314E+03  0.14421497449E+03  0.24348025143E+03  0.81937123979E+02 0.  0.
        -11    1    5    5    0    0  0.92550660057E+02 -0.13072766687E+03  0.14180135827E+03  0.21392281966E+03  0.00000000000E+00 0.  1.
         12    1    5    5    0    0  0.29448473709E+02  0.77693373456E+00  0.24136162250E+01  0.29557431774E+02  0.00000000000E+00 0. -1.
         11    1    3    3    0    0  0.34712853149E+02 -0.46310845960E+02 -0.82003157779E+02  0.10037028700E+03  0.00000000000E+00 0. -1.
        -12    1    3    3    0    0 -0.93517875665E+01  0.18077854826E+02 -0.86521840663E+02  0.88883596223E+02  0.00000000000E+00 0.  1.
          5    1    4    4  501    0 -0.86085228285E+02  0.82453648597E+02 -0.36607586891E+02  0.12476721730E+03  0.41800000000E+01 0.  1.
         -5    1    4    4    0  501 -0.61274971063E+02  0.75730075678E+02  0.85631463024E+02  0.12976858750E+03  0.41800000000E+01 0.  1.
</event>
<event>
11    1  0.8328696E-009  0.1554143E+03  0.7561462E-02  0.1091471E+00
         22   -1    0    0    0    0  0.00000000000E+00  0.00000000000E+00  0.48573628311E+03  0.48573628311E+03  0.00000000000E+00 0.  1.
         22   -1    0    0    0    0 -0.00000000000E+00 -0.00000000000E+00 -0.13764175251E+04  0.13764175251E+04  0.00000000000E+00 0. -1.
        -24    2    1    2    0    0 -0.23916905494E+02  0.87433562526E+02 -0.12758768156E+04  0.12816586877E+04  0.81059834758E+02 0.  0.
         25    2    1    2    0    0  0.73893892701E+01 -0.15717539414E+03  0.22489206248E+02  0.20226759079E+03  0.12509079218E+03 0.  0.
         24    2    1    2    0    0  0.16527516224E+02  0.69741831611E+02  0.36270636733E+03  0.37822752980E+03  0.79768875684E+02 0.  0.
        -11    1    5    5    0    0  0.67512299010E+01  0.62679753820E+00  0.21234881798E+03  0.21245703678E+03  0.00000000000E+00 0.  1.
         12    1    5    5    0    0  0.97762863233E+01  0.69115034073E+02  0.15035754935E+03  0.16577049302E+03  0.00000000000E+00 0. -1.
         11    1    3    3    0    0 -0.47586513020E+02  0.62644456879E+02 -0.10753553580E+04  0.10782290806E+04  0.00000000000E+00 0. -1.
        -12    1    3    3    0    0  0.23669607526E+02  0.24789105648E+02 -0.20052145763E+03  0.20342960712E+03  0.00000000000E+00 0.  1.
          5    1    4    4  501    0 -0.18144660063E+02  0.12247294911E+02 -0.14953152016E+02  0.26838294965E+02  0.41800000000E+01 0. -1.
         -5    1    4    4    0  501  0.25534049333E+02 -0.16942268905E+03  0.37442358264E+02  0.17542929582E+03  0.41800000000E+01 0. -1.
</event>
<event>
11    1  0.8328696E-009  0.2147567E+03  0.7561462E-02  0.1044553E+00
         22   -1    0    0    0    0  0.00000000000E+00  0.00000000000E+00  0.12687202902E+04  0.12687202902E+04  0.00000000000E+00 0.  1.
         22   -1    0    0    0    0 -0.00000000000E+00 -0.00000000000E+00 -0.70877944761E+03  0.70877944761E+03  0.00000000000E+00 0. -1.
        -24    2    1    2    0    0 -0.49058815078E+02 -0.16745819634E+03 -0.66187262120E+03  0.68920432365E+03  0.80487378995E+02 0.  0.
         25    2    1    2    0    0  0.55756932850E+02  0.16759519984E+03  0.34222993421E+03  0.40492575603E+03  0.12508618411E+03 0.  0.
         24    2    1    2    0    0 -0.66981177713E+01 -0.13700350621E+00  0.87958352955E+03  0.88336965809E+03  0.81424098610E+02 0.  0.
        -13    1    5    5    0    0 -0.99127268778E+01  0.22601928227E+02  0.80389721495E+03  0.80427597348E+03  0.00000000000E+00 0.  1.
         14    1    5    5    0    0  0.32146091065E+01 -0.22738931733E+02  0.75686314600E+02  0.79093684614E+02  0.00000000000E+00 0. -1.
         13    1    3    3    0    0 -0.26357392120E+02 -0.16057558432E+03 -0.62081018833E+03  0.64178229980E+03  0.00000000000E+00 0. -1.
        -14    1    3    3    0    0 -0.22701422958E+02 -0.68826120180E+01 -0.41062432874E+02  0.47422023850E+02  0.00000000000E+00 0.  1.
          5    1    4    4  501    0 -0.25509583154E+02 -0.38103891432E+01  0.32538830180E+02  0.41731352334E+02  0.41800000000E+01 0.  1.
         -5    1    4    4    0  501  0.81266516004E+02  0.17140558899E+03  0.30969110403E+03  0.36319440369E+03  0.41800000000E+01 0.  1.
</event>
<event>
11    1  0.8328696E-009  0.1325769E+03  0.7561462E-02  0.1116143E+00
         22   -1    0    0    0    0  0.00000000000E+00  0.00000000000E+00  0.15835110569E+04  0.15835110569E+04  0.00000000000E+00 0.  1.
         22   -1    0    0    0    0 -0.00000000000E+00 -0.00000000000E+00 -0.68749738795E+03  0.68749738795E+03  0.00000000000E+00 0.  1.
         24    2    1    2    0    0  0.35032966742E+01 -0.25940489559E+02 -0.64037949833E+03  0.64611503743E+03  0.81814165147E+02 0.  0.
         25    2    1    2    0    0 -0.35391578728E+02  0.55170731126E+02  0.73696569574E+02  0.15929578587E+03  0.12509032581E+03 0.  0.
        -24    2    1    2    0    0  0.31888282054E+02 -0.29230241567E+02  0.14626965977E+04  0.14655976215E+04  0.81386619158E+02 0.  0.
        -11    1    3    3    0    0  0.33391780954E+02  0.26638822652E+01 -0.45232485533E+03  0.45356353695E+03  0.00000000000E+00 0.  1.
         12    1    3    3    0    0 -0.29888484280E+02 -0.28604371824E+02 -0.18805464301E+03  0.19255150048E+03  0.00000000000E+00 0. -1.
         13    1    5    5    0    0 -0.14168076159E+02  0.19460602774E+02  0.49323080901E+03  0.49381786157E+03  0.00000000000E+00 0. -1.
        -14    1    5    5    0    0  0.46056358213E+02 -0.48690844340E+02  0.96946578868E+03  0.97177975997E+03  0.00000000000E+00 0.  1.
          5    1    4    4  501    0 -0.21674274309E+02 -0.27408777869E+02 -0.14103175582E+02  0.37912890059E+02  0.41800000000E+01 0.  1.
         -5    1    4    4    0  501 -0.13717304419E+02  0.82579508995E+02  0.87799745156E+02  0.12138289581E+03  0.41800000000E+01 0.  1.
</event>
<event>
11    1  0.8328696E-009  0.1494848E+03  0.7561462E-02  0.1097406E+00
         22   -1    0    0    0    0  0.00000000000E+00  0.00000000000E+00  0.17396262195E+03  0.17396262195E+03  0.00000000000E+00 0. -1.
         22   -1    0    0    0    0 -0.00000000000E+00 -0.00000000000E+00 -0.20610560402E+04  0.20610560402E+04  0.00000000000E+00 0. -1.
        -24    2    1    2    0    0  0.57483847590E+02  0.18182421301E+02 -0.16536647972E+04  0.16566960946E+04  0.79998094319E+02 0.  0.
         25    2    1    2    0    0 -0.82630384711E+02  0.59612993969E+02 -0.36868388749E+03  0.40244047049E+03  0.12509609851E+03 0.  0.
         24    2    1    2    0    0  0.25146537121E+02 -0.77795415270E+02  0.13525526644E+03  0.17588209708E+03  0.77175449511E+02 0.  0.
        -11    1    5    5    0    0  0.13291852164E+02 -0.80748910346E+02  0.64824530659E+02  0.10439961509E+03  0.00000000000E+00 0.  1.
         12    1    5    5    0    0  0.11854684957E+02  0.29534950756E+01  0.70430735784E+02  0.71482481991E+02  0.00000000000E+00 0. -1.
         13    1    3    3    0    0  0.19093388877E+02  0.47495482752E+02 -0.94693567778E+03  0.94831827792E+03  0.00000000000E+00 0. -1.
        -14    1    3    3    0    0  0.38390458714E+02 -0.29313061451E+02 -0.70672911945E+03  0.70837781669E+03  0.00000000000E+00 0.  1.
          5    1    4    4  501    0 -0.44713232512E+02  0.84592242304E+02 -0.14241903906E+03  0.17162685019E+03  0.41800000000E+01 0.  1.
         -5    1    4    4    0  501 -0.37917152199E+02 -0.24979248335E+02 -0.22626484843E+03  0.23081362029E+03  0.41800000000E+01 0.  1.
</event>
<event>
11    1  0.8328696E-009  0.1311249E+03  0.7561462E-02  0.1117895E+00
         22   -1    0    0    0    0  0.00000000000E+00  0.00000000000E+00  0.51340437278E+03  0.51340437278E+03  0.00000000000E+00 0.  1.
         22   -1    0    0    0    0 -0.00000000000E+00 -0.00000000000E+00 -0.25642135655E+04  0.25642135655E+04  0.00000000000E+00 0. -1.
         24    2    1    2    0    0  0.58840981461E+02 -0.11500042401E+02 -0.17323801772E+04  0.17345299366E+04  0.62116911413E+02 0.  0.
         25    2    1    2    0    0 -0.97886085182E+02  0.11681608848E+02 -0.81917205301E+03  0.83451088617E+03  0.12508965203E+03 0.  0.
        -24    2    1    2    0    0  0.39045103720E+02 -0.18156644670E+00  0.50074303747E+03  0.50857711548E+03  0.79890798757E+02 0.  0.
        -11    1    3    3    0    0  0.24532044203E+02 -0.13113700792E+02 -0.21893846664E+03  0.22069853311E+03  0.00000000000E+00 0.  1.
         12    1    3    3    0    0  0.34308937258E+02  0.16136583907E+01 -0.15134417105E+04  0.15138314035E+04  0.00000000000E+00 0. -1.
         11    1    5    5    0    0 -0.24779066177E+02 -0.82896926590E+00  0.15963446626E+03  0.16154829659E+03  0.00000000000E+00 0. -1.
        -12    1    5    5    0    0  0.63824169897E+02  0.64740281920E+00  0.34110857120E+03  0.34702881889E+03  0.00000000000E+00 0.  1.
          5    1    4    4  501    0 -0.91059109487E+02  0.84351989156E+00 -0.81545400699E+03  0.82053347455E+03  0.41800000000E+01 0. -1.
         -5    1    4    4    0  501 -0.68269756943E+01  0.10838088957E+02 -0.37180460252E+01  0.13977411620E+02  0.41800000000E+01 0. -1.
</event>
<event>
11    1  0.8328696E-009  0.1646553E+03  0.7561462E-02  0.1082779E+00
         22   -1    0    0    0    0  0.00000000000E+00  0.00000000000E+00  0.48252260485E+02  0.48252260485E+02  0.00000000000E+00 0.  1.
         22   -1    0    0    0    0 -0.00000000000E+00 -0.00000000000E+00 -0.18604627634E+04  0.18604627634E+04  0.00000000000E+00 0. -1.
         24    2    1    2    0    0  0.44936398041E+02  0.91451019411E+02 -0.13562811952E+04  0.13625461243E+04  0.81551771503E+02 0.  0.
         25    2    1    2    0    0 -0.38268396634E+02 -0.14677361000E+03 -0.35453959327E+03  0.40540455003E+03  0.12509022029E+03 0.  0.
        -24    2    1    2    0    0 -0.66680014066E+01  0.55322590593E+02 -0.10138971447E+03  0.14076434963E+03  0.80185264572E+02 0.  0.
        -13    1    3    3    0    0 -0.87540734310E+01  0.53215337362E+01 -0.52389444255E+03  0.52399459870E+03  0.00000000000E+00 0.  1.
         14    1    3    3    0    0  0.53690471472E+02  0.86129485675E+02 -0.83238675266E+03  0.83855152557E+03  0.00000000000E+00 0. -1.
         11    1    5    5    0    0  0.82071964090E+01 -0.18262419557E+02 -0.36059751789E+02  0.41245360225E+02  0.00000000000E+00 0. -1.
        -12    1    5    5    0    0 -0.14875197816E+02  0.73585010150E+02 -0.65329962685E+02  0.99518989410E+02  0.00000000000E+00 0.  1.
          5    1    4    4  501    0 -0.17254738687E+02 -0.11308559221E+03 -0.11392639754E+03  0.16150162113E+03  0.41800000000E+01 0. -1.
         -5    1    4    4    0  501 -0.21013657947E+02 -0.33688017794E+02 -0.24061319573E+03  0.24390292889E+03  0.41800000000E+01 0. -1.
</event>
<event>
11    1  0.8328696E-009  0.2026751E+03  0.7561462E-02  0.1052648E+00
         22   -1    0    0    0    0  0.00000000000E+00  0.00000000000E+00  0.10010344682E+04  0.10010344682E+04  0.00000000000E+00 0. -1.
         22   -1    0    0    0    0 -0.00000000000E+00 -0.00000000000E+00 -0.11163838816E+04  0.11163838816E+04  0.00000000000E+00 0. -1.
         24    2    1    2    0    0  0.45182102823E+02  0.14696849642E+03 -0.92980275544E+03  0.94608980261E+03  0.83135968367E+02 0.  0.
         25    2    1    2    0    0  0.23113224813E+02 -0.26381514125E+03 -0.46049376523E+02  0.29648018315E+03  0.12508918421E+03 0.  0.
        -24    2    1    2    0    0 -0.68295327636E+02  0.11684664483E+03  0.86050271855E+03  0.87484836395E+03  0.81100808144E+02 0.  0.
        -13    1    3    3    0    0  0.51999648041E+02  0.47937317455E+02 -0.28241921480E+03  0.29114010835E+03  0.00000000000E+00 0.  1.
         14    1    3    3    0    0 -0.68175452179E+01  0.99031178963E+02 -0.64738354064E+03  0.65494969427E+03  0.00000000000E+00 0. -1.
         11    1    5    5    0    0 -0.78064973205E+02  0.93623993513E+02  0.80113486465E+03  0.81035588698E+03  0.00000000000E+00 0. -1.
        -12    1    5    5    0    0  0.97696455691E+01  0.23222651317E+02  0.59367853907E+02  0.64492476974E+02  0.00000000000E+00 0.  1.
          5    1    4    4  501    0  0.10123907305E+02 -0.21642785939E+03 -0.85869048237E+02  0.23309757113E+03  0.41800000000E+01 0.  1.
         -5    1    4    4    0  501  0.12989317508E+02 -0.47387281856E+02  0.39819671714E+02  0.63382612020E+02  0.41800000000E+01 0.  1.
</event>
<event>
11    1  0.8328696E-009  0.1498827E+03  0.7561462E-02  0.1096999E+00
         22   -1    0    0    0    0  0.00000000000E+00  0.00000000000E+00  0.18489258969E+04  0.18489258969E+04  0.00000000000E+00 0. -1.
         22   -1    0    0    0    0 -0.00000000000E+00 -0.00000000000E+00 -0.50373712636E+02  0.50373712636E+02  0.00000000000E+00 0.  1.
        -24    2    1    2    0    0  0.81470374879E+02  0.96086493015E+01  0.42125107609E+02  0.12172014534E+03  0.79445081445E+02 0.  0.
         25    2    1    2    0    0 -0.86184983693E+02 -0.84237344390E+01  0.60976864168E+03  0.62846180972E+03  0.12509052394E+03 0.  0.
         24    2    1    2    0    0  0.47146088138E+01 -0.11849148624E+01  0.11466584350E+04  0.11491176545E+04  0.74981236204E+02 0.  0.
        -13    1    5    5    0    0  0.24274286198E+02 -0.13205528740E+02  0.17337040179E+03  0.17555888806E+03  0.00000000000E+00 0.  1.
         14    1    5    5    0    0 -0.19559677384E+02  0.12020613877E+02  0.97328803317E+03  0.97355876641E+03  0.00000000000E+00 0. -1.
         11    1    3    3    0    0  0.19766463301E+02  0.29134931512E+02  0.44759138740E+02  0.56946798034E+02  0.00000000000E+00 0. -1.
        -12    1    3    3    0    0  0.61703911578E+02 -0.19526282211E+02 -0.26340311305E+01  0.64773347304E+02  0.00000000000E+00 0.  1.
          5    1    4    4  501    0  0.32720830469E+01  0.40809631603E+02  0.93204703809E+02  0.10188582714E+03  0.41800000000E+01 0.  1.
         -5    1    4    4    0  501 -0.89457066740E+02 -0.49233366042E+02  0.51656393788E+03  0.52657598258E+03  0.41800000000E+01 0.  1.
</event>
<event>
11    1  0.8328696E-009  0.1740999E+03  0.7561462E-02  0.1074518E+00
         22   -1    0    0    0    0  0.00000000000E+00  0.00000000000E+00  0.22145848981E+04  0.22145848981E+04  0.00000000000E+00 0. -1.
         22   -1    0    0    0    0 -0.00000000000E+00 -0.00000000000E+00 -0.84223365984E+02  0.84223365984E+02  0.00000000000E+00 0.  1.
         24    2    1    2    0    0 -0.13746040968E+01 -0.11856479389E+03  0.19090643671E+02  0.14384848993E+03  0.79173451934E+02 0.  0.
         25    2    1    2    0    0  0.44366544090E+02  0.13247791932E+03  0.40328950705E+03  0.44475686458E+03  0.12508977879E+03 0.  0.
        -24    2    1    2    0    0 -0.42991939993E+02 -0.13913125427E+02  0.17079813814E+04  0.17102029096E+04  0.74509803032E+02 0.  0.
        -11    1    3    3    0    0 -0.46506947056E+01 -0.98995691721E+02 -0.18990864544E+02  0.10090802187E+03  0.00000000000E+00 0.  1.
         12    1    3    3    0    0  0.32760906089E+01 -0.19569102172E+02  0.38081508215E+02  0.42940468062E+02  0.00000000000E+00 0. -1.
         11    1    5    5    0    0 -0.31789112585E+02  0.19939608942E+02  0.13334471098E+04  0.13339750112E+04  0.00000000000E+00 0. -1.
        -12    1    5    5    0    0 -0.11202827409E+02 -0.33852734369E+02  0.37453427161E+03  0.37622789845E+03  0.00000000000E+00 0.  1.
          5    1    4    4  501    0 -0.22802030271E+02  0.44379430875E+02  0.37553105983E+02  0.62587336085E+02  0.41800000000E+01 0. -1.
         -5    1    4    4    0  501  0.67168574362E+02  0.88098488446E+02  0.36573640106E+03  0.38216952850E+03  0.41800000000E+01 0. -1.
</event>
<event>
11    1  0.8328696E-009  0.1485762E+03  0.7561462E-02  0.1098343E+00
         22   -1    0    0    0    0  0.00000000000E+00  0.00000000000E+00  0.43966764133E+03  0.43966764133E+03  0.00000000000E+00 0. -1.
         22   -1    0    0    0    0 -0.00000000000E+00 -0.00000000000E+00 -0.11179086204E+04  0.11179086204E+04  0.00000000000E+00 0. -1.
        -24    2    1    2    0    0  0.79613992612E+02  0.64483622552E+00 -0.98825584037E+03  0.99469652268E+03  0.80204504594E+02 0.  0.
         25    2    1    2    0    0 -0.88113104235E+02  0.75461596013E+01 -0.74325250870E+02  0.17028263868E+03  0.12510423836E+03 0.  0.
         24    2    1    2    0    0  0.84991116239E+01 -0.81909958269E+01  0.38434011215E+03  0.39259710039E+03  0.79220162351E+02 0.  0.
        -11    1    5    5    0    0  0.15853248966E+02 -0.23273624477E+02  0.46650794748E+02  0.54491134598E+02  0.00000000000E+00 0.  1.
         12    1    5    5    0    0 -0.73541373423E+01  0.15082628650E+02  0.33768931740E+03  0.33810596580E+03  0.00000000000E+00 0. -1.
         13    1    3    3    0    0  0.81419969854E+02  0.25561825332E+02 -0.84295129982E+03  0.84726000276E+03  0.00000000000E+00 0. -1.
        -14    1    3    3    0    0 -0.18059772428E+01 -0.24916989106E+02 -0.14530454055E+03  0.14743651992E+03  0.00000000000E+00 0.  1.
          5    1    4    4  501    0  0.11335262941E+01 -0.48887584247E+01 -0.79652491366E+02  0.79919813699E+02  0.41800000000E+01 0. -1.
         -5    1    4    4    0  501 -0.89246630529E+02  0.12434918026E+02  0.53272404964E+01  0.90362824981E+02  0.41800000000E+01 0. -1.
</event>
<event>
11    1  0.8328696E-009  0.3947002E+03  0.7561462E-02  0.9665526E-01
         22   -1    0    0    0    0  0.00000000000E+00  0.00000000000E+00  0.87198333086E+03  0.87198333086E+03  0.00000000000E+00 0. -1.
         22   -1    0    0    0    0 -0.00000000000E+00 -0.00000000000E+00 -0.12447722996E+04  0.12447722996E+04  0.00000000000E+00 0. -1.
        -24    2    1    2    0    0  0.40150376583E+02  0.55996868773E+00 -0.38743536199E+03  0.39735417899E+03  0.78560916083E+02 0.  0.
         25    2    1    2    0    0 -0.42751263424E+02 -0.37485514673E+03 -0.75861956893E+03  0.85644313112E+03  0.12508850843E+03 0.  0.
         24    2    1    2    0    0  0.26008868410E+01  0.37429517804E+03  0.77326596217E+03  0.86295832035E+03  0.81566963314E+02 0.  0.
        -13    1    5    5    0    0 -0.47882252263E+01  0.13930218408E+03  0.38019300626E+03  0.40493795525E+03  0.00000000000E+00 0.  1.
         14    1    5    5    0    0  0.73891120672E+01  0.23499299396E+03  0.39307295591E+03  0.45802036511E+03  0.00000000000E+00 0. -1.
         11    1    3    3    0    0  0.20307906185E+02  0.39163066580E+02 -0.17013806006E+03  0.17576437727E+03  0.00000000000E+00 0. -1.
        -12    1    3    3    0    0  0.19842470398E+02 -0.38603097893E+02 -0.21729730193E+03  0.22158980172E+03  0.00000000000E+00 0.  1.
          5    1    4    4  501    0 -0.75152515230E+02 -0.30454881209E+03 -0.66196163558E+03  0.73253570484E+03  0.41800000000E+01 0. -1.
         -5    1    4    4    0  501  0.32401251806E+02 -0.70306334641E+02 -0.96657933344E+02  0.12390742628E+03  0.41800000000E+01 0. -1.
</event>
<event>
11    1  0.8328696E-009  0.3344802E+03  0.7561462E-02  0.9865697E-01
         22   -1    0    0    0    0  0.00000000000E+00  0.00000000000E+00  0.13533492853E+04  0.13533492853E+04  0.00000000000E+00 0.  1.
         22   -1    0    0    0    0 -0.00000000000E+00 -0.00000000000E+00 -0.86725359174E+03  0.86725359174E+03  0.00000000000E+00 0.  1.
         24    2    1    2    0    0 -0.94636597740E+02 -0.70503931481E+01 -0.60311348804E+03  0.61584996647E+03  0.80743470713E+02 0.  0.
         25    2    1    2    0    0 -0.20335188094E+03  0.11594785536E+03 -0.16229109908E+03  0.31109737336E+03  0.12508909715E+03 0.  0.
        -24    2    1    2    0    0  0.29798847868E+03 -0.10889746221E+03  0.12515002807E+04  0.12936555372E+04  0.81461068705E+02 0.  0.
        -11    1    3    3    0    0 -0.70757709176E+02 -0.27658104771E+02 -0.24893055794E+03  0.26026533931E+03  0.00000000000E+00 0.  1.
         12    1    3    3    0    0 -0.23878888564E+02  0.20607711623E+02 -0.35418293010E+03  0.35558462716E+03  0.00000000000E+00 0. -1.
         13    1    5    5    0    0  0.88453417390E+02 -0.62466454963E+00  0.26587047032E+03  0.28019904397E+03  0.00000000000E+00 0. -1.
        -14    1    5    5    0    0  0.20953506129E+03 -0.10827279766E+03  0.98562981034E+03  0.10134564932E+04  0.00000000000E+00 0.  1.
          5    1    4    4  501    0 -0.77339439685E+02  0.96718022293E+01  0.23351328728E+01  0.78088782387E+02  0.41800000000E+01 0. -1.
         -5    1    4    4    0  501 -0.12601244126E+03  0.10627605313E+03 -0.16462623195E+03  0.23300859097E+03  0.41800000000E+01 0. -1.
</event>
<event>
11    1  0.8328696E-009  0.1757344E+03  0.7561462E-02  0.1073146E+00
         22   -1    0    0    0    0  0.00000000000E+00  0.00000000000E+00  0.14309479264E+04  0.14309479264E+04  0.00000000000E+00 0.  1.
         22   -1    0    0    0    0 -0.00000000000E+00 -0.00000000000E+00 -0.11332315194E+04  0.11332315194E+04  0.00000000000E+00 0.  1.
         24    2    1    2    0    0  0.17308774352E+02  0.59650898482E+02 -0.10374285639E+04  0.10424357924E+04  0.80972420269E+02 0.  0.
         25    2    1    2    0    0 -0.12848441446E+03 -0.50472757426E+01  0.10531440412E+01  0.17940483953E+03  0.12510502621E+03 0.  0.
        -24    2    1    2    0    0  0.11117564011E+03 -0.54603622739E+02  0.13340918268E+04  0.13423388139E+04  0.82042124658E+02 0.  0.
        -11    1    3    3    0    0  0.28119245412E+02 -0.87828407189E+01 -0.44408187809E+03  0.44505791163E+03  0.00000000000E+00 0.  1.
         12    1    3    3    0    0 -0.10810471060E+02  0.68433739201E+02 -0.59334668578E+03  0.59737788080E+03  0.00000000000E+00 0. -1.
         11    1    5    5    0    0  0.21473909193E+02 -0.54781798324E+02  0.51622963754E+03  0.51957214405E+03  0.00000000000E+00 0. -1.
        -12    1    5    5    0    0  0.89701730916E+02  0.17817558488E+00  0.81786218931E+03  0.82276666983E+03  0.00000000000E+00 0.  1.
          5    1    4    4  501    0 -0.11213406827E+03  0.22940870768E+02 -0.44895974201E+02  0.12301810321E+03  0.41800000000E+01 0. -1.
         -5    1    4    4    0  501 -0.16350346190E+02 -0.27988146511E+02  0.45949118242E+02  0.56386736321E+02  0.41800000000E+01 0. -1.
</event>
<event>
11    1  0.8328696E-009  0.2246366E+03  0.7561462E-02  0.1038351E+00
         22   -1    0    0    0    0  0.00000000000E+00  0.00000000000E+00  0.55001298333E+03  0.55001298333E+03  0.00000000000E+00 0.  1.
         22   -1    0    0    0    0 -0.00000000000E+00 -0.00000000000E+00 -0.11242972408E+04  0.11242972408E+04  0.00000000000E+00 0.  1.
         24    2    1    2    0    0 -0.10488644450E+03  0.11818884100E+02 -0.77522096287E+03  0.78651809121E+03  0.80636928705E+02 0.  0.
         25    2    1    2    0    0  0.27619952051E+03  0.45967499959E+02 -0.24984380689E+03  0.39556086449E+03  0.12508910220E+03 0.  0.
        -24    2    1    2    0    0 -0.17131307601E+03 -0.57786384059E+02  0.45078051227E+03  0.49223126846E+03  0.80006969799E+02 0.  0.
        -13    1    3    3    0    0 -0.93796309501E+02 -0.55511991456E+01 -0.73813042940E+03  0.74408675186E+03  0.00000000000E+00 0.  1.
         14    1    3    3    0    0 -0.11090134995E+02  0.17370083246E+02 -0.37090533476E+02  0.42431339358E+02  0.00000000000E+00 0. -1.
         13    1    5    5    0    0 -0.94628298235E+02 -0.46010296447E+02  0.16169854559E+03  0.19291936619E+03  0.00000000000E+00 0. -1.
        -14    1    5    5    0    0 -0.76684777777E+02 -0.11776087612E+02  0.28908196668E+03  0.29931190227E+03  0.00000000000E+00 0.  1.
          5    1    4    4  501    0  0.72618517330E+01  0.79933226928E+00  0.13841316429E+02  0.16199625401E+02  0.41800000000E+01 0.  1.
         -5    1    4    4    0  501  0.26893766878E+03  0.45168167689E+02 -0.26368512332E+03  0.37936123909E+03  0.41800000000E+01 0.  1.
</event>
<event>
11    1  0.8328696E-009  0.1302809E+03  0.7561462E-02  0.1118924E+00
         22   -1    0    0    0    0  0.00000000000E+00  0.00000000000E+00  0.21510254246E+04  0.21510254246E+04  0.00000000000E+00 0. -1.
         22   -1    0    0    0    0 -0.00000000000E+00 -0.00000000000E+00 -0.46941876395E+02  0.46941876395E+02  0.00000000000E+00 0.  1.
        -24    2    1    2    0    0  0.13836112715E+02  0.33195198464E+02  0.19071551528E+02  0.87274421573E+02  0.77199361183E+02 0.  0.
         25    2    1    2    0    0 -0.16242958692E+02  0.59769642410E+01  0.32905538964E+03  0.35245531344E+03  0.12509092977E+03 0.  0.
         24    2    1    2    0    0  0.24068459768E+01 -0.39172162705E+02  0.17559566070E+04  0.17582375660E+04  0.80470375934E+02 0.  0.
        -13    1    5    5    0    0  0.35898697462E+02 -0.16840514886E+02  0.47620907355E+03  0.47785709282E+03  0.00000000000E+00 0.  1.
         14    1    5    5    0    0 -0.33491851485E+02 -0.22331647819E+02  0.12797475335E+04  0.12803804732E+04  0.00000000000E+00 0. -1.
         11    1    3    3    0    0 -0.25383459980E+02  0.36513934911E+02  0.17782203356E+02  0.47893572005E+02  0.00000000000E+00 0. -1.
        -12    1    3    3    0    0  0.39219572695E+02 -0.33187364469E+01  0.12893481722E+01  0.39380849568E+02  0.00000000000E+00 0.  1.
          5    1    4    4  501    0 -0.30315172593E+01 -0.30747934384E+02  0.30463565604E+03  0.30622700877E+03  0.41800000000E+01 0.  1.
         -5    1    4    4    0  501 -0.13211441433E+02  0.36724898625E+02  0.24419733598E+02  0.46228304671E+02  0.41800000000E+01 0.  1.
</event>
<event>
11    1  0.8328696E-009  0.1454245E+03  0.7561462E-02  0.1101648E+00
         22   -1    0    0    0    0  0.00000000000E+00  0.00000000000E+00  0.46980338779E+03  0.46980338779E+03  0.00000000000E+00 0.  1.
         22   -1    0    0    0    0 -0.00000000000E+00 -0.00000000000E+00 -0.23116959940E+03  0.23116959940E+03  0.00000000000E+00 0.  1.
         24    2    1    2    0    0 -0.59681943892E+02  0.39971461091E+02 -0.17365410071E+03  0.20459437255E+03  0.80891646394E+02 0.  0.
         25    2    1    2    0    0  0.91904730311E+02 -0.47047873432E+02  0.15328087833E+03  0.22316428552E+03  0.12508912351E+03 0.  0.
        -24    2    1    2    0    0 -0.32222786419E+02  0.70764123403E+01  0.25900701076E+03  0.27321432913E+03  0.80455294658E+02 0.  0.
        -11    1    3    3    0    0 -0.78776486302E+02  0.22871210724E+02 -0.14041613600E+03  0.16262078073E+03  0.00000000000E+00 0.  1.
         12    1    3    3    0    0  0.19094542411E+02  0.17100250367E+02 -0.33237964705E+02  0.41973591819E+02  0.00000000000E+00 0. -1.
         11    1    5    5    0    0 -0.22511079550E+02 -0.26553941097E+02  0.47837551857E+02  0.59163264430E+02  0.00000000000E+00 0. -1.
        -12    1    5    5    0    0 -0.97117068695E+01  0.33630353437E+02  0.21116945891E+03  0.21405106470E+03  0.00000000000E+00 0.  1.
          5    1    4    4  501    0  0.38205876946E+02  0.25673836037E+02  0.11676287031E+03  0.12557816360E+03  0.41800000000E+01 0. -1.
         -5    1    4    4    0  501  0.53698853365E+02 -0.72721709468E+02  0.36518008012E+02  0.97586121912E+02  0.41800000000E+01 0. -1.
</event>
<event>
11    1  0.1062511E-008  0.2168837E+03  0.7561462E-02  0.1043187E+00
         22   -1    0    0    0    0  0.00000000000E+00  0.00000000000E+00  0.18093973315E+04  0.18093973315E+04  0.00000000000E+00 0. -1.
         22   -1    0    0    0    0 -0.00000000000E+00 -0.00000000000E+00 -0.85689490332E+03  0.85689490332E+03  0.00000000000E+00 0.  1.
        -24    2    1    2    0    0  0.86411330370E+02  0.58471275897E+02 -0.52068968600E+03  0.53690740956E+03  0.79158127894E+02 0.  0.
         25    2    1    2    0    0 -0.21318139635E+03 -0.17982015178E+03 -0.25031060827E+03  0.39507172083E+03  0.12507865227E+03 0.  0.
         24    2    1    2    0    0  0.12677006598E+03  0.12134887588E+03  0.17235027224E+04  0.17343131044E+04  0.81142532332E+02 0.  0.
        -11    1    5    5    0    0  0.55866573579E+02  0.28986069705E+02  0.32959690540E+03  0.33555236004E+03  0.00000000000E+00 0.  1.
         12    1    5    5    0    0  0.70903492406E+02  0.92362806173E+02  0.13939058170E+04  0.13987607443E+04  0.00000000000E+00 0. -1.
         11    1    3    3    0    0  0.14115633425E+01 -0.10108042899E+02 -0.87379063768E+01  0.13435626155E+02  0.00000000000E+00 0. -1.
        -12    1    3    3    0    0  0.84999767028E+02  0.68579318797E+02 -0.51195177963E+03  0.52347178341E+03  0.00000000000E+00 0.  1.
          5    1    4    4  501    0 -0.22253782842E+02 -0.89815990649E+02 -0.56609827906E+02  0.10855546068E+03  0.41800000000E+01 0.  1.
         -5    1    4    4    0  501 -0.19092761351E+03 -0.90004161126E+02 -0.19370078036E+03  0.28651626016E+03  0.41800000000E+01 0.  1.
</event>
<event>
11    1  0.8328696E-009  0.1427573E+03  0.7561462E-02  0.1104518E+00
         22   -1    0    0    0    0  0.00000000000E+00  0.00000000000E+00  0.65670600528E+03  0.65670600528E+03  0.00000000000E+00 0. -1.
         22   -1    0    0    0    0 -0.00000000000E+00 -0.00000000000E+00 -0.88541393280E+03  0.88541393280E+03  0.00000000000E+00 0.  1.
         24    2    1    2    0    0 -0.48173959422E+02 -0.45681718410E+02 -0.78141687537E+03  0.78839719903E+03  0.80933679981E+02 0.  0.
         25    2    1    2    0    0  0.93099327662E+02  0.84214224248E+02 -0.13936853203E+02  0.17776178384E+03  0.12508195530E+03 0.  0.
        -24    2    1    2    0    0 -0.44925368240E+02 -0.38532505838E+02  0.56664580105E+03  0.57596095520E+03  0.84501570109E+02 0.  0.
        -13    1    3    3    0    0 -0.31706676155E+02  0.96622223108E+01 -0.50109891105E+03  0.50219397697E+03  0.00000000000E+00 0.  1.
         14    1    3    3    0    0 -0.16467283266E+02 -0.55343940721E+02 -0.28031796433E+03  0.28620322206E+03  0.00000000000E+00 0. -1.
         11    1    5    5    0    0  0.29286221478E+01 -0.12309092788E+02  0.40793751448E+03  0.40813368682E+03  0.00000000000E+00 0. -1.
        -12    1    5    5    0    0 -0.47853990388E+02 -0.26223413050E+02  0.15870828657E+03  0.16782726839E+03  0.00000000000E+00 0.  1.
          5    1    4    4  501    0 -0.30582492658E+02  0.12651352339E+02 -0.97168429381E+01  0.34745287593E+02  0.41800000000E+01 0.  1.
         -5    1    4    4    0  501  0.12368182032E+03  0.71562871909E+02 -0.42200102651E+01  0.14301649625E+03  0.41800000000E+01 0.  1.
</event>
<event>
11    1  0.8328696E-009  0.3035004E+03  0.7561462E-02  0.9987206E-01
         22   -1    0    0    0    0  0.00000000000E+00  0.00000000000E+00  0.30104821987E+03  0.30104821987E+03  0.00000000000E+00 0. -1.
         22   -1    0    0    0    0 -0.00000000000E+00 -0.00000000000E+00 -0.53481366512E+03  0.53481366512E+03  0.00000000000E+00 0. -1.
         24    2    1    2    0    0  0.17956394873E+03 -0.23272980641E+03 -0.18818366287E+03  0.36458820253E+03  0.10538070019E+03 0.  0.
         25    2    1    2    0    0 -0.77640248889E+02  0.25510167479E+03 -0.12226458743E+03  0.31891896902E+03  0.12512316626E+03 0.  0.
        -24    2    1    2    0    0 -0.10192369984E+03 -0.22371868375E+02  0.76682805056E+02  0.15235471345E+03  0.80266836457E+02 0.  0.
        -13    1    3    3    0    0  0.24540052592E+02 -0.28269961284E+02  0.11824440071E+02  0.39258403880E+02  0.00000000000E+00 0.  1.
         14    1    3    3    0    0  0.15502389614E+03 -0.20445984513E+03 -0.20000810294E+03  0.32532979865E+03  0.00000000000E+00 0. -1.
         11    1    5    5    0    0 -0.18594488795E+02 -0.28896820307E+02 -0.58878128018E+01  0.34863269740E+02  0.00000000000E+00 0. -1.
        -12    1    5    5    0    0 -0.83329211047E+02  0.65249519318E+01  0.82570617858E+02  0.11749144371E+03  0.00000000000E+00 0.  1.
          5    1    4    4  501    0  0.61800495531E+01 -0.62046213709E+01  0.10279971201E+02  0.14136496975E+02  0.41800000000E+01 0.  1.
         -5    1    4    4    0  501 -0.83820298442E+02  0.26130629616E+03 -0.13254455863E+03  0.30478247204E+03  0.41800000000E+01 0.  1.
</event>
<event>
11    1  0.8328696E-009  0.1382476E+03  0.7561462E-02  0.1109531E+00
         22   -1    0    0    0    0  0.00000000000E+00  0.00000000000E+00  0.43384818482E+03  0.43384818482E+03  0.00000000000E+00 0.  1.
         22   -1    0    0    0    0 -0.00000000000E+00 -0.00000000000E+00 -0.75006107073E+03  0.75006107073E+03  0.00000000000E+00 0. -1.
        -24    2    1    2    0    0 -0.87950938307E+00 -0.58491612085E+02 -0.66619935868E+03  0.67493484258E+03  0.91068183287E+02 0.  0.
         25    2    1    2    0    0  0.34599077243E+01  0.64781448189E+02 -0.83422221126E+01  0.14114780004E+03  0.12507798285E+03 0.  0.
         24    2    1    2    0    0 -0.25803983412E+01 -0.62898361042E+01  0.35832869488E+03  0.36782661294E+03  0.82769216002E+02 0.  0.
        -11    1    5    5    0    0 -0.21917137583E+01 -0.36546322817E+01  0.36269062707E+03  0.36271566124E+03  0.00000000000E+00 0.  1.
         12    1    5    5    0    0 -0.38868458294E+00 -0.26352038225E+01 -0.43619321855E+01  0.51109517002E+01  0.00000000000E+00 0. -1.
         11    1    3    3    0    0 -0.17899856192E+01  0.15666925524E+02 -0.34189166113E+03  0.34225511619E+03  0.00000000000E+00 0. -1.
        -12    1    3    3    0    0  0.91047623615E+00 -0.74158537609E+02 -0.32430769754E+03  0.33267972639E+03  0.00000000000E+00 0.  1.
          5    1    4    4  501    0  0.43223927079E+02  0.71691639731E+02  0.26245126447E+02  0.87830963456E+02  0.41800000000E+01 0. -1.
         -5    1    4    4    0  501 -0.39764019355E+02 -0.69101915415E+01 -0.34587348560E+02  0.53316836579E+02  0.41800000000E+01 0. -1.
</event>
<event>
11    1  0.8328696E-009  0.1507398E+03  0.7561462E-02  0.1096125E+00
         22   -1    0    0    0    0  0.00000000000E+00  0.00000000000E+00  0.12531832066E+04  0.12531832066E+04  0.00000000000E+00 0. -1.
         22   -1    0    0    0    0 -0.00000000000E+00 -0.00000000000E+00 -0.43876017260E+02  0.43876017260E+02  0.00000000000E+00 0.  1.
         24    2    1    2    0    0 -0.52367541951E+01 -0.34769441472E+02  0.16113211360E+03  0.18896966182E+03  0.92247695916E+02 0.  0.
         25    2    1    2    0    0  0.82571508656E+02  0.61698812155E+02  0.22598340680E+03  0.27810043769E+03  0.12508619361E+03 0.  0.
        -24    2    1    2    0    0 -0.77334754461E+02 -0.26929370683E+02  0.82219166898E+03  0.82998912438E+03  0.78593579904E+02 0.  0.
        -11    1    3    3    0    0 -0.38292658871E+02 -0.37504360915E+02  0.51129549026E+02  0.74075202292E+02  0.00000000000E+00 0.  1.
         12    1    3    3    0    0  0.33055904676E+02  0.27349194424E+01  0.11000256457E+03  0.11489445953E+03  0.00000000000E+00 0. -1.
         11    1    5    5    0    0 -0.84523549113E+02 -0.71967714139E+01  0.50263030476E+03  0.50973841050E+03  0.00000000000E+00 0. -1.
        -12    1    5    5    0    0  0.71887946515E+01 -0.19732599269E+02  0.31956136422E+03  0.32025071389E+03  0.00000000000E+00 0.  1.
          5    1    4    4  501    0  0.34200861835E+02 -0.22359747236E+02  0.14796900927E+03  0.15356417991E+03  0.41800000000E+01 0. -1.
         -5    1    4    4    0  501  0.48370646821E+02  0.84058559391E+02  0.78014397531E+02  0.12453625778E+03  0.41800000000E+01 0. -1.
</event>
<event>
11    1  0.8328696E-009  0.1451713E+03  0.7561462E-02  0.1101917E+00
         22   -1    0    0    0    0  0.00000000000E+00  0.00000000000E+00  0.47391273102E+03  0.47391273102E+03  0.00000000000E+00 0. -1.
         22   -1    0    0    0    0 -0.00000000000E+00 -0.00000000000E+00 -0.48563344065E+03  0.48563344065E+03  0.00000000000E+00 0.  1.
         24    2    1    2    0    0 -0.61403903622E+02 -0.46598672072E+01 -0.44171086535E+03  0.45307312778E+03  0.79841197455E+02 0.  0.
         25    2    1    2    0    0  0.19246114213E+01  0.65985414327E+02  0.17448807959E+03  0.22461087211E+03  0.12508467101E+03 0.  0.
        -24    2    1    2    0    0  0.59479292200E+02 -0.61325547120E+02  0.25550207613E+03  0.28186217176E+03  0.82863526570E+02 0.  0.
        -11    1    3    3    0    0 -0.74774001043E+02  0.23586133563E+01 -0.42010111256E+03  0.42671027532E+03  0.00000000000E+00 0.  1.
         12    1    3    3    0    0  0.13370097422E+02 -0.70184805635E+01 -0.21609752786E+02  0.26362852462E+02  0.00000000000E+00 0. -1.
         11    1    5    5    0    0  0.71981604824E+02 -0.29075625439E+02  0.21507927692E+03  0.22866096910E+03  0.00000000000E+00 0. -1.
        -12    1    5    5    0    0 -0.12502312624E+02 -0.32249921681E+02  0.40422799204E+02  0.53201202663E+02  0.00000000000E+00 0.  1.
          5    1    4    4  501    0 -0.55411498029E+01  0.82642842868E+02  0.46141816125E+02  0.94905655331E+02  0.41800000000E+01 0.  1.
         -5    1    4    4    0  501  0.74657612242E+01 -0.16657428541E+02  0.12834626346E+03  0.12970521678E+03  0.41800000000E+01 0.  1.
</event>
<event>
11    1  0.8328696E-009  0.1638051E+03  0.7561462E-02  0.1083552E+00
         22   -1    0    0    0    0  0.00000000000E+00  0.00000000000E+00  0.58733026747E+03  0.58733026747E+03  0.00000000000E+00 0. -1.
         22   -1    0    0    0    0 -0.00000000000E+00 -0.00000000000E+00 -0.11978812322E+03  0.11978812322E+03  0.00000000000E+00 0. -1.
        -24    2    1    2    0    0  0.37791485204E+02  0.52456245907E+02 -0.91912714502E+01  0.10313950010E+03  0.79833720449E+02 0.  0.
         25    2    1    2    0    0 -0.82767449478E+02 -0.13563221944E+03  0.14214438313E+03  0.24718223332E+03  0.12508989234E+03 0.  0.
         24    2    1    2    0    0  0.44975964274E+02  0.83175973535E+02  0.33458903257E+03  0.35679665728E+03  0.80080921527E+02 0.  0.
        -11    1    5    5    0    0 -0.64393921089E+01  0.64321195231E+02  0.22766332347E+03  0.23666277861E+03  0.00000000000E+00 0.  1.
         12    1    5    5    0    0  0.51415356383E+02  0.18854778304E+02  0.10692570910E+03  0.12013387867E+03  0.00000000000E+00 0. -1.
         13    1    3    3    0    0 -0.23686214801E+01  0.48379270053E+02 -0.30753098288E+02  0.57375231529E+02  0.00000000000E+00 0. -1.
        -14    1    3    3    0    0  0.40160106685E+02  0.40769758538E+01  0.21561826838E+02  0.45764268569E+02  0.00000000000E+00 0.  1.
          5    1    4    4  501    0 -0.13998579943E+02 -0.47015357111E+02  0.12407944242E+03  0.13349001639E+03  0.41800000000E+01 0. -1.
         -5    1    4    4    0  501 -0.68768869535E+02 -0.88616862331E+02  0.18064940716E+02  0.11369221693E+03  0.41800000000E+01 0. -1.
</event>
<event>
11    1  0.8328696E-009  0.1469894E+03  0.7561462E-02  0.1099995E+00
         22   -1    0    0    0    0  0.00000000000E+00  0.00000000000E+00  0.73810802074E+03  0.73810802074E+03  0.00000000000E+00 0. -1.
         22   -1    0    0    0    0 -0.00000000000E+00 -0.00000000000E+00 -0.19520760630E+03  0.19520760630E+03  0.00000000000E+00 0.  1.
         24    2    1    2    0    0  0.25413008101E+00  0.35562529672E+02 -0.96215097216E+02  0.12940975412E+03  0.78897284046E+02 0.  0.
         25    2    1    2    0    0 -0.76748175737E+02 -0.23221638886E+02 -0.63692130512E+01  0.14871900046E+03  0.12508895727E+03 0.  0.
        -24    2    1    2    0    0  0.76494045656E+02 -0.12340890786E+02  0.64548472471E+03  0.65518687246E+03  0.81336777674E+02 0.  0.
        -13    1    3    3    0    0  0.23802950396E+02  0.31521615905E+02 -0.11135561964E+02  0.41038926120E+02  0.00000000000E+00 0.  1.
         14    1    3    3    0    0 -0.23548820315E+02  0.40409137669E+01 -0.85079535252E+02  0.88370827998E+02  0.00000000000E+00 0. -1.
         11    1    5    5    0    0  0.14703852061E+02 -0.21820947894E+02  0.43035179705E+03  0.43115545486E+03  0.00000000000E+00 0. -1.
        -12    1    5    5    0    0  0.61790193596E+02  0.94800571083E+01  0.21513292766E+03  0.22403141760E+03  0.00000000000E+00 0.  1.
          5    1    4    4  501    0 -0.10267515206E+03  0.71815922561E+01  0.13512928780E+02  0.10389337689E+03  0.41800000000E+01 0.  1.
         -5    1    4    4    0  501  0.25926976319E+02 -0.30403231142E+02 -0.19882141831E+02  0.44825623573E+02  0.41800000000E+01 0.  1.
</event>
<event>
11    1  0.8328696E-009  0.1435985E+03  0.7561462E-02  0.1103605E+00
         22   -1    0    0    0    0  0.00000000000E+00  0.00000000000E+00  0.42023194973E+03  0.42023194973E+03  0.00000000000E+00 0.  1.
         22   -1    0    0    0    0 -0.00000000000E+00 -0.00000000000E+00 -0.25392900667E+03  0.25392900667E+03  0.00000000000E+00 0.  1.
         24    2    1    2    0    0  0.56545050192E+02  0.40935278216E+02 -0.20702943312E+03  0.23421965089E+03  0.84407458076E+02 0.  0.
         25    2    1    2    0    0 -0.75329876260E+02 -0.35544932110E+02  0.22507230356E+03  0.27065569279E+03  0.12513564543E+03 0.  0.
        -24    2    1    2    0    0  0.18784826068E+02 -0.53903461059E+01  0.14826007262E+03  0.16928561272E+03  0.79338792650E+02 0.  0.
        -13    1    3    3    0    0  0.38073434216E+02 -0.11063313310E+02 -0.14882108642E+03  0.15401200946E+03  0.00000000000E+00 0.  1.
         14    1    3    3    0    0  0.18471615976E+02  0.51998591526E+02 -0.58208346699E+02  0.80207641425E+02  0.00000000000E+00 0. -1.
         13    1    5    5    0    0 -0.16923186562E+02 -0.23155087729E+01  0.33864840072E+00  0.17084218069E+02  0.00000000000E+00 0. -1.
        -14    1    5    5    0    0  0.35708012630E+02 -0.30748373330E+01  0.14792142422E+03  0.15220139465E+03  0.00000000000E+00 0.  1.
          5    1    4    4  501    0 -0.70340464822E+02 -0.44601071582E+02  0.23881517853E+03  0.25295691031E+03  0.41800000000E+01 0. -1.
         -5    1    4    4    0  501 -0.49894114380E+01  0.90561394717E+01 -0.13742874977E+02  0.17698782480E+02  0.41800000000E+01 0. -1.
</event>
<event>
11    1  0.8328696E-009  0.1363589E+03  0.7561462E-02  0.1111694E+00
         22   -1    0    0    0    0  0.00000000000E+00  0.00000000000E+00  0.66704077601E+03  0.66704077601E+03  0.00000000000E+00 0. -1.
         22   -1    0    0    0    0 -0.00000000000E+00 -0.00000000000E+00 -0.89541104459E+03  0.89541104459E+03  0.00000000000E+00 0. -1.
         24    2    1    2    0    0 -0.29983958768E+01  0.45799296236E+02 -0.50252215747E+03  0.51135969654E+03  0.82786802004E+02 0.  0.
         25    2    1    2    0    0  0.46718713498E+02 -0.13138502864E+02 -0.37305445628E+03  0.39644216749E+03  0.12506600804E+03 0.  0.
        -24    2    1    2    0    0 -0.43720317621E+02 -0.32660793372E+02  0.64720634517E+03  0.65464995657E+03  0.81928742301E+02 0.  0.
        -13    1    3    3    0    0 -0.19263984662E+01 -0.17968631338E+02 -0.33885664750E+02  0.38403398271E+02  0.00000000000E+00 0.  1.
         14    1    3    3    0    0 -0.10719974107E+01  0.63767927574E+02 -0.46863649272E+03  0.47295629827E+03  0.00000000000E+00 0. -1.
         11    1    5    5    0    0 -0.27515920951E+02 -0.20958996630E+02  0.61961391893E+03  0.62057861224E+03  0.00000000000E+00 0. -1.
        -12    1    5    5    0    0 -0.16204396670E+02 -0.11701796742E+02  0.27592426244E+02  0.34071344330E+02  0.00000000000E+00 0.  1.
          5    1    4    4  501    0  0.61240778382E+02  0.36401871156E+02 -0.13376602621E+03  0.15161250387E+03  0.41800000000E+01 0.  1.
         -5    1    4    4    0  501 -0.14522064884E+02 -0.49540374020E+02 -0.23928843007E+03  0.24482966363E+03  0.41800000000E+01 0.  1.
</event>
<event>
11    1  0.8328696E-009  0.1478784E+03  0.7561462E-02  0.1099067E+00
         22   -1    0    0    0    0  0.00000000000E+00  0.00000000000E+00  0.24685926332E+03  0.24685926332E+03  0.00000000000E+00 0.  1.
         22   -1    0    0    0    0 -0.00000000000E+00 -0.00000000000E+00 -0.56433776751E+03  0.56433776751E+03  0.00000000000E+00 0.  1.
         24    2    1    2    0    0  0.90421409514E+01 -0.75570213960E+02 -0.45003144201E+03  0.46357903867E+03  0.81145602130E+02 0.  0.
         25    2    1    2    0    0 -0.33831335310E+02  0.10396546265E+03 -0.27879975124E+02  0.16845902945E+03  0.12509106650E+03 0.  0.
        -24    2    1    2    0    0  0.24789194358E+02 -0.28395248685E+02  0.16043291295E+03  0.17915896271E+03  0.70273893128E+02 0.  0.
        -11    1    3    3    0    0 -0.59687403571E+01 -0.65186882360E+02 -0.43510271791E+03  0.43999923935E+03  0.00000000000E+00 0.  1.
         12    1    3    3    0    0  0.15010881309E+02 -0.10383331600E+02 -0.14928724097E+02  0.23579799319E+02  0.00000000000E+00 0. -1.
         13    1    5    5    0    0  0.23349335960E+01 -0.38337209102E+02  0.37083733680E+02  0.53389107693E+02  0.00000000000E+00 0. -1.
        -14    1    5    5    0    0  0.22454260762E+02  0.99419604164E+01  0.12334917927E+03  0.12576985502E+03  0.00000000000E+00 0.  1.
          5    1    4    4  501    0 -0.27801146116E+01  0.85137120913E+02 -0.71681972137E+02  0.11140841945E+03  0.41800000000E+01 0. -1.
         -5    1    4    4    0  501 -0.31051220698E+02  0.18828341732E+02  0.43801997013E+02  0.57050610002E+02  0.41800000000E+01 0. -1.
</event>
<event>
11    1  0.8328696E-009  0.3108298E+03  0.7561462E-02  0.9957092E-01
         22   -1    0    0    0    0  0.00000000000E+00  0.00000000000E+00  0.20049721343E+04  0.20049721343E+04  0.00000000000E+00 0. -1.
         22   -1    0    0    0    0 -0.00000000000E+00 -0.00000000000E+00 -0.55463763643E+03  0.55463763643E+03  0.00000000000E+00 0.  1.
         24    2    1    2    0    0  0.22467558112E+03 -0.17491297417E+03 -0.48038055448E+03  0.56430336130E+03  0.81235098105E+02 0.  0.
         25    2    1    2    0    0 -0.22905872313E+03  0.16340695949E+03  0.73683696867E+03  0.79859003600E+03  0.12509034398E+03 0.  0.
        -24    2    1    2    0    0  0.43831420157E+01  0.11506014689E+02  0.11938780837E+04  0.11967163734E+04  0.81446911692E+02 0.  0.
        -13    1    3    3    0    0  0.84041823832E+02 -0.27836157533E+02 -0.19118592156E+03  0.21068919389E+03  0.00000000000E+00 0.  1.
         14    1    3    3    0    0  0.14063375729E+03 -0.14707681664E+03 -0.28919463292E+03  0.35361416741E+03  0.00000000000E+00 0. -1.
         11    1    5    5    0    0  0.83639677751E+01  0.46436596199E+02  0.70051416551E+03  0.70210142395E+03  0.00000000000E+00 0. -1.
        -12    1    5    5    0    0 -0.39808257594E+01 -0.34930581511E+02  0.49336391816E+03  0.49461494947E+03  0.00000000000E+00 0.  1.
          5    1    4    4  501    0 -0.14360322856E+03  0.92947876946E+02  0.59186612710E+03  0.61610403333E+03  0.41800000000E+01 0. -1.
         -5    1    4    4    0  501 -0.85455494580E+02  0.70459082540E+02  0.14497084157E+03  0.18248600267E+03  0.41800000000E+01 0. -1.
</event>
<event>
11    1  0.8328696E-009  0.2231730E+03  0.7561462E-02  0.1039248E+00
         22   -1    0    0    0    0  0.00000000000E+00  0.00000000000E+00  0.19314901361E+03  0.19314901361E+03  0.00000000000E+00 0. -1.
         22   -1    0    0    0    0 -0.00000000000E+00 -0.00000000000E+00 -0.21513869108E+04  0.21513869108E+04  0.00000000000E+00 0. -1.
         24    2    1    2    0    0  0.18096552006E+03  0.65425239581E+02 -0.18048540264E+04  0.18169529035E+04  0.82406403900E+02 0.  0.
         25    2    1    2    0    0 -0.16293545079E+03  0.89238886700E+02 -0.23948943961E+03  0.32789391542E+03  0.12509071930E+03 0.  0.
        -24    2    1    2    0    0 -0.18030069276E+02 -0.15466412628E+03  0.86105568832E+02  0.19968910552E+03  0.90639365187E+02 0.  0.
        -11    1    3    3    0    0  0.10789875066E+03  0.59556531424E+02 -0.80097061648E+03  0.81039684679E+03  0.00000000000E+00 0.  1.
         12    1    3    3    0    0  0.73066769409E+02  0.58687081560E+01 -0.10038834100E+04  0.10065560567E+04  0.00000000000E+00 0. -1.
         13    1    5    5    0    0 -0.15887515549E+02 -0.15063894022E+03  0.10235352363E+03  0.18281342199E+03  0.00000000000E+00 0. -1.
        -14    1    5    5    0    0 -0.21425537265E+01 -0.40251860632E+01 -0.16247954799E+02  0.16875683525E+02  0.00000000000E+00 0.  1.
          5    1    4    4  501    0 -0.11543443262E+02 -0.24932635072E+02 -0.85973480188E+01  0.29090791790E+02  0.41800000000E+01 0. -1.
         -5    1    4    4    0  501 -0.15139200753E+03  0.11417152177E+03 -0.23089209160E+03  0.29880312363E+03  0.41800000000E+01 0. -1.
</event>
<event>
11    1  0.8328696E-009  0.1452374E+03  0.7561462E-02  0.1101847E+00
         22   -1    0    0    0    0  0.00000000000E+00  0.00000000000E+00  0.14087773984E+03  0.14087773984E+03  0.00000000000E+00 0.  1.
         22   -1    0    0    0    0 -0.00000000000E+00 -0.00000000000E+00 -0.74221782903E+03  0.74221782903E+03  0.00000000000E+00 0.  1.
        -24    2    1    2    0    0  0.33128951273E+02 -0.64293533781E+02 -0.59016590142E+03  0.59987444745E+03  0.79513367489E+02 0.  0.
         25    2    1    2    0    0 -0.90583916173E+02  0.54249562669E+02 -0.57922474361E+02  0.17364075759E+03  0.12509052219E+03 0.  0.
         24    2    1    2    0    0  0.57454964900E+02  0.10043971111E+02  0.46748286593E+02  0.10958036382E+03  0.80128019373E+02 0.  0.
        -13    1    5    5    0    0 -0.11287243542E+02 -0.14470284042E+02  0.29248440798E+02  0.34529151107E+02  0.00000000000E+00 0.  1.
         14    1    5    5    0    0  0.68742208442E+02  0.24514255153E+02  0.17499845795E+02  0.75051212716E+02  0.00000000000E+00 0. -1.
         11    1    3    3    0    0 -0.18250424892E+02 -0.33232595538E+02 -0.11887646212E+03  0.12477618628E+03  0.00000000000E+00 0. -1.
        -12    1    3    3    0    0  0.51379376165E+02 -0.31060938243E+02 -0.47128943930E+03  0.47509826118E+03  0.00000000000E+00 0.  1.
          5    1    4    4  501    0 -0.20281868765E+02 -0.23262461095E+02 -0.61408484760E+02  0.68854707155E+02  0.41800000000E+01 0.  1.
         -5    1    4    4    0  501 -0.70302047408E+02  0.77512023764E+02  0.34860103991E+01  0.10478605044E+03  0.41800000000E+01 0.  1.
</event>
<event>
11    1  0.8328696E-009  0.1391969E+03  0.7561462E-02  0.1108459E+00
         22   -1    0    0    0    0  0.00000000000E+00  0.00000000000E+00  0.77646999946E+02  0.77646999946E+02  0.00000000000E+00 0. -1.
         22   -1    0    0    0    0 -0.00000000000E+00 -0.00000000000E+00 -0.39705094578E+04  0.39705094578E+04  0.00000000000E+00 0.  1.
        -24    2    1    2    0    0  0.22970686504E+01  0.19877182024E+02 -0.35047796537E+04  0.35057471503E+04  0.79889189044E+02 0.  0.
         25    2    1    2    0    0 -0.17149522749E+02 -0.77384978790E+02 -0.41314644854E+03  0.43888401909E+03  0.12508658279E+03 0.  0.
         24    2    1    2    0    0  0.14852454098E+02  0.57507796766E+02  0.25063644295E+02  0.10352528837E+03  0.81003438107E+02 0.  0.
        -13    1    5    5    0    0  0.35877475192E+02  0.67956965576E+02  0.21332556403E+02  0.79752243599E+02  0.00000000000E+00 0.  1.
         14    1    5    5    0    0 -0.21025021093E+02 -0.10449168811E+02  0.37310878921E+01  0.23773044770E+02  0.00000000000E+00 0. -1.
         11    1    3    3    0    0  0.14174780868E+02 -0.18769280356E+02 -0.39202987573E+03  0.39273481354E+03  0.00000000000E+00 0. -1.
        -12    1    3    3    0    0 -0.11877712218E+02  0.38646462380E+02 -0.31127497779E+04  0.31130123368E+04  0.00000000000E+00 0.  1.
          5    1    4    4  501    0  0.19086850414E+02 -0.10201714070E+03 -0.27955732264E+03  0.29823073936E+03  0.41800000000E+01 0. -1.
         -5    1    4    4    0  501 -0.36236373163E+02  0.24632161908E+02 -0.13358912590E+03  0.14065327973E+03  0.41800000000E+01 0. -1.
</event>
<event>
11    1  0.8328696E-009  0.3486147E+03  0.7561462E-02  0.9814863E-01
         22   -1    0    0    0    0  0.00000000000E+00  0.00000000000E+00  0.30173778834E+04  0.30173778834E+04  0.00000000000E+00 0.  1.
         22   -1    0    0    0    0 -0.00000000000E+00 -0.00000000000E+00 -0.24812415786E+03  0.24812415786E+03  0.00000000000E+00 0. -1.
        -24    2    1    2    0    0 -0.15472130536E+03 -0.30496737575E+03 -0.32210805303E+02  0.35086293954E+03  0.71578514619E+02 0.  0.
         25    2    1    2    0    0  0.14510975622E+03  0.24119032811E+03  0.37236853001E+03  0.48325257803E+03  0.12508043936E+03 0.  0.
         24    2    1    2    0    0  0.96115491372E+01  0.63777047646E+02  0.24290960009E+04  0.24313865237E+04  0.83505404995E+02 0.  0.
        -11    1    5    5    0    0  0.39345503751E+02  0.49967668037E+02  0.20116653323E+04  0.20126704265E+04  0.00000000000E+00 0.  1.
         12    1    5    5    0    0 -0.29733954614E+02  0.13809379609E+02  0.41743066852E+03  0.41871609719E+03  0.00000000000E+00 0. -1.
         13    1    3    3    0    0 -0.11612947271E+03 -0.18450370547E+03 -0.48459193421E+02  0.22332927527E+03  0.00000000000E+00 0. -1.
        -14    1    3    3    0    0 -0.38591832649E+02 -0.12046367028E+03  0.16248388118E+02  0.12753366427E+03  0.00000000000E+00 0.  1.
          5    1    4    4  501    0  0.81550053534E+02  0.90324531361E+02  0.25244390988E+03  0.28027545778E+03  0.41800000000E+01 0.  1.
         -5    1    4    4    0  501  0.63559702691E+02  0.15086579675E+03  0.11992462013E+03  0.20297712026E+03  0.41800000000E+01 0.  1.
</event>
<event>
11    1  0.8328696E-009  0.1377642E+03  0.7561462E-02  0.1110081E+00
         22   -1    0    0    0    0  0.00000000000E+00  0.00000000000E+00  0.48476777370E+03  0.48476777370E+03  0.00000000000E+00 0. -1.
         22   -1    0    0    0    0 -0.00000000000E+00 -0.00000000000E+00 -0.21693414327E+04  0.21693414327E+04  0.00000000000E+00 0.  1.
         24    2    1    2    0    0 -0.42937422068E+02 -0.39419344349E+02 -0.20221123755E+04  0.20244834361E+04  0.78722404134E+02 0.  0.
         25    2    1    2    0    0 -0.36614121727E+01  0.63343251674E+02 -0.10599198860E+03  0.17580690164E+03  0.12509193236E+03 0.  0.
        -24    2    1    2    0    0  0.46598834240E+02 -0.23923907325E+02  0.44353070513E+03  0.45381886864E+03  0.80549825872E+02 0.  0.
        -11    1    3    3    0    0 -0.43793301522E+01 -0.55673727519E+02 -0.10818492637E+04  0.10832896990E+04  0.00000000000E+00 0.  1.
         12    1    3    3    0    0 -0.38558091915E+02  0.16254383170E+02 -0.94026311179E+03  0.94119373713E+03  0.00000000000E+00 0. -1.
         13    1    5    5    0    0  0.37587518858E+02 -0.47966196325E+02  0.38650487915E+03  0.39127943873E+03  0.00000000000E+00 0. -1.
        -14    1    5    5    0    0  0.90113153822E+01  0.24042289001E+02  0.57025825976E+02  0.62539429911E+02  0.00000000000E+00 0.  1.
          5    1    4    4  501    0  0.17457492752E+02  0.95814289655E+02 -0.55982375627E+02  0.11241281482E+03  0.41800000000E+01 0. -1.
         -5    1    4    4    0  501 -0.21118904925E+02 -0.32471037982E+02 -0.50009612976E+02  0.63394086813E+02  0.41800000000E+01 0. -1.
</event>
<event>
11    1  0.8328696E-009  0.1786710E+03  0.7561462E-02  0.1070723E+00
         22   -1    0    0    0    0  0.00000000000E+00  0.00000000000E+00  0.53308963687E+03  0.53308963687E+03  0.00000000000E+00 0.  1.
         22   -1    0    0    0    0 -0.00000000000E+00 -0.00000000000E+00 -0.23188298321E+03  0.23188298321E+03  0.00000000000E+00 0. -1.
        -24    2    1    2    0    0 -0.97460592463E+02 -0.59587099750E+02 -0.11033436793E+03  0.17851041807E+03  0.81505257933E+02 0.  0.
         25    2    1    2    0    0  0.16073090611E+03  0.11621291777E+03  0.10303549064E+03  0.25613029219E+03  0.12508616153E+03 0.  0.
         24    2    1    2    0    0 -0.63270313646E+02 -0.56625818023E+02  0.30850553096E+03  0.33033190983E+03  0.82060295926E+02 0.  0.
        -11    1    5    5    0    0 -0.14072133506E+02 -0.46233741568E+02  0.61275812411E+02  0.78040431748E+02  0.00000000000E+00 0.  1.
         12    1    5    5    0    0 -0.49198180140E+02 -0.10392076454E+02  0.24722971854E+03  0.25229147808E+03  0.00000000000E+00 0. -1.
         11    1    3    3    0    0 -0.10967842070E+03 -0.59140677915E+02 -0.11010365229E+03  0.16628226002E+03  0.00000000000E+00 0. -1.
        -12    1    3    3    0    0  0.12217828240E+02 -0.44642183477E+00 -0.23071564663E+00  0.12228158040E+02  0.00000000000E+00 0.  1.
          5    1    4    4  501    0  0.13029400918E+03  0.19363076688E+02  0.70375397394E+02  0.14940423865E+03  0.41800000000E+01 0. -1.
         -5    1    4    4    0  501  0.30436896926E+02  0.96849841084E+02  0.32660093251E+02  0.10672605354E+03  0.41800000000E+01 0. -1.
</event>
<event>
11    1  0.8328696E-009  0.1923646E+03  0.7561462E-02  0.1060058E+00
         22   -1    0    0    0    0  0.00000000000E+00  0.00000000000E+00  0.86106372602E+02  0.86106372602E+02  0.00000000000E+00 0.  1.
         22   -1    0    0    0    0 -0.00000000000E+00 -0.00000000000E+00 -0.92880272929E+03  0.92880272929E+03  0.00000000000E+00 0.  1.
         24    2    1    2    0    0 -0.13713382483E+03 -0.38108399559E+01 -0.57528575926E+03  0.59616286817E+03  0.75074976919E+02 0.  0.
         25    2    1    2    0    0  0.18727203581E+03  0.15063445008E+02 -0.21446026232E+03  0.31135016009E+03  0.12509194737E+03 0.  0.
        -24    2    1    2    0    0 -0.50138210981E+02 -0.11252605052E+02 -0.52950335098E+02  0.10739607363E+03  0.78036640904E+02 0.  0.
        -11    1    3    3    0    0 -0.19427539185E+02  0.18856441785E+02 -0.45158157321E+02  0.52652196993E+02  0.00000000000E+00 0.  1.
         12    1    3    3    0    0 -0.11770628565E+03 -0.22667281741E+02 -0.53012760194E+03  0.54351067118E+03  0.00000000000E+00 0. -1.
         13    1    5    5    0    0 -0.69075204734E+02  0.10887556824E+01 -0.48367694359E+02  0.84332693278E+02  0.00000000000E+00 0. -1.
        -14    1    5    5    0    0  0.18936993753E+02 -0.12341360735E+02 -0.45826407389E+01  0.23063380353E+02  0.00000000000E+00 0.  1.
          5    1    4    4  501    0  0.16507006634E+03  0.56228789645E+02 -0.19164716621E+03  0.25914457799E+03  0.41800000000E+01 0.  1.
         -5    1    4    4    0  501  0.22201969473E+02 -0.41165344637E+02 -0.22813096115E+02  0.52205582096E+02  0.41800000000E+01 0.  1.
</event>
<event>
11    1  0.8328696E-009  0.1614135E+03  0.7561462E-02  0.1085755E+00
         22   -1    0    0    0    0  0.00000000000E+00  0.00000000000E+00  0.14387701466E+04  0.14387701466E+04  0.00000000000E+00 0. -1.
         22   -1    0    0    0    0 -0.00000000000E+00 -0.00000000000E+00 -0.43255025983E+03  0.43255025983E+03  0.00000000000E+00 0. -1.
         24    2    1    2    0    0  0.34591343350E+01  0.99043657923E+02 -0.37150101812E+03  0.39269043608E+03  0.79819548622E+02 0.  0.
         25    2    1    2    0    0 -0.20704497379E+02 -0.16070766629E+03  0.16883823137E+03  0.26535235424E+03  0.12509953362E+03 0.  0.
        -24    2    1    2    0    0  0.17245363044E+02  0.61664008367E+02  0.12088826736E+04  0.12132776161E+04  0.80903664429E+02 0.  0.
        -11    1    3    3    0    0  0.79379267229E+01  0.41913252277E+02 -0.48267889085E+02  0.64416771992E+02  0.00000000000E+00 0.  1.
         12    1    3    3    0    0 -0.44787923880E+01  0.57130405646E+02 -0.32323312904E+03  0.32827366409E+03  0.00000000000E+00 0. -1.
         11    1    5    5    0    0 -0.10123673623E+01  0.64427905627E+02  0.11441407846E+04  0.11459538014E+04  0.00000000000E+00 0. -1.
        -12    1    5    5    0    0  0.18257730406E+02 -0.27638972608E+01  0.64741888940E+02  0.67323814740E+02  0.00000000000E+00 0.  1.
          5    1    4    4  501    0  0.45814329046E+02 -0.30255580047E+02  0.68053464079E+02  0.87539129782E+02  0.41800000000E+01 0.  1.
         -5    1    4    4    0  501 -0.66518826425E+02 -0.13045208624E+03  0.10078476729E+03  0.17781322445E+03  0.41800000000E+01 0.  1.
</event>
<event>
11    1  0.8328696E-009  0.1698553E+03  0.7561462E-02  0.1078158E+00
         22   -1    0    0    0    0  0.00000000000E+00  0.00000000000E+00  0.97182757137E+03  0.97182757137E+03  0.00000000000E+00 0. -1.
         22   -1    0    0    0    0 -0.00000000000E+00 -0.00000000000E+00 -0.10657203743E+04  0.10657203743E+04  0.00000000000E+00 0. -1.
         24    2    1    2    0    0  0.17222543435E+02 -0.73580733111E+01 -0.10363647027E+04  0.10397134914E+04  0.81250169317E+02 0.  0.
         25    2    1    2    0    0  0.96066235898E+02 -0.34678954526E+02  0.32629117730E+03  0.36407022569E+03  0.12509934166E+03 0.  0.
        -24    2    1    2    0    0 -0.11328877933E+03  0.42037027837E+02  0.61618072248E+03  0.63376422854E+03  0.85889204128E+02 0.  0.
        -11    1    3    3    0    0 -0.26022349412E+02 -0.20189078657E+02 -0.26634058576E+03  0.26836927765E+03  0.00000000000E+00 0.  1.
         12    1    3    3    0    0  0.43244892846E+02  0.12831005346E+02 -0.77002411694E+03  0.77134421378E+03  0.00000000000E+00 0. -1.
         11    1    5    5    0    0 -0.63035994361E+02  0.46913892493E+02  0.51199257761E+03  0.51798730623E+03  0.00000000000E+00 0. -1.
        -12    1    5    5    0    0 -0.50252784972E+02 -0.48768646560E+01  0.10418814488E+03  0.11577692231E+03  0.00000000000E+00 0.  1.
          5    1    4    4  501    0  0.31806881940E+02 -0.33559524132E+02  0.28226019234E+03  0.28605280628E+03  0.41800000000E+01 0. -1.
         -5    1    4    4    0  501  0.64259353958E+02 -0.11194303935E+01  0.44030984956E+02  0.78017419412E+02  0.41800000000E+01 0. -1.
</event>
<event>
11    1  0.8328696E-009  0.1377793E+03  0.7561462E-02  0.1110064E+00
         22   -1    0    0    0    0  0.00000000000E+00  0.00000000000E+00  0.13150982031E+04  0.13150982031E+04  0.00000000000E+00 0. -1.
         22   -1    0    0    0    0 -0.00000000000E+00 -0.00000000000E+00 -0.35745757133E+03  0.35745757133E+03  0.00000000000E+00 0. -1.
         24    2    1    2    0    0  0.21610062005E+02 -0.20716503651E+02 -0.20903434218E+03  0.22426154822E+03  0.75509717900E+02 0.  0.
         25    2    1    2    0    0  0.36144285875E+02  0.14794936875E+02 -0.10799866264E+03  0.16981858971E+03  0.12509733299E+03 0.  0.
        -24    2    1    2    0    0 -0.57754347880E+02  0.59215667767E+01  0.12746736365E+04  0.12784756365E+04  0.79601781901E+02 0.  0.
        -13    1    3    3    0    0  0.79543645603E+01 -0.33151278091E+02 -0.33631357115E+02  0.47888906189E+02  0.00000000000E+00 0.  1.
         14    1    3    3    0    0  0.13655697444E+02  0.12434774440E+02 -0.17540298507E+03  0.17637264203E+03  0.00000000000E+00 0. -1.
         13    1    5    5    0    0 -0.29261292233E+02  0.93603802599E+01  0.11550085196E+04  0.11554170331E+04  0.00000000000E+00 0. -1.
        -14    1    5    5    0    0 -0.28493055647E+02 -0.34388134832E+01  0.11966511696E+03  0.12305860342E+03  0.00000000000E+00 0.  1.
          5    1    4    4  501    0  0.57331112667E+02 -0.13649299343E+02 -0.32743239931E+01  0.59172235464E+02  0.41800000000E+01 0.  1.
         -5    1    4    4    0  501 -0.21186826792E+02  0.28444236218E+02 -0.10472433864E+03  0.11064635424E+03  0.41800000000E+01 0.  1.
</event>
<event>
11    1  0.1667887E-008  0.1980100E+03  0.7561462E-02  0.1055940E+00
         22   -1    0    0    0    0  0.00000000000E+00  0.00000000000E+00  0.36302321387E+03  0.36302321387E+03  0.00000000000E+00 0.  1.
         22   -1    0    0    0    0 -0.00000000000E+00 -0.00000000000E+00 -0.27975614886E+04  0.27975614886E+04  0.00000000000E+00 0.  1.
        -24    2    1    2    0    0 -0.13499379314E+03  0.61499684925E+02 -0.18795098859E+04  0.18870678286E+04  0.80386834581E+02 0.  0.
         25    2    1    2    0    0  0.10076219367E+03 -0.18002951618E+03 -0.88267514116E+03  0.91505540505E+03  0.12508934056E+03 0.  0.
         24    2    1    2    0    0  0.34231599474E+02  0.11852983125E+03  0.32764675234E+03  0.35846146879E+03  0.76948729600E+02 0.  0.
        -11    1    5    5    0    0  0.16740037651E+02  0.12382881840E+03  0.30319179018E+03  0.32793149706E+03  0.00000000000E+00 0.  1.
         12    1    5    5    0    0  0.17491561822E+02 -0.52989871490E+01  0.24454962156E+02  0.30529971730E+02  0.00000000000E+00 0. -1.
         11    1    3    3    0    0 -0.14247503278E+02 -0.12244206910E+02 -0.49301385212E+03  0.49337163511E+03  0.00000000000E+00 0. -1.
        -12    1    3    3    0    0 -0.12074628986E+03  0.73743891835E+02 -0.13864960338E+04  0.13936961935E+04  0.00000000000E+00 0.  1.
          5    1    4    4  501    0  0.12881097685E+03 -0.13611679986E+03 -0.72985322562E+03  0.75354047954E+03  0.41800000000E+01 0. -1.
         -5    1    4    4    0  501 -0.28048783185E+02 -0.43912716316E+02 -0.15282191554E+03  0.16151492551E+03  0.41800000000E+01 0. -1.
</event>
<event>
11    1  0.8328696E-009  0.2273270E+03  0.7561462E-02  0.1036722E+00
         22   -1    0    0    0    0  0.00000000000E+00  0.00000000000E+00  0.15779088454E+04  0.15779088454E+04  0.00000000000E+00 0. -1.
         22   -1    0    0    0    0 -0.00000000000E+00 -0.00000000000E+00 -0.32583607903E+03  0.32583607903E+03  0.00000000000E+00 0.  1.
        -24    2    1    2    0    0 -0.98333459378E+01 -0.90922899039E+01 -0.26784375921E+03  0.27985101294E+03  0.79980908170E+02 0.  0.
         25    2    1    2    0    0 -0.16885107626E+03  0.75920178022E+02  0.24239021790E+03  0.32966017563E+03  0.12509298251E+03 0.  0.
         24    2    1    2    0    0  0.17868442220E+03 -0.66827888118E+02  0.12775263077E+04  0.12942337359E+04  0.81076549444E+02 0.  0.
        -11    1    5    5    0    0  0.22045379824E+02  0.51465536055E+01  0.35624563426E+03  0.35696419669E+03  0.00000000000E+00 0.  1.
         12    1    5    5    0    0  0.15663904238E+03 -0.71974441724E+02  0.92128067344E+03  0.93726953920E+03  0.00000000000E+00 0. -1.
         13    1    3    3    0    0 -0.33328449811E+02  0.14782011716E+02 -0.20887149391E+03  0.21202970171E+03  0.00000000000E+00 0. -1.
        -14    1    3    3    0    0  0.23495103873E+02 -0.23874301620E+02 -0.58972265297E+02  0.67821311238E+02  0.00000000000E+00 0.  1.
          5    1    4    4  501    0  0.15281138513E+02  0.28640930304E+02  0.27797875323E+02  0.42941941682E+02  0.41800000000E+01 0.  1.
         -5    1    4    4    0  501 -0.18413221478E+03  0.47279247718E+02  0.21459234258E+03  0.28671823395E+03  0.41800000000E+01 0.  1.
</event>
<event>
11    1  0.8328696E-009  0.1695601E+03  0.7561462E-02  0.1078415E+00
         22   -1    0    0    0    0  0.00000000000E+00  0.00000000000E+00  0.31209646973E+03  0.31209646973E+03  0.00000000000E+00 0.  1.
         22   -1    0    0    0    0 -0.00000000000E+00 -0.00000000000E+00 -0.38324918315E+03  0.38324918315E+03  0.00000000000E+00 0. -1.
        -24    2    1    2    0    0  0.92106841786E+02 -0.54576940398E+02 -0.13476744374E+03  0.19200504662E+03  0.85096188553E+02 0.  0.
         25    2    1    2    0    0 -0.14430502421E+03 -0.47522825067E+02 -0.15038519696E+03  0.24767242930E+03  0.12507424138E+03 0.  0.
         24    2    1    2    0    0  0.52198182426E+02  0.10209976546E+03  0.21399992728E+03  0.25566817696E+03  0.80132611833E+02 0.  0.
        -11    1    5    5    0    0  0.58080035299E+02  0.10763509485E+03  0.16168242296E+03  0.20273088082E+03  0.00000000000E+00 0.  1.
         12    1    5    5    0    0 -0.58818528730E+01 -0.55353293871E+01  0.52317504317E+02  0.52937296139E+02  0.00000000000E+00 0. -1.
         13    1    3    3    0    0  0.36402075288E+02  0.19494880441E+02 -0.60451618458E+02  0.73209013262E+02  0.00000000000E+00 0. -1.
        -14    1    3    3    0    0  0.55704766498E+02 -0.74071820838E+02 -0.74315825285E+02  0.11879603335E+03  0.00000000000E+00 0.  1.
          5    1    4    4  501    0  0.54655459758E+00 -0.50081896518E+02 -0.25514100202E+02  0.56364321959E+02  0.41800000000E+01 0. -1.
         -5    1    4    4    0  501 -0.14485157881E+03  0.25590714514E+01 -0.12487109675E+03  0.19130810734E+03  0.41800000000E+01 0. -1.
</event>
<event>
11    1  0.8328696E-009  0.1309224E+03  0.7561462E-02  0.1118141E+00
         22   -1    0    0    0    0  0.00000000000E+00  0.00000000000E+00  0.59171441755E+03  0.59171441755E+03  0.00000000000E+00 0. -1.
         22   -1    0    0    0    0 -0.00000000000E+00 -0.00000000000E+00 -0.65371297606E+03  0.65371297606E+03  0.00000000000E+00 0. -1.
        -24    2    1    2    0    0  0.12713096935E+02 -0.88405984909E+01 -0.53939092407E+03  0.54573157749E+03  0.81489917682E+02 0.  0.
         25    2    1    2    0    0 -0.45016643201E+02 -0.12015277024E+02 -0.66082040588E+02  0.14894566485E+03  0.12508840850E+03 0.  0.
         24    2    1    2    0    0  0.32303546266E+02  0.20855875514E+02  0.54347440615E+03  0.55075015127E+03  0.80515913542E+02 0.  0.
        -11    1    5    5    0    0  0.11319435596E+02 -0.12946348011E+02  0.22802168861E+02  0.28560049962E+02  0.00000000000E+00 0.  1.
         12    1    5    5    0    0  0.20984110671E+02  0.33802223526E+02  0.52067223729E+03  0.52219010130E+03  0.00000000000E+00 0. -1.
         11    1    3    3    0    0 -0.26449348310E+01  0.40345751742E+01 -0.51076389541E+03  0.51078667791E+03  0.00000000000E+00 0. -1.
        -12    1    3    3    0    0  0.15358031766E+02 -0.12875173665E+02 -0.28627028663E+02  0.34944899581E+02  0.00000000000E+00 0.  1.
          5    1    4    4  501    0  0.23146354148E+02  0.13458719743E+02  0.21794051075E+02  0.34775622348E+02  0.41800000000E+01 0.  1.
         -5    1    4    4    0  501 -0.68162997349E+02 -0.25473996766E+02 -0.87876091663E+02  0.11417004250E+03  0.41800000000E+01 0.  1.
</event>
<event>
11    1  0.8328696E-009  0.1419918E+03  0.7561462E-02  0.1105354E+00
         22   -1    0    0    0    0  0.00000000000E+00  0.00000000000E+00  0.62928689999E+03  0.62928689999E+03  0.00000000000E+00 0. -1.
         22   -1    0    0    0    0 -0.00000000000E+00 -0.00000000000E+00 -0.26724909793E+03  0.26724909793E+03  0.00000000000E+00 0.  1.
         24    2    1    2    0    0 -0.28124271859E+02 -0.40285991190E+02 -0.22912099436E+03  0.24765709733E+03  0.80147813722E+02 0.  0.
         25    2    1    2    0    0  0.67514946860E+02  0.78141141153E+02  0.28647402108E+03  0.32920965146E+03  0.12508926360E+03 0.  0.
        -24    2    1    2    0    0 -0.39390675002E+02 -0.37855149963E+02  0.30468477534E+03  0.31966924913E+03  0.79818411797E+02 0.  0.
        -11    1    3    3    0    0 -0.19903709880E+02 -0.32001985034E+00 -0.19029649093E+03  0.19133482313E+03  0.00000000000E+00 0.  1.
         12    1    3    3    0    0 -0.82205619785E+01 -0.39965971340E+02 -0.38824503431E+02  0.56322274200E+02  0.00000000000E+00 0. -1.
         13    1    5    5    0    0 -0.10429768658E+02 -0.15956543474E+02  0.26574704694E+03  0.26642988630E+03  0.00000000000E+00 0. -1.
        -14    1    5    5    0    0 -0.28960906343E+02 -0.21898606488E+02  0.38937728395E+02  0.53239362833E+02  0.00000000000E+00 0.  1.
          5    1    4    4  501    0  0.69226305078E+02  0.25602541561E+02  0.55900067905E+02  0.92682584345E+02  0.41800000000E+01 0. -1.
         -5    1    4    4    0  501 -0.17113582178E+01  0.52538599592E+02  0.23057395318E+03  0.23652706712E+03  0.41800000000E+01 0. -1.
</event>
<event>
11    1  0.8328696E-009  0.1345108E+03  0.7561462E-02  0.1113848E+00
         22   -1    0    0    0    0  0.00000000000E+00  0.00000000000E+00  0.19375950365E+03  0.19375950365E+03  0.00000000000E+00 0.  1.
         22   -1    0    0    0    0 -0.00000000000E+00 -0.00000000000E+00 -0.13392071509E+04  0.13392071509E+04  0.00000000000E+00 0.  1.
        -24    2    1    2    0    0  0.49413854454E+02 -0.18417553311E+02 -0.10686844386E+04  0.10729709770E+04  0.79995955355E+02 0.  0.
         25    2    1    2    0    0 -0.18766473843E+02  0.20543344221E+02 -0.24203364708E+03  0.27386780138E+03  0.12509627006E+03 0.  0.
         24    2    1    2    0    0 -0.30647380611E+02 -0.21257909096E+01  0.16527043847E+03  0.18612787614E+03  0.79909245522E+02 0.  0.
        -13    1    5    5    0    0 -0.50406189662E+02  0.20848619736E+02  0.11770454392E+03  0.12972975203E+03  0.00000000000E+00 0.  1.
         14    1    5    5    0    0  0.19758809051E+02 -0.22974410645E+02  0.47565894549E+02  0.56398124117E+02  0.00000000000E+00 0. -1.
         13    1    3    3    0    0 -0.25049508542E+01 -0.24162260372E+02 -0.10109324217E+03  0.10397082868E+03  0.00000000000E+00 0. -1.
        -14    1    3    3    0    0  0.51918805308E+02  0.57447070610E+01 -0.96759119644E+03  0.96900014831E+03  0.00000000000E+00 0.  1.
          5    1    4    4  501    0 -0.11040735741E+02 -0.16526139461E+02  0.73442786950E+01  0.21596804411E+02  0.41800000000E+01 0. -1.
         -5    1    4    4    0  501 -0.77257381019E+01  0.37069483682E+02 -0.24937792577E+03  0.25227099697E+03  0.41800000000E+01 0. -1.
</event>
<event>
11    1  0.8328696E-009  0.1413609E+03  0.7561462E-02  0.1106048E+00
         22   -1    0    0    0    0  0.00000000000E+00  0.00000000000E+00  0.86991038282E+03  0.86991038282E+03  0.00000000000E+00 0.  1.
         22   -1    0    0    0    0 -0.00000000000E+00 -0.00000000000E+00 -0.17728254492E+03  0.17728254492E+03  0.00000000000E+00 0. -1.
        -24    2    1    2    0    0 -0.36735770732E+02 -0.22005552143E+01 -0.13472766449E+03  0.16146780212E+03  0.81030538987E+02 0.  0.
         25    2    1    2    0    0 -0.34110896901E+02  0.25733604661E+01  0.14169687172E+03  0.19208770047E+03  0.12509798457E+03 0.  0.
         24    2    1    2    0    0  0.70846667632E+02 -0.37280525185E+00  0.68565863067E+03  0.69363742514E+03  0.77367502575E+02 0.  0.
        -13    1    5    5    0    0  0.32517512533E+02 -0.74478166307E+01  0.58099458800E+03  0.58195151849E+03  0.00000000000E+00 0.  1.
         14    1    5    5    0    0  0.38329155099E+02  0.70750113789E+01  0.10466404267E+03  0.11168590665E+03  0.00000000000E+00 0. -1.
         11    1    3    3    0    0 -0.11007510425E+01  0.10235434063E+02 -0.12079925299E+03  0.12123710359E+03  0.00000000000E+00 0. -1.
        -12    1    3    3    0    0 -0.35635019689E+02 -0.12435989277E+02 -0.13928411498E+02  0.40230698532E+02  0.00000000000E+00 0.  1.
          5    1    4    4  501    0 -0.15955968156E+02  0.10425221898E+00  0.16291262437E+03  0.16374553236E+03  0.41800000000E+01 0.  1.
         -5    1    4    4    0  501 -0.18154928744E+02  0.24691082471E+01 -0.21215752643E+02  0.28342168115E+02  0.41800000000E+01 0.  1.
</event>
<event>
11    1  0.8328696E-009  0.1738243E+03  0.7561462E-02  0.1074751E+00
         22   -1    0    0    0    0  0.00000000000E+00  0.00000000000E+00  0.17951821067E+04  0.17951821067E+04  0.00000000000E+00 0. -1.
         22   -1    0    0    0    0 -0.00000000000E+00 -0.00000000000E+00 -0.14563331085E+03  0.14563331085E+03  0.00000000000E+00 0.  1.
         24    2    1    2    0    0  0.43642854030E+02 -0.93587699777E+02 -0.11532777651E+01  0.13020379734E+03  0.79299070209E+02 0.  0.
         25    2    1    2    0    0 -0.11227149220E+03  0.11664844431E+03  0.55820708599E+02  0.21207159353E+03  0.12508661700E+03 0.  0.
        -24    2    1    2    0    0  0.68628638173E+02 -0.23060744538E+02  0.15948813650E+04  0.15985400267E+04  0.80261824642E+02 0.  0.
        -11    1    3    3    0    0  0.54871344440E+02 -0.41146612988E+02 -0.22936894268E+02  0.72318803362E+02  0.00000000000E+00 0.  1.
         12    1    3    3    0    0 -0.11228490410E+02 -0.52441086789E+02  0.21783616503E+02  0.57884993983E+02  0.00000000000E+00 0. -1.
         11    1    5    5    0    0  0.45730190151E+02  0.57836209805E+01  0.13606935068E+04  0.13614740247E+04  0.00000000000E+00 0. -1.
        -12    1    5    5    0    0  0.22898448022E+02 -0.28844365518E+02  0.23418785827E+03  0.23706600200E+03  0.00000000000E+00 0.  1.
          5    1    4    4  501    0 -0.45188703036E+02 -0.21353666053E+02  0.51185884374E+01  0.50414980746E+02  0.41800000000E+01 0. -1.
         -5    1    4    4    0  501 -0.67082789166E+02  0.13800211037E+03  0.50702120161E+02  0.16165661279E+03  0.41800000000E+01 0. -1.
</event>
<event>
11    1  0.8328696E-009  0.1327271E+03  0.7561462E-02  0.1115963E+00
         22   -1    0    0    0    0  0.00000000000E+00  0.00000000000E+00  0.24707554291E+04  0.24707554291E+04  0.00000000000E+00 0. -1.
         22   -1    0    0    0    0 -0.00000000000E+00 -0.00000000000E+00 -0.17370331216E+03  0.17370331216E+03  0.00000000000E+00 0.  1.
        -24    2    1    2    0    0 -0.19982803661E+02 -0.70940169860E+01 -0.15136007507E+03  0.17370205734E+03  0.82540262171E+02 0.  0.
         25    2    1    2    0    0  0.62511164441E+02  0.77601219245E+01  0.47374498370E+03  0.49401080394E+03  0.12507797429E+03 0.  0.
         24    2    1    2    0    0 -0.42528360781E+02 -0.66610493855E+00  0.19746672083E+04  0.19767458800E+04  0.80028653249E+02 0.  0.
        -13    1    5    5    0    0 -0.28257911710E+01  0.11411709021E+02  0.41494125867E+02  0.43127423758E+02  0.00000000000E+00 0.  1.
         14    1    5    5    0    0 -0.39702569610E+02 -0.12077813959E+02  0.19331730825E+04  0.19336184563E+04  0.00000000000E+00 0. -1.
         13    1    3    3    0    0 -0.36867444802E+02  0.27696101597E+02 -0.73494173938E+02  0.86762181467E+02  0.00000000000E+00 0. -1.
        -14    1    3    3    0    0  0.16884641142E+02 -0.34790118583E+02 -0.77865901131E+02  0.86939875871E+02  0.00000000000E+00 0.  1.
          5    1    4    4  501    0  0.47749100118E+02 -0.28060397915E+02  0.43678745143E+03  0.44030456802E+03  0.41800000000E+01 0. -1.
         -5    1    4    4    0  501  0.14762064323E+02  0.35820519839E+02  0.36957532271E+02  0.53706235915E+02  0.41800000000E+01 0. -1.
</event>
<event>
11    1  0.8328696E-009  0.2033623E+03  0.7561462E-02  0.1052171E+00
         22   -1    0    0    0    0  0.00000000000E+00  0.00000000000E+00  0.21397425559E+03  0.21397425559E+03  0.00000000000E+00 0. -1.
         22   -1    0    0    0    0 -0.00000000000E+00 -0.00000000000E+00 -0.14196624282E+04  0.14196624282E+04  0.00000000000E+00 0.  1.
        -24    2    1    2    0    0 -0.12170104713E+03 -0.83047906101E+02 -0.90961949861E+03  0.92512824968E+03  0.82137363798E+02 0.  0.
         25    2    1    2    0    0  0.18963901673E+03  0.10027400270E+03 -0.45439573125E+03  0.51782311002E+03  0.12508980939E+03 0.  0.
         24    2    1    2    0    0 -0.67937969599E+02 -0.17226096596E+02  0.15832705730E+03  0.19068532404E+03  0.79881973026E+02 0.  0.
        -13    1    5    5    0    0 -0.41002414858E+02 -0.37508079747E+02  0.42242649159E+02  0.69803262663E+02  0.00000000000E+00 0.  1.
         14    1    5    5    0    0 -0.26935554741E+02  0.20281983151E+02  0.11608440814E+03  0.12088206138E+03  0.00000000000E+00 0. -1.
         13    1    3    3    0    0 -0.36641439835E+02 -0.47808866389E+02 -0.18204858191E+03  0.19175497124E+03  0.00000000000E+00 0. -1.
        -14    1    3    3    0    0 -0.85059607292E+02 -0.35239039712E+02 -0.72757091670E+03  0.73337327844E+03  0.00000000000E+00 0.  1.
          5    1    4    4  501    0  0.10124305382E+03  0.75615214244E+02 -0.37721190258E+03  0.39783678616E+03  0.41800000000E+01 0.  1.
         -5    1    4    4    0  501  0.88395962910E+02  0.24658788453E+02 -0.77183828669E+02  0.11998632387E+03  0.41800000000E+01 0.  1.
</event>
<event>
11    1  0.8328696E-009  0.1392214E+03  0.7561462E-02  0.1108431E+00
         22   -1    0    0    0    0  0.00000000000E+00  0.00000000000E+00  0.18115679374E+03  0.18115679374E+03  0.00000000000E+00 0.  1.
         22   -1    0    0    0    0 -0.00000000000E+00 -0.00000000000E+00 -0.14517019297E+04  0.14517019297E+04  0.00000000000E+00 0. -1.
         24    2    1    2    0    0  0.48382889317E+02  0.30644767424E+02 -0.11056384233E+04  0.11100473601E+04  0.80553167846E+02 0.  0.
         25    2    1    2    0    0 -0.76230386500E+02 -0.53629092251E+02 -0.31333749182E+03  0.35002120677E+03  0.12508920836E+03 0.  0.
        -24    2    1    2    0    0  0.27847497183E+02  0.22984324827E+02  0.14843077918E+03  0.17279015654E+03  0.80752583248E+02 0.  0.
        -13    1    3    3    0    0 -0.14506605416E+02 -0.88815125362E+01 -0.83576060984E+02  0.85289394623E+02  0.00000000000E+00 0.  1.
         14    1    3    3    0    0  0.62889494733E+02  0.39526279960E+02 -0.10220623623E+04  0.10247579655E+04  0.00000000000E+00 0. -1.
         11    1    5    5    0    0 -0.19573374189E+02  0.34470471674E+02  0.68600009406E+02  0.79229361256E+02  0.00000000000E+00 0. -1.
        -12    1    5    5    0    0  0.47420871371E+02 -0.11486146847E+02  0.79830769773E+02  0.93560795281E+02  0.00000000000E+00 0.  1.
          5    1    4    4  501    0 -0.83527860614E+02  0.14133459065E+02 -0.20633561682E+03  0.22308858628E+03  0.41800000000E+01 0. -1.
         -5    1    4    4    0  501  0.72974741138E+01 -0.67762551316E+02 -0.10700187500E+03  0.12693262049E+03  0.41800000000E+01 0. -1.
</event>
<event>
11    1  0.8328696E-009  0.1312814E+03  0.7561462E-02  0.1117704E+00
         22   -1    0    0    0    0  0.00000000000E+00  0.00000000000E+00  0.30419674110E+03  0.30419674110E+03  0.00000000000E+00 0. -1.
         22   -1    0    0    0    0 -0.00000000000E+00 -0.00000000000E+00 -0.66397583842E+03  0.66397583842E+03  0.00000000000E+00 0.  1.
        -24    2    1    2    0    0 -0.65105602626E+01 -0.21139015126E+02 -0.57138160534E+03  0.57755915615E+03  0.81292032651E+02 0.  0.
         25    2    1    2    0    0 -0.13264703834E+02  0.54130940476E+02 -0.23797363346E+02  0.13899881641E+03  0.12509294695E+03 0.  0.
         24    2    1    2    0    0  0.19775264096E+02 -0.32991925350E+02  0.23539987137E+03  0.25161460696E+03  0.80107944580E+02 0.  0.
        -13    1    5    5    0    0 -0.16807116138E+02 -0.18595423137E+02  0.18429386986E+02  0.31111271578E+02  0.00000000000E+00 0.  1.
         14    1    5    5    0    0  0.36582380234E+02 -0.14396502213E+02  0.21697048438E+03  0.22050333538E+03  0.00000000000E+00 0. -1.
         13    1    3    3    0    0 -0.39878954938E+02 -0.20930052489E+01 -0.18437808367E+03  0.18865309288E+03  0.00000000000E+00 0. -1.
        -14    1    3    3    0    0  0.33368394675E+02 -0.19046009877E+02 -0.38700352167E+03  0.38890606326E+03  0.00000000000E+00 0.  1.
          5    1    4    4  501    0 -0.39212577001E+02  0.49591982948E+02  0.36460916866E+02  0.73101722459E+02  0.41800000000E+01 0.  1.
         -5    1    4    4    0  501  0.25947873168E+02  0.45389575276E+01 -0.60258280211E+02  0.65897093952E+02  0.41800000000E+01 0.  1.
</event>
<event>
11    1  0.8328696E-009  0.1322247E+03  0.7561462E-02  0.1116565E+00
         22   -1    0    0    0    0  0.00000000000E+00  0.00000000000E+00  0.87336070525E+02  0.87336070525E+02  0.00000000000E+00 0. -1.
         22   -1    0    0    0    0 -0.00000000000E+00 -0.00000000000E+00 -0.63603127760E+03  0.63603127760E+03  0.00000000000E+00 0. -1.
         24    2    1    2    0    0 -0.27815655236E+02 -0.34011792137E+02 -0.43307545771E+03  0.44390182746E+03  0.86971073778E+02 0.  0.
         25    2    1    2    0    0  0.49131777850E+02  0.46274224682E+01 -0.12445065683E+03  0.18322323555E+03  0.12508974149E+03 0.  0.
        -24    2    1    2    0    0 -0.21316122615E+02  0.29384369669E+02  0.88309074742E+01  0.96242285102E+02  0.88694837790E+02 0.  0.
        -13    1    3    3    0    0  0.57225908495E+01  0.25592758138E+02 -0.77733403225E+02  0.82037913748E+02  0.00000000000E+00 0.  1.
         14    1    3    3    0    0 -0.33538246085E+02 -0.59604550275E+02 -0.35534205449E+03  0.36186391372E+03  0.00000000000E+00 0. -1.
         13    1    5    5    0    0  0.22277803108E+02  0.35816021432E+01  0.33109467344E+02  0.40067009035E+02  0.00000000000E+00 0. -1.
        -14    1    5    5    0    0 -0.43593925722E+02  0.25802767525E+02 -0.24278559870E+02  0.56175276067E+02  0.00000000000E+00 0.  1.
          5    1    4    4  501    0  0.62070551344E+02  0.32789250207E+02 -0.13330885194E+03  0.15072030612E+03  0.41800000000E+01 0. -1.
         -5    1    4    4    0  501 -0.12938773494E+02 -0.28161827739E+02  0.88581951020E+01  0.32502929431E+02  0.41800000000E+01 0. -1.
</event>
<event>
11    1  0.8328696E-009  0.2037939E+03  0.7561462E-02  0.1051873E+00
         22   -1    0    0    0    0  0.00000000000E+00  0.00000000000E+00  0.25296027145E+03  0.25296027145E+03  0.00000000000E+00 0. -1.
         22   -1    0    0    0    0 -0.00000000000E+00 -0.00000000000E+00 -0.31037490039E+03  0.31037490039E+03  0.00000000000E+00 0.  1.
        -24    2    1    2    0    0  0.13208824603E+03 -0.70687747423E+02 -0.35086861464E+02  0.17416556756E+03  0.81599599879E+02 0.  0.
         25    2    1    2    0    0 -0.11802611981E+03  0.12965108352E+03 -0.12154986646E+03  0.24730901802E+03  0.12509121449E+03 0.  0.
         24    2    1    2    0    0 -0.14062126222E+02 -0.58963336100E+02  0.99222098977E+02  0.14186058626E+03  0.81271044111E+02 0.  0.
        -11    1    5    5    0    0 -0.13365450291E+02 -0.16827374175E+02  0.97332488228E+02  0.99676522049E+02  0.00000000000E+00 0.  1.
         12    1    5    5    0    0 -0.69667593034E+00 -0.42135961925E+02  0.18896107497E+01  0.42184064212E+02  0.00000000000E+00 0. -1.
         13    1    3    3    0    0  0.12041502848E+02  0.14458730780E+02 -0.17930998605E+02  0.25991794813E+02  0.00000000000E+00 0. -1.
        -14    1    3    3    0    0  0.12004674319E+03 -0.85146478204E+02 -0.17155862858E+02  0.14817377275E+03  0.00000000000E+00 0.  1.
          5    1    4    4  501    0 -0.59309056865E+02  0.23446695563E+02  0.13892436731E+02  0.65404770143E+02  0.41800000000E+01 0.  1.
         -5    1    4    4    0  501 -0.58717062946E+02  0.10620438796E+03 -0.13544230319E+03  0.18190424788E+03  0.41800000000E+01 0.  1.
</event>
<event>
11    1  0.8328696E-009  0.1716020E+03  0.7561462E-02  0.1076646E+00
         22   -1    0    0    0    0  0.00000000000E+00  0.00000000000E+00  0.11880971063E+04  0.11880971063E+04  0.00000000000E+00 0.  1.
         22   -1    0    0    0    0 -0.00000000000E+00 -0.00000000000E+00 -0.47858133646E+03  0.47858133646E+03  0.00000000000E+00 0.  1.
        -24    2    1    2    0    0 -0.15402781805E+02 -0.79757323881E+02 -0.43566035513E+03  0.45025663697E+03  0.79577746263E+02 0.  0.
         25    2    1    2    0    0  0.45442050841E+02  0.17985486203E+03  0.38850424058E+03  0.44832470884E+03  0.12508696265E+03 0.  0.
         24    2    1    2    0    0 -0.30039269036E+02 -0.10009753815E+03  0.75667188442E+03  0.76809709698E+03  0.80615971663E+02 0.  0.
        -11    1    5    5    0    0 -0.48802311982E+02 -0.36736355298E+02  0.46733365684E+03  0.47130878654E+03  0.00000000000E+00 0.  1.
         12    1    5    5    0    0  0.18763042947E+02 -0.63361182854E+02  0.28933822758E+03  0.29678831044E+03  0.00000000000E+00 0. -1.
         13    1    3    3    0    0 -0.17695308417E+02  0.71898537644E+01 -0.16161658318E+03  0.16274132203E+03  0.00000000000E+00 0. -1.
        -14    1    3    3    0    0  0.22925266113E+01 -0.86947177645E+02 -0.27404377195E+03  0.28751531494E+03  0.00000000000E+00 0.  1.
          5    1    4    4  501    0  0.18250826918E+02  0.74017028760E+02  0.46804771964E+02  0.89553181452E+02  0.41800000000E+01 0.  1.
         -5    1    4    4    0  501  0.27191223924E+02  0.10583783327E+03  0.34169946862E+03  0.35877152739E+03  0.41800000000E+01 0.  1.
</event>
<event>
11    1  0.8328696E-009  0.1283932E+03  0.7561462E-02  0.1121259E+00
         22   -1    0    0    0    0  0.00000000000E+00  0.00000000000E+00  0.28063295650E+03  0.28063295650E+03  0.00000000000E+00 0. -1.
         22   -1    0    0    0    0 -0.00000000000E+00 -0.00000000000E+00 -0.56421815058E+03  0.56421815058E+03  0.00000000000E+00 0.  1.
        -24    2    1    2    0    0 -0.37759808117E+01  0.32941983107E+02 -0.38487159643E+03  0.39469282613E+03  0.80974372360E+02 0.  0.
         25    2    1    2    0    0  0.28922372468E+01 -0.25557174018E+01 -0.14323929409E+03  0.19020977620E+03  0.12508943546E+03 0.  0.
         24    2    1    2    0    0  0.88374356491E+00 -0.30386265705E+02  0.24452569644E+03  0.25994850475E+03  0.82802794381E+02 0.  0.
        -11    1    5    5    0    0 -0.32075790371E+02 -0.30236288305E+02  0.72934738828E+02  0.85220687549E+02  0.00000000000E+00 0.  1.
         12    1    5    5    0    0  0.32959533936E+02 -0.14997740009E+00  0.17159095761E+03  0.17472781720E+03  0.00000000000E+00 0. -1.
         11    1    3    3    0    0 -0.21914916724E+01  0.60156885475E+02 -0.25914408497E+03  0.26604381271E+03  0.00000000000E+00 0. -1.
        -12    1    3    3    0    0 -0.15844891393E+01 -0.27214902367E+02 -0.12572751146E+03  0.12864901342E+03  0.00000000000E+00 0.  1.
          5    1    4    4  501    0 -0.11401916281E+02  0.12603306588E+02  0.19434537880E+02  0.26153789294E+02  0.41800000000E+01 0.  1.
         -5    1    4    4    0  501  0.14294153527E+02 -0.15159023990E+02 -0.16267383197E+03  0.16405598691E+03  0.41800000000E+01 0.  1.
</event>
<event>
11    1  0.8328696E-009  0.1589828E+03  0.7561462E-02  0.1088038E+00
         22   -1    0    0    0    0  0.00000000000E+00  0.00000000000E+00  0.71138615869E+03  0.71138615869E+03  0.00000000000E+00 0. -1.
         22   -1    0    0    0    0 -0.00000000000E+00 -0.00000000000E+00 -0.24683058417E+03  0.24683058417E+03  0.00000000000E+00 0.  1.
         24    2    1    2    0    0 -0.45364994278E+02  0.15553888559E+01 -0.19110044138E+03  0.21015795425E+03  0.74743461916E+02 0.  0.
         25    2    1    2    0    0  0.32513769791E+02  0.96683074127E+02  0.13039411108E+03  0.20749494344E+03  0.12508703090E+03 0.  0.
        -24    2    1    2    0    0  0.12851224487E+02 -0.98238462983E+02  0.52526190481E+03  0.54056384517E+03  0.80580720255E+02 0.  0.
        -13    1    3    3    0    0 -0.64030080345E+02 -0.10794847746E+02 -0.14702308561E+03  0.16072388631E+03  0.00000000000E+00 0.  1.
         14    1    3    3    0    0  0.18665086067E+02  0.12350236602E+02 -0.44077355768E+02  0.49434067944E+02  0.00000000000E+00 0. -1.
         13    1    5    5    0    0  0.13226706597E+02 -0.44773320836E+02  0.41915964206E+03  0.42175158750E+03  0.00000000000E+00 0. -1.
        -14    1    5    5    0    0 -0.37548210982E+00 -0.53465142147E+02  0.10610226276E+03  0.11881225768E+03  0.00000000000E+00 0.  1.
          5    1    4    4  501    0 -0.21434565789E+02 -0.19555172344E+02  0.44064604983E+02  0.52924542400E+02  0.41800000000E+01 0.  1.
         -5    1    4    4    0  501  0.53948335580E+02  0.11623824647E+03  0.86329506100E+02  0.15457040104E+03  0.41800000000E+01 0.  1.
</event>
<event>
11    1  0.8328696E-009  0.1377748E+03  0.7561462E-02  0.1110069E+00
         22   -1    0    0    0    0  0.00000000000E+00  0.00000000000E+00  0.74430112381E+03  0.74430112381E+03  0.00000000000E+00 0. -1.
         22   -1    0    0    0    0 -0.00000000000E+00 -0.00000000000E+00 -0.30452241397E+03  0.30452241397E+03  0.00000000000E+00 0.  1.
         24    2    1    2    0    0  0.54378094800E+01 -0.60230532835E+02 -0.18162417649E+03  0.20779089236E+03  0.80823428574E+02 0.  0.
         25    2    1    2    0    0  0.18534628692E+02  0.49584376284E+02 -0.64251491130E+02  0.15025822036E+03  0.12508851203E+03 0.  0.
        -24    2    1    2    0    0 -0.23972438172E+02  0.10646156551E+02  0.68565437746E+03  0.69077442505E+03  0.79745611359E+02 0.  0.
        -11    1    3    3    0    0  0.90189763659E+01 -0.87691741653E+01 -0.14248123546E+03  0.14303545997E+03  0.00000000000E+00 0.  1.
         12    1    3    3    0    0 -0.35811668859E+01 -0.51461358670E+02 -0.39142941032E+02  0.64755432398E+02  0.00000000000E+00 0. -1.
         13    1    5    5    0    0 -0.34027584761E+02  0.40177202086E+02  0.41387065664E+03  0.41720618946E+03  0.00000000000E+00 0. -1.
        -14    1    5    5    0    0  0.10055146589E+02 -0.29531045535E+02  0.27178372082E+03  0.27356823560E+03  0.00000000000E+00 0.  1.
          5    1    4    4  501    0  0.31385674465E+02 -0.29421121763E+02 -0.54433229771E+02  0.69506200232E+02  0.41800000000E+01 0. -1.
         -5    1    4    4    0  501 -0.12851045772E+02  0.79005498046E+02 -0.98182613591E+01  0.80752020130E+02  0.41800000000E+01 0. -1.
</event>
<event>
11    1  0.8328696E-009  0.1570529E+03  0.7561462E-02  0.1089882E+00
         22   -1    0    0    0    0  0.00000000000E+00  0.00000000000E+00  0.35862563783E+03  0.35862563783E+03  0.00000000000E+00 0.  1.
         22   -1    0    0    0    0 -0.00000000000E+00 -0.00000000000E+00 -0.55427676839E+03  0.55427676839E+03  0.00000000000E+00 0. -1.
        -24    2    1    2    0    0 -0.41429114987E+02 -0.50711063379E+02 -0.45032822902E+03  0.46165650117E+03  0.77738199747E+02 0.  0.
         25    2    1    2    0    0  0.91543749835E+02 -0.33321925986E+02 -0.85301519346E+01  0.15878118079E+03  0.12509232988E+03 0.  0.
         24    2    1    2    0    0 -0.50114634848E+02  0.84032989366E+02  0.26320725040E+03  0.29246472426E+03  0.81759026099E+02 0.  0.
        -11    1    5    5    0    0 -0.71652918510E+02  0.51006530344E+02  0.18757106654E+03  0.20716831773E+03  0.00000000000E+00 0.  1.
         12    1    5    5    0    0  0.21538283663E+02  0.33026459022E+02  0.75636183861E+02  0.85296406534E+02  0.00000000000E+00 0. -1.
         13    1    3    3    0    0 -0.29475880717E+02  0.40169774457E+01 -0.29572445036E+03  0.29721694802E+03  0.00000000000E+00 0. -1.
        -14    1    3    3    0    0 -0.11953234270E+02 -0.54728040825E+02 -0.15460377866E+03  0.16443955314E+03  0.00000000000E+00 0.  1.
          5    1    4    4  501    0  0.10448067791E+01 -0.55766680705E+02 -0.29331224823E+02  0.63157006323E+02  0.41800000000E+01 0. -1.
         -5    1    4    4    0  501  0.90498943056E+02  0.22444754719E+02  0.20801072888E+02  0.95624174464E+02  0.41800000000E+01 0. -1.
</event>
<event>
11    1  0.8328696E-009  0.1385551E+03  0.7561462E-02  0.1109183E+00
         22   -1    0    0    0    0  0.00000000000E+00  0.00000000000E+00  0.35898546293E+03  0.35898546293E+03  0.00000000000E+00 0.  1.
         22   -1    0    0    0    0 -0.00000000000E+00 -0.00000000000E+00 -0.99347413860E+03  0.99347413860E+03  0.00000000000E+00 0.  1.
         24    2    1    2    0    0 -0.57804518884E+02 -0.15475891027E+02 -0.92776811957E+03  0.93319498628E+03  0.80736194705E+02 0.  0.
         25    2    1    2    0    0  0.50893226108E+02  0.10483883105E+02  0.23141997137E+02  0.13741659274E+03  0.12509090958E+03 0.  0.
        -24    2    1    2    0    0  0.69112927766E+01  0.49920079223E+01  0.27013744676E+03  0.28184802252E+03  0.79946116510E+02 0.  0.
        -11    1    3    3    0    0 -0.55666377871E+02 -0.24123431920E+02 -0.91789289773E+03  0.91989567740E+03  0.00000000000E+00 0.  1.
         12    1    3    3    0    0 -0.21381410130E+01  0.86475408931E+01 -0.98752218318E+01  0.13299308881E+02  0.00000000000E+00 0. -1.
         11    1    5    5    0    0  0.11244511212E+02  0.39142125247E+02  0.95027040945E+02  0.10338608955E+03  0.00000000000E+00 0. -1.
        -12    1    5    5    0    0 -0.43332184355E+01 -0.34150117324E+02  0.17511040581E+03  0.17846193297E+03  0.00000000000E+00 0.  1.
          5    1    4    4  501    0 -0.34294043138E+02 -0.22029999638E+02  0.21166302115E+02  0.46118185394E+02  0.41800000000E+01 0. -1.
         -5    1    4    4    0  501  0.85187269246E+02  0.32513882743E+02  0.19756950220E+01  0.91298407343E+02  0.41800000000E+01 0. -1.
</event>
<event>
11    1  0.8328696E-009  0.2368027E+03  0.7561462E-02  0.1031174E+00
         22   -1    0    0    0    0  0.00000000000E+00  0.00000000000E+00  0.58839677801E+03  0.58839677801E+03  0.00000000000E+00 0.  1.
         22   -1    0    0    0    0 -0.00000000000E+00 -0.00000000000E+00 -0.22577093722E+03  0.22577093722E+03  0.00000000000E+00 0. -1.
        -24    2    1    2    0    0 -0.20485417726E+03 -0.21119284273E+02 -0.76963024685E+02  0.23398135720E+03  0.80079399602E+02 0.  0.
         25    2    1    2    0    0  0.19007560478E+03 -0.12148229757E+02  0.13798101994E+03  0.26638740069E+03  0.12508865004E+03 0.  0.
         24    2    1    2    0    0  0.14778572485E+02  0.33267514031E+02  0.30160784554E+03  0.31379895734E+03  0.78596179567E+02 0.  0.
        -11    1    5    5    0    0  0.12123946608E+02  0.26528512759E+02  0.30457741177E+03  0.30597083494E+03  0.00000000000E+00 0.  1.
         12    1    5    5    0    0  0.26546258766E+01  0.67390012716E+01 -0.29695662355E+01  0.78281224001E+01  0.00000000000E+00 0. -1.
         13    1    3    3    0    0 -0.17501419739E+03  0.32215603841E+01 -0.37842544195E+02  0.17908770446E+03  0.00000000000E+00 0. -1.
        -14    1    3    3    0    0 -0.29839979873E+02 -0.24340844657E+02 -0.39120480489E+02  0.54893652741E+02  0.00000000000E+00 0.  1.
          5    1    4    4  501    0  0.49835320393E+02 -0.43943573091E+02 -0.68518852005E+00  0.66577313388E+02  0.41800000000E+01 0. -1.
         -5    1    4    4    0  501  0.14024028439E+03  0.31795343334E+02  0.13866620846E+03  0.19981008731E+03  0.41800000000E+01 0. -1.
</event>
<event>
11    1  0.8328696E-009  0.2002593E+03  0.7561462E-02  0.1054340E+00
         22   -1    0    0    0    0  0.00000000000E+00  0.00000000000E+00  0.27251950459E+04  0.27251950459E+04  0.00000000000E+00 0.  1.
         22   -1    0    0    0    0 -0.00000000000E+00 -0.00000000000E+00 -0.10903478845E+03  0.10903478845E+03  0.00000000000E+00 0.  1.
         24    2    1    2    0    0  0.15401111289E+03  0.14886599257E+01 -0.38946118632E+01  0.17426020210E+03  0.81423651555E+02 0.  0.
         25    2    1    2    0    0 -0.17303595689E+03 -0.61200448001E+02  0.64836498317E+03  0.68535534618E+03  0.12509141430E+03 0.  0.
        -24    2    1    2    0    0  0.19024843999E+02  0.59711788076E+02  0.19716898861E+04  0.19746142861E+04  0.87253247808E+02 0.  0.
        -11    1    3    3    0    0  0.16204076640E+03  0.43447482990E+01  0.46855973209E+01  0.16216670939E+03  0.00000000000E+00 0.  1.
         12    1    3    3    0    0 -0.80296535079E+01 -0.28560883733E+01 -0.85802091841E+01  0.12093492709E+02  0.00000000000E+00 0. -1.
         11    1    5    5    0    0 -0.11349755177E+02  0.30061660576E+02  0.21280636288E+03  0.21521865268E+03  0.00000000000E+00 0. -1.
        -12    1    5    5    0    0  0.30374599176E+02  0.29650127499E+02  0.17588835233E+04  0.17593956334E+04  0.00000000000E+00 0.  1.
          5    1    4    4  501    0 -0.12184232173E+03  0.14656971996E+02  0.45673576899E+03  0.47295392299E+03  0.41800000000E+01 0.  1.
         -5    1    4    4    0  501 -0.51193635162E+02 -0.75857419997E+02  0.19162921417E+03  0.21240142319E+03  0.41800000000E+01 0.  1.
</event>
<event>
11    1  0.8328696E-009  0.1395969E+03  0.7561462E-02  0.1108009E+00
         22   -1    0    0    0    0  0.00000000000E+00  0.00000000000E+00  0.57248677342E+03  0.57248677342E+03  0.00000000000E+00 0.  1.
         22   -1    0    0    0    0 -0.00000000000E+00 -0.00000000000E+00 -0.16106991729E+03  0.16106991729E+03  0.00000000000E+00 0. -1.
        -24    2    1    2    0    0  0.24079690663E+02  0.24732028058E+02 -0.11049875892E+03  0.14168094900E+03  0.81682377979E+02 0.  0.
         25    2    1    2    0    0  0.86627267337E+01 -0.75134569914E+02  0.16211778580E+03  0.21828966676E+03  0.12509178914E+03 0.  0.
         24    2    1    2    0    0 -0.32742417397E+02  0.50402541857E+02  0.35979782925E+03  0.37358607495E+03  0.80620067886E+02 0.  0.
        -11    1    5    5    0    0 -0.19617016709E+02  0.72360187606E+02  0.26990002752E+03  0.28011934769E+03  0.00000000000E+00 0.  1.
         12    1    5    5    0    0 -0.13125400688E+02 -0.21957645749E+02  0.89897801723E+02  0.93466727260E+02  0.00000000000E+00 0. -1.
         11    1    3    3    0    0 -0.21927879934E+02  0.14851307247E+02 -0.61148125655E+01  0.27180584579E+02  0.00000000000E+00 0. -1.
        -12    1    3    3    0    0  0.46007570597E+02  0.98807208111E+01 -0.10438394635E+03  0.11450036442E+03  0.00000000000E+00 0.  1.
          5    1    4    4  501    0 -0.40675741224E+02 -0.40051942955E+02  0.14400038059E+03  0.15495888509E+03  0.41800000000E+01 0. -1.
         -5    1    4    4    0  501  0.49338467958E+02 -0.35082626959E+02  0.18117405212E+02  0.63330781666E+02  0.41800000000E+01 0. -1.
</event>
<event>
11    1  0.8328696E-009  0.1345679E+03  0.7561462E-02  0.1113781E+00
         22   -1    0    0    0    0  0.00000000000E+00  0.00000000000E+00  0.45099239554E+03  0.45099239554E+03  0.00000000000E+00 0. -1.
         22   -1    0    0    0    0 -0.00000000000E+00 -0.00000000000E+00 -0.59960170637E+03  0.59960170637E+03  0.00000000000E+00 0.  1.
         24    2    1    2    0    0 -0.15661668030E+02 -0.56266815114E+02 -0.36650818089E+03  0.37928045646E+03  0.78193194492E+02 0.  0.
         25    2    1    2    0    0  0.35908950783E+02  0.11302672790E+02 -0.20209144499E+03  0.24063728718E+03  0.12509256047E+03 0.  0.
        -24    2    1    2    0    0 -0.20247282753E+02  0.44964142323E+02  0.41999031504E+03  0.43067635828E+03  0.81599842497E+02 0.  0.
        -13    1    3    3    0    0  0.17339062617E+00 -0.70649072799E+02 -0.21601951056E+03  0.22727901464E+03  0.00000000000E+00 0.  1.
         14    1    3    3    0    0 -0.15835058656E+02  0.14382257685E+02 -0.15048867033E+03  0.15200144182E+03  0.00000000000E+00 0. -1.
         13    1    5    5    0    0 -0.27577309366E+00  0.66123606848E+02  0.28138737092E+03  0.28905234811E+03  0.00000000000E+00 0. -1.
        -14    1    5    5    0    0 -0.19971509659E+02 -0.21159464524E+02  0.13860294413E+03  0.14162401017E+03  0.00000000000E+00 0.  1.
          5    1    4    4  501    0 -0.31984281314E+02  0.32719878941E+02 -0.31409408531E+02  0.55656159348E+02  0.41800000000E+01 0. -1.
         -5    1    4    4    0  501  0.67893232097E+02 -0.21417206151E+02 -0.17068203646E+03  0.18498112783E+03  0.41800000000E+01 0. -1.
</event>
<event>
11    1  0.8328696E-009  0.1522003E+03  0.7561462E-02  0.1094651E+00
         22   -1    0    0    0    0  0.00000000000E+00  0.00000000000E+00  0.33858608948E+03  0.33858608948E+03  0.00000000000E+00 0.  1.
         22   -1    0    0    0    0 -0.00000000000E+00 -0.00000000000E+00 -0.65692654031E+03  0.65692654031E+03  0.00000000000E+00 0. -1.
         24    2    1    2    0    0 -0.78598975342E+02  0.40263464301E+02 -0.54956449596E+03  0.56246298967E+03  0.80898294501E+02 0.  0.
         25    2    1    2    0    0  0.66478284214E+02 -0.30140554691E+02 -0.39322418692E+02  0.15007046282E+03  0.12508827240E+03 0.  0.
        -24    2    1    2    0    0  0.12120691128E+02 -0.10122909610E+02  0.27054646382E+03  0.28297917729E+03  0.81439801339E+02 0.  0.
        -13    1    3    3    0    0 -0.50690222539E+02 -0.74901430642E+00 -0.12320709367E+03  0.13322930464E+03  0.00000000000E+00 0.  1.
         14    1    3    3    0    0 -0.27908752803E+02  0.41012478608E+02 -0.42635740229E+03  0.42923368504E+03  0.00000000000E+00 0. -1.
         11    1    5    5    0    0  0.19929699729E+02 -0.27412733483E+02  0.43513879656E+02  0.55155313534E+02  0.00000000000E+00 0. -1.
        -12    1    5    5    0    0 -0.78090086010E+01  0.17289823873E+02  0.22703258416E+03  0.22782386376E+03  0.00000000000E+00 0.  1.
          5    1    4    4  501    0  0.60123409975E+02  0.75609998200E+01 -0.75750761172E+02  0.97096052255E+02  0.41800000000E+01 0.  1.
         -5    1    4    4    0  501  0.63548742389E+01 -0.37701554511E+02  0.36428342480E+02  0.52974410568E+02  0.41800000000E+01 0.  1.
</event>
<event>
11    1  0.8328696E-009  0.1380725E+03  0.7561462E-02  0.1109730E+00
         22   -1    0    0    0    0  0.00000000000E+00  0.00000000000E+00  0.65091006523E+03  0.65091006523E+03  0.00000000000E+00 0. -1.
         22   -1    0    0    0    0 -0.00000000000E+00 -0.00000000000E+00 -0.54021860632E+03  0.54021860632E+03  0.00000000000E+00 0.  1.
         24    2    1    2    0    0 -0.49539547942E+02  0.20089573788E+01 -0.50499938604E+03  0.51387114497E+03  0.81123184200E+02 0.  0.
         25    2    1    2    0    0 -0.16088490494E+02  0.13797280751E+02  0.13571598145E+03  0.18578407202E+03  0.12509072433E+03 0.  0.
        -24    2    1    2    0    0  0.65628038436E+02 -0.15806238130E+02  0.47997486350E+03  0.49147345456E+03  0.81322877217E+02 0.  0.
        -13    1    3    3    0    0 -0.63853325389E+02  0.16973682109E+02 -0.45470924857E+03  0.45948433464E+03  0.00000000000E+00 0.  1.
         14    1    3    3    0    0  0.14313777447E+02 -0.14964724730E+02 -0.50290137470E+02  0.54386810330E+02  0.00000000000E+00 0. -1.
         11    1    5    5    0    0  0.81072649511E+02 -0.27832910146E+02  0.37300467529E+03  0.38272696949E+03  0.00000000000E+00 0. -1.
        -12    1    5    5    0    0 -0.15444611075E+02  0.12026672016E+02  0.10697018821E+03  0.10874648508E+03  0.00000000000E+00 0.  1.
          5    1    4    4  501    0 -0.28416403006E+01 -0.54983079482E+02  0.74047567894E+02  0.92367357112E+02  0.41800000000E+01 0.  1.
         -5    1    4    4    0  501 -0.13246850194E+02  0.68780360233E+02  0.61668413556E+02  0.93416714909E+02  0.41800000000E+01 0.  1.
</event>
<event>
11    1  0.8328696E-009  0.3069689E+03  0.7561462E-02  0.9972842E-01
         22   -1    0    0    0    0  0.00000000000E+00  0.00000000000E+00  0.24810223923E+04  0.24810223923E+04  0.00000000000E+00 0.  1.
         22   -1    0    0    0    0 -0.00000000000E+00 -0.00000000000E+00 -0.21491299916E+04  0.21491299916E+04  0.00000000000E+00 0.  1.
        -24    2    1    2    0    0  0.41964416355E+02  0.69064508257E+02 -0.20520714391E+04  0.20552898021E+04  0.81780566189E+02 0.  0.
         25    2    1    2    0    0  0.13178748290E+03  0.16123862876E+03  0.86330694452E+02  0.25781719356E+03  0.12510347892E+03 0.  0.
         24    2    1    2    0    0 -0.17375189926E+03 -0.23030313702E+03  0.22976331454E+04  0.23170453882E+04  0.79699452113E+02 0.  0.
        -13    1    5    5    0    0 -0.13951905952E+03 -0.13647530291E+03  0.13248684159E+04  0.13391666795E+04  0.00000000000E+00 0.  1.
         14    1    5    5    0    0 -0.34232839731E+02 -0.93827834109E+02  0.97276472953E+03  0.97787870863E+03  0.00000000000E+00 0. -1.
         11    1    3    3    0    0 -0.13926787713E+02  0.27629328549E+02 -0.25472970850E+03  0.25660194778E+03  0.00000000000E+00 0. -1.
        -12    1    3    3    0    0  0.55891204068E+02  0.41435179708E+02 -0.17973417306E+04  0.17986878544E+04  0.00000000000E+00 0.  1.
          5    1    4    4  501    0  0.69516589005E+02  0.52986207958E+02  0.99106736830E+02  0.13221086213E+03  0.41800000000E+01 0. -1.
         -5    1    4    4    0  501  0.62270893895E+02  0.10825242080E+03 -0.12776042378E+02  0.12560633143E+03  0.41800000000E+01 0. -1.
</event>
<event>
11    1  0.8328696E-009  0.4329904E+03  0.7561462E-02  0.9557139E-01
         22   -1    0    0    0    0  0.00000000000E+00  0.00000000000E+00  0.35336985533E+03  0.35336985533E+03  0.00000000000E+00 0. -1.
         22   -1    0    0    0    0 -0.00000000000E+00 -0.00000000000E+00 -0.83659551831E+03  0.83659551831E+03  0.00000000000E+00 0. -1.
        -24    2    1    2    0    0 -0.17382222378E+03 -0.63955650406E+02 -0.14022915618E+03  0.24838388638E+03  0.87896803525E+02 0.  0.
         25    2    1    2    0    0 -0.35715143679E+02  0.42778662164E+03 -0.15112988679E+03  0.47198419531E+03  0.12510744502E+03 0.  0.
         24    2    1    2    0    0  0.20953736746E+03 -0.36383097124E+03 -0.19186662000E+03  0.46959729195E+03  0.86197057601E+02 0.  0.
        -11    1    5    5    0    0  0.18420321992E+02 -0.68917248184E+02 -0.48329011916E+01  0.71500016039E+02  0.00000000000E+00 0.  1.
         12    1    5    5    0    0  0.19111704547E+03 -0.29491372305E+03 -0.18703371881E+03  0.39809727591E+03  0.00000000000E+00 0. -1.
         11    1    3    3    0    0  0.88810434239E+00  0.97978046200E+01  0.34887903551E+01  0.10438264359E+02  0.00000000000E+00 0. -1.
        -12    1    3    3    0    0 -0.17471032812E+03 -0.73753455026E+02 -0.14371794654E+03  0.23794562202E+03  0.00000000000E+00 0.  1.
          5    1    4    4  501    0 -0.69825663336E+02  0.13679864007E+03 -0.41669813130E+02  0.15919590733E+03  0.41800000000E+01 0. -1.
         -5    1    4    4    0  501  0.34110519657E+02  0.29098798158E+03 -0.10946007366E+03  0.31278828798E+03  0.41800000000E+01 0. -1.
</event>
<event>
11    1  0.8328696E-009  0.1414601E+03  0.7561462E-02  0.1105939E+00
         22   -1    0    0    0    0  0.00000000000E+00  0.00000000000E+00  0.10313768239E+04  0.10313768239E+04  0.00000000000E+00 0.  1.
         22   -1    0    0    0    0 -0.00000000000E+00 -0.00000000000E+00 -0.10644516997E+04  0.10644516997E+04  0.00000000000E+00 0. -1.
        -24    2    1    2    0    0  0.20060128318E+02 -0.50046175081E+02 -0.10424884963E+04  0.10470317982E+04  0.81155980144E+02 0.  0.
         25    2    1    2    0    0  0.42513389363E+02  0.70445548486E+02  0.34634187941E+03  0.37731901299E+03  0.12508787534E+03 0.  0.
         24    2    1    2    0    0 -0.62573517681E+02 -0.20399373405E+02  0.66307174110E+03  0.67147771252E+03  0.82985571143E+02 0.  0.
        -13    1    5    5    0    0 -0.56133728722E+02 -0.49850289206E+02  0.50602834512E+03  0.51156693883E+03  0.00000000000E+00 0.  1.
         14    1    5    5    0    0 -0.64397889597E+01  0.29450915801E+02  0.15704339597E+03  0.15991077369E+03  0.00000000000E+00 0. -1.
         11    1    3    3    0    0  0.30408729634E+02 -0.42490824754E+02 -0.10184686647E+04  0.10198081103E+04  0.00000000000E+00 0. -1.
        -12    1    3    3    0    0 -0.10348601316E+02 -0.75553503265E+01 -0.24019831607E+02  0.27223687814E+02  0.00000000000E+00 0.  1.
          5    1    4    4  501    0  0.38631156466E+02 -0.99319160610E+01  0.27939174936E+02  0.48878206827E+02  0.41800000000E+01 0. -1.
         -5    1    4    4    0  501  0.38822328973E+01  0.80377464547E+02  0.31840270447E+03  0.32844080616E+03  0.41800000000E+01 0. -1.
</event>
<event>
11    1  0.8328696E-009  0.2260120E+03  0.7561462E-02  0.1037515E+00
         22   -1    0    0    0    0  0.00000000000E+00  0.00000000000E+00  0.19869056071E+04  0.19869056071E+04  0.00000000000E+00 0. -1.
         22   -1    0    0    0    0 -0.00000000000E+00 -0.00000000000E+00 -0.94028800126E+03  0.94028800126E+03  0.00000000000E+00 0. -1.
        -24    2    1    2    0    0  0.10202491499E+03 -0.30634371988E+02 -0.90788077209E+03  0.91757500776E+03  0.79679674389E+02 0.  0.
         25    2    1    2    0    0 -0.16328265977E+03  0.18425322209E+03  0.99381552970E+03  0.10314681609E+04  0.12508710163E+03 0.  0.
         24    2    1    2    0    0  0.61257744784E+02 -0.15361885010E+03  0.96068284824E+03  0.97815043973E+03  0.80718556968E+02 0.  0.
        -11    1    5    5    0    0  0.22625782132E+02 -0.46270711706E+02  0.13271513660E+03  0.14235944739E+03  0.00000000000E+00 0.  1.
         12    1    5    5    0    0  0.38631962652E+02 -0.10734813839E+03  0.82796771164E+03  0.83579099234E+03  0.00000000000E+00 0. -1.
         11    1    3    3    0    0  0.10955772851E+03 -0.90658454342E+01 -0.77178493477E+03  0.77957492966E+03  0.00000000000E+00 0. -1.
        -12    1    3    3    0    0 -0.75328135285E+01 -0.21568526554E+02 -0.13609583732E+03  0.13800007810E+03  0.00000000000E+00 0.  1.
          5    1    4    4  501    0 -0.97411825208E+02  0.63375780088E+02  0.25972386584E+03  0.28456899353E+03  0.41800000000E+01 0. -1.
         -5    1    4    4    0  501 -0.65870834561E+02  0.12087744200E+03  0.73409166386E+03  0.74689916735E+03  0.41800000000E+01 0. -1.
</event>
<event>
11    1  0.8328696E-009  0.2963949E+03  0.7561462E-02  0.1001729E+00
         22   -1    0    0    0    0  0.00000000000E+00  0.00000000000E+00  0.22895115673E+03  0.22895115673E+03  0.00000000000E+00 0.  1.
         22   -1    0    0    0    0 -0.00000000000E+00 -0.00000000000E+00 -0.53124233039E+03  0.53124233039E+03  0.00000000000E+00 0.  1.
         24    2    1    2    0    0  0.13389251251E+03 -0.24912529142E+03 -0.93966787463E+02  0.30862191142E+03  0.80169266754E+02 0.  0.
         25    2    1    2    0    0 -0.18128738276E+03  0.18318221594E+03 -0.15808715044E+03  0.32719879494E+03  0.12508662954E+03 0.  0.
        -24    2    1    2    0    0  0.47394870257E+02  0.65943075479E+02 -0.50237235764E+02  0.12437278077E+03  0.79687174677E+02 0.  0.
        -11    1    3    3    0    0  0.11491311417E+03 -0.24397013862E+03 -0.71973281674E+02  0.27911754804E+03  0.00000000000E+00 0.  1.
         12    1    3    3    0    0  0.18979398334E+02 -0.51551527934E+01 -0.21993505788E+02  0.29504363377E+02  0.00000000000E+00 0. -1.
         13    1    5    5    0    0  0.52190603311E+02  0.18487084494E+02 -0.52931846288E+02  0.76599032099E+02  0.00000000000E+00 0. -1.
        -14    1    5    5    0    0 -0.47957330533E+01  0.47455990984E+02  0.26946105242E+01  0.47773748667E+02  0.00000000000E+00 0.  1.
          5    1    4    4  501    0 -0.18604390797E+03  0.15820397810E+03 -0.17121096935E+03  0.29828091258E+03  0.41800000000E+01 0. -1.
         -5    1    4    4    0  501  0.47565252081E+01  0.24978237834E+02  0.13123818915E+02  0.28917882361E+02  0.41800000000E+01 0. -1.
</event>
<event>
11    1  0.8328696E-009  0.1943194E+03  0.7561462E-02  0.1058615E+00
         22   -1    0    0    0    0  0.00000000000E+00  0.00000000000E+00  0.40379965656E+03  0.40379965656E+03  0.00000000000E+00 0. -1.
         22   -1    0    0    0    0 -0.00000000000E+00 -0.00000000000E+00 -0.37733536896E+03  0.37733536896E+03  0.00000000000E+00 0. -1.
        -24    2    1    2    0    0  0.16027591913E+03  0.39603929007E+02 -0.27519696173E+03  0.33191442266E+03  0.84717027709E+02 0.  0.
         25    2    1    2    0    0 -0.35534212318E+02 -0.99103649521E+02  0.10398979228E+03  0.19379321609E+03  0.12513081199E+03 0.  0.
         24    2    1    2    0    0 -0.12474170681E+03  0.59499720514E+02  0.19767145704E+03  0.25542738677E+03  0.84073984218E+02 0.  0.
        -13    1    5    5    0    0 -0.43534440641E+02  0.63035737554E+02  0.68266354996E+02  0.10261114440E+03  0.00000000000E+00 0.  1.
         14    1    5    5    0    0 -0.81207266170E+02 -0.35360170397E+01  0.12940510205E+03  0.15281624237E+03  0.00000000000E+00 0. -1.
         13    1    3    3    0    0  0.11518860745E+03  0.20676353700E+02 -0.25188150345E+03  0.27774128009E+03  0.00000000000E+00 0. -1.
        -14    1    3    3    0    0  0.45087311677E+02  0.18927575307E+02 -0.23315458279E+02  0.54173142571E+02  0.00000000000E+00 0.  1.
          5    1    4    4  501    0  0.27967945188E+02 -0.48357452653E+02 -0.66783258187E+01  0.56415615045E+02  0.41800000000E+01 0.  1.
         -5    1    4    4    0  501 -0.63502157506E+02 -0.50746196868E+02  0.11066811810E+03  0.13737760105E+03  0.41800000000E+01 0.  1.
</event>
<event>
11    1  0.8328696E-009  0.2057399E+03  0.7561462E-02  0.1050537E+00
         22   -1    0    0    0    0  0.00000000000E+00  0.00000000000E+00  0.10360667927E+04  0.10360667927E+04  0.00000000000E+00 0.  1.
         22   -1    0    0    0    0 -0.00000000000E+00 -0.00000000000E+00 -0.29968630741E+03  0.29968630741E+03  0.00000000000E+00 0.  1.
         24    2    1    2    0    0 -0.31273308650E+02 -0.15208496859E+03 -0.16130194195E+03  0.23737683114E+03  0.78877030758E+02 0.  0.
         25    2    1    2    0    0  0.87080670598E+02  0.17776262874E+03  0.43576860649E+02  0.23817940169E+03  0.12509152345E+03 0.  0.
        -24    2    1    2    0    0 -0.55807361947E+02 -0.25677660149E+02  0.85410556660E+03  0.86019686728E+03  0.81661053820E+02 0.  0.
        -11    1    3    3    0    0  0.49452832452E+00 -0.13058153148E+03 -0.14652301423E+03  0.19626710020E+03  0.00000000000E+00 0.  1.
         12    1    3    3    0    0 -0.31767836975E+02 -0.21503437109E+02 -0.14778927721E+02  0.41109730942E+02  0.00000000000E+00 0. -1.
         11    1    5    5    0    0 -0.30684609657E+02  0.28713061733E+02  0.38217681194E+03  0.38448029958E+03  0.00000000000E+00 0. -1.
        -12    1    5    5    0    0 -0.25122752290E+02 -0.54390721883E+02  0.47192875466E+03  0.47571656770E+03  0.00000000000E+00 0.  1.
          5    1    4    4  501    0  0.48174371235E+02  0.12102746297E+03 -0.33717087375E+02  0.13462069387E+03  0.41800000000E+01 0.  1.
         -5    1    4    4    0  501  0.38906299363E+02  0.56735165765E+02  0.77293948024E+02  0.10355870782E+03  0.41800000000E+01 0.  1.
</event>
<event>
11    1  0.8328696E-009  0.1308946E+03  0.7561462E-02  0.1118175E+00
         22   -1    0    0    0    0  0.00000000000E+00  0.00000000000E+00  0.27532131649E+03  0.27532131649E+03  0.00000000000E+00 0.  1.
         22   -1    0    0    0    0 -0.00000000000E+00 -0.00000000000E+00 -0.97667648398E+03  0.97667648398E+03  0.00000000000E+00 0.  1.
         24    2    1    2    0    0 -0.14504568246E+02  0.37525835816E+02 -0.89776395662E+03  0.90189535180E+03  0.76266197849E+02 0.  0.
         25    2    1    2    0    0 -0.63248946653E+01  0.81642865094E+00 -0.84946645361E+01  0.12554309431E+03  0.12509291888E+03 0.  0.
        -24    2    1    2    0    0  0.20829462912E+02 -0.38342264466E+02  0.20490345366E+03  0.22455935436E+03  0.80854700162E+02 0.  0.
        -11    1    3    3    0    0 -0.34643292953E+01  0.51485278073E+02 -0.83672455704E+03  0.83831421305E+03  0.00000000000E+00 0.  1.
         12    1    3    3    0    0 -0.11040238951E+02 -0.13959442257E+02 -0.61039399573E+02  0.63581138748E+02  0.00000000000E+00 0. -1.
         11    1    5    5    0    0 -0.65378700411E+01  0.27918963118E+01 -0.51469720322E+01  0.87766594322E+01  0.00000000000E+00 0. -1.
        -12    1    5    5    0    0  0.27367332953E+02 -0.41134160778E+02  0.21005042570E+03  0.21578269493E+03  0.00000000000E+00 0.  1.
          5    1    4    4  501    0  0.54949934951E+02  0.23196654573E+02 -0.65107425163E+01  0.60145176885E+02  0.41800000000E+01 0. -1.
         -5    1    4    4    0  501 -0.61274829616E+02 -0.22380225922E+02 -0.19839220198E+01  0.65397917424E+02  0.41800000000E+01 0. -1.
</event>
<event>
11    1  0.8328696E-009  0.1409310E+03  0.7561462E-02  0.1106523E+00
         22   -1    0    0    0    0  0.00000000000E+00  0.00000000000E+00  0.17653350246E+03  0.17653350246E+03  0.00000000000E+00 0. -1.
         22   -1    0    0    0    0 -0.00000000000E+00 -0.00000000000E+00 -0.14994273683E+04  0.14994273683E+04  0.00000000000E+00 0.  1.
        -24    2    1    2    0    0  0.22132806267E+02 -0.62280522416E+02 -0.13984986613E+04  0.14024041847E+04  0.81057182550E+02 0.  0.
         25    2    1    2    0    0 -0.59327133898E+02  0.68617347971E+01 -0.11013977045E+02  0.13904181334E+03  0.12507807940E+03 0.  0.
         24    2    1    2    0    0  0.37194327631E+02  0.55418787619E+02  0.86618772526E+02  0.13451487276E+03  0.78337597680E+02 0.  0.
        -11    1    5    5    0    0 -0.14099526855E+02 -0.10248381177E+02  0.56359451319E+01  0.18319111655E+02  0.00000000000E+00 0.  1.
         12    1    5    5    0    0  0.51293854486E+02  0.65667168796E+02  0.80982827394E+02  0.11619576110E+03  0.00000000000E+00 0. -1.
         13    1    3    3    0    0 -0.19454405576E+01  0.18168964258E+02 -0.15502583401E+03  0.15609902374E+03  0.00000000000E+00 0. -1.
        -14    1    3    3    0    0  0.24078246824E+02 -0.80449486674E+02 -0.12434728273E+04  0.12463051609E+04  0.00000000000E+00 0.  1.
          5    1    4    4  501    0 -0.28095304998E+02 -0.52654071137E+02 -0.32843705122E+02  0.68249386344E+02  0.41800000000E+01 0.  1.
         -5    1    4    4    0  501 -0.31231828900E+02  0.59515805934E+02  0.21829728077E+02  0.70792426998E+02  0.41800000000E+01 0.  1.
</event>
<event>
11    1  0.8328696E-009  0.1612353E+03  0.7561462E-02  0.1085921E+00
         22   -1    0    0    0    0  0.00000000000E+00  0.00000000000E+00  0.11502955784E+04  0.11502955784E+04  0.00000000000E+00 0.  1.
         22   -1    0    0    0    0 -0.00000000000E+00 -0.00000000000E+00 -0.11675321535E+04  0.11675321535E+04  0.00000000000E+00 0. -1.
         24    2    1    2    0    0 -0.10531097171E+03 -0.49304122325E+01 -0.10627823712E+04  0.10710522042E+04  0.80819217147E+02 0.  0.
         25    2    1    2    0    0  0.57611754223E+02 -0.28562617118E+02 -0.46998170338E+02  0.14828952262E+03  0.12508404047E+03 0.  0.
        -24    2    1    2    0    0  0.47699217486E+02  0.33493029350E+02  0.10925439665E+04  0.10984860050E+04  0.98092741930E+02 0.  0.
        -13    1    3    3    0    0 -0.46029728632E+02  0.31621620808E+02 -0.30452309060E+03  0.30960131706E+03  0.00000000000E+00 0.  1.
         14    1    3    3    0    0 -0.59281243077E+02 -0.36552033040E+02 -0.75825928065E+03  0.76145088718E+03  0.00000000000E+00 0. -1.
         11    1    5    5    0    0 -0.59644682443E+01  0.32988245536E+02  0.12385399106E+03  0.12831060099E+03  0.00000000000E+00 0. -1.
        -12    1    5    5    0    0  0.53663685730E+02  0.50478381421E+00  0.96868997544E+03  0.97017540398E+03  0.00000000000E+00 0.  1.
          5    1    4    4  501    0  0.20652443978E+02  0.28416286844E+02  0.29388575021E+02  0.45990972397E+02  0.41800000000E+01 0.  1.
         -5    1    4    4    0  501  0.36959310245E+02 -0.56978903961E+02 -0.76386745360E+02  0.10229855022E+03  0.41800000000E+01 0.  1.
</event>
<event>
11    1  0.1811066E-008  0.1593283E+03  0.7561462E-02  0.1087711E+00
         22   -1    0    0    0    0  0.00000000000E+00  0.00000000000E+00  0.21978647253E+03  0.21978647253E+03  0.00000000000E+00 0.  1.
         22   -1    0    0    0    0 -0.00000000000E+00 -0.00000000000E+00 -0.11496476683E+04  0.11496476683E+04  0.00000000000E+00 0.  1.
        -24    2    1    2    0    0 -0.70178383356E+02  0.32155260162E+02 -0.56602265180E+03  0.58178948584E+03  0.11017439470E+03 0.  0.
         25    2    1    2    0    0  0.93042053351E+02 -0.13375946906E+03 -0.53431990954E+03  0.57244552700E+03  0.12509075262E+03 0.  0.
         24    2    1    2    0    0 -0.22863669995E+02  0.10160420890E+03  0.17048136558E+03  0.21519912799E+03  0.80003787446E+02 0.  0.
        -13    1    5    5    0    0 -0.89903007634E+01  0.11022533961E+03  0.16360537041E+03  0.19747700683E+03  0.00000000000E+00 0.  1.
         14    1    5    5    0    0 -0.13873369232E+02 -0.86211307146E+01  0.68759951661E+01  0.17722121153E+02  0.00000000000E+00 0. -1.
         13    1    3    3    0    0 -0.42900088920E+02  0.53200770440E+02 -0.15589792210E+03  0.17022015662E+03  0.00000000000E+00 0. -1.
        -14    1    3    3    0    0 -0.27278294436E+02 -0.21045510278E+02 -0.41012472970E+03  0.41156932923E+03  0.00000000000E+00 0.  1.
          5    1    4    4  501    0  0.49492140641E+02 -0.13017160718E+03 -0.26326510504E+03  0.29785920706E+03  0.41800000000E+01 0.  1.
         -5    1    4    4    0  501  0.43549912710E+02 -0.35878618798E+01 -0.27105480451E+03  0.27458631994E+03  0.41800000000E+01 0.  1.
</event>
<event>
11    1  0.8328696E-009  0.1358798E+03  0.7561462E-02  0.1112248E+00
         22   -1    0    0    0    0  0.00000000000E+00  0.00000000000E+00  0.26433789530E+04  0.26433789530E+04  0.00000000000E+00 0.  1.
         22   -1    0    0    0    0 -0.00000000000E+00 -0.00000000000E+00 -0.57385990383E+02  0.57385990383E+02  0.00000000000E+00 0. -1.
        -24    2    1    2    0    0 -0.94920680401E+01 -0.52650958787E+02 -0.88879390767E+01  0.97038084150E+02  0.80468450324E+02 0.  0.
         25    2    1    2    0    0  0.19161685646E+01  0.40363900747E+02  0.13164043857E+04  0.13229515387E+04  0.12508937144E+03 0.  0.
         24    2    1    2    0    0  0.75758994755E+01  0.12287058040E+02  0.12784765160E+04  0.12807753206E+04  0.75331624942E+02 0.  0.
        -13    1    5    5    0    0 -0.23729062933E+02  0.31746152897E+02  0.70937064252E+03  0.71047701942E+03  0.00000000000E+00 0.  1.
         14    1    5    5    0    0  0.31304962409E+02 -0.19459094857E+02  0.56910587352E+03  0.57029830117E+03  0.00000000000E+00 0. -1.
         13    1    3    3    0    0 -0.26393198857E+02 -0.66412094119E+02 -0.17545289841E+02  0.73586713385E+02  0.00000000000E+00 0. -1.
        -14    1    3    3    0    0  0.16901130817E+02  0.13761135332E+02  0.86573507645E+01  0.23451370765E+02  0.00000000000E+00 0.  1.
          5    1    4    4  501    0  0.40494470345E+02 -0.28800048108E+02  0.63294941140E+03  0.63491076121E+03  0.41800000000E+01 0. -1.
         -5    1    4    4    0  501 -0.38578301780E+02  0.69163948855E+02  0.68345497430E+03  0.68804077748E+03  0.41800000000E+01 0. -1.
</event>
<event>
11    1  0.1187330E-008  0.1742086E+03  0.7561462E-02  0.1074426E+00
         22   -1    0    0    0    0  0.00000000000E+00  0.00000000000E+00  0.72279762774E+03  0.72279762774E+03  0.00000000000E+00 0. -1.
         22   -1    0    0    0    0 -0.00000000000E+00 -0.00000000000E+00 -0.19845557940E+04  0.19845557940E+04  0.00000000000E+00 0.  1.
         24    2    1    2    0    0  0.15799046974E+02  0.11870353086E+03 -0.17066072027E+04  0.17124597304E+04  0.75299706403E+02 0.  0.
         25    2    1    2    0    0 -0.91483613769E+02 -0.12771424519E+03 -0.23336118827E+03  0.30787230730E+03  0.12509090054E+03 0.  0.
        -24    2    1    2    0    0  0.75684566795E+02  0.90107143236E+01  0.67821022471E+03  0.68702138406E+03  0.78866511455E+02 0.  0.
        -11    1    3    3    0    0  0.12149491966E+02  0.65588882242E+02 -0.13740209353E+04  0.13756391396E+04  0.00000000000E+00 0.  1.
         12    1    3    3    0    0  0.36495550077E+01  0.53114648622E+02 -0.33258626737E+03  0.33682059081E+03  0.00000000000E+00 0. -1.
         13    1    5    5    0    0  0.56377278019E+02 -0.15920874507E+02  0.59757542535E+03  0.60044005588E+03  0.00000000000E+00 0. -1.
        -14    1    5    5    0    0  0.19307288775E+02  0.24931588831E+02  0.80634799360E+02  0.86581328180E+02  0.00000000000E+00 0.  1.
          5    1    4    4  501    0 -0.48707249277E+02 -0.14570783565E+03 -0.16925582331E+03  0.22862234280E+03  0.41800000000E+01 0. -1.
         -5    1    4    4    0  501 -0.42776364491E+02  0.17993590460E+02 -0.64105364961E+02  0.79249964502E+02  0.41800000000E+01 0. -1.
</event>
<event>
11    1  0.8328696E-009  0.1384061E+03  0.7561462E-02  0.1109351E+00
         22   -1    0    0    0    0  0.00000000000E+00  0.00000000000E+00  0.10550555235E+04  0.10550555235E+04  0.00000000000E+00 0.  1.
         22   -1    0    0    0    0 -0.00000000000E+00 -0.00000000000E+00 -0.17823517856E+04  0.17823517856E+04  0.00000000000E+00 0. -1.
        -24    2    1    2    0    0 -0.42528346026E+02  0.29861963735E+01 -0.15892457431E+04  0.15918410115E+04  0.80238373598E+02 0.  0.
         25    2    1    2    0    0  0.54817029904E+02 -0.60781476144E+02 -0.16004995985E+03  0.21900554533E+03  0.12509254426E+03 0.  0.
         24    2    1    2    0    0 -0.12288683878E+02  0.57795279770E+02  0.10219994408E+04  0.10265607522E+04  0.76503691414E+02 0.  0.
        -13    1    5    5    0    0  0.36077158010E+01  0.73914963622E+02  0.79188146328E+03  0.79533181085E+03  0.00000000000E+00 0.  1.
         14    1    5    5    0    0 -0.15896399679E+02 -0.16119683852E+02  0.23011797755E+03  0.23122894136E+03  0.00000000000E+00 0. -1.
         13    1    3    3    0    0 -0.24880356882E+02  0.46715900063E+01 -0.15245518590E+04  0.15247620230E+04  0.00000000000E+00 0. -1.
        -14    1    3    3    0    0 -0.17647989144E+02 -0.16853936328E+01 -0.64693884044E+02  0.67078988552E+02  0.00000000000E+00 0.  1.
          5    1    4    4  501    0 -0.32808238024E+02 -0.38260465629E+02 -0.25046452287E+02  0.56436166459E+02  0.41800000000E+01 0.  1.
         -5    1    4    4    0  501  0.87625267928E+02 -0.22521010515E+02 -0.13500350756E+03  0.16256937888E+03  0.41800000000E+01 0.  1.
</event>
<event>
11    1  0.8328696E-009  0.1905527E+03  0.7561462E-02  0.1061413E+00
         22   -1    0    0    0    0  0.00000000000E+00  0.00000000000E+00  0.13998338421E+04  0.13998338421E+04  0.00000000000E+00 0. -1.
         22   -1    0    0    0    0 -0.00000000000E+00 -0.00000000000E+00 -0.26733232570E+03  0.26733232570E+03  0.00000000000E+00 0. -1.
         24    2    1    2    0    0  0.14390107254E+03 -0.14868556229E+02 -0.21009263320E+03  0.26828919041E+03  0.83135927988E+02 0.  0.
         25    2    1    2    0    0 -0.13730405499E+03 -0.61825142380E+02  0.35776486408E+03  0.40782086102E+03  0.12508958774E+03 0.  0.
        -24    2    1    2    0    0 -0.65970175538E+01  0.76693698609E+02  0.98482928549E+03  0.99105611633E+03  0.79862757958E+02 0.  0.
        -13    1    3    3    0    0  0.53622836650E+02 -0.45066814733E+02 -0.10776002695E+03  0.12852489957E+03  0.00000000000E+00 0.  1.
         14    1    3    3    0    0  0.90278235894E+02  0.30198258504E+02 -0.10233260625E+03  0.13976429084E+03  0.00000000000E+00 0. -1.
         13    1    5    5    0    0 -0.18377126967E+02  0.71747106995E+02  0.96238012324E+03  0.96522581180E+03  0.00000000000E+00 0. -1.
        -14    1    5    5    0    0  0.11780109413E+02  0.49465916135E+01  0.22449162254E+02  0.25830304533E+02  0.00000000000E+00 0.  1.
          5    1    4    4  501    0 -0.30753457801E+02 -0.34991151379E+02  0.17017820446E+02  0.49771823899E+02  0.41800000000E+01 0. -1.
         -5    1    4    4    0  501 -0.10655059719E+03 -0.26833991002E+02  0.34074704364E+03  0.35804903712E+03  0.41800000000E+01 0. -1.
</event>
<event>
11    1  0.8328696E-009  0.1320041E+03  0.7561462E-02  0.1116831E+00
         22   -1    0    0    0    0  0.00000000000E+00  0.00000000000E+00  0.20692056758E+04  0.20692056758E+04  0.00000000000E+00 0.  1.
         22   -1    0    0    0    0 -0.00000000000E+00 -0.00000000000E+00 -0.44696562214E+03  0.44696562214E+03  0.00000000000E+00 0. -1.
        -24    2    1    2    0    0 -0.42592440718E+02  0.19567611231E+02 -0.42742029289E+03  0.43739623098E+03  0.80189454982E+02 0.  0.
         25    2    1    2    0    0 -0.31027163547E+01 -0.14680439119E+02  0.28481812770E+03  0.31143780184E+03  0.12508795467E+03 0.  0.
         24    2    1    2    0    0  0.45695157073E+02 -0.48871721127E+01  0.17648422189E+04  0.17673372651E+04  0.81859754886E+02 0.  0.
        -13    1    5    5    0    0  0.98454280925E+01  0.64181309988E+01  0.14774966395E+04  0.14775433816E+04  0.00000000000E+00 0.  1.
         14    1    5    5    0    0  0.35849728980E+02 -0.11305303111E+02  0.28734557939E+03  0.28979388355E+03  0.00000000000E+00 0. -1.
         13    1    3    3    0    0 -0.52797537310E+02  0.31689268692E+02 -0.19625804175E+03  0.20569153761E+03  0.00000000000E+00 0. -1.
        -14    1    3    3    0    0  0.10205096592E+02 -0.12121657461E+02 -0.23116225114E+03  0.23170469337E+03  0.00000000000E+00 0.  1.
          5    1    4    4  501    0 -0.35229686728E+02  0.36782612113E+02  0.20395707252E+03  0.21026186343E+03  0.41800000000E+01 0. -1.
         -5    1    4    4    0  501  0.32126970373E+02 -0.51463051232E+02  0.80861055179E+02  0.10117593840E+03  0.41800000000E+01 0. -1.
</event>
<event>
11    1  0.8328696E-009  0.1582632E+03  0.7561462E-02  0.1088722E+00
         22   -1    0    0    0    0  0.00000000000E+00  0.00000000000E+00  0.64577625711E+03  0.64577625711E+03  0.00000000000E+00 0. -1.
         22   -1    0    0    0    0 -0.00000000000E+00 -0.00000000000E+00 -0.14131890320E+03  0.14131890320E+03  0.00000000000E+00 0. -1.
        -24    2    1    2    0    0  0.35798618664E+02  0.54612325793E+01 -0.74956546281E+02  0.11533799509E+03  0.79831091196E+02 0.  0.
         25    2    1    2    0    0 -0.11955156502E+02  0.91023221504E+02  0.12341794639E+03  0.19825704771E+03  0.12508283198E+03 0.  0.
         24    2    1    2    0    0 -0.23843462162E+02 -0.96484454084E+02  0.45599595379E+03  0.47350011751E+03  0.79951803222E+02 0.  0.
        -11    1    5    5    0    0 -0.21962209708E+01  0.13953623472E+02  0.35560824116E+02  0.38263549317E+02  0.00000000000E+00 0.  1.
         12    1    5    5    0    0 -0.21647241192E+02 -0.11043807756E+03  0.42043512967E+03  0.43523656819E+03  0.00000000000E+00 0. -1.
         13    1    3    3    0    0  0.56398333893E+01 -0.42278685156E+01 -0.82479356180E+02  0.82779990267E+02  0.00000000000E+00 0. -1.
        -14    1    3    3    0    0  0.30158785275E+02  0.96891010950E+01  0.75228098988E+01  0.32558004823E+02  0.00000000000E+00 0.  1.
          5    1    4    4  501    0 -0.37895361845E+02  0.66890128074E+02  0.13933460091E+03  0.15919155472E+03  0.41800000000E+01 0. -1.
         -5    1    4    4    0  501  0.25940205343E+02  0.24133093430E+02 -0.15916654519E+02  0.39065492993E+02  0.41800000000E+01 0. -1.
</event>
<event>
11    1  0.8328696E-009  0.1565947E+03  0.7561462E-02  0.1090325E+00
         22   -1    0    0    0    0  0.00000000000E+00  0.00000000000E+00  0.50758931859E+03  0.50758931859E+03  0.00000000000E+00 0.  1.
         22   -1    0    0    0    0 -0.00000000000E+00 -0.00000000000E+00 -0.43367223687E+03  0.43367223687E+03  0.00000000000E+00 0.  1.
         24    2    1    2    0    0  0.93789768749E+02 -0.50971985049E+01 -0.25763666125E+03  0.28643745072E+03  0.82748183082E+02 0.  0.
         25    2    1    2    0    0 -0.93794518758E+02  0.18394221132E+02 -0.11864982720E+03  0.19713845909E+03  0.12510008569E+03 0.  0.
        -24    2    1    2    0    0  0.47500091269E-02 -0.13297022627E+02  0.45020357016E+03  0.45768564564E+03  0.81339318928E+02 0.  0.
        -13    1    3    3    0    0  0.75171642323E+02 -0.18468347445E+02 -0.96648619560E+02  0.12382572968E+03  0.00000000000E+00 0.  1.
         14    1    3    3    0    0  0.18618126425E+02  0.13371148941E+02 -0.16098804169E+03  0.16261172105E+03  0.00000000000E+00 0. -1.
         11    1    5    5    0    0 -0.21631753942E+02  0.26520909186E+02  0.13646172574E+03  0.14068793124E+03  0.00000000000E+00 0. -1.
        -12    1    5    5    0    0  0.21636503951E+02 -0.39817931813E+02  0.31374184442E+03  0.31699771440E+03  0.00000000000E+00 0.  1.
          5    1    4    4  501    0  0.57990869686E+01 -0.40834883887E+02 -0.29593071435E+02  0.50934658424E+02  0.41800000000E+01 0.  1.
         -5    1    4    4    0  501 -0.99593605726E+02  0.59229105020E+02 -0.89056755761E+02  0.14620380067E+03  0.41800000000E+01 0.  1.
</event>
<event>
11    1  0.8328696E-009  0.3372147E+03  0.7561462E-02  0.9855655E-01
         22   -1    0    0    0    0  0.00000000000E+00  0.00000000000E+00  0.92452008150E+03  0.92452008150E+03  0.00000000000E+00 0. -1.
         22   -1    0    0    0    0 -0.00000000000E+00 -0.00000000000E+00 -0.23388655478E+04  0.23388655478E+04  0.00000000000E+00 0.  1.
        -24    2    1    2    0    0 -0.16769887909E+03 -0.25784387351E+03 -0.21104717064E+04  0.21342663301E+04  0.79972287491E+02 0.  0.
         25    2    1    2    0    0  0.16319258021E+03  0.41019411541E+03  0.51259887444E+02  0.46169739272E+03  0.12508347545E+03 0.  0.
         24    2    1    2    0    0  0.45062988864E+01 -0.15235024189E+03  0.64486635266E+03  0.66742190657E+03  0.79802792213E+02 0.  0.
        -13    1    5    5    0    0  0.32750458960E+02 -0.54160396804E+02  0.16330696634E+03  0.17514310263E+03  0.00000000000E+00 0.  1.
         14    1    5    5    0    0 -0.28244160074E+02 -0.98189845087E+02  0.48155938631E+03  0.49227880394E+03  0.00000000000E+00 0. -1.
         13    1    3    3    0    0 -0.43086574529E+01 -0.14255715972E+01 -0.17492547054E+03  0.17498433366E+03  0.00000000000E+00 0. -1.
        -14    1    3    3    0    0 -0.16339022164E+03 -0.25641830192E+03 -0.19355462359E+04  0.19592819964E+04  0.00000000000E+00 0.  1.
          5    1    4    4  501    0  0.11410430070E+03  0.13755713414E+03  0.46001114065E+02  0.18459504730E+03  0.41800000000E+01 0. -1.
         -5    1    4    4    0  501  0.49088279504E+02  0.27263698126E+03  0.52587733786E+01  0.27710234541E+03  0.41800000000E+01 0. -1.
</event>
<event>
11    1  0.8328696E-009  0.1461219E+03  0.7561462E-02  0.1100909E+00
         22   -1    0    0    0    0  0.00000000000E+00  0.00000000000E+00  0.99273498394E+02  0.99273498394E+02  0.00000000000E+00 0.  1.
         22   -1    0    0    0    0 -0.00000000000E+00 -0.00000000000E+00 -0.11806284445E+04  0.11806284445E+04  0.00000000000E+00 0.  1.
        -24    2    1    2    0    0  0.16737065093E+02 -0.28419075238E+02 -0.90704863132E+03  0.91145475853E+03  0.83215287543E+02 0.  0.
         25    2    1    2    0    0  0.61359504203E+02  0.24798970123E+02 -0.20786748963E+03  0.25146775170E+03  0.12508860548E+03 0.  0.
         24    2    1    2    0    0 -0.78096569297E+02  0.36201051152E+01  0.33561174862E+02  0.11697943265E+03  0.80284842332E+02 0.  0.
        -13    1    5    5    0    0 -0.17910391333E+02 -0.24669777601E+02  0.39856402143E+02  0.50178808639E+02  0.00000000000E+00 0.  1.
         14    1    5    5    0    0 -0.60186177963E+02  0.28289882716E+02 -0.62952272810E+01  0.66800624012E+02  0.00000000000E+00 0. -1.
         13    1    3    3    0    0 -0.25999176858E+02 -0.66925761825E+01 -0.12086523476E+03  0.12381095568E+03  0.00000000000E+00 0. -1.
        -14    1    3    3    0    0  0.42736241951E+02 -0.21726499056E+02 -0.78618339657E+03  0.78764380286E+03  0.00000000000E+00 0.  1.
          5    1    4    4  501    0 -0.26302774720E+02 -0.19975425572E+02 -0.18707461941E+02  0.38187630420E+02  0.41800000000E+01 0.  1.
         -5    1    4    4    0  501  0.87662278923E+02  0.44774395695E+02 -0.18916002769E+03  0.21328012128E+03  0.41800000000E+01 0.  1.
</event>
<event>
11    1  0.8328696E-009  0.1438418E+03  0.7561462E-02  0.1103343E+00
         22   -1    0    0    0    0  0.00000000000E+00  0.00000000000E+00  0.25117099440E+03  0.25117099440E+03  0.00000000000E+00 0. -1.
         22   -1    0    0    0    0 -0.00000000000E+00 -0.00000000000E+00 -0.57035033953E+03  0.57035033953E+03  0.00000000000E+00 0.  1.
        -24    2    1    2    0    0 -0.57296733213E+02  0.38892749719E+02 -0.46010487204E+03  0.47116181532E+03  0.74171431981E+02 0.  0.
         25    2    1    2    0    0  0.53108614837E+02 -0.86755071514E+02 -0.21478146377E+02  0.16265128185E+03  0.12508861384E+03 0.  0.
         24    2    1    2    0    0  0.41881183760E+01  0.47862321795E+02  0.16240367329E+03  0.18770823677E+03  0.80938784698E+02 0.  0.
        -13    1    5    5    0    0 -0.15626001610E+02 -0.15472328681E+02  0.16728885701E+02  0.27630065109E+02  0.00000000000E+00 0.  1.
         14    1    5    5    0    0  0.19814119986E+02  0.63334650476E+02  0.14567478759E+03  0.16007817166E+03  0.00000000000E+00 0. -1.
         13    1    3    3    0    0 -0.12418116944E+02  0.44500893465E+02 -0.12984940916E+03  0.13782383033E+03  0.00000000000E+00 0. -1.
        -14    1    3    3    0    0 -0.44878616269E+02 -0.56081437452E+01 -0.33025546288E+03  0.33333798499E+03  0.00000000000E+00 0.  1.
          5    1    4    4  501    0  0.12305403820E+02  0.69107368798E+01  0.40492887134E+02  0.43085119889E+02  0.41800000000E+01 0.  1.
         -5    1    4    4    0  501  0.40803211017E+02 -0.93665808394E+02 -0.61971033511E+02  0.11956616196E+03  0.41800000000E+01 0.  1.
</event>
<event>
11    1  0.8328696E-009  0.1283352E+03  0.7561462E-02  0.1121332E+00
         22   -1    0    0    0    0  0.00000000000E+00  0.00000000000E+00  0.20928703190E+04  0.20928703190E+04  0.00000000000E+00 0.  1.
         22   -1    0    0    0    0 -0.00000000000E+00 -0.00000000000E+00 -0.25549765602E+03  0.25549765602E+03  0.00000000000E+00 0. -1.
         24    2    1    2    0    0 -0.50900691975E+01 -0.20421348125E+02 -0.23488350816E+03  0.24916830605E+03  0.80446516829E+02 0.  0.
         25    2    1    2    0    0  0.26583300766E+01 -0.97358873405E+01  0.30408315418E+03  0.32896291414E+03  0.12509268563E+03 0.  0.
        -24    2    1    2    0    0  0.24317391209E+01  0.30157235465E+02  0.17681730170E+04  0.17702367549E+04  0.79918571666E+02 0.  0.
        -13    1    3    3    0    0 -0.41764517513E+02 -0.19475033876E+02 -0.11874710755E+03  0.12737514444E+03  0.00000000000E+00 0.  1.
         14    1    3    3    0    0  0.36674448316E+02 -0.94631424827E+00 -0.11613640060E+03  0.12179316161E+03  0.00000000000E+00 0. -1.
         13    1    5    5    0    0 -0.13201487043E+02  0.51424485686E+02  0.83232385208E+03  0.83401543854E+03  0.00000000000E+00 0. -1.
        -14    1    5    5    0    0  0.15633226164E+02 -0.21267250221E+02  0.93584916492E+03  0.93622131635E+03  0.00000000000E+00 0.  1.
          5    1    4    4  501    0 -0.60994400442E+02 -0.82522900366E+01  0.14974748193E+03  0.16195739538E+03  0.41800000000E+01 0. -1.
         -5    1    4    4    0  501  0.63652730518E+02 -0.14835973039E+01  0.15433567226E+03  0.16700551876E+03  0.41800000000E+01 0. -1.
</event>
<event>
11    1  0.8328696E-009  0.2254270E+03  0.7561462E-02  0.1037870E+00
         22   -1    0    0    0    0  0.00000000000E+00  0.00000000000E+00  0.26877919692E+02  0.26877919692E+02  0.00000000000E+00 0. -1.
         22   -1    0    0    0    0 -0.00000000000E+00 -0.00000000000E+00 -0.28781623610E+04  0.28781623610E+04  0.00000000000E+00 0.  1.
         24    2    1    2    0    0 -0.18785760320E+03  0.51372472818E+02 -0.17476015571E+04  0.17601252475E+04  0.77460149246E+02 0.  0.
         25    2    1    2    0    0  0.16452210580E+03 -0.53345576994E+02 -0.87964085576E+03  0.90516771216E+03  0.12508908079E+03 0.  0.
        -24    2    1    2    0    0  0.23335497403E+02  0.19731041758E+01 -0.22404202846E+03  0.23974732097E+03  0.82070145711E+02 0.  0.
        -13    1    3    3    0    0 -0.11838135484E+03  0.69613626107E+02 -0.10927523712E+04  0.11013482405E+04  0.00000000000E+00 0.  1.
         14    1    3    3    0    0 -0.69476248362E+02 -0.18241153288E+02 -0.65484918585E+03  0.65877700701E+03  0.00000000000E+00 0. -1.
         11    1    5    5    0    0  0.29270139153E+02  0.35454673546E+02 -0.16817107000E+03  0.17434243232E+03  0.00000000000E+00 0. -1.
        -12    1    5    5    0    0 -0.59346417501E+01 -0.33481569370E+02 -0.55870958461E+02  0.65404888652E+02  0.00000000000E+00 0.  1.
          5    1    4    4  501    0  0.91641089705E+02 -0.92016588296E+02 -0.49631643966E+03  0.51304251532E+03  0.41800000000E+01 0. -1.
         -5    1    4    4    0  501  0.72881016095E+02  0.38671011302E+02 -0.38332441610E+03  0.39212519684E+03  0.41800000000E+01 0. -1.
</event>
<event>
11    1  0.8328696E-009  0.1323011E+03  0.7561462E-02  0.1116474E+00
         22   -1    0    0    0    0  0.00000000000E+00  0.00000000000E+00  0.13904509567E+04  0.13904509567E+04  0.00000000000E+00 0.  1.
         22   -1    0    0    0    0 -0.00000000000E+00 -0.00000000000E+00 -0.34644752658E+02  0.34644752658E+02  0.00000000000E+00 0. -1.
         24    2    1    2    0    0  0.38936196922E+02 -0.44574398819E+02  0.11780915611E+03  0.15442044779E+03  0.80397593067E+02 0.  0.
         25    2    1    2    0    0 -0.95664362411E+01  0.45746200027E+01  0.26718817815E+03  0.29521133555E+03  0.12509103182E+03 0.  0.
        -24    2    1    2    0    0 -0.29369760681E+02  0.39999778816E+02  0.97080886977E+03  0.97546392600E+03  0.81224652475E+02 0.  0.
        -11    1    3    3    0    0  0.26907192245E+02  0.19828605205E+02  0.49892032851E+02  0.60053189098E+02  0.00000000000E+00 0.  1.
         12    1    3    3    0    0  0.12029004678E+02 -0.64403004024E+02  0.67917123256E+02  0.94367258688E+02  0.00000000000E+00 0. -1.
         11    1    5    5    0    0  0.75576017082E+01 -0.21529298818E+01  0.86969912326E+01  0.11721352616E+02  0.00000000000E+00 0. -1.
        -12    1    5    5    0    0 -0.36927362390E+02  0.42152708698E+02  0.96211187853E+03  0.96374257339E+03  0.00000000000E+00 0.  1.
          5    1    4    4  501    0 -0.59367085733E+01  0.15692454723E+02 -0.84836553414E+01  0.19259866351E+02  0.41800000000E+01 0.  1.
         -5    1    4    4    0  501 -0.36297276678E+01 -0.11117834720E+02  0.27567183349E+03  0.27595146920E+03  0.41800000000E+01 0.  1.
</event>
<event>
11    1  0.1003652E-008  0.1664678E+03  0.7561462E-02  0.1081147E+00
         22   -1    0    0    0    0  0.00000000000E+00  0.00000000000E+00  0.87160616961E+03  0.87160616961E+03  0.00000000000E+00 0. -1.
         22   -1    0    0    0    0 -0.00000000000E+00 -0.00000000000E+00 -0.36734135677E+03  0.36734135677E+03  0.00000000000E+00 0.  1.
         24    2    1    2    0    0 -0.14836509482E+02 -0.32799144659E+02 -0.28831866214E+03  0.30173972087E+03  0.81383673471E+02 0.  0.
         25    2    1    2    0    0  0.55221994444E+02 -0.71652254457E+02  0.24050586353E+02  0.15623417911E+03  0.12508866367E+03 0.  0.
        -24    2    1    2    0    0 -0.40385484962E+02  0.10445139912E+03  0.76853288863E+03  0.78097362640E+03  0.82072663338E+02 0.  0.
        -13    1    3    3    0    0 -0.16036869933E+02  0.24388541193E+01 -0.24653330189E+03  0.24706638409E+03  0.00000000000E+00 0.  1.
         14    1    3    3    0    0  0.12003604511E+01 -0.35237998778E+02 -0.41785360244E+02  0.54673336773E+02  0.00000000000E+00 0. -1.
         11    1    5    5    0    0 -0.10578821724E+02  0.10739301139E+03  0.63679003029E+03  0.64586895965E+03  0.00000000000E+00 0. -1.
        -12    1    5    5    0    0 -0.29806663238E+02 -0.29416122712E+01  0.13174285833E+03  0.13510466675E+03  0.00000000000E+00 0.  1.
          5    1    4    4  501    0  0.69197858313E+02 -0.87332448458E+02 -0.14193236856E+02  0.11240204856E+03  0.41800000000E+01 0. -1.
         -5    1    4    4    0  501 -0.13975863869E+02  0.15680194002E+02  0.38243823209E+02  0.43832130549E+02  0.41800000000E+01 0. -1.
</event>
<event>
11    1  0.8328696E-009  0.1438504E+03  0.7561462E-02  0.1103333E+00
         22   -1    0    0    0    0  0.00000000000E+00  0.00000000000E+00  0.59004866395E+03  0.59004866395E+03  0.00000000000E+00 0. -1.
         22   -1    0    0    0    0 -0.00000000000E+00 -0.00000000000E+00 -0.22692295735E+03  0.22692295735E+03  0.00000000000E+00 0.  1.
         24    2    1    2    0    0  0.13861829111E+02  0.34272718410E+02 -0.11607610779E+03  0.14504228350E+03  0.78719957260E+02 0.  0.
         25    2    1    2    0    0  0.34603293037E+02  0.20444283037E+02 -0.43037614046E+02  0.13825730930E+03  0.12508993067E+03 0.  0.
        -24    2    1    2    0    0 -0.48465122148E+02 -0.54717001446E+02  0.52223942844E+03  0.53367202850E+03  0.82030452111E+02 0.  0.
        -11    1    3    3    0    0  0.22558128376E+02  0.57320384418E+02 -0.73977426209E+02  0.96266064707E+02  0.00000000000E+00 0.  1.
         12    1    3    3    0    0 -0.86962992643E+01 -0.23047666009E+02 -0.42098681579E+02  0.48776218796E+02  0.00000000000E+00 0. -1.
         13    1    5    5    0    0 -0.39045480534E+02 -0.75404894330E+02  0.44996655365E+03  0.45790866671E+03  0.00000000000E+00 0. -1.
        -14    1    5    5    0    0 -0.94196416141E+01  0.20687892884E+02  0.72272874782E+02  0.75763361787E+02  0.00000000000E+00 0.  1.
          5    1    4    4  501    0  0.11909478175E+02  0.67546741526E+02 -0.50501693558E+02  0.85277731052E+02  0.41800000000E+01 0. -1.
         -5    1    4    4    0  501  0.22693814862E+02 -0.47102458489E+02  0.74640795118E+01  0.52979578251E+02  0.41800000000E+01 0. -1.
</event>
<event>
11    1  0.8328696E-009  0.1521860E+03  0.7561462E-02  0.1094666E+00
         22   -1    0    0    0    0  0.00000000000E+00  0.00000000000E+00  0.17501329934E+03  0.17501329934E+03  0.00000000000E+00 0. -1.
         22   -1    0    0    0    0 -0.00000000000E+00 -0.00000000000E+00 -0.10827111083E+04  0.10827111083E+04  0.00000000000E+00 0. -1.
        -24    2    1    2    0    0 -0.22269699130E+01  0.92509957254E+02 -0.83782726182E+03  0.84669036970E+03  0.79793545545E+02 0.  0.
         25    2    1    2    0    0 -0.17656262288E+02 -0.16438568115E+03 -0.15608513837E+03  0.25950738324E+03  0.12508843179E+03 0.  0.
         24    2    1    2    0    0  0.19883232201E+02  0.71875723901E+02  0.86214591201E+02  0.15152665472E+03  0.99829398210E+02 0.  0.
        -13    1    5    5    0    0  0.58930506581E+00  0.31794389481E+02 -0.19175045339E+02  0.37133715767E+02  0.00000000000E+00 0.  1.
         14    1    5    5    0    0  0.19293927135E+02  0.40081334420E+02  0.10538963654E+03  0.11439293896E+03  0.00000000000E+00 0. -1.
         13    1    3    3    0    0  0.14764941830E+02  0.31668974697E+02 -0.58671751828E+03  0.58775707033E+03  0.00000000000E+00 0. -1.
        -14    1    3    3    0    0 -0.16991911743E+02  0.60840982556E+02 -0.25110974355E+03  0.25893329938E+03  0.00000000000E+00 0.  1.
          5    1    4    4  501    0  0.28266074095E+02 -0.12628953816E+03 -0.52148011166E+02  0.13958834429E+03  0.41800000000E+01 0.  1.
         -5    1    4    4    0  501 -0.45922336383E+02 -0.38096142995E+02 -0.10393712721E+03  0.11991903895E+03  0.41800000000E+01 0.  1.
</event>
<event>
11    1  0.8328696E-009  0.1466168E+03  0.7561462E-02  0.1100387E+00
         22   -1    0    0    0    0  0.00000000000E+00  0.00000000000E+00  0.10792789852E+04  0.10792789852E+04  0.00000000000E+00 0. -1.
         22   -1    0    0    0    0 -0.00000000000E+00 -0.00000000000E+00 -0.28321970415E+03  0.28321970415E+03  0.00000000000E+00 0. -1.
        -24    2    1    2    0    0  0.21129649695E+02  0.12152764413E+02 -0.22684977033E+03  0.24154985746E+03  0.79318116215E+02 0.  0.
         25    2    1    2    0    0  0.48908999773E+02 -0.45070047918E+02  0.63915434868E+02  0.15542621101E+03  0.12509486311E+03 0.  0.
         24    2    1    2    0    0 -0.70038649468E+02  0.32917283505E+02  0.95899361656E+03  0.96552262093E+03  0.81093865102E+02 0.  0.
        -11    1    5    5    0    0 -0.85920528820E+02  0.20664061517E+02  0.66508084421E+03  0.67092612861E+03  0.00000000000E+00 0.  1.
         12    1    5    5    0    0  0.15881879351E+02  0.12253221987E+02  0.29391277234E+03  0.29459649232E+03  0.00000000000E+00 0. -1.
         11    1    3    3    0    0  0.29572481456E+02 -0.14865437093E+02 -0.19936940990E+03  0.20209818030E+03  0.00000000000E+00 0. -1.
        -12    1    3    3    0    0 -0.84428317611E+01  0.27018201506E+02 -0.27480360434E+02  0.39451677155E+02  0.00000000000E+00 0.  1.
          5    1    4    4  501    0  0.20629692027E+02  0.23186627611E+02  0.74366169632E+02  0.80690789306E+02  0.41800000000E+01 0. -1.
         -5    1    4    4    0  501  0.28279307746E+02 -0.68256675528E+02 -0.10450734764E+02  0.74735421708E+02  0.41800000000E+01 0. -1.
</event>
<event>
11    1  0.8328696E-009  0.1822728E+03  0.7561462E-02  0.1067819E+00
         22   -1    0    0    0    0  0.00000000000E+00  0.00000000000E+00  0.82849030360E+03  0.82849030360E+03  0.00000000000E+00 0. -1.
         22   -1    0    0    0    0 -0.00000000000E+00 -0.00000000000E+00 -0.14251423594E+04  0.14251423594E+04  0.00000000000E+00 0.  1.
         24    2    1    2    0    0 -0.67327805836E+02 -0.12474466786E+03 -0.12779807389E+04  0.12883445330E+04  0.80638707156E+02 0.  0.
         25    2    1    2    0    0 -0.10050310142E+02  0.76091992428E+02 -0.98040746736E+02  0.17649503033E+03  0.12508999826E+03 0.  0.
        -24    2    1    2    0    0  0.77378115978E+02  0.48652675430E+02  0.77936942988E+03  0.78879309964E+03  0.80146055112E+02 0.  0.
        -13    1    3    3    0    0 -0.78945147522E+01 -0.26482314839E+02 -0.60539862617E+03  0.60602898688E+03  0.00000000000E+00 0.  1.
         14    1    3    3    0    0 -0.59433291084E+02 -0.98262353020E+02 -0.67258211275E+03  0.68231554613E+03  0.00000000000E+00 0. -1.
         11    1    5    5    0    0  0.38717974626E+02  0.58365780094E+02  0.64043026529E+03  0.64424884210E+03  0.00000000000E+00 0. -1.
        -12    1    5    5    0    0  0.38660141352E+02 -0.97131046635E+01  0.13893916459E+03  0.14454425755E+03  0.00000000000E+00 0.  1.
          5    1    4    4  501    0 -0.45916431379E+02  0.36352392975E+02 -0.10700765859E+03  0.12205706265E+03  0.41800000000E+01 0. -1.
         -5    1    4    4    0  501  0.35866121237E+02  0.39739599454E+02  0.89669118525E+01  0.54437967683E+02  0.41800000000E+01 0. -1.
</event>
<event>
11    1  0.1148763E-008  0.1579530E+03  0.7561462E-02  0.1089019E+00
         22   -1    0    0    0    0  0.00000000000E+00  0.00000000000E+00  0.75546368147E+03  0.75546368147E+03  0.00000000000E+00 0. -1.
         22   -1    0    0    0    0 -0.00000000000E+00 -0.00000000000E+00 -0.15243864843E+04  0.15243864843E+04  0.00000000000E+00 0.  1.
         24    2    1    2    0    0  0.17664017692E+02  0.23362414904E+02 -0.12078948220E+04  0.12109688826E+04  0.81104338542E+02 0.  0.
         25    2    1    2    0    0 -0.75739213155E+02 -0.99727228077E+02 -0.28421588922E+03  0.33482568943E+03  0.12509045600E+03 0.  0.
        -24    2    1    2    0    0  0.58075195463E+02  0.76364813173E+02  0.72318790834E+03  0.73405559376E+03  0.81440474877E+02 0.  0.
        -11    1    3    3    0    0 -0.14816016946E+02  0.27573903332E+02 -0.10017119781E+04  0.10022009388E+04  0.00000000000E+00 0.  1.
         12    1    3    3    0    0  0.32480034637E+02 -0.42114884277E+01 -0.20618284383E+03  0.20876794384E+03  0.00000000000E+00 0. -1.
         11    1    5    5    0    0  0.29077249136E+02  0.47929953199E+02  0.62888977861E+03  0.63138349715E+03  0.00000000000E+00 0. -1.
        -12    1    5    5    0    0  0.28997946327E+02  0.28434859974E+02  0.94298129730E+02  0.10267209662E+03  0.00000000000E+00 0.  1.
          5    1    4    4  501    0  0.94118261808E+01  0.20755253899E+02 -0.14402000383E+02  0.27281001658E+02  0.41800000000E+01 0.  1.
         -5    1    4    4    0  501 -0.85151039335E+02 -0.12048248198E+03 -0.26981388884E+03  0.30754468777E+03  0.41800000000E+01 0.  1.
</event>
<event>
11    1  0.8328696E-009  0.1353094E+03  0.7561462E-02  0.1112912E+00
         22   -1    0    0    0    0  0.00000000000E+00  0.00000000000E+00  0.58780752162E+03  0.58780752162E+03  0.00000000000E+00 0. -1.
         22   -1    0    0    0    0 -0.00000000000E+00 -0.00000000000E+00 -0.28340728412E+03  0.28340728412E+03  0.00000000000E+00 0. -1.
         24    2    1    2    0    0  0.13430203955E+02  0.27115969014E+02 -0.25088253280E+03  0.26524278977E+03  0.80598052757E+02 0.  0.
         25    2    1    2    0    0  0.12104006036E+01  0.31055726997E+02  0.21112684311E+03  0.24736221770E+03  0.12509036580E+03 0.  0.
        -24    2    1    2    0    0 -0.14640604559E+02 -0.58171696011E+02  0.34415592719E+03  0.35860979826E+03  0.80990071424E+02 0.  0.
        -13    1    3    3    0    0  0.29606098796E+02  0.24110844060E+02 -0.46358239511E+02  0.60057807634E+02  0.00000000000E+00 0.  1.
         14    1    3    3    0    0 -0.16175894841E+02  0.30051249542E+01 -0.20452429329E+03  0.20518498214E+03  0.00000000000E+00 0. -1.
         13    1    5    5    0    0 -0.14245355983E+02 -0.78704965667E+02  0.26282580096E+03  0.27472677962E+03  0.00000000000E+00 0. -1.
        -14    1    5    5    0    0 -0.39524857567E+00  0.20533269657E+02  0.81330126226E+02  0.83883018640E+02  0.00000000000E+00 0.  1.
          5    1    4    4  501    0  0.59958301291E+02  0.20700285235E+02  0.72709992111E+02  0.96580096580E+02  0.41800000000E+01 0.  1.
         -5    1    4    4    0  501 -0.58747900688E+02  0.10355441762E+02  0.13841685100E+03  0.15078212112E+03  0.41800000000E+01 0.  1.
</event>
<event>
11    1  0.8328696E-009  0.1547359E+03  0.7561462E-02  0.1092136E+00
         22   -1    0    0    0    0  0.00000000000E+00  0.00000000000E+00  0.10474425461E+04  0.10474425461E+04  0.00000000000E+00 0.  1.
         22   -1    0    0    0    0 -0.00000000000E+00 -0.00000000000E+00 -0.10912271871E+03  0.10912271871E+03  0.00000000000E+00 0. -1.
        -24    2    1    2    0    0  0.63835549267E+02 -0.58050740957E+02 -0.11498921128E+02  0.12003697472E+03  0.82654608074E+02 0.  0.
         25    2    1    2    0    0 -0.78761621763E+02  0.70015596339E+02  0.12043087413E+03  0.20311768115E+03  0.12509044791E+03 0.  0.
         24    2    1    2    0    0  0.14926072496E+02 -0.11964855382E+02  0.82938787433E+03  0.83341060890E+03  0.79517617715E+02 0.  0.
        -11    1    5    5    0    0  0.21333241724E+02 -0.28789507282E+01  0.81472518790E+03  0.81500952593E+03  0.00000000000E+00 0.  1.
         12    1    5    5    0    0 -0.64071692278E+01 -0.90859046538E+01  0.14662686433E+02  0.18401082966E+02  0.00000000000E+00 0. -1.
         11    1    3    3    0    0  0.28639202505E+02 -0.49317931254E+01 -0.40645721779E+02  0.49966000465E+02  0.00000000000E+00 0. -1.
        -12    1    3    3    0    0  0.35196346762E+02 -0.53118947832E+02  0.29146800651E+02  0.70070974250E+02  0.00000000000E+00 0.  1.
          5    1    4    4  501    0 -0.10047483203E+03  0.76367446711E+02  0.12710233072E+03  0.17916376214E+03  0.41800000000E+01 0.  1.
         -5    1    4    4    0  501  0.21713210264E+02 -0.63518503720E+01 -0.66714565915E+01  0.23953919015E+02  0.41800000000E+01 0.  1.
</event>
<event>
11    1  0.8328696E-009  0.1344055E+03  0.7561462E-02  0.1113971E+00
         22   -1    0    0    0    0  0.00000000000E+00  0.00000000000E+00  0.27306299556E+03  0.27306299556E+03  0.00000000000E+00 0.  1.
         22   -1    0    0    0    0 -0.00000000000E+00 -0.00000000000E+00 -0.10699071239E+04  0.10699071239E+04  0.00000000000E+00 0. -1.
        -24    2    1    2    0    0 -0.44918361685E+02  0.24817883759E+02 -0.87544760478E+03  0.88103809232E+03  0.84770424268E+02 0.  0.
         25    2    1    2    0    0  0.44669091953E+02  0.22163101398E+02 -0.15837904593E+03  0.20788907056E+03  0.12508961839E+03 0.  0.
         24    2    1    2    0    0  0.24926973176E+00 -0.46980985157E+02  0.23698252236E+03  0.25404295660E+03  0.78548283165E+02 0.  0.
        -11    1    5    5    0    0 -0.62394810957E+01 -0.49825873595E+02  0.24081024375E+03  0.24599008577E+03  0.00000000000E+00 0.  1.
         12    1    5    5    0    0  0.64887508275E+01  0.28448884377E+01 -0.38277213839E+01  0.80528708246E+01  0.00000000000E+00 0. -1.
         11    1    3    3    0    0 -0.31941356509E+02 -0.13562641429E+02 -0.70453365169E+03  0.70538773866E+03  0.00000000000E+00 0. -1.
        -12    1    3    3    0    0 -0.12977005176E+02  0.38380525189E+02 -0.17091395309E+03  0.17565035366E+03  0.00000000000E+00 0.  1.
          5    1    4    4  501    0 -0.36541391267E+02  0.25111028586E+02 -0.94400249571E+02  0.10437775889E+03  0.41800000000E+01 0.  1.
         -5    1    4    4    0  501  0.81210483220E+02 -0.29479271888E+01 -0.63978796364E+02  0.10351131167E+03  0.41800000000E+01 0.  1.
</event>
<event>
11    1  0.8328696E-009  0.1561906E+03  0.7561462E-02  0.1090716E+00
         22   -1    0    0    0    0  0.00000000000E+00  0.00000000000E+00  0.15799065512E+04  0.15799065512E+04  0.00000000000E+00 0. -1.
         22   -1    0    0    0    0 -0.00000000000E+00 -0.00000000000E+00 -0.49498790818E+03  0.49498790818E+03  0.00000000000E+00 0. -1.
         24    2    1    2    0    0  0.10127181758E+03  0.21565784333E+02 -0.36860096414E+03  0.39096212778E+03  0.79143227818E+02 0.  0.
         25    2    1    2    0    0 -0.57623170047E+02  0.59723381284E+02 -0.62700419845E+02  0.16268191607E+03  0.12508697442E+03 0.  0.
        -24    2    1    2    0    0 -0.43648647531E+02 -0.81289165617E+02  0.15162200270E+04  0.15212504155E+04  0.82258881579E+02 0.  0.
        -11    1    3    3    0    0  0.77453720227E+02  0.50747998176E+02 -0.25661945668E+03  0.27281492562E+03  0.00000000000E+00 0.  1.
         12    1    3    3    0    0  0.23818097351E+02 -0.29182213843E+02 -0.11198150746E+03  0.11814720216E+03  0.00000000000E+00 0. -1.
         11    1    5    5    0    0 -0.40308914902E+02 -0.50571758643E+02  0.13823054164E+04  0.13838173925E+04  0.00000000000E+00 0. -1.
        -12    1    5    5    0    0 -0.33397326287E+01 -0.30717406974E+02  0.13391461057E+03  0.13743302307E+03  0.00000000000E+00 0.  1.
          5    1    4    4  501    0  0.14176145083E+02  0.32446930046E+02  0.26848444301E+02  0.44632697882E+02  0.41800000000E+01 0. -1.
         -5    1    4    4    0  501 -0.71799315131E+02  0.27276451238E+02 -0.89548864145E+02  0.11804921819E+03  0.41800000000E+01 0. -1.
</event>
<event>
11    1  0.8328696E-009  0.2129626E+03  0.7561462E-02  0.1045718E+00
         22   -1    0    0    0    0  0.00000000000E+00  0.00000000000E+00  0.33302679680E+03  0.33302679680E+03  0.00000000000E+00 0.  1.
         22   -1    0    0    0    0 -0.00000000000E+00 -0.00000000000E+00 -0.75087438673E+03  0.75087438673E+03  0.00000000000E+00 0.  1.
         24    2    1    2    0    0  0.12919817002E+03 -0.35408751474E+01 -0.56448953949E+03  0.58404248673E+03  0.75845113068E+02 0.  0.
         25    2    1    2    0    0  0.23129193615E+02  0.12487205476E+03 -0.75526923264E+02  0.19359748533E+03  0.12509068923E+03 0.  0.
        -24    2    1    2    0    0 -0.15232736364E+03 -0.12133117961E+03  0.22216887282E+03  0.30626121148E+03  0.80697216468E+02 0.  0.
        -11    1    3    3    0    0  0.65881581896E+02 -0.10238161896E+02 -0.43123161476E+03  0.43635525476E+03  0.00000000000E+00 0.  1.
         12    1    3    3    0    0  0.63316588127E+02  0.66972867487E+01 -0.13325792473E+03  0.14768723196E+03  0.00000000000E+00 0. -1.
         13    1    5    5    0    0 -0.61142487687E+02 -0.27861281607E+02  0.29197875318E+02  0.73260976900E+02  0.00000000000E+00 0. -1.
        -14    1    5    5    0    0 -0.91184875951E+02 -0.93469898007E+02  0.19297099750E+03  0.23300023458E+03  0.00000000000E+00 0.  1.
          5    1    4    4  501    0 -0.36901414945E+02  0.52914836599E+02  0.11477030339E+02  0.65657360460E+02  0.41800000000E+01 0. -1.
         -5    1    4    4    0  501  0.60030608560E+02  0.71957218163E+02 -0.87003953603E+02  0.12794012487E+03  0.41800000000E+01 0. -1.
</event>
<event>
11    1  0.8328696E-009  0.2997874E+03  0.7561462E-02  0.1000281E+00
         22   -1    0    0    0    0  0.00000000000E+00  0.00000000000E+00  0.31432845204E+04  0.31432845204E+04  0.00000000000E+00 0. -1.
         22   -1    0    0    0    0 -0.00000000000E+00 -0.00000000000E+00 -0.31242521261E+03  0.31242521261E+03  0.00000000000E+00 0.  1.
        -24    2    1    2    0    0 -0.63758887426E+02 -0.26579617972E+03 -0.20224700467E+03  0.35002023725E+03  0.83051253502E+02 0.  0.
         25    2    1    2    0    0  0.83472130940E+02  0.25248082408E+03  0.57384436235E+03  0.64471563352E+03  0.12508690073E+03 0.  0.
         24    2    1    2    0    0 -0.19713243514E+02  0.13315355642E+02  0.24592619501E+04  0.24609738622E+04  0.88640288245E+02 0.  0.
        -11    1    5    5    0    0  0.10873741333E+02 -0.31806613366E+02  0.12953634952E+04  0.12957995538E+04  0.00000000000E+00 0.  1.
         12    1    5    5    0    0 -0.30586984848E+02  0.45121969008E+02  0.11638984548E+04  0.11651743084E+04  0.00000000000E+00 0. -1.
         11    1    3    3    0    0  0.56812534730E+00  0.31545030969E+01 -0.16696988166E+02  0.17001854900E+02  0.00000000000E+00 0. -1.
        -12    1    3    3    0    0 -0.64327012773E+02 -0.26895068282E+03 -0.18555001650E+03  0.33301838235E+03  0.00000000000E+00 0.  1.
          5    1    4    4  501    0 -0.14573518443E+02 -0.46611976406E+01  0.15287730820E+02  0.22029555531E+02  0.41800000000E+01 0.  1.
         -5    1    4    4    0  501  0.98045649383E+02  0.25714202172E+03  0.55855663153E+03  0.62268607799E+03  0.41800000000E+01 0.  1.
</event>
<event>
11    1  0.8328696E-009  0.1792000E+03  0.7561462E-02  0.1070292E+00
         22   -1    0    0    0    0  0.00000000000E+00  0.00000000000E+00  0.60466740935E+03  0.60466740935E+03  0.00000000000E+00 0.  1.
         22   -1    0    0    0    0 -0.00000000000E+00 -0.00000000000E+00 -0.47739573802E+03  0.47739573802E+03  0.00000000000E+00 0.  1.
        -24    2    1    2    0    0  0.15298435082E+03  0.11952201240E+02 -0.35473212825E+03  0.39482103960E+03  0.80633143242E+02 0.  0.
         25    2    1    2    0    0 -0.61626403741E+02 -0.20292496791E+02 -0.43863473982E+02  0.14758630672E+03  0.12509242390E+03 0.  0.
         24    2    1    2    0    0 -0.91357947076E+02  0.83402955507E+01  0.52586727356E+03  0.53965580105E+03  0.79222213910E+02 0.  0.
        -11    1    5    5    0    0 -0.31659453753E+02 -0.25753209427E+01  0.38453448357E+03  0.38584416847E+03  0.00000000000E+00 0.  1.
         12    1    5    5    0    0 -0.59698493323E+02  0.10915616493E+02  0.14133279000E+03  0.15381163258E+03  0.00000000000E+00 0. -1.
         13    1    3    3    0    0  0.98230662886E+02 -0.31667700574E+02 -0.20375353697E+03  0.22840229906E+03  0.00000000000E+00 0. -1.
        -14    1    3    3    0    0  0.54753687931E+02  0.43619901814E+02 -0.15097859128E+03  0.16641874054E+03  0.00000000000E+00 0.  1.
          5    1    4    4  501    0 -0.40792064061E+02  0.17385691072E+02  0.35662219843E+02  0.57057173681E+02  0.41800000000E+01 0. -1.
         -5    1    4    4    0  501 -0.20834339681E+02 -0.37678187863E+02 -0.79525693825E+02  0.90529133040E+02  0.41800000000E+01 0. -1.
</event>
<event>
11    1  0.8328696E-009  0.1338309E+03  0.7561462E-02  0.1114650E+00
         22   -1    0    0    0    0  0.00000000000E+00  0.00000000000E+00  0.11926134230E+04  0.11926134230E+04  0.00000000000E+00 0. -1.
         22   -1    0    0    0    0 -0.00000000000E+00 -0.00000000000E+00 -0.14650334056E+03  0.14650334056E+03  0.00000000000E+00 0. -1.
        -24    2    1    2    0    0 -0.22394467355E+02 -0.38617772334E+02 -0.10365821572E+03  0.13821946695E+03  0.79791922198E+02 0.  0.
         25    2    1    2    0    0  0.38818878341E+02  0.82790438039E+02  0.23377702792E+03  0.28046522394E+03  0.12509149095E+03 0.  0.
         24    2    1    2    0    0 -0.16424410986E+02 -0.44172665705E+02  0.91599127026E+03  0.92043207269E+03  0.77033808046E+02 0.  0.
        -13    1    5    5    0    0 -0.37419583389E+02 -0.39049112755E+02  0.36184410346E+03  0.36586365443E+03  0.00000000000E+00 0.  1.
         14    1    5    5    0    0  0.20995172403E+02 -0.51235529496E+01  0.55414716680E+03  0.55456841826E+03  0.00000000000E+00 0. -1.
         13    1    3    3    0    0 -0.17427987937E+02  0.21687951361E+00 -0.96942331636E+02  0.98496687575E+02  0.00000000000E+00 0. -1.
        -14    1    3    3    0    0 -0.49664794181E+01 -0.38834651848E+02 -0.67158840875E+01  0.39722779372E+02  0.00000000000E+00 0.  1.
          5    1    4    4  501    0 -0.14095979851E+02 -0.10689896465E+02 -0.47886441043E+01  0.18798245842E+02  0.41800000000E+01 0.  1.
         -5    1    4    4    0  501  0.52914858192E+02  0.93480334504E+02  0.23856567203E+03  0.26166697810E+03  0.41800000000E+01 0.  1.
</event>
<event>
11    1  0.8328696E-009  0.1643165E+03  0.7561462E-02  0.1083086E+00
         22   -1    0    0    0    0  0.00000000000E+00  0.00000000000E+00  0.45975916987E+03  0.45975916987E+03  0.00000000000E+00 0.  1.
         22   -1    0    0    0    0 -0.00000000000E+00 -0.00000000000E+00 -0.31297773004E+03  0.31297773004E+03  0.00000000000E+00 0. -1.
        -24    2    1    2    0    0  0.30269976925E+02 -0.20129151068E+02 -0.19791524450E+03  0.21693769139E+03  0.81055929567E+02 0.  0.
         25    2    1    2    0    0  0.51532935301E+02  0.90007898056E+02 -0.23392904484E+02  0.16416930269E+03  0.12508903562E+03 0.  0.
         24    2    1    2    0    0 -0.81802912225E+02 -0.69878746988E+02  0.36808958881E+03  0.39162990582E+03  0.79430988999E+02 0.  0.
        -13    1    5    5    0    0 -0.85828726214E+02 -0.75828304219E+02  0.27010533701E+03  0.29338267679E+03  0.00000000000E+00 0.  1.
         14    1    5    5    0    0  0.40258139891E+01  0.59495572306E+01  0.97984251808E+02  0.98247229029E+02  0.00000000000E+00 0. -1.
         13    1    3    3    0    0  0.17638588358E+02  0.30411406345E+02 -0.10043464419E+03  0.10641001451E+03  0.00000000000E+00 0. -1.
        -14    1    3    3    0    0  0.12631388566E+02 -0.50540557414E+02 -0.97480600308E+02  0.11052767688E+03  0.00000000000E+00 0.  1.
          5    1    4    4  501    0 -0.10047558696E+02 -0.25915514830E+02 -0.16641709922E+02  0.32664755529E+02  0.41800000000E+01 0. -1.
         -5    1    4    4    0  501  0.61580493996E+02  0.11592341289E+03 -0.67511945623E+01  0.13150454716E+03  0.41800000000E+01 0. -1.
</event>
<event>
11    1  0.8328696E-009  0.1368534E+03  0.7561462E-02  0.1111124E+00
         22   -1    0    0    0    0  0.00000000000E+00  0.00000000000E+00  0.79800525613E+03  0.79800525613E+03  0.00000000000E+00 0.  1.
         22   -1    0    0    0    0 -0.00000000000E+00 -0.00000000000E+00 -0.59465876783E+03  0.59465876783E+03  0.00000000000E+00 0. -1.
        -24    2    1    2    0    0  0.53037555167E+02  0.37028399753E+02 -0.38445401685E+03  0.39799917436E+03  0.80089743851E+02 0.  0.
         25    2    1    2    0    0 -0.25438292248E+02 -0.12172055952E+02 -0.18062613279E+03  0.22151083094E+03  0.12508390271E+03 0.  0.
         24    2    1    2    0    0 -0.27599262918E+02 -0.24856343802E+02  0.76842663795E+03  0.77315401867E+03  0.76864045796E+02 0.  0.
        -11    1    5    5    0    0 -0.15165862693E+02  0.26943070424E+02  0.34678760133E+03  0.34816314117E+03  0.00000000000E+00 0.  1.
         12    1    5    5    0    0 -0.12433400225E+02 -0.51799414226E+02  0.42163903661E+03  0.42499087749E+03  0.00000000000E+00 0. -1.
         13    1    3    3    0    0  0.90160911091E+01 -0.30891155266E+01 -0.25847479435E+03  0.25865044336E+03  0.00000000000E+00 0. -1.
        -14    1    3    3    0    0  0.44021464057E+02  0.40117515280E+02 -0.12597922250E+03  0.13934873100E+03  0.00000000000E+00 0.  1.
          5    1    4    4  501    0 -0.39561794099E+02 -0.12518231971E+02 -0.19589948469E+03  0.20028959580E+03  0.41800000000E+01 0. -1.
         -5    1    4    4    0  501  0.14123501851E+02  0.34617601935E+00  0.15273351902E+02  0.21221235136E+02  0.41800000000E+01 0. -1.
</event>
<event>
11    1  0.8328696E-009  0.2766819E+03  0.7561462E-02  0.1010573E+00
         22   -1    0    0    0    0  0.00000000000E+00  0.00000000000E+00  0.21506843851E+04  0.21506843851E+04  0.00000000000E+00 0.  1.
         22   -1    0    0    0    0 -0.00000000000E+00 -0.00000000000E+00 -0.39412322520E+03  0.39412322520E+03  0.00000000000E+00 0. -1.
         24    2    1    2    0    0  0.21999639013E+03 -0.88189936203E+02 -0.23448859698E+03  0.34788837226E+03  0.99325429391E+02 0.  0.
         25    2    1    2    0    0 -0.27579745305E+03  0.88186227530E+02  0.14304181616E+03  0.34633795759E+03  0.12509186169E+03 0.  0.
        -24    2    1    2    0    0  0.55801062928E+02  0.37086733262E-02  0.18480079407E+04  0.18505812804E+04  0.80024795786E+02 0.  0.
        -11    1    3    3    0    0 -0.56129401232E+01  0.59295434447E+01 -0.23825678098E+02  0.25185859508E+02  0.00000000000E+00 0.  1.
         12    1    3    3    0    0  0.22560933025E+03 -0.94119479648E+02 -0.21066291888E+03  0.32270251275E+03  0.00000000000E+00 0. -1.
         11    1    5    5    0    0 -0.14128224775E+02 -0.13111812813E+02  0.17444633900E+03  0.17550798147E+03  0.00000000000E+00 0. -1.
        -12    1    5    5    0    0  0.69929287702E+02  0.13115521487E+02  0.16735616017E+04  0.16750732990E+04  0.00000000000E+00 0.  1.
          5    1    4    4  501    0 -0.69836400090E+02 -0.30288584493E+02  0.49786864387E+02  0.91053420549E+02  0.41800000000E+01 0. -1.
         -5    1    4    4    0  501 -0.20596105296E+03  0.11847481202E+03  0.93254951770E+02  0.25528453704E+03  0.41800000000E+01 0. -1.
</event>
<event>
11    1  0.8328696E-009  0.1586236E+03  0.7561462E-02  0.1088379E+00
         22   -1    0    0    0    0  0.00000000000E+00  0.00000000000E+00  0.11596089451E+04  0.11596089451E+04  0.00000000000E+00 0.  1.
         22   -1    0    0    0    0 -0.00000000000E+00 -0.00000000000E+00 -0.15350356258E+04  0.15350356258E+04  0.00000000000E+00 0. -1.
        -24    2    1    2    0    0 -0.71291433427E+02 -0.50196296160E+02 -0.14673652718E+04  0.14720894627E+04  0.79274262638E+02 0.  0.
         25    2    1    2    0    0  0.16163708613E+03  0.23677483891E+02  0.11117292276E+03  0.23386923319E+03  0.12509287997E+03 0.  0.
         24    2    1    2    0    0 -0.90345652707E+02  0.26518812269E+02  0.98076566836E+03  0.98868587494E+03  0.82054120533E+02 0.  0.
        -13    1    5    5    0    0 -0.39871448983E+02  0.47969167988E+02  0.68845071518E+03  0.69127068559E+03  0.00000000000E+00 0.  1.
         14    1    5    5    0    0 -0.50474203725E+02 -0.21450355718E+02  0.29231495318E+03  0.29741518934E+03  0.00000000000E+00 0. -1.
         13    1    3    3    0    0 -0.39324367393E+02 -0.48822081254E+02 -0.13102696263E+04  0.13117684609E+04  0.00000000000E+00 0. -1.
        -14    1    3    3    0    0 -0.31967066034E+02 -0.13742149069E+01 -0.15709564553E+03  0.16032100181E+03  0.00000000000E+00 0.  1.
          5    1    4    4  501    0  0.17952085865E+03  0.21951547678E+02  0.11587199884E+03  0.21483342769E+03  0.41800000000E+01 0.  1.
         -5    1    4    4    0  501 -0.17883772513E+02  0.17259362138E+01 -0.46990760848E+01  0.19035805503E+02  0.41800000000E+01 0.  1.
</event>
<event>
11    1  0.8328696E-009  0.2141923E+03  0.7561462E-02  0.1044918E+00
         22   -1    0    0    0    0  0.00000000000E+00  0.00000000000E+00  0.28849540943E+04  0.28849540943E+04  0.00000000000E+00 0.  1.
         22   -1    0    0    0    0 -0.00000000000E+00 -0.00000000000E+00 -0.11034057048E+03  0.11034057048E+03  0.00000000000E+00 0. -1.
         24    2    1    2    0    0 -0.15658774637E+03 -0.71951173819E+02 -0.63702549524E+01  0.18970774466E+03  0.79068037196E+02 0.  0.
         25    2    1    2    0    0  0.19693260451E+03  0.39162719451E+02  0.12884262472E+04  0.13099643180E+04  0.12509256791E+03 0.  0.
        -24    2    1    2    0    0 -0.40344858133E+02  0.32788454368E+02  0.14925575316E+04  0.14956226022E+04  0.80350437152E+02 0.  0.
        -13    1    3    3    0    0 -0.32348270641E+02  0.24365079501E+01  0.25706983430E+02  0.41390774111E+02  0.00000000000E+00 0.  1.
         14    1    3    3    0    0 -0.12423947573E+03 -0.74387681769E+02 -0.32077238383E+02  0.14831697055E+03  0.00000000000E+00 0. -1.
         13    1    5    5    0    0  0.14317512726E+02  0.37372101114E+02  0.53466527484E+03  0.53616100309E+03  0.00000000000E+00 0. -1.
        -14    1    5    5    0    0 -0.54662370860E+02 -0.45836467461E+01  0.95789225673E+03  0.95946159908E+03  0.00000000000E+00 0.  1.
          5    1    4    4  501    0  0.19726318418E+03  0.58889592081E+02  0.10081204784E+04  0.10289339723E+04  0.41800000000E+01 0. -1.
         -5    1    4    4    0  501 -0.33057966963E+00 -0.19726872630E+02  0.28030576879E+03  0.28103034570E+03  0.41800000000E+01 0. -1.
</event>
<event>
11    1  0.8328696E-009  0.1659660E+03  0.7561462E-02  0.1081597E+00
         22   -1    0    0    0    0  0.00000000000E+00  0.00000000000E+00  0.16458408904E+03  0.16458408904E+03  0.00000000000E+00 0.  1.
         22   -1    0    0    0    0 -0.00000000000E+00 -0.00000000000E+00 -0.71344843790E+03  0.71344843790E+03  0.00000000000E+00 0. -1.
        -24    2    1    2    0    0 -0.40779396674E+02  0.72218013489E+01 -0.43603662920E+03  0.44497834968E+03  0.78502713757E+02 0.  0.
         25    2    1    2    0    0  0.58749469890E+02 -0.11287657466E+03 -0.20452274468E+03  0.27142141448E+03  0.12508960718E+03 0.  0.
         24    2    1    2    0    0 -0.17970073216E+02  0.10565477331E+03  0.91695025024E+02  0.16163276278E+03  0.78938696052E+02 0.  0.
        -11    1    5    5    0    0 -0.19207148645E+02  0.84867219391E+02  0.10542012031E+03  0.13669221358E+03  0.00000000000E+00 0.  1.
         12    1    5    5    0    0  0.12370754286E+01  0.20787553920E+02 -0.13725095291E+02  0.24940549198E+02  0.00000000000E+00 0. -1.
         13    1    3    3    0    0 -0.54177542757E+02  0.78989969222E+01 -0.42209310594E+03  0.42562917002E+03  0.00000000000E+00 0. -1.
        -14    1    3    3    0    0  0.13398146083E+02 -0.67719557327E+00 -0.13943523258E+02  0.19349179651E+02  0.00000000000E+00 0.  1.
          5    1    4    4  501    0 -0.20974323323E+01 -0.10248698330E+03 -0.72513003045E+02  0.12563275440E+03  0.41800000000E+01 0.  1.
         -5    1    4    4    0  501  0.60846902223E+02 -0.10389591357E+02 -0.13200974164E+03  0.14578866007E+03  0.41800000000E+01 0.  1.
</event>
<event>
11    1  0.8328696E-009  0.2049266E+04  0.7561462E-02  0.8047082E-01
         22   -1    0    0    0    0  0.00000000000E+00  0.00000000000E+00  0.28570949286E+04  0.28570949286E+04  0.00000000000E+00 0. -1.
         22   -1    0    0    0    0 -0.00000000000E+00 -0.00000000000E+00 -0.28524586575E+04  0.28524586575E+04  0.00000000000E+00 0. -1.
         24    2    1    2    0    0 -0.21211952795E+04 -0.16013321797E+03 -0.17506776633E+04  0.27561629139E+04  0.80309813231E+02 0.  0.
         25    2    1    2    0    0  0.17317600098E+04  0.52300306091E+03  0.11687067457E+04  0.21573240640E+04  0.12508687586E+03 0.  0.
        -24    2    1    2    0    0  0.38943526972E+03 -0.36286984294E+03  0.58660718876E+03  0.79606660822E+03  0.79244549334E+02 0.  0.
        -11    1    3    3    0    0 -0.20404678481E+04 -0.14737299185E+03 -0.16643941098E+04  0.26373159823E+04  0.00000000000E+00 0.  1.
         12    1    3    3    0    0 -0.80727431441E+02 -0.12760226127E+02 -0.86283553486E+02  0.11884693164E+03  0.00000000000E+00 0. -1.
         13    1    5    5    0    0  0.65051329541E+02 -0.10371429704E+03  0.14881085368E+03  0.19269925028E+03  0.00000000000E+00 0. -1.
        -14    1    5    5    0    0  0.32438394018E+03 -0.25915554590E+03  0.43779633509E+03  0.60336735794E+03  0.00000000000E+00 0.  1.
          5    1    4    4  501    0  0.10932093013E+04  0.39181942234E+03  0.76037378939E+03  0.13880975499E+04  0.41800000000E+01 0. -1.
         -5    1    4    4    0  501  0.63855070849E+03  0.13118363857E+03  0.40833295626E+03  0.76922651405E+03  0.41800000000E+01 0. -1.
</event>
<event>
11    1  0.8328696E-009  0.2106423E+03  0.7561462E-02  0.1047243E+00
         22   -1    0    0    0    0  0.00000000000E+00  0.00000000000E+00  0.11685116965E+04  0.11685116965E+04  0.00000000000E+00 0.  1.
         22   -1    0    0    0    0 -0.00000000000E+00 -0.00000000000E+00 -0.41176372782E+03  0.41176372782E+03  0.00000000000E+00 0.  1.
        -24    2    1    2    0    0  0.14317096569E+03 -0.55828989146E+02 -0.15141119777E+03  0.23021423540E+03  0.80364431977E+02 0.  0.
         25    2    1    2    0    0 -0.17756239454E+03  0.78050582663E+02 -0.15830027144E+03  0.27986880596E+03  0.12508906908E+03 0.  0.
         24    2    1    2    0    0  0.34391428857E+02 -0.22221593517E+02  0.10664594379E+04  0.10701923830E+04  0.79368975521E+02 0.  0.
        -13    1    5    5    0    0  0.39701344785E+02  0.24284899892E+01  0.95859375339E+03  0.95941861477E+03  0.00000000000E+00 0.  1.
         14    1    5    5    0    0 -0.53099159285E+01 -0.24650083506E+02  0.10786568450E+03  0.11077376818E+03  0.00000000000E+00 0. -1.
         11    1    3    3    0    0  0.64656531166E+02 -0.54650955426E+02 -0.39293425636E+02  0.93333634074E+02  0.00000000000E+00 0. -1.
        -12    1    3    3    0    0  0.78514434520E+02 -0.11780337199E+01 -0.11211777213E+03  0.13688060133E+03  0.00000000000E+00 0.  1.
          5    1    4    4  501    0 -0.73472487112E+02  0.72565060519E+02 -0.13990848422E+03  0.17394180270E+03  0.41800000000E+01 0. -1.
         -5    1    4    4    0  501 -0.10408990743E+03  0.54855221436E+01 -0.18391787216E+02  0.10592700326E+03  0.41800000000E+01 0. -1.
</event>
<event>
11    1  0.8328696E-009  0.2235725E+03  0.7561462E-02  0.1039002E+00
         22   -1    0    0    0    0  0.00000000000E+00  0.00000000000E+00  0.16483217595E+04  0.16483217595E+04  0.00000000000E+00 0. -1.
         22   -1    0    0    0    0 -0.00000000000E+00 -0.00000000000E+00 -0.15330646673E+03  0.15330646673E+03  0.00000000000E+00 0. -1.
        -24    2    1    2    0    0 -0.16909254341E+03  0.71297647659E+02 -0.59156501756E+02  0.21027458508E+03  0.83906296734E+02 0.  0.
         25    2    1    2    0    0  0.18091954520E+03 -0.10873486348E+03  0.98982128306E+03  0.10197792468E+04  0.12509351453E+03 0.  0.
         24    2    1    2    0    0 -0.11827001794E+02  0.37437215816E+02  0.56435051147E+03  0.57157439439E+03  0.81635564715E+02 0.  0.
        -13    1    5    5    0    0 -0.78833902991E+01 -0.12839033778E+02  0.20766801443E+02  0.25656357362E+02  0.00000000000E+00 0.  1.
         14    1    5    5    0    0 -0.39436114947E+01  0.50276249593E+02  0.54358371003E+03  0.54591803703E+03  0.00000000000E+00 0. -1.
         13    1    3    3    0    0 -0.13780145543E+03  0.57394455121E+02 -0.90031198593E+01  0.14954738635E+03  0.00000000000E+00 0. -1.
        -14    1    3    3    0    0 -0.31291087980E+02  0.13903192539E+02 -0.50153381897E+02  0.60727198729E+02  0.00000000000E+00 0.  1.
          5    1    4    4  501    0  0.14905672176E+03 -0.95498764254E+02  0.53313659538E+03  0.56177399549E+03  0.41800000000E+01 0.  1.
         -5    1    4    4    0  501  0.31862823442E+02 -0.13236099221E+02  0.45668468768E+03  0.45800525128E+03  0.41800000000E+01 0.  1.
</event>
<event>
11    1  0.8328696E-009  0.2171674E+03  0.7561462E-02  0.1043006E+00
         22   -1    0    0    0    0  0.00000000000E+00  0.00000000000E+00  0.16170369893E+04  0.16170369893E+04  0.00000000000E+00 0.  1.
         22   -1    0    0    0    0 -0.00000000000E+00 -0.00000000000E+00 -0.31650096048E+03  0.31650096048E+03  0.00000000000E+00 0.  1.
         24    2    1    2    0    0  0.16709754404E+03  0.49630955368E+02 -0.24763962279E+03  0.31314561985E+03  0.79686733514E+02 0.  0.
         25    2    1    2    0    0 -0.21826175880E+03 -0.56181596148E+02  0.45286904520E+03  0.52108801459E+03  0.12509108581E+03 0.  0.
        -24    2    1    2    0    0  0.51164214758E+02  0.65506407803E+01  0.10953066064E+04  0.10993043154E+04  0.78183936482E+02 0.  0.
        -13    1    3    3    0    0  0.13101097534E+03  0.52215012244E+02 -0.23637852268E+03  0.27525458969E+03  0.00000000000E+00 0.  1.
         14    1    3    3    0    0  0.36086568697E+02 -0.25840568764E+01 -0.11261100112E+02  0.37891030152E+02  0.00000000000E+00 0. -1.
         13    1    5    5    0    0  0.49147675583E+02  0.23388255847E+02  0.38849055914E+03  0.39228486979E+03  0.00000000000E+00 0. -1.
        -14    1    5    5    0    0  0.20165391756E+01 -0.16837615067E+02  0.70681604729E+03  0.70701944558E+03  0.00000000000E+00 0.  1.
          5    1    4    4  501    0 -0.22675804498E+03 -0.47683450237E+02  0.36539672759E+03  0.43269523145E+03  0.41800000000E+01 0. -1.
         -5    1    4    4    0  501  0.84962861790E+01 -0.84981459112E+01  0.87472317609E+02  0.88392783137E+02  0.41800000000E+01 0. -1.
</event>
<event>
11    1  0.8328696E-009  0.1407200E+03  0.7561462E-02  0.1106757E+00
         22   -1    0    0    0    0  0.00000000000E+00  0.00000000000E+00  0.52613482231E+03  0.52613482231E+03  0.00000000000E+00 0.  1.
         22   -1    0    0    0    0 -0.00000000000E+00 -0.00000000000E+00 -0.54521995500E+03  0.54521995500E+03  0.00000000000E+00 0. -1.
         24    2    1    2    0    0 -0.10043050882E+02 -0.55203181793E+02 -0.41870557090E+03  0.43030745165E+03  0.81865094439E+02 0.  0.
         25    2    1    2    0    0 -0.45577009174E+01  0.11471010810E+03 -0.49614146166E+02  0.17688552097E+03  0.12509093689E+03 0.  0.
        -24    2    1    2    0    0  0.14600751799E+02 -0.59506926304E+02  0.44923458439E+03  0.46416180469E+03  0.99399260019E+02 0.  0.
        -13    1    3    3    0    0 -0.13086612877E+02 -0.71266184660E+00 -0.67304414799E+01  0.14733165513E+02  0.00000000000E+00 0.  1.
         14    1    3    3    0    0  0.30435619955E+01 -0.54490519947E+02 -0.41197512942E+03  0.41557428614E+03  0.00000000000E+00 0. -1.
         11    1    5    5    0    0 -0.34911355431E+02 -0.27893412748E+02  0.30758817932E+03  0.31081720234E+03  0.00000000000E+00 0. -1.
        -12    1    5    5    0    0  0.49512107230E+02 -0.31613513556E+02  0.14164640507E+03  0.15334460235E+03  0.00000000000E+00 0.  1.
          5    1    4    4  501    0  0.37076318093E+02  0.79625311846E+01 -0.49162212984E+02  0.62229019369E+02  0.41800000000E+01 0. -1.
         -5    1    4    4    0  501 -0.41634019010E+02  0.10674757691E+03 -0.45193318222E+00  0.11465650160E+03  0.41800000000E+01 0. -1.
</event>
<event>
11    1  0.8328696E-009  0.1452609E+03  0.7561462E-02  0.1101822E+00
         22   -1    0    0    0    0  0.00000000000E+00  0.00000000000E+00  0.34891284504E+03  0.34891284504E+03  0.00000000000E+00 0. -1.
         22   -1    0    0    0    0 -0.00000000000E+00 -0.00000000000E+00 -0.40896852851E+03  0.40896852851E+03  0.00000000000E+00 0. -1.
        -24    2    1    2    0    0  0.71215690795E+02  0.15264959214E+02 -0.35189418479E+03  0.36826586792E+03  0.80532841679E+02 0.  0.
         25    2    1    2    0    0 -0.94165427408E+02 -0.24972842359E+01  0.11547892873E+03  0.19457297450E+03  0.12509954147E+03 0.  0.
         24    2    1    2    0    0  0.22949736613E+02 -0.12767674978E+02  0.17635957259E+03  0.19504253113E+03  0.79051794235E+02 0.  0.
        -11    1    5    5    0    0 -0.11010472903E+02  0.27911381947E+02  0.71937011071E+02  0.77943629102E+02  0.00000000000E+00 0.  1.
         12    1    5    5    0    0  0.33960209516E+02 -0.40679056926E+02  0.10442256152E+03  0.11709890203E+03  0.00000000000E+00 0. -1.
         13    1    3    3    0    0  0.79583277123E+02 -0.23543812117E+01 -0.32746494831E+03  0.33700494578E+03  0.00000000000E+00 0. -1.
        -14    1    3    3    0    0 -0.83675863278E+01  0.17619340426E+02 -0.24429236489E+02  0.31260922146E+02  0.00000000000E+00 0.  1.
          5    1    4    4  501    0 -0.67119760751E+02 -0.54202036266E+02  0.30901507513E+02  0.91734936557E+02  0.41800000000E+01 0. -1.
         -5    1    4    4    0  501 -0.27045666658E+02  0.51704752030E+02  0.84577421219E+02  0.10283803794E+03  0.41800000000E+01 0. -1.
</event>
<event>
11    1  0.8328696E-009  0.1280934E+03  0.7561462E-02  0.1121634E+00
         22   -1    0    0    0    0  0.00000000000E+00  0.00000000000E+00  0.10591532267E+03  0.10591532267E+03  0.00000000000E+00 0. -1.
         22   -1    0    0    0    0 -0.00000000000E+00 -0.00000000000E+00 -0.90294479700E+03  0.90294479700E+03  0.00000000000E+00 0. -1.
         24    2    1    2    0    0 -0.17068801520E+02 -0.21627446988E+02 -0.77684567284E+03  0.78144540476E+03  0.80053924104E+02 0.  0.
         25    2    1    2    0    0  0.75214590349E+01  0.42957672400E+02 -0.42277088920E+02  0.13905754390E+03  0.12509082422E+03 0.  0.
        -24    2    1    2    0    0  0.95473424848E+01 -0.21330225412E+02  0.22093287429E+02  0.88357171012E+02  0.82296695287E+02 0.  0.
        -11    1    3    3    0    0  0.86525751204E+01 -0.42578874671E+02 -0.26613763978E+03  0.26966102969E+03  0.00000000000E+00 0.  1.
         12    1    3    3    0    0 -0.25721376640E+02  0.20951427682E+02 -0.51070803306E+03  0.51178437508E+03  0.00000000000E+00 0. -1.
         13    1    5    5    0    0 -0.23045232390E+02  0.11505989480E+02  0.31963670650E+02  0.41050539232E+02  0.00000000000E+00 0. -1.
        -14    1    5    5    0    0  0.32592574874E+02 -0.32836214892E+02 -0.98703832209E+01  0.47306631779E+02  0.00000000000E+00 0.  1.
          5    1    4    4  501    0  0.62608468866E+02  0.36083551875E+02 -0.60470777398E+01  0.72635271314E+02  0.41800000000E+01 0. -1.
         -5    1    4    4    0  501 -0.55087009831E+02  0.68741205247E+01 -0.36230011180E+02  0.66422272584E+02  0.41800000000E+01 0. -1.
</event>
<event>
11    1  0.8328696E-009  0.1441756E+03  0.7561462E-02  0.1102983E+00
         22   -1    0    0    0    0  0.00000000000E+00  0.00000000000E+00  0.28421959809E+04  0.28421959809E+04  0.00000000000E+00 0.  1.
         22   -1    0    0    0    0 -0.00000000000E+00 -0.00000000000E+00 -0.30096897276E+04  0.30096897276E+04  0.00000000000E+00 0. -1.
        -24    2    1    2    0    0  0.37642434127E+02 -0.11576931654E+02 -0.27197591953E+04  0.27212016154E+04  0.79354730500E+02 0.  0.
         25    2    1    2    0    0  0.23591013190E+02 -0.25924126210E+02 -0.27357318264E+03  0.30285387951E+03  0.12509832073E+03 0.  0.
         24    2    1    2    0    0 -0.61233447317E+02  0.37501057863E+02  0.28258386312E+04  0.28278302136E+04  0.78127350263E+02 0.  0.
        -11    1    5    5    0    0 -0.32922282225E+02 -0.10444718643E+02  0.19029494441E+04  0.19032628708E+04  0.00000000000E+00 0.  1.
         12    1    5    5    0    0 -0.28311165092E+02  0.47945776506E+02  0.92288918710E+03  0.92456734272E+03  0.00000000000E+00 0. -1.
         11    1    3    3    0    0  0.57472796485E+02 -0.29835148394E+01 -0.24110865623E+04  0.24117732967E+04  0.00000000000E+00 0. -1.
        -12    1    3    3    0    0 -0.19830362358E+02 -0.85934168142E+01 -0.30867263298E+03  0.30942831873E+03  0.00000000000E+00 0.  1.
          5    1    4    4  501    0 -0.27517778092E+02 -0.59377500022E+02 -0.17418428410E+03  0.18611972719E+03  0.41800000000E+01 0. -1.
         -5    1    4    4    0  501  0.51108791282E+02  0.33453373813E+02 -0.99388898537E+02  0.11673415232E+03  0.41800000000E+01 0. -1.
</event>
<event>
11    1  0.8328696E-009  0.1786646E+03  0.7561462E-02  0.1070728E+00
         22   -1    0    0    0    0  0.00000000000E+00  0.00000000000E+00  0.18243126582E+04  0.18243126582E+04  0.00000000000E+00 0.  1.
         22   -1    0    0    0    0 -0.00000000000E+00 -0.00000000000E+00 -0.12786616623E+03  0.12786616623E+03  0.00000000000E+00 0.  1.
         24    2    1    2    0    0 -0.43616407649E+02 -0.12899949588E+03  0.30530471963E+01  0.15837949849E+03  0.80817593949E+02 0.  0.
         25    2    1    2    0    0  0.51165987607E+02  0.10064759593E+03  0.96102238240E+02  0.19398727755E+03  0.12509007475E+03 0.  0.
        -24    2    1    2    0    0 -0.75495799581E+01  0.28351899948E+02  0.15972912065E+04  0.15998120483E+04  0.84844359283E+02 0.  0.
        -11    1    3    3    0    0 -0.28174671083E+02 -0.12739519214E+03 -0.18540563047E+02  0.13178429174E+03  0.00000000000E+00 0.  1.
         12    1    3    3    0    0 -0.15441736566E+02 -0.16043037349E+01  0.21593610243E+02  0.26595206748E+02  0.00000000000E+00 0. -1.
         11    1    5    5    0    0 -0.42703045566E+02  0.96131950523E+00  0.59538370325E+03  0.59691392037E+03  0.00000000000E+00 0. -1.
        -12    1    5    5    0    0  0.35153465608E+02  0.27390580443E+02  0.10019075032E+04  0.10028981280E+04  0.00000000000E+00 0.  1.
          5    1    4    4  501    0  0.26035679143E+02 -0.17103851670E+02 -0.10481193771E+02  0.33131950640E+02  0.41800000000E+01 0. -1.
         -5    1    4    4    0  501  0.25130308464E+02  0.11775144760E+03  0.10658343201E+03  0.16085532691E+03  0.41800000000E+01 0. -1.
</event>
<event>
11    1  0.8328696E-009  0.1597951E+03  0.7561462E-02  0.1087270E+00
         22   -1    0    0    0    0  0.00000000000E+00  0.00000000000E+00  0.37783414272E+03  0.37783414272E+03  0.00000000000E+00 0. -1.
         22   -1    0    0    0    0 -0.00000000000E+00 -0.00000000000E+00 -0.85700991564E+03  0.85700991564E+03  0.00000000000E+00 0.  1.
        -24    2    1    2    0    0  0.81938655819E+02 -0.31645291899E+02 -0.72935250535E+03  0.73916235369E+03  0.81795722593E+02 0.  0.
         25    2    1    2    0    0 -0.15060143095E+03  0.90029133636E+02 -0.26213790745E+01  0.21550184748E+03  0.12509252068E+03 0.  0.
         24    2    1    2    0    0  0.68662775136E+02 -0.58383841737E+02  0.25279811151E+03  0.28017985719E+03  0.80440148739E+02 0.  0.
        -11    1    5    5    0    0  0.31971672726E+02  0.42452469435E+01  0.15538855742E+03  0.15870038991E+03  0.00000000000E+00 0.  1.
         12    1    5    5    0    0  0.36691102410E+02 -0.62629088680E+02  0.97409554084E+02  0.12147946729E+03  0.00000000000E+00 0. -1.
         13    1    3    3    0    0 -0.96770227846E+01 -0.14286669065E+02 -0.40434022820E+02  0.43962073249E+02  0.00000000000E+00 0. -1.
        -14    1    3    3    0    0  0.91615678603E+02 -0.17358622834E+02 -0.68891848253E+03  0.69520028044E+03  0.00000000000E+00 0.  1.
          5    1    4    4  501    0 -0.56667846941E+02  0.18023057187E+02 -0.59408564215E+02  0.84160117452E+02  0.41800000000E+01 0.  1.
         -5    1    4    4    0  501 -0.93933584013E+02  0.72006076448E+02  0.56787185141E+02  0.13134173003E+03  0.41800000000E+01 0.  1.
</event>
<event>
11    1  0.8328696E-009  0.2463453E+03  0.7561462E-02  0.1025864E+00
         22   -1    0    0    0    0  0.00000000000E+00  0.00000000000E+00  0.27915611090E+04  0.27915611090E+04  0.00000000000E+00 0. -1.
         22   -1    0    0    0    0 -0.00000000000E+00 -0.00000000000E+00 -0.53276417757E+02  0.53276417757E+02  0.00000000000E+00 0. -1.
        -24    2    1    2    0    0 -0.19231100615E+03 -0.17574775977E+02  0.41189907669E+03  0.46074141365E+03  0.73002774174E+02 0.  0.
         25    2    1    2    0    0  0.22964860109E+03  0.11310726162E+03  0.74898627659E+03  0.80134866630E+03  0.12509000702E+03 0.  0.
         24    2    1    2    0    0 -0.37337594932E+02 -0.95532485638E+02  0.15773993379E+04  0.15827474468E+04  0.79876511841E+02 0.  0.
        -11    1    5    5    0    0  0.13310765783E+02 -0.68201401625E+02  0.10267435373E+04  0.10290922695E+04  0.00000000000E+00 0.  1.
         12    1    5    5    0    0 -0.50648360715E+02 -0.27331084013E+02  0.55065580063E+03  0.55365517731E+03  0.00000000000E+00 0. -1.
         13    1    3    3    0    0 -0.38528669203E+02 -0.33981974142E+02  0.90383145074E+02  0.10396319460E+03  0.00000000000E+00 0. -1.
        -14    1    3    3    0    0 -0.15378233695E+03  0.16407198164E+02  0.32151593161E+03  0.35677821905E+03  0.00000000000E+00 0.  1.
          5    1    4    4  501    0  0.90703859552E+02  0.70741284137E+02  0.49980966014E+03  0.51289247234E+03  0.41800000000E+01 0. -1.
         -5    1    4    4    0  501  0.13894474153E+03  0.42365977478E+02  0.24917661645E+03  0.28845619396E+03  0.41800000000E+01 0. -1.
</event>
<event>
11    1  0.8328696E-009  0.1681535E+03  0.7561462E-02  0.1079650E+00
         22   -1    0    0    0    0  0.00000000000E+00  0.00000000000E+00  0.47600874493E+03  0.47600874493E+03  0.00000000000E+00 0. -1.
         22   -1    0    0    0    0 -0.00000000000E+00 -0.00000000000E+00 -0.94564831924E+03  0.94564831924E+03  0.00000000000E+00 0.  1.
        -24    2    1    2    0    0  0.68628494717E+02  0.39685180966E+02 -0.88568169939E+03  0.89303975966E+03  0.82481245304E+02 0.  0.
         25    2    1    2    0    0 -0.12706045812E+03 -0.10336009472E+03  0.24834787033E+03  0.32272491760E+03  0.12508812313E+03 0.  0.
         24    2    1    2    0    0  0.58431963401E+02  0.63674913750E+02  0.16769425476E+03  0.20589238691E+03  0.82471346072E+02 0.  0.
        -11    1    5    5    0    0 -0.15571243387E+01 -0.17843878059E+02  0.20027838158E+02  0.26868995546E+02  0.00000000000E+00 0.  1.
         12    1    5    5    0    0  0.59989087739E+02  0.81518791809E+02  0.14766641660E+03  0.17902339137E+03  0.00000000000E+00 0. -1.
         13    1    3    3    0    0  0.49249110141E+02  0.22365874790E+02 -0.20986239041E+03  0.21672085759E+03  0.00000000000E+00 0. -1.
        -14    1    3    3    0    0  0.19379384576E+02  0.17319306177E+02 -0.67581930898E+03  0.67631890207E+03  0.00000000000E+00 0.  1.
          5    1    4    4  501    0 -0.11704941692E+03 -0.13097258375E+03  0.22138192451E+03  0.28263370747E+03  0.41800000000E+01 0. -1.
         -5    1    4    4    0  501 -0.10011041194E+02  0.27612489031E+02  0.26965945814E+02  0.40091210133E+02  0.41800000000E+01 0. -1.
</event>
<event>
11    1  0.8328696E-009  0.1362551E+03  0.7561462E-02  0.1111814E+00
         22   -1    0    0    0    0  0.00000000000E+00  0.00000000000E+00  0.20671838378E+04  0.20671838378E+04  0.00000000000E+00 0. -1.
         22   -1    0    0    0    0 -0.00000000000E+00 -0.00000000000E+00 -0.29399513262E+03  0.29399513262E+03  0.00000000000E+00 0. -1.
         24    2    1    2    0    0  0.14208944968E+02 -0.30051665425E+02 -0.26668860475E+03  0.28060959603E+03  0.80708963390E+02 0.  0.
         25    2    1    2    0    0  0.14905625369E+02  0.74207565993E+02  0.26148485260E+03  0.29958374472E+03  0.12508857439E+03 0.  0.
        -24    2    1    2    0    0 -0.29114570337E+02 -0.44155900567E+02  0.17783924574E+04  0.17809856297E+04  0.80203984039E+02 0.  0.
        -13    1    3    3    0    0 -0.31606016436E+02 -0.26379835175E+02 -0.11765590443E+03  0.12465050271E+03  0.00000000000E+00 0.  1.
         14    1    3    3    0    0  0.45814961404E+02 -0.36718302504E+01 -0.14903270032E+03  0.15595909332E+03  0.00000000000E+00 0. -1.
         13    1    5    5    0    0 -0.13534987293E+02 -0.65898302713E+02  0.10903162759E+04  0.10923897490E+04  0.00000000000E+00 0. -1.
        -14    1    5    5    0    0 -0.15579583044E+02  0.21742402145E+02  0.68807618150E+03  0.68859588077E+03  0.00000000000E+00 0.  1.
          5    1    4    4  501    0 -0.49259211328E+02  0.38287361762E+02  0.17582475376E+03  0.18661245512E+03  0.41800000000E+01 0.  1.
         -5    1    4    4    0  501  0.64164836698E+02  0.35920204231E+02  0.85660098844E+02  0.11297128960E+03  0.41800000000E+01 0.  1.
</event>
<event>
11    1  0.8328696E-009  0.1588392E+03  0.7561462E-02  0.1088174E+00
         22   -1    0    0    0    0  0.00000000000E+00  0.00000000000E+00  0.42055909784E+04  0.42055909784E+04  0.00000000000E+00 0.  1.
         22   -1    0    0    0    0 -0.00000000000E+00 -0.00000000000E+00 -0.67196101466E+02  0.67196101466E+02  0.00000000000E+00 0.  1.
         24    2    1    2    0    0  0.11470064518E+03  0.92727096673E+01  0.13686034850E+03  0.19586727205E+03  0.79943806019E+02 0.  0.
         25    2    1    2    0    0 -0.60803027388E+02  0.95068520038E+02  0.15841031208E+03  0.23125039123E+03  0.12509150582E+03 0.  0.
        -24    2    1    2    0    0 -0.53897617796E+02 -0.10434122970E+03  0.38431242164E+04  0.38456694166E+04  0.76009696103E+02 0.  0.
        -13    1    3    3    0    0  0.12175777439E+03  0.48517767249E+01  0.98710717528E+02  0.15681932635E+03  0.00000000000E+00 0.  1.
         14    1    3    3    0    0 -0.70571292051E+01  0.44209329424E+01  0.38149630970E+02  0.39047945705E+02  0.00000000000E+00 0. -1.
         13    1    5    5    0    0 -0.43656913642E+02 -0.77998394591E+02  0.16918747177E+04  0.16942342625E+04  0.00000000000E+00 0. -1.
        -14    1    5    5    0    0 -0.10240704153E+02 -0.26342835114E+02  0.21512494986E+04  0.21514351541E+04  0.00000000000E+00 0.  1.
          5    1    4    4  501    0 -0.34679473779E+02 -0.25354914895E+02  0.26300859108E+02  0.50544487343E+02  0.41800000000E+01 0.  1.
         -5    1    4    4    0  501 -0.26123553608E+02  0.12042343493E+03  0.13210945297E+03  0.18070590389E+03  0.41800000000E+01 0.  1.
</event>
<event>
11    1  0.8328696E-009  0.1298777E+03  0.7561462E-02  0.1119419E+00
         22   -1    0    0    0    0  0.00000000000E+00  0.00000000000E+00  0.68913680794E+03  0.68913680794E+03  0.00000000000E+00 0. -1.
         22   -1    0    0    0    0 -0.00000000000E+00 -0.00000000000E+00 -0.20783622581E+04  0.20783622581E+04  0.00000000000E+00 0.  1.
         24    2    1    2    0    0  0.33913791156E+02  0.15624505418E+01 -0.19593234457E+04  0.19613174698E+04  0.81641080893E+02 0.  0.
         25    2    1    2    0    0 -0.22426236053E+02  0.31778157134E+02 -0.77735185386E+02  0.15232207197E+03  0.12508583943E+03 0.  0.
        -24    2    1    2    0    0 -0.11487555103E+02 -0.33340607676E+02  0.64783318090E+03  0.65385952427E+03  0.81245843910E+02 0.  0.
        -11    1    3    3    0    0  0.26768781500E+02  0.16674658527E+02 -0.18794016224E+04  0.18796662125E+04  0.00000000000E+00 0.  1.
         12    1    3    3    0    0  0.71450096563E+01 -0.15112207985E+02 -0.79921823242E+02  0.81651257329E+02  0.00000000000E+00 0. -1.
         11    1    5    5    0    0 -0.30893426824E+02  0.82172161471E+01  0.43333366924E+03  0.43451121431E+03  0.00000000000E+00 0. -1.
        -12    1    5    5    0    0  0.19405871721E+02 -0.41557823823E+02  0.21449951167E+03  0.21934830996E+03  0.00000000000E+00 0.  1.
          5    1    4    4  501    0 -0.51131998158E+01  0.73865069159E+02 -0.76586207080E+02  0.10660728291E+03  0.41800000000E+01 0.  1.
         -5    1    4    4    0  501 -0.17313036237E+02 -0.42086912025E+02 -0.11489783066E+01  0.45714789059E+02  0.41800000000E+01 0.  1.
</event>
<event>
11    1  0.8328696E-009  0.1493428E+03  0.7561462E-02  0.1097552E+00
         22   -1    0    0    0    0  0.00000000000E+00  0.00000000000E+00  0.36211315354E+03  0.36211315354E+03  0.00000000000E+00 0.  1.
         22   -1    0    0    0    0 -0.00000000000E+00 -0.00000000000E+00 -0.28750335932E+03  0.28750335932E+03  0.00000000000E+00 0.  1.
         24    2    1    2    0    0  0.20474027732E+02 -0.39231501879E+02 -0.11891932516E+03  0.14974038255E+03  0.79511506834E+02 0.  0.
         25    2    1    2    0    0 -0.78227568800E+02  0.92354642828E+02 -0.88281712879E+02  0.19516404006E+03  0.12508560721E+03 0.  0.
        -24    2    1    2    0    0  0.57753541068E+02 -0.53123140949E+02  0.28181083226E+03  0.30471209025E+03  0.85291108279E+02 0.  0.
        -11    1    3    3    0    0  0.42376915060E+02  0.37940108014E+01 -0.51149195018E+02  0.66531478256E+02  0.00000000000E+00 0.  1.
         12    1    3    3    0    0 -0.21902887327E+02 -0.43025512680E+02 -0.67770130144E+02  0.83208904298E+02  0.00000000000E+00 0. -1.
         13    1    5    5    0    0  0.47605642843E+02 -0.25051792292E+01  0.58262199231E+02  0.75279857948E+02  0.00000000000E+00 0. -1.
        -14    1    5    5    0    0  0.10147898225E+02 -0.50617961719E+02  0.22354863303E+03  0.22943223230E+03  0.00000000000E+00 0.  1.
          5    1    4    4  501    0  0.21877194493E+02 -0.56441550731E+01  0.88742183900E+01  0.24631124161E+02  0.41800000000E+01 0.  1.
         -5    1    4    4    0  501 -0.10010476329E+03  0.97998797901E+02 -0.97155931269E+02  0.17053291590E+03  0.41800000000E+01 0.  1.
</event>
<event>
11    1  0.8328696E-009  0.5037663E+03  0.7561462E-02  0.9385144E-01
         22   -1    0    0    0    0  0.00000000000E+00  0.00000000000E+00  0.12536487425E+04  0.12536487425E+04  0.00000000000E+00 0. -1.
         22   -1    0    0    0    0 -0.00000000000E+00 -0.00000000000E+00 -0.24552743650E+03  0.24552743650E+03  0.00000000000E+00 0. -1.
        -24    2    1    2    0    0  0.44643336179E+03  0.16447043351E+03  0.45886140544E+03  0.66667788221E+03  0.86904195541E+02 0.  0.
         25    2    1    2    0    0 -0.45066351803E+03 -0.21725930917E+03  0.38851578710E+03  0.64567132877E+03  0.12509090322E+03 0.  0.
         24    2    1    2    0    0  0.42301562345E+01  0.52788875659E+02  0.16074411350E+03  0.18682696807E+03  0.79127026709E+02 0.  0.
        -13    1    5    5    0    0 -0.34970632373E+02  0.24995720410E+02  0.48962626416E+02  0.65154201345E+02  0.00000000000E+00 0.  1.
         14    1    5    5    0    0  0.39200788607E+02  0.27793155249E+02  0.11178148709E+03  0.12167276672E+03  0.00000000000E+00 0. -1.
         13    1    3    3    0    0  0.32949163568E+03  0.15961024302E+03  0.33473917601E+03  0.49607507861E+03  0.00000000000E+00 0. -1.
        -14    1    3    3    0    0  0.11694172611E+03  0.48601904914E+01  0.12412222943E+03  0.17060280360E+03  0.00000000000E+00 0.  1.
          5    1    4    4  501    0 -0.13449212738E+02 -0.38345464086E+02  0.49579027622E+02  0.64240239097E+02  0.41800000000E+01 0.  1.
         -5    1    4    4    0  501 -0.43721430529E+03 -0.17891384508E+03  0.33893675948E+03  0.58143108967E+03  0.41800000000E+01 0.  1.
</event>
<event>
11    1  0.8328696E-009  0.1367067E+03  0.7561462E-02  0.1111293E+00
         22   -1    0    0    0    0  0.00000000000E+00  0.00000000000E+00  0.14998200732E+04  0.14998200732E+04  0.00000000000E+00 0.  1.
         22   -1    0    0    0    0 -0.00000000000E+00 -0.00000000000E+00 -0.52496029054E+02  0.52496029054E+02  0.00000000000E+00 0.  1.
         24    2    1    2    0    0 -0.56333557660E+02 -0.23443054904E+02  0.19025153170E+02  0.10224467358E+03  0.79805828616E+02 0.  0.
         25    2    1    2    0    0  0.14070884120E+02 -0.86582659834E+01  0.45947560909E+03  0.47648529177E+03  0.12508973807E+03 0.  0.
        -24    2    1    2    0    0  0.42262673539E+02  0.32101320887E+02  0.96882328186E+03  0.97358613688E+03  0.80217118348E+02 0.  0.
        -13    1    3    3    0    0 -0.68738657802E+02 -0.17343895407E+02  0.36681520885E+02  0.79820722615E+02  0.00000000000E+00 0.  1.
         14    1    3    3    0    0  0.12405100143E+02 -0.60991594966E+01 -0.17656367715E+02  0.22423950968E+02  0.00000000000E+00 0. -1.
         13    1    5    5    0    0  0.12015081075E+02 -0.25133839850E+02  0.18393023210E+03  0.18602796123E+03  0.00000000000E+00 0. -1.
        -14    1    5    5    0    0  0.30247592464E+02  0.57235160737E+02  0.78489304976E+03  0.78755817565E+03  0.00000000000E+00 0.  1.
          5    1    4    4  501    0  0.41669526164E+02 -0.39797378911E+02  0.10755759899E+03  0.12209131943E+03  0.41800000000E+01 0. -1.
         -5    1    4    4    0  501 -0.27598642044E+02  0.31139112928E+02  0.35191801010E+03  0.35439397234E+03  0.41800000000E+01 0. -1.
</event>
<event>
11    1  0.8328696E-009  0.1741619E+03  0.7561462E-02  0.1074466E+00
         22   -1    0    0    0    0  0.00000000000E+00  0.00000000000E+00  0.15839942264E+03  0.15839942264E+03  0.00000000000E+00 0.  1.
         22   -1    0    0    0    0 -0.00000000000E+00 -0.00000000000E+00 -0.15564516494E+04  0.15564516494E+04  0.00000000000E+00 0. -1.
        -24    2    1    2    0    0  0.10089797155E+02  0.27923894972E+02 -0.13256753508E+04  0.13284753684E+04  0.80932817460E+02 0.  0.
         25    2    1    2    0    0 -0.11029875388E+03 -0.85766322378E+02 -0.12462416647E+03  0.22516740848E+03  0.12508997486E+03 0.  0.
         24    2    1    2    0    0  0.10020895673E+03  0.57842427405E+02  0.52247290518E+02  0.16120829510E+03  0.99351666445E+02 0.  0.
        -11    1    5    5    0    0  0.12026469494E+03  0.50256622902E+02  0.50171318897E+02  0.13966562295E+03  0.00000000000E+00 0.  1.
         12    1    5    5    0    0 -0.20055738210E+02  0.75858045028E+01  0.20759716214E+01  0.21542672148E+02  0.00000000000E+00 0. -1.
         11    1    3    3    0    0 -0.16469380775E+02  0.41170668837E+02 -0.10951443996E+04  0.10960417513E+04  0.00000000000E+00 0. -1.
        -12    1    3    3    0    0  0.26559177929E+02 -0.13246773865E+02 -0.23053095117E+03  0.23243361718E+03  0.00000000000E+00 0.  1.
          5    1    4    4  501    0 -0.93341964270E+02 -0.11805157730E+02 -0.20708118509E+02  0.96428121495E+02  0.41800000000E+01 0.  1.
         -5    1    4    4    0  501 -0.16956789613E+02 -0.73961164647E+02 -0.10391604796E+03  0.12873928699E+03  0.41800000000E+01 0.  1.
</event>
<event>
11    1  0.8328696E-009  0.1297447E+03  0.7561462E-02  0.1119583E+00
         22   -1    0    0    0    0  0.00000000000E+00  0.00000000000E+00  0.27647126026E+04  0.27647126026E+04  0.00000000000E+00 0.  1.
         22   -1    0    0    0    0 -0.00000000000E+00 -0.00000000000E+00 -0.18645594240E+04  0.18645594240E+04  0.00000000000E+00 0. -1.
        -24    2    1    2    0    0 -0.35388438213E+02  0.81480404788E+01 -0.18358488146E+04  0.18376320858E+04  0.72333123926E+02 0.  0.
         25    2    1    2    0    0  0.47930773177E+02  0.23755350351E+02  0.14383671343E+03  0.19798594434E+03  0.12509100022E+03 0.  0.
         24    2    1    2    0    0 -0.12542334964E+02 -0.31903390830E+02  0.25921652798E+04  0.25936539965E+04  0.80901662471E+02 0.  0.
        -11    1    5    5    0    0  0.53559646387E+01 -0.28795117818E+02  0.24673322002E+04  0.24675060347E+04  0.00000000000E+00 0.  1.
         12    1    5    5    0    0 -0.17898299603E+02 -0.31082730121E+01  0.12483307957E+03  0.12614796172E+03  0.00000000000E+00 0. -1.
         13    1    3    3    0    0 -0.38000427876E+02  0.62696308177E+01 -0.18327841275E+04  0.18331887515E+04  0.00000000000E+00 0. -1.
        -14    1    3    3    0    0  0.26119896625E+01  0.18784096610E+01 -0.30646871034E+01  0.44433343215E+01  0.00000000000E+00 0.  1.
          5    1    4    4  501    0  0.45075676558E+02  0.13197913564E+01  0.16229506312E+03  0.16849545507E+03  0.41800000000E+01 0.  1.
         -5    1    4    4    0  501  0.28550966190E+01  0.22435558995E+02 -0.18458349688E+02  0.29490489269E+02  0.41800000000E+01 0.  1.
</event>
<event>
11    1  0.8328696E-009  0.1380237E+03  0.7561462E-02  0.1109786E+00
         22   -1    0    0    0    0  0.00000000000E+00  0.00000000000E+00  0.64897150620E+02  0.64897150620E+02  0.00000000000E+00 0.  1.
         22   -1    0    0    0    0 -0.00000000000E+00 -0.00000000000E+00 -0.97111460719E+03  0.97111460719E+03  0.00000000000E+00 0.  1.
         24    2    1    2    0    0 -0.23650792172E+02 -0.50066907636E+02 -0.65123294800E+03  0.65868818530E+03  0.81851803185E+02 0.  0.
         25    2    1    2    0    0 -0.36040402018E+01  0.83144884483E+02 -0.23952969882E+03  0.28275013723E+03  0.12508837903E+03 0.  0.
        -24    2    1    2    0    0  0.27254832374E+02 -0.33077976847E+02 -0.15454809754E+02  0.94573435277E+02  0.82875238012E+02 0.  0.
        -11    1    3    3    0    0 -0.41544475173E+02 -0.41960415930E+02 -0.61170167658E+03  0.61454500328E+03  0.00000000000E+00 0.  1.
         12    1    3    3    0    0  0.17893683001E+02 -0.81064917056E+01 -0.39531271415E+02  0.44143182020E+02  0.00000000000E+00 0. -1.
         11    1    5    5    0    0 -0.24366968951E+02 -0.29712346160E+02 -0.18711094200E+02  0.42739650634E+02  0.00000000000E+00 0. -1.
        -12    1    5    5    0    0  0.51621801325E+02 -0.33656306874E+01  0.32562844464E+01  0.51833784643E+02  0.00000000000E+00 0.  1.
          5    1    4    4  501    0  0.29023910702E+02  0.97484403346E+02 -0.21876607613E+03  0.24129165911E+03  0.41800000000E+01 0.  1.
         -5    1    4    4    0  501 -0.32627950904E+02 -0.14339518863E+02 -0.20763622684E+02  0.41458478124E+02  0.41800000000E+01 0.  1.
</event>
<event>
11    1  0.8328696E-009  0.1391278E+03  0.7561462E-02  0.1108536E+00
         22   -1    0    0    0    0  0.00000000000E+00  0.00000000000E+00  0.12373417417E+04  0.12373417417E+04  0.00000000000E+00 0.  1.
         22   -1    0    0    0    0 -0.00000000000E+00 -0.00000000000E+00 -0.15193760626E+03  0.15193760626E+03  0.00000000000E+00 0.  1.
        -24    2    1    2    0    0  0.17423751773E+02 -0.14139618810E+02 -0.11313048904E+03  0.14075171244E+03  0.80678504316E+02 0.  0.
         25    2    1    2    0    0 -0.75509856282E+02  0.52753795748E+01  0.22680709858E+03  0.26984939211E+03  0.12509063287E+03 0.  0.
         24    2    1    2    0    0  0.58086104510E+02  0.88642392347E+01  0.97172752586E+03  0.97867824337E+03  0.10051939741E+03 0.  0.
        -13    1    5    5    0    0  0.46605999587E+02  0.20969076787E+02  0.94956073196E+03  0.95093501622E+03  0.00000000000E+00 0.  1.
         14    1    5    5    0    0  0.11480104923E+02 -0.12104837553E+02  0.22166793895E+02  0.27743227152E+02  0.00000000000E+00 0. -1.
         11    1    3    3    0    0 -0.29819306088E+02 -0.19989678767E+02 -0.53925652760E+02  0.64782361012E+02  0.00000000000E+00 0. -1.
        -12    1    3    3    0    0  0.47243057861E+02  0.58500599572E+01 -0.59204836281E+02  0.75969351429E+02  0.00000000000E+00 0.  1.
          5    1    4    4  501    0 -0.10835554618E+03  0.18421651402E+01  0.19831668623E+03  0.22603384348E+03  0.41800000000E+01 0.  1.
         -5    1    4    4    0  501  0.32845689899E+02  0.34332144347E+01  0.28490412344E+02  0.43815548631E+02  0.41800000000E+01 0.  1.
</event>
<event>
11    1  0.8328696E-009  0.1353927E+03  0.7561462E-02  0.1112815E+00
         22   -1    0    0    0    0  0.00000000000E+00  0.00000000000E+00  0.48800689617E+02  0.48800689617E+02  0.00000000000E+00 0.  1.
         22   -1    0    0    0    0 -0.00000000000E+00 -0.00000000000E+00 -0.10036916859E+04  0.10036916859E+04  0.00000000000E+00 0. -1.
        -24    2    1    2    0    0  0.34951804308E+02  0.35790316889E+02 -0.45855573277E+03  0.46771834313E+03  0.77359634392E+02 0.  0.
         25    2    1    2    0    0  0.37899631916E+01 -0.70054128758E+02 -0.46023923694E+03  0.48206836867E+03  0.12509121503E+03 0.  0.
         24    2    1    2    0    0 -0.38741767500E+02  0.34263811870E+02 -0.36096026535E+02  0.10270566368E+03  0.81059218277E+02 0.  0.
        -11    1    5    5    0    0 -0.56572999186E+02  0.27070186663E+02 -0.10420942872E+01  0.62724677786E+02  0.00000000000E+00 0.  1.
         12    1    5    5    0    0  0.17831231686E+02  0.71936252062E+01 -0.35053932248E+02  0.39980985895E+02  0.00000000000E+00 0. -1.
         11    1    3    3    0    0  0.55274971621E+02  0.43431319397E+02 -0.34003950596E+03  0.34722970438E+03  0.00000000000E+00 0. -1.
        -12    1    3    3    0    0 -0.20323167313E+02 -0.76410025087E+01 -0.11851622682E+03  0.12048863875E+03  0.00000000000E+00 0.  1.
          5    1    4    4  501    0  0.56478470441E+01 -0.12308475807E+02  0.36025438218E+01  0.14623524709E+02  0.41800000000E+01 0. -1.
         -5    1    4    4    0  501 -0.18578838525E+01 -0.57745652951E+02 -0.46384178076E+03  0.46744484396E+03  0.41800000000E+01 0. -1.
</event>
<event>
11    1  0.8328696E-009  0.1565942E+03  0.7561462E-02  0.1090325E+00
         22   -1    0    0    0    0  0.00000000000E+00  0.00000000000E+00  0.10857324477E+04  0.10857324477E+04  0.00000000000E+00 0. -1.
         22   -1    0    0    0    0 -0.00000000000E+00 -0.00000000000E+00 -0.44619506304E+03  0.44619506304E+03  0.00000000000E+00 0.  1.
        -24    2    1    2    0    0  0.59835553372E+02 -0.13995981205E+02 -0.40333568632E+03  0.41571547052E+03  0.79771521458E+02 0.  0.
         25    2    1    2    0    0 -0.39066293385E+02 -0.80895830790E+02  0.15148272462E+03  0.21602267403E+03  0.12509384126E+03 0.  0.
         24    2    1    2    0    0 -0.20769259986E+02  0.94891811995E+02  0.89139034633E+03  0.90018936616E+03  0.79550784292E+02 0.  0.
        -13    1    5    5    0    0  0.36366021614E+01  0.34668910733E+02  0.95717528487E+02  0.10186757829E+03  0.00000000000E+00 0.  1.
         14    1    5    5    0    0 -0.24405862148E+02  0.60222901262E+02  0.79567281784E+03  0.79832178787E+03  0.00000000000E+00 0. -1.
         11    1    3    3    0    0  0.10349208502E+02  0.27273870362E+02 -0.64259339715E+02  0.70570764922E+02  0.00000000000E+00 0. -1.
        -12    1    3    3    0    0  0.49486344870E+02 -0.41269851567E+02 -0.33907634660E+03  0.34514470560E+03  0.00000000000E+00 0.  1.
          5    1    4    4  501    0 -0.83224361245E+02 -0.38332629260E+02  0.10140007415E+03  0.13673014374E+03  0.41800000000E+01 0.  1.
         -5    1    4    4    0  501  0.44158067860E+02 -0.42563201531E+02  0.50082650472E+02  0.79292530291E+02  0.41800000000E+01 0.  1.
</event>
<event>
11    1  0.8328696E-009  0.1418295E+03  0.7561462E-02  0.1105532E+00
         22   -1    0    0    0    0  0.00000000000E+00  0.00000000000E+00  0.58359322508E+03  0.58359322508E+03  0.00000000000E+00 0.  1.
         22   -1    0    0    0    0 -0.00000000000E+00 -0.00000000000E+00 -0.16411359831E+03  0.16411359831E+03  0.00000000000E+00 0.  1.
         24    2    1    2    0    0 -0.46472762599E+02 -0.33519469477E+02 -0.62328841542E+02  0.11656580180E+03  0.80121340246E+02 0.  0.
         25    2    1    2    0    0  0.94831692894E+02  0.36700871772E+02  0.22716559127E+02  0.16279782651E+03  0.12508831397E+03 0.  0.
        -24    2    1    2    0    0 -0.48358930295E+02 -0.31814022948E+01  0.45909190918E+03  0.46834319508E+03  0.78938329388E+02 0.  0.
        -11    1    3    3    0    0 -0.52249786593E+02 -0.42454337000E+02 -0.74491464701E+02  0.10040612154E+03  0.00000000000E+00 0.  1.
         12    1    3    3    0    0  0.57770239947E+01  0.89348675234E+01  0.12162623159E+02  0.16159680257E+02  0.00000000000E+00 0. -1.
         11    1    5    5    0    0 -0.36974230598E+02 -0.39042835088E+02  0.23156297349E+03  0.23772430964E+03  0.00000000000E+00 0. -1.
        -12    1    5    5    0    0 -0.11384699698E+02  0.35861432793E+02  0.22752893569E+03  0.23061888545E+03  0.00000000000E+00 0.  1.
          5    1    4    4  501    0  0.79774853089E+02 -0.24989069907E+02 -0.20119441564E+02  0.86085684809E+02  0.41800000000E+01 0.  1.
         -5    1    4    4    0  501  0.15056839805E+02  0.61689941679E+02  0.42836000691E+02  0.76712141702E+02  0.41800000000E+01 0.  1.
</event>
<event>
11    1  0.8328696E-009  0.1382865E+03  0.7561462E-02  0.1109487E+00
         22   -1    0    0    0    0  0.00000000000E+00  0.00000000000E+00  0.16309988203E+04  0.16309988203E+04  0.00000000000E+00 0. -1.
         22   -1    0    0    0    0 -0.00000000000E+00 -0.00000000000E+00 -0.16634315571E+03  0.16634315571E+03  0.00000000000E+00 0.  1.
        -24    2    1    2    0    0 -0.59060016514E+01  0.56960356885E+02 -0.13393208736E+03  0.16759289000E+03  0.82886727774E+02 0.  0.
         25    2    1    2    0    0  0.17502355206E+02 -0.11149227509E+03  0.51849638699E+03  0.54518020747E+03  0.12508435336E+03 0.  0.
         24    2    1    2    0    0 -0.11596353554E+02  0.54531918208E+02  0.10800913650E+04  0.10845688785E+04  0.81142406430E+02 0.  0.
        -11    1    5    5    0    0  0.78284305700E+01  0.26601072367E+02  0.96909798722E+02  0.10079886143E+03  0.00000000000E+00 0.  1.
         12    1    5    5    0    0 -0.19424784124E+02  0.27930845841E+02  0.98318156624E+03  0.98377001712E+03  0.00000000000E+00 0. -1.
         13    1    3    3    0    0 -0.17638240489E+02  0.53126039708E+02 -0.31127541683E+02  0.64050038827E+02  0.00000000000E+00 0. -1.
        -14    1    3    3    0    0  0.11732238838E+02  0.38343171769E+01 -0.10280454568E+03  0.10354285117E+03  0.00000000000E+00 0.  1.
          5    1    4    4  501    0  0.67249949957E+02 -0.85461745848E+02  0.28714398639E+03  0.30707557228E+03  0.41800000000E+01 0. -1.
         -5    1    4    4    0  501 -0.49747594751E+02 -0.26030529245E+02  0.23135240060E+03  0.23810463519E+03  0.41800000000E+01 0. -1.
</event>
<event>
11    1  0.8328696E-009  0.1390093E+03  0.7561462E-02  0.1108670E+00
         22   -1    0    0    0    0  0.00000000000E+00  0.00000000000E+00  0.22327960284E+03  0.22327960284E+03  0.00000000000E+00 0.  1.
         22   -1    0    0    0    0 -0.00000000000E+00 -0.00000000000E+00 -0.31921466896E+03  0.31921466896E+03  0.00000000000E+00 0. -1.
        -24    2    1    2    0    0 -0.44189536549E+02 -0.77523319427E+01 -0.20058696220E+03  0.22075783187E+03  0.80536185257E+02 0.  0.
         25    2    1    2    0    0  0.80005238576E+02  0.49868204830E+02 -0.25703614034E+02  0.15873122684E+03  0.12508897053E+03 0.  0.
         24    2    1    2    0    0 -0.35815702027E+02 -0.42115872888E+02  0.13035551011E+03  0.16300521309E+03  0.80756604798E+02 0.  0.
        -13    1    5    5    0    0  0.37954583260E+01 -0.45026581406E+02  0.10881076942E+03  0.11782012595E+03  0.00000000000E+00 0.  1.
         14    1    5    5    0    0 -0.39611160353E+02  0.29107085182E+01  0.21544740688E+02  0.45185087141E+02  0.00000000000E+00 0. -1.
         13    1    3    3    0    0 -0.10442461138E+01  0.85979962905E+01 -0.15715135602E+03  0.15738984938E+03  0.00000000000E+00 0. -1.
        -14    1    3    3    0    0 -0.43145290435E+02 -0.16350328233E+02 -0.43435606182E+02  0.63367982487E+02  0.00000000000E+00 0.  1.
          5    1    4    4  501    0  0.92987852442E+02  0.44465260819E+02  0.24836717601E+02  0.10610483053E+03  0.41800000000E+01 0.  1.
         -5    1    4    4    0  501 -0.12982613865E+02  0.54029440112E+01 -0.50540331635E+02  0.52626396309E+02  0.41800000000E+01 0.  1.
</event>
<event>
11    1  0.8328696E-009  0.1412764E+03  0.7561462E-02  0.1106141E+00
         22   -1    0    0    0    0  0.00000000000E+00  0.00000000000E+00  0.90386651768E+03  0.90386651768E+03  0.00000000000E+00 0. -1.
         22   -1    0    0    0    0 -0.00000000000E+00 -0.00000000000E+00 -0.38716537288E+03  0.38716537288E+03  0.00000000000E+00 0. -1.
         24    2    1    2    0    0 -0.61094868348E+02 -0.17142345725E+02 -0.33548980469E+03  0.35083453623E+03  0.80653702980E+02 0.  0.
         25    2    1    2    0    0  0.11559427807E+03  0.24788594061E+02  0.14110475451E+03  0.22256337112E+03  0.12508953153E+03 0.  0.
        -24    2    1    2    0    0 -0.54499409726E+02 -0.76462483366E+01  0.71108619498E+03  0.71763398322E+03  0.79538081528E+02 0.  0.
        -13    1    3    3    0    0  0.18127625047E+02 -0.14736738623E+02 -0.77279513798E+02  0.80733546361E+02  0.00000000000E+00 0.  1.
         14    1    3    3    0    0 -0.79222493395E+02 -0.24056071012E+01 -0.25821029089E+03  0.27010098987E+03  0.00000000000E+00 0. -1.
         11    1    5    5    0    0 -0.68322076046E+02 -0.14568327792E+02  0.39217367463E+03  0.39834700114E+03  0.00000000000E+00 0. -1.
        -12    1    5    5    0    0  0.13822666320E+02  0.69220794549E+01  0.31891252035E+03  0.31928698208E+03  0.00000000000E+00 0.  1.
          5    1    4    4  501    0  0.30788442953E+02  0.49889456984E+02  0.11678865910E+03  0.13074383133E+03  0.41800000000E+01 0.  1.
         -5    1    4    4    0  501  0.84805835120E+02 -0.25100862923E+02  0.24316095416E+02  0.91819539784E+02  0.41800000000E+01 0.  1.
</event>
<event>
11    1  0.8328696E-009  0.1365190E+03  0.7561462E-02  0.1111509E+00
         22   -1    0    0    0    0  0.00000000000E+00  0.00000000000E+00  0.32954313836E+03  0.32954313836E+03  0.00000000000E+00 0. -1.
         22   -1    0    0    0    0 -0.00000000000E+00 -0.00000000000E+00 -0.15716690060E+04  0.15716690060E+04  0.00000000000E+00 0. -1.
        -24    2    1    2    0    0 -0.22103395716E+02  0.51245718735E+02 -0.13206834425E+04  0.13242931979E+04  0.80206203724E+02 0.  0.
         25    2    1    2    0    0 -0.80745202350E+01 -0.49710614432E+02 -0.22452181499E+03  0.26190342178E+03  0.12508802450E+03 0.  0.
         24    2    1    2    0    0  0.30177915951E+02 -0.15351043033E+01  0.30307938980E+03  0.31501552464E+03  0.80402743010E+02 0.  0.
        -13    1    5    5    0    0  0.59920061989E+01 -0.19434756616E+02  0.14756972952E+02  0.25127318872E+02  0.00000000000E+00 0.  1.
         14    1    5    5    0    0  0.24185909752E+02  0.17899652313E+02  0.28832241685E+03  0.28988820577E+03  0.00000000000E+00 0. -1.
         11    1    3    3    0    0  0.26244344135E+02  0.18372179727E+02 -0.73526219512E+03  0.73595978026E+03  0.00000000000E+00 0. -1.
        -12    1    3    3    0    0 -0.48347739851E+02  0.32873539009E+02 -0.58542124735E+03  0.58833341768E+03  0.00000000000E+00 0.  1.
          5    1    4    4  501    0  0.17776140696E+02 -0.33834401313E+02 -0.33188009212E+01  0.38590733730E+02  0.41800000000E+01 0.  1.
         -5    1    4    4    0  501 -0.25850660931E+02 -0.15876213119E+02 -0.22120301407E+03  0.22331268805E+03  0.41800000000E+01 0.  1.
</event>
<event>
11    1  0.8328696E-009  0.1270517E+03  0.7561462E-02  0.1122945E+00
         22   -1    0    0    0    0  0.00000000000E+00  0.00000000000E+00  0.72233465876E+03  0.72233465876E+03  0.00000000000E+00 0.  1.
         22   -1    0    0    0    0 -0.00000000000E+00 -0.00000000000E+00 -0.36262546915E+03  0.36262546915E+03  0.00000000000E+00 0.  1.
         24    2    1    2    0    0  0.11842536336E+02  0.26116021623E+02 -0.32625726739E+03  0.33718452827E+03  0.80170501585E+02 0.  0.
         25    2    1    2    0    0 -0.10006073402E+02 -0.12076460020E+01  0.11411302550E+03  0.16961805239E+03  0.12508765405E+03 0.  0.
        -24    2    1    2    0    0 -0.18364629338E+01 -0.24908375621E+02  0.57185343151E+03  0.57815754725E+03  0.81400261355E+02 0.  0.
        -13    1    3    3    0    0  0.30082711445E+02  0.43961063396E+02 -0.15189023158E+03  0.16096020338E+03  0.00000000000E+00 0.  1.
         14    1    3    3    0    0 -0.18240175109E+02 -0.17845041773E+02 -0.17436703581E+03  0.17622432489E+03  0.00000000000E+00 0. -1.
         11    1    5    5    0    0  0.79404847592E+01 -0.53321385954E+02  0.31873785155E+03  0.32326465861E+03  0.00000000000E+00 0. -1.
        -12    1    5    5    0    0 -0.97769476929E+01  0.28413010333E+02  0.25311557996E+03  0.25489288864E+03  0.00000000000E+00 0.  1.
          5    1    4    4  501    0 -0.29097966153E+02 -0.24972357304E+02  0.12956671216E+03  0.13518622549E+03  0.41800000000E+01 0. -1.
         -5    1    4    4    0  501  0.19091892750E+02  0.23764711302E+02 -0.15453686662E+02  0.34431826897E+02  0.41800000000E+01 0. -1.
</event>
<event>
11    1  0.8328696E-009  0.1562365E+03  0.7561462E-02  0.1090671E+00
         22   -1    0    0    0    0  0.00000000000E+00  0.00000000000E+00  0.69516364713E+03  0.69516364713E+03  0.00000000000E+00 0.  1.
         22   -1    0    0    0    0 -0.00000000000E+00 -0.00000000000E+00 -0.31137461076E+03  0.31137461076E+03  0.00000000000E+00 0. -1.
        -24    2    1    2    0    0  0.74014542840E+02  0.47195343413E+00 -0.13642326513E+03  0.17429290402E+03  0.79299015329E+02 0.  0.
         25    2    1    2    0    0 -0.16434949524E+03 -0.92072385147E+01 -0.78745882248E+02  0.22123417616E+03  0.12509243345E+03 0.  0.
         24    2    1    2    0    0  0.90334952399E+02  0.87352850806E+01  0.59895818375E+03  0.61101117771E+03  0.79668341138E+02 0.  0.
        -11    1    5    5    0    0  0.96587941257E+02  0.28041710764E+01  0.59227352970E+03  0.60010418075E+03  0.00000000000E+00 0.  1.
         12    1    5    5    0    0 -0.62529888579E+01  0.59311140042E+01  0.66846540517E+01  0.10906996964E+02  0.00000000000E+00 0. -1.
         13    1    3    3    0    0  0.64299988353E+02 -0.14085573071E+02 -0.14150746345E+03  0.15606810719E+03  0.00000000000E+00 0. -1.
        -14    1    3    3    0    0  0.97145544867E+01  0.14557526506E+02  0.50841983221E+01  0.18224796828E+02  0.00000000000E+00 0.  1.
          5    1    4    4  501    0 -0.15777694490E+03 -0.48546613481E+02 -0.73646318828E+02  0.18080815994E+03  0.41800000000E+01 0.  1.
         -5    1    4    4    0  501 -0.65725503346E+01  0.39339374966E+02 -0.50995634196E+01  0.40426016224E+02  0.41800000000E+01 0.  1.
</event>
<event>
11    1  0.8328696E-009  0.7507167E+03  0.7561462E-02  0.8960732E-01
         22   -1    0    0    0    0  0.00000000000E+00  0.00000000000E+00  0.16122640179E+04  0.16122640179E+04  0.00000000000E+00 0.  1.
         22   -1    0    0    0    0 -0.00000000000E+00 -0.00000000000E+00 -0.75171053975E+03  0.75171053975E+03  0.00000000000E+00 0.  1.
         24    2    1    2    0    0 -0.42196085753E+02 -0.68385421016E+03 -0.22699984070E+02  0.68935386169E+03  0.72500806422E+02 0.  0.
         25    2    1    2    0    0 -0.99023208028E+02  0.81615945079E+03  0.69545111477E+02  0.83450996785E+03  0.12509404086E+03 0.  0.
        -24    2    1    2    0    0  0.14121929378E+03 -0.13230524063E+03  0.81370835072E+03  0.84011072810E+03  0.78849158499E+02 0.  0.
        -11    1    3    3    0    0 -0.57836423562E+02 -0.62427555268E+03 -0.27646112367E+02  0.62755822446E+03  0.00000000000E+00 0.  1.
         12    1    3    3    0    0  0.15640337809E+02 -0.59578657485E+02  0.49461282975E+01  0.61795637221E+02  0.00000000000E+00 0. -1.
         11    1    5    5    0    0  0.10392840287E+02 -0.22639128800E+02  0.35308982808E+02  0.43211868150E+02  0.00000000000E+00 0. -1.
        -12    1    5    5    0    0  0.13082645349E+03 -0.10966611183E+03  0.77839936791E+03  0.79689885995E+03  0.00000000000E+00 0.  1.
          5    1    4    4  501    0 -0.46973780749E+02  0.56810609088E+03  0.10146088869E+03  0.57901886922E+03  0.41800000000E+01 0.  1.
         -5    1    4    4    0  501 -0.52049427279E+02  0.24805335991E+03 -0.31915777218E+02  0.25549109863E+03  0.41800000000E+01 0.  1.
</event>
<event>
11    1  0.8328696E-009  0.1601669E+03  0.7561462E-02  0.1086920E+00
         22   -1    0    0    0    0  0.00000000000E+00  0.00000000000E+00  0.24099209325E+03  0.24099209325E+03  0.00000000000E+00 0. -1.
         22   -1    0    0    0    0 -0.00000000000E+00 -0.00000000000E+00 -0.48383485500E+03  0.48383485500E+03  0.00000000000E+00 0.  1.
         24    2    1    2    0    0 -0.15496072331E+02  0.11699996559E+02 -0.18655238216E+03  0.20405549776E+03  0.80373109303E+02 0.  0.
         25    2    1    2    0    0  0.26229809518E+02 -0.11016034168E+03 -0.24234125036E+03  0.29532116629E+03  0.12514793586E+03 0.  0.
        -24    2    1    2    0    0 -0.10733737187E+02  0.98460345119E+02  0.18605087076E+03  0.22545028420E+03  0.80020319028E+02 0.  0.
        -11    1    3    3    0    0 -0.21705144869E+02  0.44002298364E+02 -0.12459912313E+03  0.13391137763E+03  0.00000000000E+00 0.  1.
         12    1    3    3    0    0  0.62090725373E+01 -0.32302301805E+02 -0.61953259030E+02  0.70144120125E+02  0.00000000000E+00 0. -1.
         13    1    5    5    0    0  0.90598455877E+01  0.93477084511E+02  0.10071882851E+03  0.13771103277E+03  0.00000000000E+00 0. -1.
        -14    1    5    5    0    0 -0.19793582775E+02  0.49832606080E+01  0.85332042252E+02  0.87739251423E+02  0.00000000000E+00 0.  1.
          5    1    4    4  501    0 -0.22874654400E+02  0.18579992131E+02 -0.57382046321E+02  0.64642382084E+02  0.41800000000E+01 0. -1.
         -5    1    4    4    0  501  0.49104463919E+02 -0.12874033381E+03 -0.18495920404E+03  0.23067878421E+03  0.41800000000E+01 0. -1.
</event>
<event>
11    1  0.8328696E-009  0.1325612E+03  0.7561462E-02  0.1116162E+00
         22   -1    0    0    0    0  0.00000000000E+00  0.00000000000E+00  0.11099595915E+03  0.11099595915E+03  0.00000000000E+00 0.  1.
         22   -1    0    0    0    0 -0.00000000000E+00 -0.00000000000E+00 -0.38441689975E+03  0.38441689975E+03  0.00000000000E+00 0.  1.
        -24    2    1    2    0    0  0.35300658971E+02 -0.26154069567E+02 -0.25140086395E+03  0.26946227247E+03  0.86471671745E+02 0.  0.
         25    2    1    2    0    0 -0.30642407891E+02  0.31672707276E+02 -0.48090500678E+02  0.14107542227E+03  0.12508981160E+03 0.  0.
         24    2    1    2    0    0 -0.46582510799E+01 -0.55186377095E+01  0.26070424027E+02  0.84875164157E+02  0.80448566279E+02 0.  0.
        -11    1    5    5    0    0 -0.36258050046E+01  0.17987542612E+02  0.48815251070E+02  0.52150042073E+02  0.00000000000E+00 0.  1.
         12    1    5    5    0    0 -0.10324460754E+01 -0.23506180322E+02 -0.22744827042E+02  0.32725122084E+02  0.00000000000E+00 0. -1.
         11    1    3    3    0    0  0.58368761033E+02 -0.21771540691E+02 -0.11255558344E+03  0.12864552698E+03  0.00000000000E+00 0. -1.
        -12    1    3    3    0    0 -0.23068102062E+02 -0.43825288754E+01 -0.13884528051E+03  0.14081674549E+03  0.00000000000E+00 0.  1.
          5    1    4    4  501    0 -0.66107401985E+01 -0.42956199136E+02 -0.44703177708E+02  0.62488266318E+02  0.41800000000E+01 0. -1.
         -5    1    4    4    0  501 -0.24031667692E+02  0.74628906413E+02 -0.33873229701E+01  0.78587155956E+02  0.41800000000E+01 0. -1.
</event>
<event>
11    1  0.8328696E-009  0.1556879E+03  0.7561462E-02  0.1091205E+00
         22   -1    0    0    0    0  0.00000000000E+00  0.00000000000E+00  0.15114258209E+03  0.15114258209E+03  0.00000000000E+00 0.  1.
         22   -1    0    0    0    0 -0.00000000000E+00 -0.00000000000E+00 -0.33284180905E+04  0.33284180905E+04  0.00000000000E+00 0.  1.
         24    2    1    2    0    0 -0.74034420067E+02 -0.79813721887E+02 -0.22665420038E+04  0.22706318702E+04  0.81884733964E+02 0.  0.
         25    2    1    2    0    0 -0.19201810573E+02  0.77596082832E+02 -0.10291567507E+04  0.10398076100E+04  0.12508551771E+03 0.  0.
        -24    2    1    2    0    0  0.93236230640E+02  0.22176390546E+01  0.11842324601E+03  0.16912119239E+03  0.76681157351E+02 0.  0.
        -13    1    3    3    0    0 -0.72599368042E+02 -0.60336105527E+02 -0.21741415728E+04  0.21761899486E+04  0.00000000000E+00 0.  1.
         14    1    3    3    0    0 -0.14350520249E+01 -0.19477616360E+02 -0.92400430930E+02  0.94441921568E+02  0.00000000000E+00 0. -1.
         13    1    5    5    0    0 -0.46944570000E+01 -0.19807766944E+02  0.19361567261E+02  0.28093697596E+02  0.00000000000E+00 0. -1.
        -14    1    5    5    0    0  0.97930687640E+02  0.22025405998E+02  0.99061678750E+02  0.14102749479E+03  0.00000000000E+00 0.  1.
          5    1    4    4  501    0 -0.35217562002E+02  0.30055325893E+02 -0.89981436317E+03  0.90101440602E+03  0.41800000000E+01 0.  1.
         -5    1    4    4    0  501  0.16015751429E+02  0.47540756939E+02 -0.12934238752E+03  0.13879320399E+03  0.41800000000E+01 0.  1.
</event>
<event>
11    1  0.8328696E-009  0.3127153E+03  0.7561462E-02  0.9949489E-01
         22   -1    0    0    0    0  0.00000000000E+00  0.00000000000E+00  0.96409878908E+03  0.96409878908E+03  0.00000000000E+00 0. -1.
         22   -1    0    0    0    0 -0.00000000000E+00 -0.00000000000E+00 -0.54238548618E+03  0.54238548618E+03  0.00000000000E+00 0.  1.
         24    2    1    2    0    0  0.77871460332E+02 -0.25312928053E+03 -0.24639893568E+03  0.36997410169E+03  0.77653096650E+02 0.  0.
         25    2    1    2    0    0 -0.17399393216E+03  0.29709135052E+03 -0.81600252562E+02  0.37529126940E+03  0.12509107357E+03 0.  0.
        -24    2    1    2    0    0  0.96122471833E+02 -0.43962069989E+02  0.74971249114E+03  0.76121890417E+03  0.78823901831E+02 0.  0.
        -11    1    3    3    0    0  0.81606670347E+02 -0.25016687388E+03 -0.21954347531E+03  0.34269877587E+03  0.00000000000E+00 0.  1.
         12    1    3    3    0    0 -0.37352100147E+01 -0.29624066592E+01 -0.26855460371E+02  0.27275325824E+02  0.00000000000E+00 0. -1.
         11    1    5    5    0    0  0.81469016110E+02 -0.27821619275E+02  0.71543850108E+03  0.72059939767E+03  0.00000000000E+00 0. -1.
        -12    1    5    5    0    0  0.14653455722E+02 -0.16140450715E+02  0.34273990056E+02  0.40619506500E+02  0.00000000000E+00 0.  1.
          5    1    4    4  501    0 -0.79332893031E+02  0.24381025107E+03 -0.43430724874E+02  0.26007853949E+03  0.41800000000E+01 0. -1.
         -5    1    4    4    0  501 -0.94661039134E+02  0.53281099456E+02 -0.38169527688E+02  0.11521272991E+03  0.41800000000E+01 0. -1.
</event>
<event>
11    1  0.8328696E-009  0.1817941E+03  0.7561462E-02  0.1068201E+00
         22   -1    0    0    0    0  0.00000000000E+00  0.00000000000E+00  0.98474315061E+02  0.98474315061E+02  0.00000000000E+00 0.  1.
         22   -1    0    0    0    0 -0.00000000000E+00 -0.00000000000E+00 -0.28471162429E+04  0.28471162429E+04  0.00000000000E+00 0. -1.
        -24    2    1    2    0    0  0.69488858276E+02  0.11430802720E+03 -0.23411859913E+04  0.23462139691E+04  0.75320091914E+02 0.  0.
         25    2    1    2    0    0 -0.46264491665E+02 -0.11242640955E+03 -0.46591497070E+03  0.49749680281E+03  0.12508480375E+03 0.  0.
         24    2    1    2    0    0 -0.23224366611E+02 -0.18816176513E+01  0.58459034188E+02  0.10187978606E+03  0.80119413633E+02 0.  0.
        -11    1    5    5    0    0  0.11582333386E+02 -0.31241040601E+02  0.41658056228E+02  0.53343666102E+02  0.00000000000E+00 0.  1.
         12    1    5    5    0    0 -0.34806699997E+02  0.29359422950E+02  0.16800977960E+02  0.48536119963E+02  0.00000000000E+00 0. -1.
         11    1    3    3    0    0  0.72528458775E+02  0.61477050277E+02 -0.17803363377E+04  0.17828733215E+04  0.00000000000E+00 0. -1.
        -12    1    3    3    0    0 -0.30396004993E+01  0.52830976919E+02 -0.56084965357E+03  0.56334064757E+03  0.00000000000E+00 0.  1.
          5    1    4    4  501    0  0.79481348662E+01 -0.81983112681E+02 -0.39309285415E+03  0.40165142598E+03  0.41800000000E+01 0. -1.
         -5    1    4    4    0  501 -0.54212626531E+02 -0.30443296865E+02 -0.72822116549E+02  0.95845376821E+02  0.41800000000E+01 0. -1.
</event>
<event>
11    1  0.8328696E-009  0.1781542E+03  0.7561462E-02  0.1071146E+00
         22   -1    0    0    0    0  0.00000000000E+00  0.00000000000E+00  0.11531284528E+04  0.11531284528E+04  0.00000000000E+00 0. -1.
         22   -1    0    0    0    0 -0.00000000000E+00 -0.00000000000E+00 -0.25403700089E+03  0.25403700089E+03  0.00000000000E+00 0.  1.
         24    2    1    2    0    0 -0.17232022997E+02 -0.38579213358E+02 -0.18688791473E+03  0.20877218589E+03  0.82906179552E+02 0.  0.
         25    2    1    2    0    0  0.12797988212E+03 -0.23954544895E+02  0.11127059958E+03  0.21209002791E+03  0.12509341773E+03 0.  0.
        -24    2    1    2    0    0 -0.11074785912E+03  0.62533758254E+02  0.97470876704E+03  0.98630323986E+03  0.81002106116E+02 0.  0.
        -13    1    3    3    0    0 -0.14566094567E+02 -0.25585652627E+02 -0.19223081004E+03  0.19447231438E+03  0.00000000000E+00 0.  1.
         14    1    3    3    0    0 -0.26659284306E+01 -0.12993560731E+02  0.53428953093E+01  0.14299871509E+02  0.00000000000E+00 0. -1.
         13    1    5    5    0    0 -0.12088101943E+03  0.56924844034E+02  0.78898665140E+03  0.80022034142E+03  0.00000000000E+00 0. -1.
        -14    1    5    5    0    0  0.10133160307E+02  0.56089142192E+01  0.18572211564E+03  0.18608289844E+03  0.00000000000E+00 0.  1.
          5    1    4    4  501    0  0.16892837150E+02 -0.34832364291E+02  0.90442421053E+02  0.98468093691E+02  0.41800000000E+01 0.  1.
         -5    1    4    4    0  501  0.11108704497E+03  0.10877819396E+02  0.20828178524E+02  0.11362193422E+03  0.41800000000E+01 0.  1.
</event>
<event>
11    1  0.8328696E-009  0.1348334E+03  0.7561462E-02  0.1113469E+00
         22   -1    0    0    0    0  0.00000000000E+00  0.00000000000E+00  0.35875453607E+04  0.35875453607E+04  0.00000000000E+00 0.  1.
         22   -1    0    0    0    0 -0.00000000000E+00 -0.00000000000E+00 -0.15614944750E+03  0.15614944750E+03  0.00000000000E+00 0.  1.
         24    2    1    2    0    0  0.28334313848E+02  0.17036107959E+01 -0.10163957685E+03  0.13286355907E+03  0.80724135890E+02 0.  0.
         25    2    1    2    0    0 -0.10330425370E+02 -0.48846954588E+02  0.80223003235E+02  0.15676582150E+03  0.12508816844E+03 0.  0.
        -24    2    1    2    0    0 -0.18003888478E+02  0.47143343792E+02  0.34528124868E+04  0.34540654276E+04  0.78149052438E+02 0.  0.
        -11    1    3    3    0    0 -0.22557324768E+02 -0.11503287342E+02 -0.62142862519E+02  0.67103605584E+02  0.00000000000E+00 0.  1.
         12    1    3    3    0    0  0.50891638616E+02  0.13206898138E+02 -0.39496714334E+02  0.65759953487E+02  0.00000000000E+00 0. -1.
         13    1    5    5    0    0 -0.31721314285E+02  0.58054489935E+02  0.18951422230E+04  0.18962965515E+04  0.00000000000E+00 0. -1.
        -14    1    5    5    0    0  0.13717425807E+02 -0.10911146143E+02  0.15576702638E+04  0.15577688761E+04  0.00000000000E+00 0.  1.
          5    1    4    4  501    0 -0.60825890606E+02 -0.10540983312E+02  0.68262216460E+02  0.92130906287E+02  0.41800000000E+01 0. -1.
         -5    1    4    4    0  501  0.50495465236E+02 -0.38305971276E+02  0.11960786776E+02  0.64634915216E+02  0.41800000000E+01 0. -1.
</event>
<event>
11    1  0.8328696E-009  0.1335420E+03  0.7561462E-02  0.1114992E+00
         22   -1    0    0    0    0  0.00000000000E+00  0.00000000000E+00  0.82460992239E+02  0.82460992239E+02  0.00000000000E+00 0. -1.
         22   -1    0    0    0    0 -0.00000000000E+00 -0.00000000000E+00 -0.14359560431E+04  0.14359560431E+04  0.00000000000E+00 0.  1.
         24    2    1    2    0    0 -0.24283966184E+01  0.47151143785E+02 -0.12527437142E+04  0.12562248415E+04  0.80653031482E+02 0.  0.
         25    2    1    2    0    0 -0.21312521113E+01 -0.39443444941E+02 -0.12250106218E+03  0.17948266080E+03  0.12508871935E+03 0.  0.
        -24    2    1    2    0    0  0.45596487297E+01 -0.77076988440E+01  0.21749725567E+02  0.82709532981E+02  0.79294497071E+02 0.  0.
        -11    1    3    3    0    0 -0.16138877968E+01  0.60379779249E+02 -0.12092264464E+04  0.12107340423E+04  0.00000000000E+00 0.  1.
         12    1    3    3    0    0 -0.81450882159E+00 -0.13228635464E+02 -0.43517267764E+02  0.45490799229E+02  0.00000000000E+00 0. -1.
         13    1    5    5    0    0  0.39277560854E+02 -0.47089452517E+01  0.26391868851E+02  0.47554512861E+02  0.00000000000E+00 0. -1.
        -14    1    5    5    0    0 -0.34717912124E+02 -0.29987535922E+01 -0.46421432845E+01  0.35155020120E+02  0.00000000000E+00 0.  1.
          5    1    4    4  501    0  0.13201685540E+02 -0.24440888230E+02  0.20528665903E+02  0.34792815959E+02  0.41800000000E+01 0.  1.
         -5    1    4    4    0  501 -0.15332937651E+02 -0.15002556711E+02 -0.14302972809E+03  0.14468984484E+03  0.41800000000E+01 0.  1.
</event>
<event>
11    1  0.8328696E-009  0.1333553E+03  0.7561462E-02  0.1115214E+00
         22   -1    0    0    0    0  0.00000000000E+00  0.00000000000E+00  0.33678232391E+03  0.33678232391E+03  0.00000000000E+00 0.  1.
         22   -1    0    0    0    0 -0.00000000000E+00 -0.00000000000E+00 -0.31549091272E+03  0.31549091272E+03  0.00000000000E+00 0.  1.
        -24    2    1    2    0    0 -0.38594244727E+01  0.13161851176E+02 -0.25483765026E+03  0.26729959508E+03  0.79490351960E+02 0.  0.
         25    2    1    2    0    0  0.28428260445E+02 -0.49445531219E+02  0.61982566513E+02  0.15080251063E+03  0.12508609879E+03 0.  0.
         24    2    1    2    0    0 -0.24568835973E+02  0.36283680042E+02  0.21414649494E+03  0.23417113093E+03  0.84007524209E+02 0.  0.
        -13    1    5    5    0    0 -0.10086242535E+02  0.53545293767E+02  0.20062650629E+03  0.20789378490E+03  0.00000000000E+00 0.  1.
         14    1    5    5    0    0 -0.14482593437E+02 -0.17261613724E+02  0.13519988653E+02  0.26277346027E+02  0.00000000000E+00 0. -1.
         13    1    3    3    0    0  0.30732465470E+02  0.58901528486E+01 -0.46912027716E+02  0.56390749941E+02  0.00000000000E+00 0. -1.
        -14    1    3    3    0    0 -0.34591889943E+02  0.72716983275E+01 -0.20792562254E+03  0.21090884514E+03  0.00000000000E+00 0.  1.
          5    1    4    4  501    0  0.57076189684E+02 -0.12192345814E+02 -0.15097137276E+02  0.60429634115E+02  0.41800000000E+01 0. -1.
         -5    1    4    4    0  501 -0.28647929239E+02 -0.37253185404E+02  0.77079703790E+02  0.90372876510E+02  0.41800000000E+01 0. -1.
</event>
<event>
11    1  0.8328696E-009  0.1294419E+03  0.7561462E-02  0.1119957E+00
         22   -1    0    0    0    0  0.00000000000E+00  0.00000000000E+00  0.28773569552E+03  0.28773569552E+03  0.00000000000E+00 0.  1.
         22   -1    0    0    0    0 -0.00000000000E+00 -0.00000000000E+00 -0.16590678475E+04  0.16590678475E+04  0.00000000000E+00 0.  1.
        -24    2    1    2    0    0  0.32018044390E+02 -0.79344438400E+01 -0.15504186071E+04  0.15530711047E+04  0.84521525994E+02 0.  0.
         25    2    1    2    0    0 -0.33782057741E+02  0.40521117167E+02 -0.52723330795E+02  0.14564242646E+03  0.12509507750E+03 0.  0.
         24    2    1    2    0    0  0.17640133509E+01 -0.32586673327E+02  0.23180978586E+03  0.24809001194E+03  0.82145445295E+02 0.  0.
        -13    1    5    5    0    0 -0.33138461048E+01 -0.10462358245E+02  0.22372448060E+03  0.22399349485E+03  0.00000000000E+00 0.  1.
         14    1    5    5    0    0  0.50778594557E+01 -0.22124315082E+02  0.80853052544E+01  0.24096517084E+02  0.00000000000E+00 0. -1.
         13    1    3    3    0    0  0.46202397290E+02  0.26206266797E+02 -0.82136790061E+03  0.82308362764E+03  0.00000000000E+00 0. -1.
        -14    1    3    3    0    0 -0.14184352900E+02 -0.34140710637E+02 -0.72905070647E+03  0.72998747701E+03  0.00000000000E+00 0.  1.
          5    1    4    4  501    0  0.32318193973E+02  0.14520621171E+02 -0.64319010136E+02  0.73550809416E+02  0.41800000000E+01 0. -1.
         -5    1    4    4    0  501 -0.66100251714E+02  0.26000495997E+02  0.11595679341E+02  0.72091617045E+02  0.41800000000E+01 0. -1.
</event>
<event>
11    1  0.8328696E-009  0.1466929E+03  0.7561462E-02  0.1100307E+00
         22   -1    0    0    0    0  0.00000000000E+00  0.00000000000E+00  0.11580943413E+04  0.11580943413E+04  0.00000000000E+00 0. -1.
         22   -1    0    0    0    0 -0.00000000000E+00 -0.00000000000E+00 -0.21022641318E+03  0.21022641318E+03  0.00000000000E+00 0. -1.
         24    2    1    2    0    0 -0.36865301394E+02  0.43853518004E+02 -0.18012052857E+03  0.20574864758E+03  0.81282960566E+02 0.  0.
         25    2    1    2    0    0 -0.45057642646E+02 -0.71917357087E+01  0.33385677195E+03  0.35943466275E+03  0.12510403825E+03 0.  0.
        -24    2    1    2    0    0  0.81922944040E+02 -0.36661782295E+02  0.79413168473E+03  0.80313744414E+03  0.79556058483E+02 0.  0.
        -13    1    3    3    0    0 -0.20422109869E+02  0.55989256335E+02 -0.62478817192E+02  0.86345017194E+02  0.00000000000E+00 0.  1.
         14    1    3    3    0    0 -0.16443191525E+02 -0.12135738331E+02 -0.11764171138E+03  0.11940363038E+03  0.00000000000E+00 0. -1.
         13    1    5    5    0    0  0.59679893294E+02 -0.38106670950E+02  0.75327732229E+03  0.75659799915E+03  0.00000000000E+00 0. -1.
        -14    1    5    5    0    0  0.22243050746E+02  0.14448886549E+01  0.40854362439E+02  0.46539444991E+02  0.00000000000E+00 0.  1.
          5    1    4    4  501    0 -0.77014757687E+01  0.57545411320E+02  0.15289070538E+03  0.16359653812E+03  0.41800000000E+01 0.  1.
         -5    1    4    4    0  501 -0.37356166877E+02 -0.64737147028E+02  0.18096606657E+03  0.19583812463E+03  0.41800000000E+01 0.  1.
</event>
<event>
11    1  0.8328696E-009  0.2082233E+03  0.7561462E-02  0.1048856E+00
         22   -1    0    0    0    0  0.00000000000E+00  0.00000000000E+00  0.14751100339E+04  0.14751100339E+04  0.00000000000E+00 0. -1.
         22   -1    0    0    0    0 -0.00000000000E+00 -0.00000000000E+00 -0.33313795930E+03  0.33313795930E+03  0.00000000000E+00 0.  1.
        -24    2    1    2    0    0 -0.22245128866E+02 -0.41363262503E+02 -0.17491474877E+03  0.19850937222E+03  0.81271374297E+02 0.  0.
         25    2    1    2    0    0 -0.13783068339E+03  0.88502382044E+02 -0.64193133589E+02  0.21586541835E+03  0.12508857474E+03 0.  0.
         24    2    1    2    0    0  0.16007581225E+03 -0.47139119541E+02  0.13810799569E+04  0.13938732026E+04  0.87488829223E+02 0.  0.
        -11    1    5    5    0    0  0.56798153016E+01  0.16643663972E+02  0.23828630173E+03  0.23893437058E+03  0.00000000000E+00 0.  1.
         12    1    5    5    0    0  0.15439599695E+03 -0.63782783513E+02  0.11427936552E+04  0.11549388320E+04  0.00000000000E+00 0. -1.
         13    1    3    3    0    0 -0.27548943631E+02  0.15633441478E+02 -0.95486535815E+02  0.10060331659E+03  0.00000000000E+00 0. -1.
        -14    1    3    3    0    0  0.53038147651E+01 -0.56996703982E+02 -0.79428212956E+02  0.97906055631E+02  0.00000000000E+00 0.  1.
          5    1    4    4  501    0 -0.65593519726E+02  0.10667127611E+03 -0.14283936307E+02  0.12610620212E+03  0.41800000000E+01 0.  1.
         -5    1    4    4    0  501 -0.72237163659E+02 -0.18168894065E+02 -0.49909197282E+02  0.89759216231E+02  0.41800000000E+01 0.  1.
</event>
<event>
11    1  0.8328696E-009  0.8035091E+03  0.7561462E-02  0.8892290E-01
         22   -1    0    0    0    0  0.00000000000E+00  0.00000000000E+00  0.14105531222E+04  0.14105531222E+04  0.00000000000E+00 0. -1.
         22   -1    0    0    0    0 -0.00000000000E+00 -0.00000000000E+00 -0.11269738675E+04  0.11269738675E+04  0.00000000000E+00 0. -1.
         24    2    1    2    0    0 -0.11285940729E+03 -0.64141229427E+03 -0.37248873978E+02  0.65729407447E+03  0.80629055939E+02 0.  0.
         25    2    1    2    0    0  0.74546248946E+02  0.92680107414E+03 -0.45935256929E+03  0.10445906078E+04  0.12508949079E+03 0.  0.
        -24    2    1    2    0    0  0.38313158342E+02 -0.28538877986E+03  0.78018069794E+03  0.83564230743E+03  0.81862633486E+02 0.  0.
        -11    1    3    3    0    0 -0.65470612472E+01 -0.23904749996E+03  0.32158923284E+01  0.23915876152E+03  0.00000000000E+00 0.  1.
         12    1    3    3    0    0 -0.10631234604E+03 -0.40236479431E+03 -0.40464766306E+02  0.41813531295E+03  0.00000000000E+00 0. -1.
         13    1    5    5    0    0  0.90192010770E+01 -0.16630650023E+02  0.13188052430E+03  0.13323061659E+03  0.00000000000E+00 0. -1.
        -14    1    5    5    0    0  0.29293957265E+02 -0.26875812984E+03  0.64830017364E+03  0.70241169084E+03  0.00000000000E+00 0.  1.
          5    1    4    4  501    0  0.61235392875E+02  0.79199916177E+03 -0.34027248289E+03  0.86418474911E+03  0.41800000000E+01 0.  1.
         -5    1    4    4    0  501  0.13310856071E+02  0.13480191237E+03 -0.11908008639E+03  0.18040585867E+03  0.41800000000E+01 0.  1.
</event>
<event>
11    1  0.8328696E-009  0.1304977E+03  0.7561462E-02  0.1118659E+00
         22   -1    0    0    0    0  0.00000000000E+00  0.00000000000E+00  0.32312890076E+03  0.32312890076E+03  0.00000000000E+00 0.  1.
         22   -1    0    0    0    0 -0.00000000000E+00 -0.00000000000E+00 -0.31382878717E+03  0.31382878717E+03  0.00000000000E+00 0.  1.
        -24    2    1    2    0    0  0.28785662072E+02  0.20898563661E+02 -0.21333174317E+03  0.23080093810E+03  0.80580866720E+02 0.  0.
         25    2    1    2    0    0 -0.49901456598E+02 -0.99570800696E+01 -0.30801831182E+02  0.13851174543E+03  0.12508977577E+03 0.  0.
         24    2    1    2    0    0  0.21115794526E+02 -0.10941483592E+02  0.25343368794E+03  0.26764500439E+03  0.82702003325E+02 0.  0.
        -13    1    5    5    0    0  0.16084056468E+02  0.89310832230E+00  0.25424949204E+03  0.25475929564E+03  0.00000000000E+00 0.  1.
         14    1    5    5    0    0  0.50317380574E+01 -0.11834591914E+02 -0.81580410213E+00  0.12885708750E+02  0.00000000000E+00 0. -1.
         11    1    3    3    0    0 -0.23163957452E+02  0.69231362667E+01 -0.24358982395E+02  0.34319947027E+02  0.00000000000E+00 0. -1.
        -12    1    3    3    0    0  0.51949619524E+02  0.13975427394E+02 -0.18897276077E+03  0.19648099107E+03  0.00000000000E+00 0.  1.
          5    1    4    4  501    0  0.12973162988E+02  0.47253031260E+02 -0.42806295204E+01  0.49365454624E+02  0.41800000000E+01 0. -1.
         -5    1    4    4    0  501 -0.62874619586E+02 -0.57210111329E+02 -0.26521201662E+02  0.89146290803E+02  0.41800000000E+01 0. -1.
</event>
<event>
11    1  0.8328696E-009  0.1786456E+03  0.7561462E-02  0.1070744E+00
         22   -1    0    0    0    0  0.00000000000E+00  0.00000000000E+00  0.28021482220E+03  0.28021482220E+03  0.00000000000E+00 0. -1.
         22   -1    0    0    0    0 -0.00000000000E+00 -0.00000000000E+00 -0.19351484522E+04  0.19351484522E+04  0.00000000000E+00 0. -1.
         24    2    1    2    0    0  0.34297628990E+02 -0.11122564772E+02 -0.17339906661E+04  0.17361759663E+04  0.79267376046E+02 0.  0.
         25    2    1    2    0    0 -0.84570724293E+02 -0.10556198144E+03 -0.12707649828E+03  0.22380997030E+03  0.12508767749E+03 0.  0.
        -24    2    1    2    0    0  0.50273095302E+02  0.11668454621E+03  0.20613353441E+03  0.25537733781E+03  0.81141131524E+02 0.  0.
        -11    1    3    3    0    0  0.11439850285E+02 -0.42477304747E+02 -0.11847283143E+04  0.11855447568E+04  0.00000000000E+00 0.  1.
         12    1    3    3    0    0  0.22857778706E+02  0.31354739974E+02 -0.54926235179E+03  0.55063120949E+03  0.00000000000E+00 0. -1.
         11    1    5    5    0    0  0.72625225563E+02  0.83217814928E+02  0.14795174015E+03  0.18463300226E+03  0.00000000000E+00 0. -1.
        -12    1    5    5    0    0 -0.22352130261E+02  0.33466731280E+02  0.58181794262E+02  0.70744335557E+02  0.00000000000E+00 0.  1.
          5    1    4    4  501    0  0.12111743113E+02 -0.82509696192E+02 -0.71057729508E+02  0.10964131343E+03  0.41800000000E+01 0. -1.
         -5    1    4    4    0  501 -0.96682467406E+02 -0.23052285244E+02 -0.56018768768E+02  0.11416865688E+03  0.41800000000E+01 0. -1.
</event>
<event>
11    1  0.8328696E-009  0.1387735E+03  0.7561462E-02  0.1108936E+00
         22   -1    0    0    0    0  0.00000000000E+00  0.00000000000E+00  0.12067179530E+04  0.12067179530E+04  0.00000000000E+00 0. -1.
         22   -1    0    0    0    0 -0.00000000000E+00 -0.00000000000E+00 -0.80749354624E+02  0.80749354624E+02  0.00000000000E+00 0.  1.
        -24    2    1    2    0    0 -0.53764916374E+02 -0.31891050079E+02 -0.24588506850E+02  0.99315176490E+02  0.73151926183E+02 0.  0.
         25    2    1    2    0    0  0.47293387978E+02  0.30983094048E+01  0.25051018276E+03  0.28398856195E+03  0.12509151684E+03 0.  0.
         24    2    1    2    0    0  0.64715283969E+01  0.28792740674E+02  0.90004692243E+03  0.90416356915E+03  0.80971566627E+02 0.  0.
        -13    1    5    5    0    0 -0.35207356205E+02  0.25588159041E+02  0.39537170665E+03  0.39776010135E+03  0.00000000000E+00 0.  1.
         14    1    5    5    0    0  0.41678884602E+02  0.32045816332E+01  0.50467521579E+03  0.50640346779E+03  0.00000000000E+00 0. -1.
         13    1    3    3    0    0  0.10335469056E+02  0.13067176805E+02  0.16465648307E+01  0.16741690655E+02  0.00000000000E+00 0. -1.
        -14    1    3    3    0    0 -0.64100385430E+02 -0.44958226884E+02 -0.26235071680E+02  0.82573485835E+02  0.00000000000E+00 0.  1.
          5    1    4    4  501    0 -0.33646900094E+01 -0.38455220251E+00  0.22837523330E+03  0.22843858825E+03  0.41800000000E+01 0. -1.
         -5    1    4    4    0  501  0.50658077987E+02  0.34828616073E+01  0.22134949464E+02  0.55549973700E+02  0.41800000000E+01 0. -1.
</event>
<event>
11    1  0.8328696E-009  0.2057283E+03  0.7561462E-02  0.1050545E+00
         22   -1    0    0    0    0  0.00000000000E+00  0.00000000000E+00  0.11682103369E+04  0.11682103369E+04  0.00000000000E+00 0. -1.
         22   -1    0    0    0    0 -0.00000000000E+00 -0.00000000000E+00 -0.51745476358E+03  0.51745476358E+03  0.00000000000E+00 0.  1.
        -24    2    1    2    0    0 -0.14146778366E+03  0.68189688179E+02 -0.40428294865E+03  0.44113613057E+03  0.80581733253E+02 0.  0.
         25    2    1    2    0    0  0.17867593855E+03 -0.16694287597E+03  0.11941447612E+03  0.29950448327E+03  0.12509238001E+03 0.  0.
         24    2    1    2    0    0 -0.37208154882E+02  0.98753187787E+02  0.93562404587E+03  0.94502448667E+03  0.80884400861E+02 0.  0.
        -11    1    5    5    0    0 -0.38038977265E+02  0.94284722128E+01  0.40949253544E+03  0.41136358184E+03  0.00000000000E+00 0.  1.
         12    1    5    5    0    0  0.83082238298E+00  0.89324715574E+02  0.52613151043E+03  0.53366090483E+03  0.00000000000E+00 0. -1.
         13    1    3    3    0    0  0.77119313524E+01  0.11845969190E+02 -0.61095713100E+02  0.62709544971E+02  0.00000000000E+00 0. -1.
        -14    1    3    3    0    0 -0.14917971502E+03  0.56343718989E+02 -0.34318723555E+03  0.37842658560E+03  0.00000000000E+00 0.  1.
          5    1    4    4  501    0  0.14810402735E+03 -0.55184816494E+02  0.78814762253E+02  0.17666184092E+03  0.41800000000E+01 0.  1.
         -5    1    4    4    0  501  0.30571911194E+02 -0.11175805947E+03  0.40599713872E+02  0.12284264234E+03  0.41800000000E+01 0.  1.
</event>
<event>
11    1  0.8328696E-009  0.2395751E+03  0.7561462E-02  0.1029604E+00
         22   -1    0    0    0    0  0.00000000000E+00  0.00000000000E+00  0.51030603231E+03  0.51030603231E+03  0.00000000000E+00 0. -1.
         22   -1    0    0    0    0 -0.00000000000E+00 -0.00000000000E+00 -0.28805620403E+04  0.28805620403E+04  0.00000000000E+00 0. -1.
         24    2    1    2    0    0  0.20012181060E+03 -0.49721540334E+02 -0.27070471715E+04  0.27161365277E+04  0.82293849495E+02 0.  0.
         25    2    1    2    0    0 -0.17735918016E+03  0.92008370644E+01 -0.91922989348E+02  0.23587876758E+03  0.12509205743E+03 0.  0.
        -24    2    1    2    0    0 -0.22762630442E+02  0.40520703270E+02  0.42871415288E+03  0.43885277733E+03  0.81460852870E+02 0.  0.
        -11    1    3    3    0    0  0.12160348265E+03 -0.39588376951E+01 -0.11445530520E+04  0.11510016370E+04  0.00000000000E+00 0.  1.
         12    1    3    3    0    0  0.78518327958E+02 -0.45762702639E+02 -0.15624941194E+04  0.15651348907E+04  0.00000000000E+00 0. -1.
         13    1    5    5    0    0 -0.42450840276E+02  0.46352384193E+02  0.38997839260E+03  0.39501109359E+03  0.00000000000E+00 0. -1.
        -14    1    5    5    0    0  0.19688209834E+02 -0.58316809231E+01  0.38735760275E+02  0.43841683737E+02  0.00000000000E+00 0.  1.
          5    1    4    4  501    0 -0.21726599455E+02 -0.13868156241E+02 -0.72789528937E+02  0.77331486500E+02  0.41800000000E+01 0.  1.
         -5    1    4    4    0  501 -0.15563258071E+03  0.23068993305E+02 -0.19133460410E+02  0.15854728108E+03  0.41800000000E+01 0.  1.
</event>
<event>
11    1  0.8328696E-009  0.1373248E+03  0.7561462E-02  0.1110583E+00
         22   -1    0    0    0    0  0.00000000000E+00  0.00000000000E+00  0.19725695321E+03  0.19725695321E+03  0.00000000000E+00 0.  1.
         22   -1    0    0    0    0 -0.00000000000E+00 -0.00000000000E+00 -0.98937964026E+03  0.98937964026E+03  0.00000000000E+00 0.  1.
         24    2    1    2    0    0  0.16757710034E+01 -0.26070085319E+02 -0.88142139009E+03  0.88548676500E+03  0.80626835096E+02 0.  0.
         25    2    1    2    0    0 -0.38129551320E+02  0.65136267329E+02 -0.29572626345E+02  0.14905996331E+03  0.12509091264E+03 0.  0.
        -24    2    1    2    0    0  0.36453780316E+02 -0.39066182010E+02  0.11887132938E+03  0.15208986516E+03  0.78395723482E+02 0.  0.
        -13    1    3    3    0    0  0.27119277126E+02 -0.39866909853E+02 -0.35357698292E+03  0.35684941998E+03  0.00000000000E+00 0.  1.
         14    1    3    3    0    0 -0.25443506122E+02  0.13796824534E+02 -0.52784440717E+03  0.52863734502E+03  0.00000000000E+00 0. -1.
         11    1    5    5    0    0 -0.18046610749E+02  0.20100171014E+01  0.41855579688E+01  0.18634356007E+02  0.00000000000E+00 0. -1.
        -12    1    5    5    0    0  0.54500391065E+02 -0.41076199111E+02  0.11468577141E+03  0.13345550916E+03  0.00000000000E+00 0.  1.
          5    1    4    4  501    0 -0.78872418280E+02  0.30795980994E+02 -0.41362349114E+02  0.94326916280E+02  0.41800000000E+01 0. -1.
         -5    1    4    4    0  501  0.40742866960E+02  0.34340286335E+02  0.11789722769E+02  0.54733047025E+02  0.41800000000E+01 0. -1.
</event>
<event>
11    1  0.8328696E-009  0.1765396E+03  0.7561462E-02  0.1072477E+00
         22   -1    0    0    0    0  0.00000000000E+00  0.00000000000E+00  0.13278867921E+04  0.13278867921E+04  0.00000000000E+00 0.  1.
         22   -1    0    0    0    0 -0.00000000000E+00 -0.00000000000E+00 -0.96863961600E+03  0.96863961600E+03  0.00000000000E+00 0.  1.
         24    2    1    2    0    0 -0.80602099371E+02 -0.10749775203E+03 -0.67334150542E+03  0.69129628803E+03  0.80307594903E+02 0.  0.
         25    2    1    2    0    0  0.10395260688E+02  0.11002742077E+03 -0.25957846303E+03  0.30861289965E+03  0.12508736386E+03 0.  0.
        -24    2    1    2    0    0  0.70206838684E+02 -0.25296687424E+01  0.12921671445E+04  0.12966172204E+04  0.81147319223E+02 0.  0.
        -11    1    3    3    0    0 -0.84086203046E+02 -0.11031288384E+03 -0.67260328896E+03  0.68675658439E+03  0.00000000000E+00 0.  1.
         12    1    3    3    0    0  0.34841036744E+01  0.28151318115E+01 -0.73821645968E+00  0.45397036325E+01  0.00000000000E+00 0. -1.
         13    1    5    5    0    0  0.57425738853E+01 -0.34549687692E+02  0.37660556538E+03  0.37823063063E+03  0.00000000000E+00 0. -1.
        -14    1    5    5    0    0  0.64464264798E+02  0.32020018950E+02  0.91556157915E+03  0.91838658977E+03  0.00000000000E+00 0.  1.
          5    1    4    4  501    0  0.49805449995E+02  0.30799148578E+02 -0.37873687903E+02  0.69864576415E+02  0.41800000000E+01 0.  1.
         -5    1    4    4    0  501 -0.39410189307E+02  0.79228272195E+02 -0.22170477512E+03  0.23874832324E+03  0.41800000000E+01 0.  1.
</event>
<event>
11    1  0.8328696E-009  0.1900759E+03  0.7561462E-02  0.1061772E+00
         22   -1    0    0    0    0  0.00000000000E+00  0.00000000000E+00  0.30879035714E+04  0.30879035714E+04  0.00000000000E+00 0.  1.
         22   -1    0    0    0    0 -0.00000000000E+00 -0.00000000000E+00 -0.91235973662E+02  0.91235973662E+02  0.00000000000E+00 0.  1.
         24    2    1    2    0    0 -0.72738538428E+02  0.63830331507E+02 -0.22595001897E+02  0.12816659342E+03  0.80937848779E+02 0.  0.
         25    2    1    2    0    0 -0.27749127657E+02 -0.16555433135E+03  0.84575400373E+03  0.87127686646E+03  0.12508114356E+03 0.  0.
        -24    2    1    2    0    0  0.10048766608E+03  0.10172399984E+03  0.21735085959E+04  0.21796960852E+04  0.80559693021E+02 0.  0.
        -13    1    3    3    0    0 -0.20338230122E+02  0.43133280144E+02 -0.46828771330E+02  0.66836047794E+02  0.00000000000E+00 0.  1.
         14    1    3    3    0    0 -0.52400308306E+02  0.20697051364E+02  0.24233769433E+02  0.61330545625E+02  0.00000000000E+00 0. -1.
         11    1    5    5    0    0  0.38396018041E+02  0.47952414695E+02  0.14906338942E+04  0.14918991571E+04  0.00000000000E+00 0. -1.
        -12    1    5    5    0    0  0.62091648043E+02  0.53771585148E+02  0.68287470169E+03  0.68779692812E+03  0.00000000000E+00 0.  1.
          5    1    4    4  501    0 -0.51639034225E+02 -0.10116339192E+03  0.71043261348E+03  0.71946688069E+03  0.41800000000E+01 0.  1.
         -5    1    4    4    0  501  0.23889906568E+02 -0.64390939431E+02  0.13532139026E+03  0.15180998576E+03  0.41800000000E+01 0.  1.
</event>
<event>
11    1  0.8328696E-009  0.1772393E+03  0.7561462E-02  0.1071898E+00
         22   -1    0    0    0    0  0.00000000000E+00  0.00000000000E+00  0.24724760483E+03  0.24724760483E+03  0.00000000000E+00 0. -1.
         22   -1    0    0    0    0 -0.00000000000E+00 -0.00000000000E+00 -0.67599803833E+03  0.67599803833E+03  0.00000000000E+00 0.  1.
        -24    2    1    2    0    0  0.14859537617E+02 -0.97357942375E+01 -0.55233224339E+03  0.55842559413E+03  0.80328360776E+02 0.  0.
         25    2    1    2    0    0 -0.13515491038E+03  0.20118886950E+02  0.19197917784E+02  0.18623500227E+03  0.12507316502E+03 0.  0.
         24    2    1    2    0    0  0.12029537276E+03 -0.10383092713E+02  0.10438389210E+03  0.17858504677E+03  0.80111401659E+02 0.  0.
        -13    1    5    5    0    0  0.40514738376E+02 -0.30907869837E+01 -0.71541540180E+01  0.41257470955E+02  0.00000000000E+00 0.  1.
         14    1    5    5    0    0  0.79780634389E+02 -0.72923057291E+01  0.11153804612E+03  0.13732757581E+03  0.00000000000E+00 0. -1.
         11    1    3    3    0    0 -0.28321160647E+02 -0.21697018312E+02 -0.18868542461E+03  0.19202874317E+03  0.00000000000E+00 0. -1.
        -12    1    3    3    0    0  0.43180698264E+02  0.11961224074E+02 -0.36364681878E+03  0.36639685096E+03  0.00000000000E+00 0.  1.
          5    1    4    4  501    0 -0.10430097136E+03 -0.48219748800E+01  0.66879569578E+02  0.12406568137E+03  0.41800000000E+01 0.  1.
         -5    1    4    4    0  501 -0.30853939024E+02  0.24940861830E+02 -0.47681651795E+02  0.62169320891E+02  0.41800000000E+01 0.  1.
</event>
<event>
11    1  0.8328696E-009  0.1630499E+03  0.7561462E-02  0.1084243E+00
         22   -1    0    0    0    0  0.00000000000E+00  0.00000000000E+00  0.12592049787E+04  0.12592049787E+04  0.00000000000E+00 0.  1.
         22   -1    0    0    0    0 -0.00000000000E+00 -0.00000000000E+00 -0.73539217169E+03  0.73539217169E+03  0.00000000000E+00 0. -1.
        -24    2    1    2    0    0  0.56146535627E+01 -0.23368826068E+01 -0.67071847343E+03  0.67556587675E+03  0.80554316315E+02 0.  0.
         25    2    1    2    0    0 -0.10975079747E+03  0.68612117356E+01  0.60299475290E+02  0.17713081383E+03  0.12508790795E+03 0.  0.
         24    2    1    2    0    0  0.10413614391E+03 -0.45243291289E+01  0.11342318052E+04  0.11419004598E+04  0.81179223155E+02 0.  0.
        -11    1    5    5    0    0  0.11337965869E+03 -0.10815716127E+02  0.86884967946E+03  0.87628288367E+03  0.00000000000E+00 0.  1.
         12    1    5    5    0    0 -0.92435147799E+01  0.62913869982E+01  0.26538212573E+03  0.26561757617E+03  0.00000000000E+00 0. -1.
         13    1    3    3    0    0 -0.32553242744E+02 -0.79214501251E+01 -0.46881214916E+03  0.47000775970E+03  0.00000000000E+00 0. -1.
        -14    1    3    3    0    0  0.38167896307E+02  0.55845675184E+01 -0.20190632427E+03  0.20555811705E+03  0.00000000000E+00 0.  1.
          5    1    4    4  501    0  0.14337215923E+01 -0.22863099523E+02 -0.24736834912E+02  0.33972934505E+02  0.41800000000E+01 0. -1.
         -5    1    4    4    0  501 -0.11118451906E+03  0.29724311259E+02  0.85036310202E+02  0.14315787932E+03  0.41800000000E+01 0. -1.
</event>
<event>
11    1  0.8328696E-009  0.2712465E+03  0.7561462E-02  0.1013153E+00
         22   -1    0    0    0    0  0.00000000000E+00  0.00000000000E+00  0.30896982171E+03  0.30896982171E+03  0.00000000000E+00 0. -1.
         22   -1    0    0    0    0 -0.00000000000E+00 -0.00000000000E+00 -0.17037057336E+03  0.17037057336E+03  0.00000000000E+00 0.  1.
         24    2    1    2    0    0 -0.65378759540E+02  0.12601886229E+03 -0.21238849391E+02  0.16450254208E+03  0.80342154400E+02 0.  0.
         25    2    1    2    0    0  0.25331457737E+01 -0.24735674241E+02  0.76683295226E+02  0.14881313556E+03  0.12508697430E+03 0.  0.
        -24    2    1    2    0    0  0.62845613767E+02 -0.10128318805E+03  0.83154802512E+02  0.16602471743E+03  0.80259767426E+02 0.  0.
        -13    1    3    3    0    0 -0.78182999026E+02  0.12805070096E+03 -0.17759526140E+02  0.15107933056E+03  0.00000000000E+00 0.  1.
         14    1    3    3    0    0  0.12804239486E+02 -0.20318386685E+01 -0.34793232504E+01  0.13423211518E+02  0.00000000000E+00 0. -1.
         13    1    5    5    0    0 -0.16530315287E+02 -0.98761393874E+01  0.25451032888E+02  0.31914644408E+02  0.00000000000E+00 0. -1.
        -14    1    5    5    0    0  0.79375929053E+02 -0.91407048662E+02  0.57703769624E+02  0.13411007303E+03  0.00000000000E+00 0.  1.
          5    1    4    4  501    0 -0.35468243152E+02 -0.36466443243E+02 -0.11202670089E+02  0.52256769631E+02  0.41800000000E+01 0. -1.
         -5    1    4    4    0  501  0.38001388926E+02  0.11730769001E+02  0.87885965315E+02  0.96556365927E+02  0.41800000000E+01 0. -1.
</event>
<event>
11    1  0.8328696E-009  0.1384983E+03  0.7561462E-02  0.1109247E+00
         22   -1    0    0    0    0  0.00000000000E+00  0.00000000000E+00  0.49028670947E+03  0.49028670947E+03  0.00000000000E+00 0. -1.
         22   -1    0    0    0    0 -0.00000000000E+00 -0.00000000000E+00 -0.95939252040E+03  0.95939252040E+03  0.00000000000E+00 0. -1.
        -24    2    1    2    0    0  0.44243625578E+02 -0.13048968810E+02 -0.71820691850E+03  0.72422100510E+03  0.80914229023E+02 0.  0.
         25    2    1    2    0    0 -0.43814658645E+02  0.72231330544E+02 -0.20822121605E+03  0.25716996199E+03  0.12507287919E+03 0.  0.
         24    2    1    2    0    0 -0.42896693219E+00 -0.59182361733E+02  0.45732232363E+03  0.46828826278E+03  0.81531916574E+02 0.  0.
        -13    1    5    5    0    0  0.10427147259E+02  0.15077187880E+02  0.18198997740E+03  0.18291090418E+03  0.00000000000E+00 0.  1.
         14    1    5    5    0    0 -0.10856114191E+02 -0.74259549613E+02  0.27533234623E+03  0.28537735861E+03  0.00000000000E+00 0. -1.
         13    1    3    3    0    0 -0.12237158753E+02 -0.31412050522E+02 -0.25036990873E+03  0.25262928605E+03  0.00000000000E+00 0. -1.
        -14    1    3    3    0    0  0.56480784330E+02  0.18363081711E+02 -0.46783700976E+03  0.47159171905E+03  0.00000000000E+00 0.  1.
          5    1    4    4  501    0 -0.84636651944E+02  0.36000204945E+02 -0.10024317204E+03  0.13610857265E+03  0.41800000000E+01 0.  1.
         -5    1    4    4    0  501  0.40821993299E+02  0.36231125599E+02 -0.10797804402E+03  0.12106138934E+03  0.41800000000E+01 0.  1.
</event>
<event>
11    1  0.8328696E-009  0.1506062E+03  0.7561462E-02  0.1096261E+00
         22   -1    0    0    0    0  0.00000000000E+00  0.00000000000E+00  0.12111423129E+04  0.12111423129E+04  0.00000000000E+00 0.  1.
         22   -1    0    0    0    0 -0.00000000000E+00 -0.00000000000E+00 -0.17462618148E+03  0.17462618148E+03  0.00000000000E+00 0.  1.
        -24    2    1    2    0    0 -0.37934178448E+02  0.75563175565E+02 -0.12090948885E+03  0.16808474323E+03  0.80526896235E+02 0.  0.
         25    2    1    2    0    0  0.87749917542E+02 -0.40442124867E+02  0.19960643066E+03  0.25460299382E+03  0.12507735130E+03 0.  0.
         24    2    1    2    0    0 -0.49815739093E+02 -0.35121050698E+02  0.95781918960E+03  0.96308075731E+03  0.79949040453E+02 0.  0.
        -11    1    5    5    0    0 -0.29120892466E+02 -0.59386232825E+02  0.73834170218E+03  0.74129833414E+03  0.00000000000E+00 0.  1.
         12    1    5    5    0    0 -0.20694846628E+02  0.24265182127E+02  0.21947748742E+03  0.22178242316E+03  0.00000000000E+00 0. -1.
         11    1    3    3    0    0 -0.27970829007E+02 -0.67544614528E+00 -0.41522309278E+01  0.28285411867E+02  0.00000000000E+00 0. -1.
        -12    1    3    3    0    0 -0.99633494418E+01  0.76238621710E+02 -0.11675725793E+03  0.13979933137E+03  0.00000000000E+00 0.  1.
          5    1    4    4  501    0  0.90021120130E+02 -0.74391516522E+02  0.11791401105E+03  0.16600929553E+03  0.41800000000E+01 0.  1.
         -5    1    4    4    0  501 -0.22712025886E+01  0.33949391655E+02  0.81692419618E+02  0.88593698298E+02  0.41800000000E+01 0.  1.
</event>
<event>
11    1  0.8328696E-009  0.1766794E+03  0.7561462E-02  0.1072361E+00
         22   -1    0    0    0    0  0.00000000000E+00  0.00000000000E+00  0.14399116938E+04  0.14399116938E+04  0.00000000000E+00 0. -1.
         22   -1    0    0    0    0 -0.00000000000E+00 -0.00000000000E+00 -0.15804340434E+04  0.15804340434E+04  0.00000000000E+00 0.  1.
        -24    2    1    2    0    0 -0.46832312585E+02 -0.31628917017E+02 -0.14769978222E+04  0.14802690009E+04  0.80499034662E+02 0.  0.
         25    2    1    2    0    0  0.16737854247E+03  0.62555483406E+01  0.14071571953E+02  0.20952413749E+03  0.12509055396E+03 0.  0.
         24    2    1    2    0    0 -0.12054622988E+03  0.25373368676E+02  0.13224039005E+04  0.13305525988E+04  0.80267929799E+02 0.  0.
        -11    1    5    5    0    0 -0.58643266426E+02  0.27441589626E+02  0.33447366364E+03  0.34068270459E+03  0.00000000000E+00 0.  1.
         12    1    5    5    0    0 -0.61902963456E+02 -0.20682209494E+01  0.98793023690E+03  0.98986989418E+03  0.00000000000E+00 0. -1.
         11    1    3    3    0    0 -0.42582208800E+02 -0.55699959940E+02 -0.88771834092E+03  0.89048278078E+03  0.00000000000E+00 0. -1.
        -12    1    3    3    0    0 -0.42501037853E+01  0.24071042924E+02 -0.58927948124E+03  0.58978622017E+03  0.00000000000E+00 0.  1.
          5    1    4    4  501    0  0.89556978876E+02 -0.36779705624E+02 -0.40582394329E+02  0.10505999401E+03  0.41800000000E+01 0. -1.
         -5    1    4    4    0  501  0.77821563591E+02  0.43035253965E+02  0.54653966282E+02  0.10446414348E+03  0.41800000000E+01 0. -1.
</event>
<event>
11    1  0.8328696E-009  0.1509814E+03  0.7561462E-02  0.1095880E+00
         22   -1    0    0    0    0  0.00000000000E+00  0.00000000000E+00  0.19726550997E+03  0.19726550997E+03  0.00000000000E+00 0. -1.
         22   -1    0    0    0    0 -0.00000000000E+00 -0.00000000000E+00 -0.65917502778E+03  0.65917502778E+03  0.00000000000E+00 0.  1.
         24    2    1    2    0    0  0.19770179237E+02  0.75764517245E+02 -0.47692257538E+03  0.48956289087E+03  0.78009993908E+02 0.  0.
         25    2    1    2    0    0 -0.28638972129E+02 -0.13837564882E+03 -0.98290529316E+02  0.21278062422E+03  0.12508619020E+03 0.  0.
        -24    2    1    2    0    0  0.88687928915E+01  0.62611131575E+02  0.11330358688E+03  0.15409702265E+03  0.83122682259E+02 0.  0.
        -13    1    3    3    0    0  0.19959636394E+02  0.79626512934E+01 -0.28873653715E+03  0.28953510803E+03  0.00000000000E+00 0.  1.
         14    1    3    3    0    0 -0.18945715644E+00  0.67801865952E+02 -0.18818603823E+03  0.20002778284E+03  0.00000000000E+00 0. -1.
         13    1    5    5    0    0  0.36276125481E+02  0.61559092160E+02  0.56763456027E+02  0.91255515163E+02  0.00000000000E+00 0. -1.
        -14    1    5    5    0    0 -0.27407332590E+02  0.10520394145E+01  0.56540130856E+02  0.62841507491E+02  0.00000000000E+00 0.  1.
          5    1    4    4  501    0 -0.97972660671E+01 -0.71481743434E+02  0.20472391726E+02  0.75114694233E+02  0.41800000000E+01 0.  1.
         -5    1    4    4    0  501 -0.18841706062E+02 -0.66893905386E+02 -0.11876292104E+03  0.13766592999E+03  0.41800000000E+01 0.  1.
</event>
<event>
11    1  0.8328696E-009  0.2904914E+03  0.7561462E-02  0.1004298E+00
         22   -1    0    0    0    0  0.00000000000E+00  0.00000000000E+00  0.22080357128E+04  0.22080357128E+04  0.00000000000E+00 0.  1.
         22   -1    0    0    0    0 -0.00000000000E+00 -0.00000000000E+00 -0.52070081898E+03  0.52070081898E+03  0.00000000000E+00 0. -1.
         24    2    1    2    0    0  0.24131098968E+03  0.11376208760E+03 -0.26157533154E+03  0.38220326618E+03  0.80528729591E+02 0.  0.
         25    2    1    2    0    0 -0.24393330509E+03 -0.77115916166E+02 -0.95388307406E+02  0.30032776383E+03  0.12509002631E+03 0.  0.
        -24    2    1    2    0    0  0.26223154017E+01 -0.36646171430E+02  0.20442985328E+04  0.20462055018E+04  0.80315913812E+02 0.  0.
        -13    1    3    3    0    0  0.10439823927E+03  0.93109516732E+02 -0.12226305937E+03  0.18578651769E+03  0.00000000000E+00 0.  1.
         14    1    3    3    0    0  0.13691275041E+03  0.20652570864E+02 -0.13931227217E+03  0.19641674848E+03  0.00000000000E+00 0. -1.
         13    1    5    5    0    0  0.10119536845E+02 -0.61281688587E+02  0.13459905027E+04  0.13474228304E+04  0.00000000000E+00 0. -1.
        -14    1    5    5    0    0 -0.74972214433E+01  0.24635517157E+02  0.69830803006E+03  0.69878267142E+03  0.00000000000E+00 0.  1.
          5    1    4    4  501    0 -0.16824055822E+03  0.94511138498E+01 -0.69862804875E+02  0.18246230539E+03  0.41800000000E+01 0.  1.
         -5    1    4    4    0  501 -0.75692746866E+02 -0.86567030015E+02 -0.25525502531E+02  0.11786545844E+03  0.41800000000E+01 0.  1.
</event>
<event>
11    1  0.8328696E-009  0.1435624E+03  0.7561462E-02  0.1103644E+00
         22   -1    0    0    0    0  0.00000000000E+00  0.00000000000E+00  0.50246455839E+03  0.50246455839E+03  0.00000000000E+00 0. -1.
         22   -1    0    0    0    0 -0.00000000000E+00 -0.00000000000E+00 -0.51801551072E+03  0.51801551072E+03  0.00000000000E+00 0.  1.
        -24    2    1    2    0    0  0.52436652913E+02 -0.75542696410E+01 -0.45375728531E+03  0.46450318597E+03  0.84028960710E+02 0.  0.
         25    2    1    2    0    0 -0.10768466978E+03 -0.27333680636E+02  0.83952929307E+02  0.18718705164E+03  0.12509108586E+03 0.  0.
         24    2    1    2    0    0  0.55248016863E+02  0.34887950277E+02  0.35425340368E+03  0.36878983151E+03  0.78999704834E+02 0.  0.
        -11    1    5    5    0    0 -0.17905419147E+02  0.14385156817E+02  0.13009542102E+03  0.13210736293E+03  0.00000000000E+00 0.  1.
         12    1    5    5    0    0  0.73153436010E+02  0.20502793460E+02  0.22415798266E+03  0.23668246857E+03  0.00000000000E+00 0. -1.
         13    1    3    3    0    0  0.14675052101E+02  0.50131114997E+00 -0.73340485199E+01  0.16413309682E+02  0.00000000000E+00 0. -1.
        -14    1    3    3    0    0  0.37761600812E+02 -0.80555807910E+01 -0.44642323679E+03  0.44808987628E+03  0.00000000000E+00 0.  1.
          5    1    4    4  501    0 -0.81184149853E+02  0.25105538902E+02  0.94706027881E+02  0.12731008753E+03  0.41800000000E+01 0. -1.
         -5    1    4    4    0  501 -0.26500519922E+02 -0.52439219538E+02 -0.10753098574E+02  0.59876964108E+02  0.41800000000E+01 0. -1.
</event>
<event>
11    1  0.8328696E-009  0.1303288E+03  0.7561462E-02  0.1118866E+00
         22   -1    0    0    0    0  0.00000000000E+00  0.00000000000E+00  0.51857641361E+03  0.51857641361E+03  0.00000000000E+00 0. -1.
         22   -1    0    0    0    0 -0.00000000000E+00 -0.00000000000E+00 -0.73594272866E+03  0.73594272866E+03  0.00000000000E+00 0. -1.
        -24    2    1    2    0    0  0.14083192488E+02 -0.21148839726E+02 -0.68243011309E+03  0.68737170209E+03  0.78252078897E+02 0.  0.
         25    2    1    2    0    0  0.13372195712E+02 -0.63240825110E+01  0.39058689967E+02  0.13187780351E+03  0.12508942465E+03 0.  0.
         24    2    1    2    0    0 -0.27455388200E+02  0.27472922237E+02  0.42600510807E+03  0.43526963667E+03  0.80440939249E+02 0.  0.
        -11    1    5    5    0    0 -0.27668157513E+02  0.36964397441E+02  0.11230817155E+03  0.12142906990E+03  0.00000000000E+00 0.  1.
         12    1    5    5    0    0  0.21276931239E+00 -0.94914752040E+01  0.31369693652E+03  0.31384056678E+03  0.00000000000E+00 0. -1.
         13    1    3    3    0    0  0.19830436236E+02  0.26696810552E+02 -0.32774097652E+03  0.32942391167E+03  0.00000000000E+00 0. -1.
        -14    1    3    3    0    0 -0.57472437478E+01 -0.47845650277E+02 -0.35468913657E+03  0.35794779042E+03  0.00000000000E+00 0.  1.
          5    1    4    4  501    0  0.50193072048E+02 -0.40548038962E+02 -0.50667149538E+01  0.64858553374E+02  0.41800000000E+01 0.  1.
         -5    1    4    4    0  501 -0.36820876336E+02  0.34223956451E+02  0.44125404921E+02  0.67019250136E+02  0.41800000000E+01 0.  1.
</event>
<event>
11    1  0.8328696E-009  0.1307668E+03  0.7561462E-02  0.1118330E+00
         22   -1    0    0    0    0  0.00000000000E+00  0.00000000000E+00  0.41610495057E+03  0.41610495057E+03  0.00000000000E+00 0.  1.
         22   -1    0    0    0    0 -0.00000000000E+00 -0.00000000000E+00 -0.29042846078E+03  0.29042846078E+03  0.00000000000E+00 0.  1.
         24    2    1    2    0    0 -0.77134419744E+01 -0.34379506785E+02 -0.18034070368E+03  0.20016457230E+03  0.79382862930E+02 0.  0.
         25    2    1    2    0    0  0.10888088649E+02  0.50873901367E+02 -0.47437666296E+02  0.14354441040E+03  0.12509181132E+03 0.  0.
        -24    2    1    2    0    0 -0.31746466746E+01 -0.16494394582E+02  0.35345485977E+03  0.36282442865E+03  0.80181573292E+02 0.  0.
        -11    1    3    3    0    0 -0.97068562317E+01 -0.30960835371E+02 -0.18840661326E+03  0.19118014621E+03  0.00000000000E+00 0.  1.
         12    1    3    3    0    0  0.19934142573E+01 -0.34186714139E+01  0.80659095860E+01  0.89844260856E+01  0.00000000000E+00 0. -1.
         13    1    5    5    0    0  0.11298445447E+02  0.69454596295E+01  0.64857761767E+01  0.14763453919E+02  0.00000000000E+00 0. -1.
        -14    1    5    5    0    0 -0.14473092122E+02 -0.23439854211E+02  0.34696908359E+03  0.34806097473E+03  0.00000000000E+00 0.  1.
          5    1    4    4  501    0  0.31231233383E+01 -0.24817123796E+02 -0.61075028670E+02  0.66130742169E+02  0.41800000000E+01 0. -1.
         -5    1    4    4    0  501  0.77649653107E+01  0.75691025163E+02  0.13637362373E+02  0.77413668231E+02  0.41800000000E+01 0. -1.
</event>
<event>
11    1  0.8328696E-009  0.1802352E+03  0.7561462E-02  0.1069453E+00
         22   -1    0    0    0    0  0.00000000000E+00  0.00000000000E+00  0.14153563602E+04  0.14153563602E+04  0.00000000000E+00 0.  1.
         22   -1    0    0    0    0 -0.00000000000E+00 -0.00000000000E+00 -0.54087263503E+03  0.54087263503E+03  0.00000000000E+00 0.  1.
        -24    2    1    2    0    0  0.71370126874E+01  0.12970705522E+03 -0.51063462991E+03  0.53352086851E+03  0.83796985349E+02 0.  0.
         25    2    1    2    0    0  0.17333247478E+02 -0.12506531062E+03  0.44907688060E+03  0.48296850437E+03  0.12508700227E+03 0.  0.
         24    2    1    2    0    0 -0.24470260165E+02 -0.46417445929E+01  0.93604147449E+03  0.93973962236E+03  0.79476892502E+02 0.  0.
        -11    1    5    5    0    0  0.13513294617E+02  0.98411846150E+01  0.70165355489E+03  0.70185266911E+03  0.00000000000E+00 0.  1.
         12    1    5    5    0    0 -0.37983554782E+02 -0.14482929208E+02  0.23438791960E+03  0.23788695325E+03  0.00000000000E+00 0. -1.
         13    1    3    3    0    0 -0.64905510095E+01  0.12771863186E+01  0.19490037176E+00  0.66178881416E+01  0.00000000000E+00 0. -1.
        -14    1    3    3    0    0  0.13627563697E+02  0.12842986890E+03 -0.51082953028E+03  0.52690298037E+03  0.00000000000E+00 0.  1.
          5    1    4    4  501    0  0.68435837884E+02 -0.87690547400E+02  0.24166370136E+03  0.26606749701E+03  0.41800000000E+01 0. -1.
         -5    1    4    4    0  501 -0.51102590406E+02 -0.37374763222E+02  0.20741317924E+03  0.21690100736E+03  0.41800000000E+01 0. -1.
</event>
<event>
11    1  0.8328696E-009  0.1422079E+03  0.7561462E-02  0.1105118E+00
         22   -1    0    0    0    0  0.00000000000E+00  0.00000000000E+00  0.11363906059E+04  0.11363906059E+04  0.00000000000E+00 0. -1.
         22   -1    0    0    0    0 -0.00000000000E+00 -0.00000000000E+00 -0.65869492649E+03  0.65869492649E+03  0.00000000000E+00 0. -1.
         24    2    1    2    0    0 -0.40926340891E+02 -0.36387145012E+02 -0.43805444226E+03  0.44878260181E+03  0.80716414681E+02 0.  0.
         25    2    1    2    0    0  0.10803898662E+03  0.34603030152E+02 -0.17925127150E+03  0.24627959634E+03  0.12511126614E+03 0.  0.
        -24    2    1    2    0    0 -0.67112645728E+02  0.17841148596E+01  0.10950013932E+04  0.11000233342E+04  0.80721710407E+02 0.  0.
        -13    1    3    3    0    0 -0.18419274800E+02 -0.45788710799E+02 -0.11943372766E+03  0.12922960583E+03  0.00000000000E+00 0.  1.
         14    1    3    3    0    0 -0.22507066091E+02  0.94015657878E+01 -0.31862071460E+03  0.31955299597E+03  0.00000000000E+00 0. -1.
         13    1    5    5    0    0 -0.70947788280E+02  0.15432196375E+02  0.10565487301E+04  0.10590405849E+04  0.00000000000E+00 0. -1.
        -14    1    5    5    0    0  0.38351425521E+01 -0.13648081515E+02  0.38452663083E+02  0.40982749366E+02  0.00000000000E+00 0.  1.
          5    1    4    4  501    0  0.29373994237E+02  0.74555823470E+02 -0.77827139087E+02  0.11178523306E+03  0.41800000000E+01 0. -1.
         -5    1    4    4    0  501  0.78664992382E+02 -0.39952793318E+02 -0.10142413241E+03  0.13449436329E+03  0.41800000000E+01 0. -1.
</event>
<event>
11    1  0.8328696E-009  0.2058231E+03  0.7561462E-02  0.1050481E+00
         22   -1    0    0    0    0  0.00000000000E+00  0.00000000000E+00  0.72267599970E+02  0.72267599970E+02  0.00000000000E+00 0. -1.
         22   -1    0    0    0    0 -0.00000000000E+00 -0.00000000000E+00 -0.12226998112E+04  0.12226998112E+04  0.00000000000E+00 0. -1.
        -24    2    1    2    0    0 -0.10964183009E+03  0.10422102097E+03 -0.51288181205E+03  0.54123930040E+03  0.83719024439E+02 0.  0.
         25    2    1    2    0    0  0.12008863187E+03 -0.13356604252E+03 -0.62983870151E+03  0.66678632396E+03  0.12508415044E+03 0.  0.
         24    2    1    2    0    0 -0.10446801781E+02  0.29345021551E+02 -0.77116976892E+01  0.86941786817E+02  0.80803081974E+02 0.  0.
        -11    1    5    5    0    0  0.13318326927E+02 -0.21704696941E+02 -0.15926487839E+02  0.30035391063E+02  0.00000000000E+00 0.  1.
         12    1    5    5    0    0 -0.23765128708E+02  0.51049718491E+02  0.82147901501E+01  0.56906395754E+02  0.00000000000E+00 0. -1.
         11    1    3    3    0    0 -0.11014779944E+03  0.98951852732E+02 -0.51475255026E+03  0.53562505065E+03  0.00000000000E+00 0. -1.
        -12    1    3    3    0    0  0.50596935634E+00  0.52691682370E+01  0.18707382086E+01  0.56142497579E+01  0.00000000000E+00 0.  1.
          5    1    4    4  501    0  0.12783992153E+03 -0.57473592452E+02 -0.36205825882E+03  0.38826526312E+03  0.41800000000E+01 0. -1.
         -5    1    4    4    0  501 -0.77512896589E+01 -0.76092450068E+02 -0.26778044268E+03  0.27852106084E+03  0.41800000000E+01 0. -1.
</event>
<event>
11    1  0.8328696E-009  0.1545699E+03  0.7561462E-02  0.1092299E+00
         22   -1    0    0    0    0  0.00000000000E+00  0.00000000000E+00  0.14291897754E+04  0.14291897754E+04  0.00000000000E+00 0. -1.
         22   -1    0    0    0    0 -0.00000000000E+00 -0.00000000000E+00 -0.21840435489E+03  0.21840435489E+03  0.00000000000E+00 0. -1.
         24    2    1    2    0    0 -0.58978642495E+02  0.67603049888E+02 -0.17342563130E+03  0.20927800580E+03  0.75313886452E+02 0.  0.
         25    2    1    2    0    0  0.61293318175E+02 -0.88136124721E+02  0.24053537622E+03  0.29160101317E+03  0.12509610838E+03 0.  0.
        -24    2    1    2    0    0 -0.23146756795E+01  0.20533074833E+02  0.11436756756E+04  0.11467151113E+04  0.80836444313E+02 0.  0.
        -13    1    3    3    0    0 -0.34646178782E+02 -0.97921814510E+01 -0.52678554895E+02  0.63806540946E+02  0.00000000000E+00 0.  1.
         14    1    3    3    0    0 -0.24332463713E+02  0.77395231339E+02 -0.12074707641E+03  0.14547146485E+03  0.00000000000E+00 0. -1.
         11    1    5    5    0    0  0.16443192855E+02  0.19223904209E+02  0.10806063899E+04  0.10809024503E+04  0.00000000000E+00 0. -1.
        -12    1    5    5    0    0 -0.18757868534E+02  0.13091706235E+01  0.63069285694E+02  0.65812661074E+02  0.00000000000E+00 0.  1.
          5    1    4    4  501    0  0.27669805662E+02 -0.70392802066E+02  0.24174429515E+03  0.25333484041E+03  0.41800000000E+01 0.  1.
         -5    1    4    4    0  501  0.33623512513E+02 -0.17743322655E+02 -0.12089189265E+01  0.38266172758E+02  0.41800000000E+01 0.  1.
</event>
<event>
11    1  0.8328696E-009  0.1416033E+03  0.7561462E-02  0.1105781E+00
         22   -1    0    0    0    0  0.00000000000E+00  0.00000000000E+00  0.37162923545E+03  0.37162923545E+03  0.00000000000E+00 0. -1.
         22   -1    0    0    0    0 -0.00000000000E+00 -0.00000000000E+00 -0.25972709474E+04  0.25972709474E+04  0.00000000000E+00 0. -1.
        -24    2    1    2    0    0 -0.35299980471E+02  0.55540737385E+02 -0.25364361327E+04  0.25396654437E+04  0.10982462434E+03 0.  0.
         25    2    1    2    0    0  0.69954964024E+02 -0.96627719638E+02  0.10628954141E+03  0.20291854804E+03  0.12509139591E+03 0.  0.
         24    2    1    2    0    0 -0.34654983553E+02  0.41086982253E+02  0.20450487937E+03  0.22631619115E+03  0.80670097919E+02 0.  0.
        -11    1    5    5    0    0 -0.24710197386E+02 -0.54016353534E+01  0.11940984292E+02  0.27970674378E+02  0.00000000000E+00 0.  1.
         12    1    5    5    0    0 -0.99447861674E+01  0.46488617607E+02  0.19256389507E+03  0.19834551678E+03  0.00000000000E+00 0. -1.
         13    1    3    3    0    0  0.14351299518E+02  0.73580663853E+02 -0.14108394602E+04  0.14128298044E+04  0.00000000000E+00 0. -1.
        -14    1    3    3    0    0 -0.49651279989E+02 -0.18039926469E+02 -0.11255966726E+04  0.11268356392E+04  0.00000000000E+00 0.  1.
          5    1    4    4  501    0 -0.93776992586E+01 -0.64809401101E+02  0.96621609191E+02  0.11679643606E+03  0.41800000000E+01 0. -1.
         -5    1    4    4    0  501  0.79332663282E+02 -0.31818318536E+02  0.96679322233E+01  0.86122111977E+02  0.41800000000E+01 0. -1.
</event>
<event>
11    1  0.8328696E-009  0.1383695E+03  0.7561462E-02  0.1109393E+00
         22   -1    0    0    0    0  0.00000000000E+00  0.00000000000E+00  0.48548839717E+02  0.48548839717E+02  0.00000000000E+00 0.  1.
         22   -1    0    0    0    0 -0.00000000000E+00 -0.00000000000E+00 -0.18145135555E+04  0.18145135555E+04  0.00000000000E+00 0.  1.
        -24    2    1    2    0    0 -0.47132227447E+01 -0.19962507469E+02 -0.13101479816E+04  0.13129432532E+04  0.83135649179E+02 0.  0.
         25    2    1    2    0    0  0.52258474819E+02  0.51542190803E+02 -0.42207193570E+03  0.44629470149E+03  0.12508675409E+03 0.  0.
         24    2    1    2    0    0 -0.47545252074E+02 -0.31579683334E+02 -0.33744798475E+02  0.10382444056E+03  0.79893526886E+02 0.  0.
        -11    1    5    5    0    0 -0.46876575240E+02 -0.24138102300E+02  0.14755476682E+02  0.54752035405E+02  0.00000000000E+00 0.  1.
         12    1    5    5    0    0 -0.66867683481E+00 -0.74415810338E+01 -0.48500275157E+02  0.49072405151E+02  0.00000000000E+00 0. -1.
         11    1    3    3    0    0 -0.27565142580E+02  0.44461205943E+01 -0.16788535322E+03  0.17019135378E+03  0.00000000000E+00 0. -1.
        -12    1    3    3    0    0  0.22851919835E+02 -0.24408628063E+02 -0.11422626284E+04  0.11427518994E+04  0.00000000000E+00 0.  1.
          5    1    4    4  501    0 -0.28627797016E+02  0.17293077190E+01 -0.25892550809E+02  0.38864351977E+02  0.41800000000E+01 0. -1.
         -5    1    4    4    0  501  0.80886271835E+02  0.49812883084E+02 -0.39617938489E+03  0.40743034951E+03  0.41800000000E+01 0. -1.
</event>
<event>
11    1  0.8328696E-009  0.2768536E+03  0.7561462E-02  0.1010493E+00
         22   -1    0    0    0    0  0.00000000000E+00  0.00000000000E+00  0.11033099653E+04  0.11033099653E+04  0.00000000000E+00 0. -1.
         22   -1    0    0    0    0 -0.00000000000E+00 -0.00000000000E+00 -0.70722626098E+03  0.70722626098E+03  0.00000000000E+00 0.  1.
        -24    2    1    2    0    0  0.71019331347E+02 -0.22807840729E+03 -0.57069152321E+03  0.62394937333E+03  0.80996916685E+02 0.  0.
         25    2    1    2    0    0 -0.60945757735E+02  0.34864424765E+03  0.24000642928E+03  0.44555277668E+03  0.12508794470E+03 0.  0.
         24    2    1    2    0    0 -0.10073573612E+02 -0.12056584035E+03  0.72676879828E+03  0.74103407630E+03  0.79378947756E+02 0.  0.
        -11    1    5    5    0    0  0.29837071396E+02 -0.35765332220E+02  0.16284434014E+03  0.16937440460E+03  0.00000000000E+00 0.  1.
         12    1    5    5    0    0 -0.39910645007E+02 -0.84800508134E+02  0.56392445814E+03  0.57165967171E+03  0.00000000000E+00 0. -1.
         13    1    3    3    0    0 -0.15885239899E+02 -0.44443845902E+02 -0.80344033943E+02  0.93181329007E+02  0.00000000000E+00 0. -1.
        -14    1    3    3    0    0  0.86904571246E+02 -0.18363456139E+03 -0.49034748927E+03  0.53076804432E+03  0.00000000000E+00 0.  1.
          5    1    4    4  501    0 -0.96918282708E+02  0.29164859548E+03  0.18773984166E+03  0.36016076593E+03  0.41800000000E+01 0.  1.
         -5    1    4    4    0  501  0.35972524973E+02  0.56995652164E+02  0.52266587618E+02  0.85392010749E+02  0.41800000000E+01 0.  1.
</event>
<event>
11    1  0.8328696E-009  0.1589166E+03  0.7561462E-02  0.1088101E+00
         22   -1    0    0    0    0  0.00000000000E+00  0.00000000000E+00  0.12797880936E+04  0.12797880936E+04  0.00000000000E+00 0.  1.
         22   -1    0    0    0    0 -0.00000000000E+00 -0.00000000000E+00 -0.62869719506E+02  0.62869719506E+02  0.00000000000E+00 0. -1.
         24    2    1    2    0    0 -0.97232113442E+02 -0.51208228991E+01  0.90790863637E+02  0.15562174704E+03  0.80590573403E+02 0.  0.
         25    2    1    2    0    0  0.88931481164E+02  0.69193779008E+02  0.23011641221E+03  0.28512691064E+03  0.12508878690E+03 0.  0.
        -24    2    1    2    0    0  0.83006322780E+01 -0.64072956109E+02  0.89601109821E+03  0.90190915539E+03  0.80187232484E+02 0.  0.
        -11    1    3    3    0    0 -0.45374773959E+01 -0.33143517273E+01 -0.14368919050E+02  0.15428527576E+02  0.00000000000E+00 0.  1.
         12    1    3    3    0    0 -0.92694636046E+02 -0.18064711718E+01  0.10515978269E+03  0.14019321947E+03  0.00000000000E+00 0. -1.
         11    1    5    5    0    0 -0.19046876814E+02 -0.30498719726E+01  0.55777432550E+02  0.59018702267E+02  0.00000000000E+00 0. -1.
        -12    1    5    5    0    0  0.27347509092E+02 -0.61023084137E+02  0.84023366566E+03  0.84289045312E+03  0.00000000000E+00 0.  1.
          5    1    4    4  501    0  0.15919095191E+02  0.73040279556E+02  0.18383038749E+03  0.19849278020E+03  0.41800000000E+01 0. -1.
         -5    1    4    4    0  501  0.73012385973E+02 -0.38465005477E+01  0.46286024725E+02  0.86634130438E+02  0.41800000000E+01 0. -1.
</event>
<event>
11    1  0.9831165E-009  0.1604228E+03  0.7561462E-02  0.1086680E+00
         22   -1    0    0    0    0  0.00000000000E+00  0.00000000000E+00  0.87927460167E+03  0.87927460167E+03  0.00000000000E+00 0.  1.
         22   -1    0    0    0    0 -0.00000000000E+00 -0.00000000000E+00 -0.96131586687E+03  0.96131586687E+03  0.00000000000E+00 0. -1.
        -24    2    1    2    0    0 -0.45264841440E+02 -0.19713588132E+02 -0.75057557625E+03  0.75647577405E+03  0.80339091577E+02 0.  0.
         25    2    1    2    0    0  0.12871907712E+03 -0.35007078221E+02 -0.16166819855E+03  0.24408656570E+03  0.12509016265E+03 0.  0.
         24    2    1    2    0    0 -0.83454235680E+02  0.54720666353E+02  0.83020250960E+03  0.84002812879E+03  0.80324899231E+02 0.  0.
        -13    1    5    5    0    0 -0.55353004037E+02  0.21117413427E+02  0.70304705526E+03  0.70553884522E+03  0.00000000000E+00 0.  1.
         14    1    5    5    0    0 -0.28101231643E+02  0.33603252926E+02  0.12715545434E+03  0.13448928357E+03  0.00000000000E+00 0. -1.
         11    1    3    3    0    0 -0.46708532076E+02  0.22114957326E+02 -0.46186687139E+03  0.46474914222E+03  0.00000000000E+00 0. -1.
        -12    1    3    3    0    0  0.14436906356E+01 -0.41828545458E+02 -0.28870870486E+03  0.29172663183E+03  0.00000000000E+00 0.  1.
          5    1    4    4  501    0 -0.23955503135E+02  0.25741576339E+01 -0.31789693283E+02  0.40106725334E+02  0.41800000000E+01 0. -1.
         -5    1    4    4    0  501  0.15267458026E+03 -0.37581235855E+02 -0.12987850527E+03  0.20397984037E+03  0.41800000000E+01 0. -1.
</event>
<event>
11    1  0.8328696E-009  0.1606517E+03  0.7561462E-02  0.1086466E+00
         22   -1    0    0    0    0  0.00000000000E+00  0.00000000000E+00  0.39407633358E+03  0.39407633358E+03  0.00000000000E+00 0. -1.
         22   -1    0    0    0    0 -0.00000000000E+00 -0.00000000000E+00 -0.10370433523E+04  0.10370433523E+04  0.00000000000E+00 0.  1.
         24    2    1    2    0    0 -0.50080887821E+02 -0.45124384077E+02 -0.82539432642E+03  0.83201330338E+03  0.80162569425E+02 0.  0.
         25    2    1    2    0    0  0.12754532683E+03  0.10226304156E+03 -0.13970180153E+03  0.24877832252E+03  0.12509404598E+03 0.  0.
        -24    2    1    2    0    0 -0.77464439005E+02 -0.57138657485E+02  0.32212910918E+03  0.35032806003E+03  0.98473454148E+02 0.  0.
        -13    1    3    3    0    0 -0.62638783924E+02 -0.73048462104E+01 -0.42714719362E+03  0.43177737672E+03  0.00000000000E+00 0.  1.
         14    1    3    3    0    0  0.12557896103E+02 -0.37819537866E+02 -0.39824713281E+03  0.40023592666E+03  0.00000000000E+00 0. -1.
         13    1    5    5    0    0 -0.86399151698E+02 -0.62328307022E+02  0.32284728013E+03  0.33997058337E+03  0.00000000000E+00 0. -1.
        -14    1    5    5    0    0  0.89347126926E+01  0.51896495369E+01 -0.71817094783E+00  0.10357476658E+02  0.00000000000E+00 0.  1.
          5    1    4    4  501    0  0.54146012362E+02  0.11783296568E+03 -0.99832403525E+02  0.16370821497E+03  0.41800000000E+01 0.  1.
         -5    1    4    4    0  501  0.73399314464E+02 -0.15569924117E+02 -0.39869398007E+02  0.85070107548E+02  0.41800000000E+01 0.  1.
</event>
<event>
11    1  0.8328696E-009  0.1837344E+03  0.7561462E-02  0.1066662E+00
         22   -1    0    0    0    0  0.00000000000E+00  0.00000000000E+00  0.27211417280E+03  0.27211417280E+03  0.00000000000E+00 0. -1.
         22   -1    0    0    0    0 -0.00000000000E+00 -0.00000000000E+00 -0.98189569449E+03  0.98189569449E+03  0.00000000000E+00 0. -1.
         24    2    1    2    0    0  0.12428031579E+03  0.65628682207E+02 -0.87384297862E+03  0.88862612744E+03  0.79385907183E+02 0.  0.
         25    2    1    2    0    0 -0.82750532372E+02 -0.19574709431E+02 -0.24202863648E+02  0.15318165249E+03  0.12509204688E+03 0.  0.
        -24    2    1    2    0    0 -0.41529783419E+02 -0.46053972777E+02  0.18826432058E+03  0.21220208736E+03  0.75766616369E+02 0.  0.
        -13    1    3    3    0    0  0.10388602377E+03  0.84272496637E+02 -0.71974603214E+03  0.73207138341E+03  0.00000000000E+00 0.  1.
         14    1    3    3    0    0  0.20394292023E+02 -0.18643814429E+02 -0.15409694648E+03  0.15655474403E+03  0.00000000000E+00 0. -1.
         11    1    5    5    0    0 -0.86426007951E+01  0.30603511202E-01  0.13234255463E+03  0.13262445947E+03  0.00000000000E+00 0. -1.
        -12    1    5    5    0    0 -0.32887182624E+02 -0.46084576288E+02  0.55921765954E+02  0.79577627886E+02  0.00000000000E+00 0.  1.
          5    1    4    4  501    0 -0.73524318319E+02 -0.68565332466E+02 -0.22609681493E+02  0.10312953165E+03  0.41800000000E+01 0. -1.
         -5    1    4    4    0  501 -0.92262140531E+01  0.48990623036E+02 -0.15931821544E+01  0.50052120840E+02  0.41800000000E+01 0. -1.
</event>
<event>
11    1  0.8328696E-009  0.1852449E+03  0.7561462E-02  0.1065478E+00
         22   -1    0    0    0    0  0.00000000000E+00  0.00000000000E+00  0.11140524493E+04  0.11140524493E+04  0.00000000000E+00 0.  1.
         22   -1    0    0    0    0 -0.00000000000E+00 -0.00000000000E+00 -0.22653679671E+03  0.22653679671E+03  0.00000000000E+00 0. -1.
        -24    2    1    2    0    0 -0.10485306998E+01  0.66364510581E+02 -0.16957363647E+03  0.19941981078E+03  0.81287730092E+02 0.  0.
         25    2    1    2    0    0 -0.77292036137E+02  0.57753667349E+02  0.14691564684E+03  0.21573509133E+03  0.12509147613E+03 0.  0.
         24    2    1    2    0    0  0.78340566837E+02 -0.12411817793E+03  0.91017364219E+03  0.92543434387E+03  0.80436927863E+02 0.  0.
        -11    1    5    5    0    0  0.54100964980E+02 -0.71699157776E+02  0.74622541944E+03  0.75161164191E+03  0.00000000000E+00 0.  1.
         12    1    5    5    0    0  0.24239601857E+02 -0.52419020155E+02  0.16394822276E+03  0.17382270196E+03  0.00000000000E+00 0. -1.
         11    1    3    3    0    0 -0.37169420778E+02  0.37964488190E+02 -0.12305130668E+03  0.13403168387E+03  0.00000000000E+00 0. -1.
        -12    1    3    3    0    0  0.36120890078E+02  0.28400022392E+02 -0.46522329794E+02  0.65388126915E+02  0.00000000000E+00 0.  1.
          5    1    4    4  501    0 -0.14285662083E+02  0.44587133280E+02 -0.82243394570E+01  0.47720066584E+02  0.41800000000E+01 0.  1.
         -5    1    4    4    0  501 -0.63006374054E+02  0.13166534070E+02  0.15513998630E+03  0.16801502474E+03  0.41800000000E+01 0.  1.
</event>
<event>
11    1  0.8328696E-009  0.1492989E+03  0.7561462E-02  0.1097597E+00
         22   -1    0    0    0    0  0.00000000000E+00  0.00000000000E+00  0.73253681726E+02  0.73253681726E+02  0.00000000000E+00 0. -1.
         22   -1    0    0    0    0 -0.00000000000E+00 -0.00000000000E+00 -0.27457968687E+04  0.27457968687E+04  0.00000000000E+00 0.  1.
        -24    2    1    2    0    0 -0.62409134004E+02 -0.54283898597E+02 -0.22684556527E+04  0.22710992507E+04  0.71826991470E+02 0.  0.
         25    2    1    2    0    0  0.63665852193E+02  0.34396834011E+02 -0.43547670069E+03  0.45882946405E+03  0.12509211531E+03 0.  0.
         24    2    1    2    0    0 -0.12567181890E+01  0.19887064586E+02  0.31389166408E+02  0.89121835662E+02  0.80995969934E+02 0.  0.
        -11    1    5    5    0    0 -0.12838288273E+01 -0.31700626025E+02  0.14046893665E+02  0.34697163119E+02  0.00000000000E+00 0.  1.
         12    1    5    5    0    0  0.27110638288E-01  0.51587690611E+02  0.17342272743E+02  0.54424672544E+02  0.00000000000E+00 0. -1.
         13    1    3    3    0    0 -0.63221340343E+01 -0.32206632045E+02 -0.31325769088E+03  0.31497240740E+03  0.00000000000E+00 0. -1.
        -14    1    3    3    0    0 -0.56086999970E+02 -0.22077266552E+02 -0.19551979618E+04  0.19561268433E+04  0.00000000000E+00 0.  1.
          5    1    4    4  501    0 -0.37462208864E+02  0.14374127643E+02 -0.99500742166E+02  0.10736807128E+03  0.41800000000E+01 0.  1.
         -5    1    4    4    0  501  0.10112806106E+03  0.20022706368E+02 -0.33597595852E+03  0.35146139277E+03  0.41800000000E+01 0.  1.
</event>
<event>
11    1  0.8328696E-009  0.1317663E+03  0.7561462E-02  0.1117118E+00
         22   -1    0    0    0    0  0.00000000000E+00  0.00000000000E+00  0.14212109874E+04  0.14212109874E+04  0.00000000000E+00 0. -1.
         22   -1    0    0    0    0 -0.00000000000E+00 -0.00000000000E+00 -0.23457240185E+03  0.23457240185E+03  0.00000000000E+00 0.  1.
        -24    2    1    2    0    0 -0.30700946806E+01 -0.41693736963E+02 -0.21049154467E+03  0.23420077334E+03  0.93784426585E+02 0.  0.
         25    2    1    2    0    0  0.51569911491E+02  0.20751109139E+02  0.47247609655E+03  0.49190591496E+03  0.12509077929E+03 0.  0.
         24    2    1    2    0    0 -0.48499816810E+02  0.20942627824E+02  0.92465403370E+03  0.92967670097E+03  0.80764227254E+02 0.  0.
        -13    1    5    5    0    0  0.96204908755E+01 -0.25025242021E+00  0.14381732996E+02  0.17304644317E+02  0.00000000000E+00 0.  1.
         14    1    5    5    0    0 -0.58120307686E+02  0.21192880244E+02  0.91027230070E+03  0.91237205666E+03  0.00000000000E+00 0. -1.
         11    1    3    3    0    0 -0.89633298333E+01  0.23211501170E+02 -0.17280400878E+02  0.30294014636E+02  0.00000000000E+00 0. -1.
        -12    1    3    3    0    0  0.58932351527E+01 -0.64905238133E+02 -0.19321114379E+03  0.20390675870E+03  0.00000000000E+00 0.  1.
          5    1    4    4  501    0  0.42140463223E+02  0.24592229520E+02  0.47735954024E+03  0.47986477205E+03  0.41800000000E+01 0.  1.
         -5    1    4    4    0  501  0.94294482680E+01 -0.38411203810E+01 -0.48834436906E+01  0.12041142915E+02  0.41800000000E+01 0.  1.
</event>
<event>
11    1  0.8328696E-009  0.1341430E+03  0.7561462E-02  0.1114281E+00
         22   -1    0    0    0    0  0.00000000000E+00  0.00000000000E+00  0.50857584490E+03  0.50857584490E+03  0.00000000000E+00 0. -1.
         22   -1    0    0    0    0 -0.00000000000E+00 -0.00000000000E+00 -0.50957769705E+03  0.50957769705E+03  0.00000000000E+00 0.  1.
         24    2    1    2    0    0 -0.39374666247E+02  0.19839494284E+02 -0.38137862471E+03  0.38719593114E+03  0.50269909825E+02 0.  0.
         25    2    1    2    0    0  0.83430692852E+02 -0.25723276671E+01 -0.73825313376E+02  0.16753395294E+03  0.12510056401E+03 0.  0.
        -24    2    1    2    0    0 -0.44056026604E+02 -0.17267166617E+02  0.45420208593E+03  0.46342365787E+03  0.78885127165E+02 0.  0.
        -13    1    3    3    0    0 -0.24443427425E+02  0.33381373363E+02 -0.31822579981E+03  0.32090412415E+03  0.00000000000E+00 0.  1.
         14    1    3    3    0    0 -0.14931238822E+02 -0.13541879079E+02 -0.63152824899E+02  0.66291806994E+02  0.00000000000E+00 0. -1.
         11    1    5    5    0    0 -0.33007549121E+02  0.27539819237E+02  0.27675617905E+03  0.28007485175E+03  0.00000000000E+00 0. -1.
        -12    1    5    5    0    0 -0.11048477483E+02 -0.44806985853E+02  0.17744590688E+03  0.18334880612E+03  0.00000000000E+00 0.  1.
          5    1    4    4  501    0  0.44414101109E+02  0.52042565734E+02 -0.73196874471E+02  0.10028108425E+03  0.41800000000E+01 0.  1.
         -5    1    4    4    0  501  0.39016591742E+02 -0.54614893401E+02 -0.62843890441E+00  0.67252868696E+02  0.41800000000E+01 0.  1.
</event>
<event>
11    1  0.8328696E-009  0.1572494E+03  0.7561462E-02  0.1089693E+00
         22   -1    0    0    0    0  0.00000000000E+00  0.00000000000E+00  0.17920192796E+03  0.17920192796E+03  0.00000000000E+00 0.  1.
         22   -1    0    0    0    0 -0.00000000000E+00 -0.00000000000E+00 -0.26682848927E+04  0.26682848927E+04  0.00000000000E+00 0. -1.
         24    2    1    2    0    0 -0.55539947249E+02  0.39441580896E+01 -0.25465574978E+04  0.25485740341E+04  0.84701096355E+02 0.  0.
         25    2    1    2    0    0 -0.57648903838E+02 -0.16660523150E+02 -0.19227390010E+02  0.14003772214E+03  0.12505959359E+03 0.  0.
        -24    2    1    2    0    0  0.11318885109E+03  0.12716365061E+02  0.76701923057E+02  0.15887506441E+03  0.79904187248E+02 0.  0.
        -11    1    3    3    0    0  0.14113989154E+02 -0.16667460525E+02 -0.27907613179E+03  0.27992944873E+03  0.00000000000E+00 0.  1.
         12    1    3    3    0    0 -0.69653936403E+02  0.20611618614E+02 -0.22674813660E+04  0.22686445854E+04  0.00000000000E+00 0. -1.
         11    1    5    5    0    0  0.99628487824E+02  0.19426610174E+02  0.24355391404E+02  0.10438588918E+03  0.00000000000E+00 0. -1.
        -12    1    5    5    0    0  0.13560363263E+02 -0.67102451130E+01  0.52346531654E+02  0.54489175232E+02  0.00000000000E+00 0.  1.
          5    1    4    4  501    0 -0.94592662957E+00 -0.28237895260E+02 -0.61793724691E+02  0.68075034463E+02  0.41800000000E+01 0.  1.
         -5    1    4    4    0  501 -0.56702977209E+02  0.11577372110E+02  0.42566334681E+02  0.71962687675E+02  0.41800000000E+01 0.  1.
</event>
<event>
11    1  0.8328696E-009  0.2387094E+03  0.7561462E-02  0.1030092E+00
         22   -1    0    0    0    0  0.00000000000E+00  0.00000000000E+00  0.57358802303E+03  0.57358802303E+03  0.00000000000E+00 0.  1.
         22   -1    0    0    0    0 -0.00000000000E+00 -0.00000000000E+00 -0.29571273669E+03  0.29571273669E+03  0.00000000000E+00 0.  1.
         24    2    1    2    0    0 -0.98344572497E+02  0.16336135583E+03 -0.14963909070E+03  0.25601432233E+03  0.82418979929E+02 0.  0.
         25    2    1    2    0    0  0.12792158912E+03 -0.25332182059E+03  0.26464986971E+03  0.40770336666E+03  0.12508638577E+03 0.  0.
        -24    2    1    2    0    0 -0.29577016621E+02  0.89960464762E+02  0.16286450733E+03  0.20558307073E+03  0.82291348811E+02 0.  0.
        -11    1    3    3    0    0  0.18976735579E+01  0.21560632503E+02 -0.53071729208E+02  0.57315534369E+02  0.00000000000E+00 0.  1.
         12    1    3    3    0    0 -0.10024224606E+03  0.14180072333E+03 -0.96567361491E+02  0.19869878796E+03  0.00000000000E+00 0. -1.
         11    1    5    5    0    0 -0.43947285635E+02  0.56434990661E+02  0.50800594136E+02  0.87732391112E+02  0.00000000000E+00 0. -1.
        -12    1    5    5    0    0  0.14370269014E+02  0.33525474100E+02  0.11206391320E+03  0.11785067962E+03  0.00000000000E+00 0.  1.
          5    1    4    4  501    0  0.20559154974E+02 -0.10048698870E+03  0.16921183943E+03  0.19791521608E+03  0.41800000000E+01 0.  1.
         -5    1    4    4    0  501  0.10736243414E+03 -0.15283483189E+03  0.95438030278E+02  0.20978815059E+03  0.41800000000E+01 0.  1.
</event>
<event>
11    1  0.8328696E-009  0.1753012E+03  0.7561462E-02  0.1073508E+00
         22   -1    0    0    0    0  0.00000000000E+00  0.00000000000E+00  0.41197775825E+03  0.41197775825E+03  0.00000000000E+00 0.  1.
         22   -1    0    0    0    0 -0.00000000000E+00 -0.00000000000E+00 -0.64908980596E+03  0.64908980596E+03  0.00000000000E+00 0.  1.
        -24    2    1    2    0    0 -0.20261359022E+02  0.12179065601E+03 -0.55475917452E+03  0.57579273846E+03  0.92390742962E+02 0.  0.
         25    2    1    2    0    0  0.65851176017E+02 -0.10625762456E+03  0.26170901746E+02  0.17877114132E+03  0.12508854747E+03 0.  0.
         24    2    1    2    0    0 -0.45589816995E+02 -0.15533031448E+02  0.29147622507E+03  0.30650368443E+03  0.81648100469E+02 0.  0.
        -11    1    5    5    0    0 -0.47670731891E+02  0.15458013880E+02  0.24835273866E+03  0.25335850424E+03  0.00000000000E+00 0.  1.
         12    1    5    5    0    0  0.20809148968E+01 -0.30991045329E+02  0.43123486416E+02  0.53145180196E+02  0.00000000000E+00 0. -1.
         11    1    3    3    0    0  0.29648996748E+02  0.42283148665E+02 -0.29732629838E+03  0.30177782453E+03  0.00000000000E+00 0. -1.
        -12    1    3    3    0    0 -0.49910355770E+02  0.79507507343E+02 -0.25743287614E+03  0.27401491393E+03  0.00000000000E+00 0.  1.
          5    1    4    4  501    0 -0.15191166274E+02  0.19646900694E+02  0.13162712519E+02  0.28416573342E+02  0.41800000000E+01 0.  1.
         -5    1    4    4    0  501  0.81042342291E+02 -0.12590452525E+03  0.13008189227E+02  0.15035456797E+03  0.41800000000E+01 0.  1.
</event>
<event>
11    1  0.8328696E-009  0.1278939E+03  0.7561462E-02  0.1121884E+00
         22   -1    0    0    0    0  0.00000000000E+00  0.00000000000E+00  0.10431354200E+03  0.10431354200E+03  0.00000000000E+00 0.  1.
         22   -1    0    0    0    0 -0.00000000000E+00 -0.00000000000E+00 -0.13273139640E+04  0.13273139640E+04  0.00000000000E+00 0. -1.
        -24    2    1    2    0    0 -0.26225398848E+02 -0.25944393485E+01 -0.11437294943E+04  0.11470731496E+04  0.83457483925E+02 0.  0.
         25    2    1    2    0    0  0.28692835363E+02  0.22655648759E+02 -0.13410466867E+03  0.18699638996E+03  0.12508809086E+03 0.  0.
         24    2    1    2    0    0 -0.24674365146E+01 -0.20061209411E+02  0.54833740973E+02  0.97557966485E+02  0.78117074380E+02 0.  0.
        -13    1    5    5    0    0  0.12822804748E+02 -0.33373747647E+02  0.65520494312E+02  0.74640247377E+02  0.00000000000E+00 0.  1.
         14    1    5    5    0    0 -0.15290241263E+02  0.13312538236E+02 -0.10686753339E+02  0.22917719108E+02  0.00000000000E+00 0. -1.
         11    1    3    3    0    0 -0.43000107110E+02 -0.16777562665E+02 -0.10409272037E+04  0.10419500656E+04  0.00000000000E+00 0. -1.
        -12    1    3    3    0    0  0.16774708262E+02  0.14183123316E+02 -0.10280229060E+03  0.10512308394E+03  0.00000000000E+00 0.  1.
          5    1    4    4  501    0 -0.24991533256E+01 -0.44242439875E+01 -0.14413417947E+03  0.14428428118E+03  0.41800000000E+01 0. -1.
         -5    1    4    4    0  501  0.31191988688E+02  0.27079892747E+02  0.10029510803E+02  0.42712108780E+02  0.41800000000E+01 0. -1.
</event>
<event>
11    1  0.8328696E-009  0.1476455E+03  0.7561462E-02  0.1099309E+00
         22   -1    0    0    0    0  0.00000000000E+00  0.00000000000E+00  0.22543264160E+03  0.22543264160E+03  0.00000000000E+00 0. -1.
         22   -1    0    0    0    0 -0.00000000000E+00 -0.00000000000E+00 -0.51863756365E+03  0.51863756365E+03  0.00000000000E+00 0.  1.
         24    2    1    2    0    0 -0.23401230015E+02 -0.67557919820E+02 -0.34303982531E+03  0.35976981987E+03  0.81524913004E+02 0.  0.
         25    2    1    2    0    0  0.63888831812E+02  0.10387678592E+03 -0.10338295973E+03  0.20299856300E+03  0.12509280849E+03 0.  0.
        -24    2    1    2    0    0 -0.40487601797E+02 -0.36318866097E+02  0.15321786299E+03  0.18130182239E+03  0.80226749454E+02 0.  0.
        -11    1    3    3    0    0 -0.12428135481E+02 -0.98586195989E+01 -0.24478680155E+03  0.24530028362E+03  0.00000000000E+00 0.  1.
         12    1    3    3    0    0 -0.10973094533E+02 -0.57699300221E+02 -0.98253023759E+02  0.11446953624E+03  0.00000000000E+00 0. -1.
         13    1    5    5    0    0  0.27312541758E+00 -0.46490364908E+00  0.11479017632E+03  0.11479144268E+03  0.00000000000E+00 0. -1.
        -14    1    5    5    0    0 -0.40760727215E+02 -0.35853962447E+02  0.38427686673E+02  0.66510379711E+02  0.00000000000E+00 0.  1.
          5    1    4    4  501    0  0.70254247659E+02  0.10325751757E+03 -0.12700436454E+03  0.17817226288E+03  0.41800000000E+01 0.  1.
         -5    1    4    4    0  501 -0.63654158473E+01  0.61926834287E+00  0.23621404811E+02  0.24826300116E+02  0.41800000000E+01 0.  1.
</event>
<event>
11    1  0.8328696E-009  0.2718641E+03  0.7561462E-02  0.1012856E+00
         22   -1    0    0    0    0  0.00000000000E+00  0.00000000000E+00  0.34530516406E+03  0.34530516406E+03  0.00000000000E+00 0.  1.
         22   -1    0    0    0    0 -0.00000000000E+00 -0.00000000000E+00 -0.87161676164E+03  0.87161676164E+03  0.00000000000E+00 0.  1.
         24    2    1    2    0    0 -0.11472418985E+03 -0.21048064557E+03 -0.74460527471E+03  0.78631531457E+03  0.79943835942E+02 0.  0.
         25    2    1    2    0    0  0.12210536524E+03  0.22967381733E+03  0.14679606406E+03  0.32381591460E+03  0.12509148467E+03 0.  0.
        -24    2    1    2    0    0 -0.73811753911E+01 -0.19193171765E+02  0.71497613072E+02  0.10679069653E+03  0.76612561623E+02 0.  0.
        -13    1    3    3    0    0 -0.94963872649E+02 -0.18857908460E+03 -0.54373469992E+03  0.58329034979E+03  0.00000000000E+00 0.  1.
         14    1    3    3    0    0 -0.19760317199E+02 -0.21901560968E+02 -0.20087057478E+03  0.20302496478E+03  0.00000000000E+00 0. -1.
         11    1    5    5    0    0  0.29206754070E+02 -0.10553530539E+02  0.59860605279E+02  0.67436663281E+02  0.00000000000E+00 0. -1.
        -12    1    5    5    0    0 -0.36587929461E+02 -0.86396412261E+01  0.11637007793E+02  0.39354033252E+02  0.00000000000E+00 0.  1.
          5    1    4    4  501    0  0.11266651903E+03  0.18012949921E+03  0.55823059235E+02  0.21971360298E+03  0.41800000000E+01 0. -1.
         -5    1    4    4    0  501  0.94388462110E+01  0.49544318125E+02  0.90973004828E+02  0.10410231162E+03  0.41800000000E+01 0. -1.
</event>
<event>
11    1  0.8328696E-009  0.1491368E+03  0.7561462E-02  0.1097764E+00
         22   -1    0    0    0    0  0.00000000000E+00  0.00000000000E+00  0.17513818592E+04  0.17513818592E+04  0.00000000000E+00 0. -1.
         22   -1    0    0    0    0 -0.00000000000E+00 -0.00000000000E+00 -0.92300610503E+03  0.92300610503E+03  0.00000000000E+00 0.  1.
        -24    2    1    2    0    0 -0.18562230478E+02 -0.20239197948E+01 -0.85685972167E+03  0.86087342712E+03  0.80906255857E+02 0.  0.
         25    2    1    2    0    0  0.98461153925E+02 -0.91142742492E+01  0.39907929170E+02  0.16436823430E+03  0.12508638938E+03 0.  0.
         24    2    1    2    0    0 -0.79898923447E+02  0.11138194044E+02  0.16453275467E+04  0.16491463029E+04  0.77928780746E+02 0.  0.
        -11    1    5    5    0    0 -0.13868491729E+02  0.33302553710E+02  0.85325279340E+03  0.85401506110E+03  0.00000000000E+00 0.  1.
         12    1    5    5    0    0 -0.66030431718E+02 -0.22164359666E+02  0.79207475332E+03  0.79513124175E+03  0.00000000000E+00 0. -1.
         11    1    3    3    0    0 -0.24500410342E+01 -0.40813980341E+02 -0.44786883030E+03  0.44973133407E+03  0.00000000000E+00 0. -1.
        -12    1    3    3    0    0 -0.16112189444E+02  0.38790060546E+02 -0.40899089137E+03  0.41114209304E+03  0.00000000000E+00 0.  1.
          5    1    4    4  501    0  0.12066417265E+03 -0.10595350079E+02  0.58956814461E+02  0.13477938409E+03  0.41800000000E+01 0.  1.
         -5    1    4    4    0  501 -0.22203018722E+02  0.14810758294E+01 -0.19048885291E+02  0.29588850211E+02  0.41800000000E+01 0.  1.
</event>
<event>
11    1  0.8328696E-009  0.1654248E+03  0.7561462E-02  0.1082083E+00
         22   -1    0    0    0    0  0.00000000000E+00  0.00000000000E+00  0.37204606069E+03  0.37204606069E+03  0.00000000000E+00 0.  1.
         22   -1    0    0    0    0 -0.00000000000E+00 -0.00000000000E+00 -0.50526665506E+03  0.50526665506E+03  0.00000000000E+00 0. -1.
        -24    2    1    2    0    0 -0.21146207472E+02 -0.29625982770E+02 -0.40381015902E+03  0.41332344189E+03  0.80304185053E+02 0.  0.
         25    2    1    2    0    0  0.12382331953E+03  0.47227672800E+02  0.19818451227E+02  0.18331398791E+03  0.12509428290E+03 0.  0.
         24    2    1    2    0    0 -0.10267711206E+03 -0.17601690030E+02  0.25077111343E+03  0.28067528596E+03  0.70993351682E+02 0.  0.
        -11    1    5    5    0    0 -0.78267717945E+02  0.83311138894E+01  0.21983688184E+03  0.23350267182E+03  0.00000000000E+00 0.  1.
         12    1    5    5    0    0 -0.24409394117E+02 -0.25932803919E+02  0.30934231590E+02  0.47172614135E+02  0.00000000000E+00 0. -1.
         13    1    3    3    0    0 -0.67930552660E+01 -0.34812482606E+02 -0.39305706916E+03  0.39465417033E+03  0.00000000000E+00 0. -1.
        -14    1    3    3    0    0 -0.14353152206E+02  0.51864998359E+01 -0.10753089869E+02  0.18669271559E+02  0.00000000000E+00 0.  1.
          5    1    4    4  501    0  0.19499638033E+02  0.38886326621E+02  0.57305275233E+02  0.72067671331E+02  0.41800000000E+01 0.  1.
         -5    1    4    4    0  501  0.10432368150E+03  0.83413461785E+01 -0.37486824006E+02  0.11124631658E+03  0.41800000000E+01 0.  1.
</event>
<event>
11    1  0.8328696E-009  0.1446227E+03  0.7561462E-02  0.1102504E+00
         22   -1    0    0    0    0  0.00000000000E+00  0.00000000000E+00  0.73140042665E+03  0.73140042665E+03  0.00000000000E+00 0. -1.
         22   -1    0    0    0    0 -0.00000000000E+00 -0.00000000000E+00 -0.17188236537E+03  0.17188236537E+03  0.00000000000E+00 0.  1.
         24    2    1    2    0    0  0.43573988292E+02 -0.16327339280E+02 -0.73980115277E+02  0.11789011859E+03  0.79118570142E+02 0.  0.
         25    2    1    2    0    0 -0.32567570342E+02 -0.56650404125E+02 -0.23325397379E+01  0.14114773533E+03  0.12508927821E+03 0.  0.
        -24    2    1    2    0    0 -0.11006417950E+02  0.72977743405E+02  0.63583071629E+03  0.64424493810E+03  0.72965390563E+02 0.  0.
        -13    1    3    3    0    0  0.66033753331E+02 -0.19337027905E+02 -0.59776777750E+02  0.91146258208E+02  0.00000000000E+00 0.  1.
         14    1    3    3    0    0 -0.22459765039E+02  0.30096886246E+01 -0.14203337527E+02  0.26743860382E+02  0.00000000000E+00 0. -1.
         13    1    5    5    0    0 -0.33701987275E+02  0.68740362147E+02  0.39800390447E+03  0.40530009784E+03  0.00000000000E+00 0. -1.
        -14    1    5    5    0    0  0.22695569325E+02  0.42373812581E+01  0.23782681181E+03  0.23894484025E+03  0.00000000000E+00 0.  1.
          5    1    4    4  501    0  0.14303621414E+02 -0.78923974990E+02  0.22579584591E+02  0.83431992988E+02  0.41800000000E+01 0. -1.
         -5    1    4    4    0  501 -0.46871191756E+02  0.22273570865E+02 -0.24912124329E+02  0.57715742343E+02  0.41800000000E+01 0. -1.
</event>
<event>
11    1  0.8328696E-009  0.1614059E+03  0.7561462E-02  0.1085762E+00
         22   -1    0    0    0    0  0.00000000000E+00  0.00000000000E+00  0.90845961361E+03  0.90845961361E+03  0.00000000000E+00 0.  1.
         22   -1    0    0    0    0 -0.00000000000E+00 -0.00000000000E+00 -0.27933864099E+03  0.27933864099E+03  0.00000000000E+00 0.  1.
         24    2    1    2    0    0 -0.90777823203E+02 -0.51327170741E+02 -0.16886023020E+03  0.21414254948E+03  0.80424887388E+02 0.  0.
         25    2    1    2    0    0  0.85689333924E+02  0.40883758618E+02 -0.13972125126E+02  0.15765998459E+03  0.12508919535E+03 0.  0.
        -24    2    1    2    0    0  0.50884892796E+01  0.10443412122E+02  0.81195332795E+03  0.81599572053E+03  0.80286060939E+02 0.  0.
        -11    1    3    3    0    0 -0.96149422352E+02 -0.53796712124E+02 -0.17423854882E+03  0.20615011411E+03  0.00000000000E+00 0.  1.
         12    1    3    3    0    0  0.53715991490E+01  0.24695413830E+01  0.53783186117E+01  0.79924353703E+01  0.00000000000E+00 0. -1.
         11    1    5    5    0    0 -0.34915988624E+02 -0.92324704826E+01  0.32236084925E+03  0.32437768404E+03  0.00000000000E+00 0. -1.
        -12    1    5    5    0    0  0.40004477903E+02  0.19675882605E+02  0.48959247869E+03  0.49161803649E+03  0.00000000000E+00 0.  1.
          5    1    4    4  501    0  0.29795132903E+01  0.66216277975E+02  0.11467298035E+02  0.67397657916E+02  0.41800000000E+01 0.  1.
         -5    1    4    4    0  501  0.82709820633E+02 -0.25332519357E+02 -0.25439423161E+02  0.90262326676E+02  0.41800000000E+01 0.  1.
</event>
<event>
11    1  0.8328696E-009  0.2003290E+03  0.7561462E-02  0.1054291E+00
         22   -1    0    0    0    0  0.00000000000E+00  0.00000000000E+00  0.32237278392E+03  0.32237278392E+03  0.00000000000E+00 0.  1.
         22   -1    0    0    0    0 -0.00000000000E+00 -0.00000000000E+00 -0.16137410235E+04  0.16137410235E+04  0.00000000000E+00 0. -1.
        -24    2    1    2    0    0 -0.34823929606E+02  0.15444033695E+03 -0.13769073919E+04  0.13883419174E+04  0.80961658396E+02 0.  0.
         25    2    1    2    0    0  0.15525366654E+02 -0.14338585274E+03 -0.18384792213E+03  0.26504272932E+03  0.12508816938E+03 0.  0.
         24    2    1    2    0    0  0.19298562952E+02 -0.11054484210E+02  0.26938707441E+03  0.28272916068E+03  0.82895996824E+02 0.  0.
        -11    1    5    5    0    0 -0.13017826818E+02  0.17326048099E+02  0.19946164062E+03  0.20063549496E+03  0.00000000000E+00 0.  1.
         12    1    5    5    0    0  0.32316389770E+02 -0.28380532309E+02  0.69925433788E+02  0.82093665726E+02  0.00000000000E+00 0. -1.
         11    1    3    3    0    0 -0.39050267343E+02  0.15055814229E+03 -0.13720075769E+04  0.13807959547E+04  0.00000000000E+00 0. -1.
        -12    1    3    3    0    0  0.42263377367E+01  0.38821946614E+01 -0.48998150090E+01  0.75459627070E+01  0.00000000000E+00 0.  1.
          5    1    4    4  501    0  0.35855025925E+01 -0.13019440785E+03 -0.66534077918E+02  0.14631368900E+03  0.41800000000E+01 0. -1.
         -5    1    4    4    0  501  0.11939864061E+02 -0.13191444890E+02 -0.11731384421E+03  0.11872904032E+03  0.41800000000E+01 0. -1.
</event>
<event>
11    1  0.8328696E-009  0.1364703E+03  0.7561462E-02  0.1111565E+00
         22   -1    0    0    0    0  0.00000000000E+00  0.00000000000E+00  0.73141650202E+03  0.73141650202E+03  0.00000000000E+00 0. -1.
         22   -1    0    0    0    0 -0.00000000000E+00 -0.00000000000E+00 -0.35069889559E+03  0.35069889559E+03  0.00000000000E+00 0. -1.
         24    2    1    2    0    0  0.55323033604E+02  0.39348389066E+01 -0.28988448222E+03  0.30593346579E+03  0.80536646649E+02 0.  0.
         25    2    1    2    0    0 -0.44789574943E+02  0.24282116977E+01  0.37859753529E+02  0.13818066009E+03  0.12509409119E+03 0.  0.
        -24    2    1    2    0    0 -0.10533458661E+02 -0.63630506043E+01  0.63274233512E+03  0.63800127174E+03  0.80816569590E+02 0.  0.
        -11    1    3    3    0    0  0.19509497733E+02 -0.31909731454E+02 -0.61370981996E+02  0.71869666024E+02  0.00000000000E+00 0.  1.
         12    1    3    3    0    0  0.35813535871E+02  0.35844570361E+02 -0.22851350022E+03  0.23406379976E+03  0.00000000000E+00 0. -1.
         13    1    5    5    0    0 -0.27076176666E+01 -0.34689165184E+02  0.52994037371E+03  0.53108141472E+03  0.00000000000E+00 0. -1.
        -14    1    5    5    0    0 -0.78258409940E+01  0.28326114580E+02  0.10280196141E+03  0.10691985702E+03  0.00000000000E+00 0.  1.
          5    1    4    4  501    0 -0.24706846829E+02  0.62639048890E+02  0.30857544061E+02  0.74187189943E+02  0.41800000000E+01 0. -1.
         -5    1    4    4    0  501 -0.20082728114E+02 -0.60210837192E+02  0.70022094681E+01  0.63993470146E+02  0.41800000000E+01 0. -1.
</event>
<event>
11    1  0.8328696E-009  0.1287520E+03  0.7561462E-02  0.1120812E+00
         22   -1    0    0    0    0  0.00000000000E+00  0.00000000000E+00  0.23784179374E+03  0.23784179374E+03  0.00000000000E+00 0.  1.
         22   -1    0    0    0    0 -0.00000000000E+00 -0.00000000000E+00 -0.17580473819E+03  0.17580473819E+03  0.00000000000E+00 0. -1.
         24    2    1    2    0    0  0.18420599813E+02 -0.24983373254E+02 -0.88095945440E+02  0.12483195572E+03  0.82816871042E+02 0.  0.
         25    2    1    2    0    0 -0.24250109183E+02  0.17446857672E+02  0.13376984235E+02  0.12928384307E+03  0.12507161042E+03 0.  0.
        -24    2    1    2    0    0  0.58295093699E+01  0.75365155817E+01  0.13675601676E+03  0.15953073314E+03  0.81590835568E+02 0.  0.
        -13    1    3    3    0    0  0.44260171673E+02 -0.22206011843E+02 -0.22723734480E+02  0.54483372392E+02  0.00000000000E+00 0.  1.
         14    1    3    3    0    0 -0.25839571860E+02 -0.27773614104E+01 -0.65372210960E+02  0.70348583327E+02  0.00000000000E+00 0. -1.
         13    1    5    5    0    0 -0.26886824273E+02  0.30704110361E+02  0.55140518256E+02  0.68601169568E+02  0.00000000000E+00 0. -1.
        -14    1    5    5    0    0  0.32716333643E+02 -0.23167594779E+02  0.81615498505E+02  0.90929563571E+02  0.00000000000E+00 0.  1.
          5    1    4    4  501    0  0.14382205791E+02 -0.46525693906E+02  0.22635780548E+02  0.53864078919E+02  0.41800000000E+01 0.  1.
         -5    1    4    4    0  501 -0.38632314973E+02  0.63972551578E+02 -0.92587963127E+01  0.75419764152E+02  0.41800000000E+01 0.  1.
</event>
<event>
11    1  0.8328696E-009  0.1677786E+03  0.7561462E-02  0.1079981E+00
         22   -1    0    0    0    0  0.00000000000E+00  0.00000000000E+00  0.25375631433E+03  0.25375631433E+03  0.00000000000E+00 0. -1.
         22   -1    0    0    0    0 -0.00000000000E+00 -0.00000000000E+00 -0.14012808786E+04  0.14012808786E+04  0.00000000000E+00 0.  1.
        -24    2    1    2    0    0  0.27114146527E+02  0.10912231923E+03 -0.13379140385E+04  0.13449703344E+04  0.79299233190E+02 0.  0.
         25    2    1    2    0    0 -0.46967536439E+02 -0.76725127828E+02  0.10529661911E+03  0.18662136780E+03  0.12508981654E+03 0.  0.
         24    2    1    2    0    0  0.19853389912E+02 -0.32397191407E+02  0.85092855207E+02  0.12344549069E+03  0.80958384751E+02 0.  0.
        -11    1    5    5    0    0  0.28186870245E+02 -0.29264164004E+02  0.28595575032E+01  0.40731658672E+02  0.00000000000E+00 0.  1.
         12    1    5    5    0    0 -0.83334803337E+01 -0.31330274028E+01  0.82233297704E+02  0.82713832014E+02  0.00000000000E+00 0. -1.
         13    1    3    3    0    0  0.25928892465E+01 -0.41636841641E+00 -0.28702652336E+00  0.26417459242E+01  0.00000000000E+00 0. -1.
        -14    1    3    3    0    0  0.24521257281E+02  0.10953868765E+03 -0.13376270120E+04  0.13423285885E+04  0.00000000000E+00 0.  1.
          5    1    4    4  501    0 -0.67457633500E+01 -0.58870546676E+01  0.10458478480E+03  0.10505052284E+03  0.41800000000E+01 0. -1.
         -5    1    4    4    0  501 -0.40221773089E+02 -0.70838073160E+02  0.71183430591E+00  0.81570844960E+02  0.41800000000E+01 0. -1.
</event>
<event>
11    1  0.8328696E-009  0.2265837E+03  0.7561462E-02  0.1037170E+00
         22   -1    0    0    0    0  0.00000000000E+00  0.00000000000E+00  0.59368346717E+03  0.59368346717E+03  0.00000000000E+00 0. -1.
         22   -1    0    0    0    0 -0.00000000000E+00 -0.00000000000E+00 -0.19423423203E+03  0.19423423203E+03  0.00000000000E+00 0. -1.
        -24    2    1    2    0    0  0.60700318792E+02  0.57964032479E+01 -0.99365357520E+00  0.10264195405E+03  0.82560622527E+02 0.  0.
         25    2    1    2    0    0  0.10685565613E+03 -0.10975005281E+03 -0.34894988942E+02  0.20082081380E+03  0.12509250044E+03 0.  0.
         24    2    1    2    0    0 -0.16755597492E+03  0.10395364957E+03  0.43533787766E+03  0.48445493134E+03  0.79348262652E+02 0.  0.
        -11    1    5    5    0    0 -0.72027685555E+02  0.74280983840E+02  0.29096443022E+03  0.30881378159E+03  0.00000000000E+00 0.  1.
         12    1    5    5    0    0 -0.95528289363E+02  0.29672665725E+02  0.14437344744E+03  0.17564114975E+03  0.00000000000E+00 0. -1.
         11    1    3    3    0    0  0.63117801327E+02 -0.89803869614E+01 -0.29648950799E+02  0.70310486258E+02  0.00000000000E+00 0. -1.
        -12    1    3    3    0    0 -0.24174825352E+01  0.14776790209E+02  0.28655297224E+02  0.32331467794E+02  0.00000000000E+00 0.  1.
          5    1    4    4  501    0 -0.14605682469E+01 -0.80399212314E+02  0.73087103879E+01  0.80852063968E+02  0.41800000000E+01 0.  1.
         -5    1    4    4    0  501  0.10831622437E+03 -0.29350840499E+02 -0.42203699330E+02  0.11996874984E+03  0.41800000000E+01 0.  1.
</event>
<event>
11    1  0.8328696E-009  0.1355544E+03  0.7561462E-02  0.1112627E+00
         22   -1    0    0    0    0  0.00000000000E+00  0.00000000000E+00  0.14283105737E+03  0.14283105737E+03  0.00000000000E+00 0. -1.
         22   -1    0    0    0    0 -0.00000000000E+00 -0.00000000000E+00 -0.76827411887E+03  0.76827411887E+03  0.00000000000E+00 0. -1.
         24    2    1    2    0    0  0.15980848010E+02  0.32077440098E+02 -0.63981951907E+03  0.64578751160E+03  0.79925862465E+02 0.  0.
         25    2    1    2    0    0 -0.39250334431E+02  0.19324518241E+02 -0.56955316353E+02  0.14423980187E+03  0.12508871501E+03 0.  0.
        -24    2    1    2    0    0  0.23269486421E+02 -0.51401958339E+02  0.71331773918E+02  0.12107786278E+03  0.79924943320E+02 0.  0.
        -11    1    3    3    0    0 -0.20982418826E+02  0.13135146656E+02 -0.66376668358E+02  0.70842473699E+02  0.00000000000E+00 0.  1.
         12    1    3    3    0    0  0.36963266835E+02  0.18942293442E+02 -0.57344285071E+03  0.57494503790E+03  0.00000000000E+00 0. -1.
         11    1    5    5    0    0  0.43788845536E+02 -0.18550212832E+02  0.66916162440E+02  0.82093520970E+02  0.00000000000E+00 0. -1.
        -12    1    5    5    0    0 -0.20519359115E+02 -0.32851745507E+02  0.44156114776E+01  0.38984341806E+02  0.00000000000E+00 0.  1.
          5    1    4    4  501    0 -0.75336753484E+02 -0.20815618575E+02 -0.30778792197E+02  0.84105427002E+02  0.41800000000E+01 0.  1.
         -5    1    4    4    0  501  0.36086419053E+02  0.40140136816E+02 -0.26176524156E+02  0.60134374866E+02  0.41800000000E+01 0.  1.
</event>
<event>
11    1  0.8328696E-009  0.3779043E+03  0.7561462E-02  0.9717300E-01
         22   -1    0    0    0    0  0.00000000000E+00  0.00000000000E+00  0.46569720019E+03  0.46569720019E+03  0.00000000000E+00 0.  1.
         22   -1    0    0    0    0 -0.00000000000E+00 -0.00000000000E+00 -0.77701778150E+03  0.77701778150E+03  0.00000000000E+00 0.  1.
        -24    2    1    2    0    0 -0.26040986726E+01 -0.34053202923E+03 -0.42853284846E+03  0.55306758942E+03  0.79211817234E+02 0.  0.
         25    2    1    2    0    0 -0.15832516660E+03  0.40522686066E+03 -0.21967626919E+02  0.45321693119E+03  0.12508934049E+03 0.  0.
         24    2    1    2    0    0  0.16092926527E+03 -0.64694831430E+02  0.13917989407E+03  0.23643046108E+03  0.80278704380E+02 0.  0.
        -13    1    5    5    0    0  0.22700326252E+02 -0.38288925686E+02  0.60782719005E+02  0.75338473383E+02  0.00000000000E+00 0.  1.
         14    1    5    5    0    0  0.13822893902E+03 -0.26405905744E+02  0.78397175065E+02  0.16109198769E+03  0.00000000000E+00 0. -1.
         11    1    3    3    0    0  0.91785514684E+01 -0.39123454414E+01 -0.28052282379E+02  0.29773861029E+02  0.00000000000E+00 0. -1.
        -12    1    3    3    0    0 -0.11782650141E+02 -0.33661968379E+03 -0.40048056609E+03  0.52329372839E+03  0.00000000000E+00 0.  1.
          5    1    4    4  501    0 -0.13795819667E+03  0.27835694534E+03 -0.65420900697E+02  0.31750971591E+03  0.41800000000E+01 0.  1.
         -5    1    4    4    0  501 -0.20366969927E+02  0.12686991532E+03  0.43453273778E+02  0.13570721528E+03  0.41800000000E+01 0.  1.
</event>
<event>
11    1  0.8328696E-009  0.1369064E+03  0.7561462E-02  0.1111063E+00
         22   -1    0    0    0    0  0.00000000000E+00  0.00000000000E+00  0.47125139866E+03  0.47125139866E+03  0.00000000000E+00 0.  1.
         22   -1    0    0    0    0 -0.00000000000E+00 -0.00000000000E+00 -0.33242480475E+03  0.33242480475E+03  0.00000000000E+00 0. -1.
         24    2    1    2    0    0 -0.78494481094E+01  0.17743510116E+02 -0.25140744424E+03  0.26412903926E+03  0.78625697911E+02 0.  0.
         25    2    1    2    0    0  0.28364756250E+01 -0.71748218324E+02  0.72310173735E+01  0.14442369825E+03  0.12510021814E+03 0.  0.
        -24    2    1    2    0    0  0.50129724844E+01  0.54004708208E+02  0.38300302078E+03  0.39512346591E+03  0.80558059688E+02 0.  0.
        -13    1    3    3    0    0  0.25657259129E+02 -0.16288783629E+02 -0.65861423424E+02  0.72535139854E+02  0.00000000000E+00 0.  1.
         14    1    3    3    0    0 -0.33506707238E+02  0.34032293745E+02 -0.18554602082E+03  0.19159389940E+03  0.00000000000E+00 0. -1.
         13    1    5    5    0    0 -0.18242670765E+01 -0.21288323629E+02  0.93676062686E+02  0.96081868184E+02  0.00000000000E+00 0. -1.
        -14    1    5    5    0    0  0.68372395609E+01  0.75293031837E+02  0.28932695809E+03  0.29904159772E+03  0.00000000000E+00 0.  1.
          5    1    4    4  501    0  0.14568934314E+02  0.28392948537E+02  0.26496135792E+02  0.41688499441E+02  0.41800000000E+01 0.  1.
         -5    1    4    4    0  501 -0.11732458689E+02 -0.10014116686E+03 -0.19265118419E+02  0.10273519881E+03  0.41800000000E+01 0.  1.
</event>
<event>
11    1  0.8328696E-009  0.1257432E+03  0.7561462E-02  0.1124613E+00
         22   -1    0    0    0    0  0.00000000000E+00  0.00000000000E+00  0.29287176379E+03  0.29287176379E+03  0.00000000000E+00 0.  1.
         22   -1    0    0    0    0 -0.00000000000E+00 -0.00000000000E+00 -0.52526054303E+03  0.52526054303E+03  0.00000000000E+00 0. -1.
         24    2    1    2    0    0  0.76975693575E+01  0.57489482554E+01 -0.46095118907E+03  0.46771433168E+03  0.78666348402E+02 0.  0.
         25    2    1    2    0    0 -0.78028847943E+01  0.77847425019E+01  0.22081398621E+02  0.12750035469E+03  0.12508902852E+03 0.  0.
        -24    2    1    2    0    0  0.10531543680E+00 -0.13533690757E+02  0.20648101121E+03  0.22291762044E+03  0.82913724055E+02 0.  0.
        -13    1    3    3    0    0 -0.93931668564E+01 -0.14503110516E+02 -0.22049762338E+02  0.28013636276E+02  0.00000000000E+00 0.  1.
         14    1    3    3    0    0  0.17090736214E+02  0.20252058772E+02 -0.43890142673E+03  0.43970069540E+03  0.00000000000E+00 0. -1.
         13    1    5    5    0    0  0.23865202638E+02  0.24826472886E+02  0.55294927382E+02  0.65141619930E+02  0.00000000000E+00 0. -1.
        -14    1    5    5    0    0 -0.23759887201E+02 -0.38360163643E+02  0.15118608383E+03  0.15777600051E+03  0.00000000000E+00 0.  1.
          5    1    4    4  501    0 -0.19215173368E+01 -0.18354709453E+02  0.69961088661E+02  0.72474919211E+02  0.41800000000E+01 0.  1.
         -5    1    4    4    0  501 -0.58813674575E+01  0.26139451955E+02 -0.47879690040E+02  0.55025435483E+02  0.41800000000E+01 0.  1.
</event>
<event>
11    1  0.8328696E-009  0.1315679E+03  0.7561462E-02  0.1117357E+00
         22   -1    0    0    0    0  0.00000000000E+00  0.00000000000E+00  0.66950269385E+03  0.66950269385E+03  0.00000000000E+00 0.  1.
         22   -1    0    0    0    0 -0.00000000000E+00 -0.00000000000E+00 -0.23382287234E+03  0.23382287234E+03  0.00000000000E+00 0.  1.
        -24    2    1    2    0    0 -0.35844490181E+02 -0.23560943289E+02 -0.17891897000E+03  0.20122461388E+03  0.81482525015E+02 0.  0.
         25    2    1    2    0    0  0.18043743715E+02  0.12425325229E+02  0.58599710710E+02  0.13986242267E+03  0.12509039046E+03 0.  0.
         24    2    1    2    0    0  0.17800746466E+02  0.11135618060E+02  0.55599908080E+03  0.56223852964E+03  0.80847497180E+02 0.  0.
        -11    1    5    5    0    0  0.92492425805E+01  0.23483098973E+02  0.53885525494E+03  0.53944600304E+03  0.00000000000E+00 0.  1.
         12    1    5    5    0    0  0.85515038852E+01 -0.12347480912E+02  0.17143825861E+02  0.22792526599E+02  0.00000000000E+00 0. -1.
         11    1    3    3    0    0  0.62685544214E+01 -0.19253124326E+02 -0.32256142589E+01  0.20503223118E+02  0.00000000000E+00 0. -1.
        -12    1    3    3    0    0 -0.42113044602E+02 -0.43078189630E+01 -0.17569335574E+03  0.18072139077E+03  0.00000000000E+00 0.  1.
          5    1    4    4  501    0  0.64861570631E+02  0.23873099257E+02  0.59769459758E+02  0.91470262559E+02  0.41800000000E+01 0. -1.
         -5    1    4    4    0  501 -0.46817826916E+02 -0.11447774028E+02 -0.11697490488E+01  0.48392160110E+02  0.41800000000E+01 0. -1.
</event>
<event>
11    1  0.8328696E-009  0.1306230E+03  0.7561462E-02  0.1118506E+00
         22   -1    0    0    0    0  0.00000000000E+00  0.00000000000E+00  0.18964186809E+03  0.18964186809E+03  0.00000000000E+00 0.  1.
         22   -1    0    0    0    0 -0.00000000000E+00 -0.00000000000E+00 -0.84366928288E+03  0.84366928288E+03  0.00000000000E+00 0. -1.
        -24    2    1    2    0    0  0.40666337777E+02 -0.41495967579E+00 -0.72216114029E+03  0.72952115647E+03  0.95028848066E+02 0.  0.
         25    2    1    2    0    0 -0.67572761253E+01  0.88263632726E+00 -0.68408110323E+02  0.14273638866E+03  0.12509023647E+03 0.  0.
         24    2    1    2    0    0 -0.33909061652E+02 -0.46767665148E+00  0.13654183582E+03  0.16105360585E+03  0.78387166323E+02 0.  0.
        -11    1    5    5    0    0 -0.27868519075E+02  0.29533143812E+02  0.11909410060E+03  0.12582633165E+03  0.00000000000E+00 0.  1.
         12    1    5    5    0    0 -0.60405425769E+01 -0.30000820463E+02  0.17447735220E+02  0.35227274198E+02  0.00000000000E+00 0. -1.
         13    1    3    3    0    0  0.56250307181E+02  0.20631091691E+02 -0.26844623773E+03  0.27505112535E+03  0.00000000000E+00 0. -1.
        -14    1    3    3    0    0 -0.15583969404E+02 -0.21046051366E+02 -0.45371490256E+03  0.45447003112E+03  0.00000000000E+00 0.  1.
          5    1    4    4  501    0  0.54938077896E+02 -0.14408858285E+02 -0.13241104394E+02  0.58468853636E+02  0.41800000000E+01 0. -1.
         -5    1    4    4    0  501 -0.61695354021E+02  0.15291494612E+02 -0.55167005929E+02  0.84267535020E+02  0.41800000000E+01 0. -1.
</event>
<event>
11    1  0.8328696E-009  0.4030050E+03  0.7561462E-02  0.9640933E-01
         22   -1    0    0    0    0  0.00000000000E+00  0.00000000000E+00  0.87861281342E+03  0.87861281342E+03  0.00000000000E+00 0. -1.
         22   -1    0    0    0    0 -0.00000000000E+00 -0.00000000000E+00 -0.25801375830E+03  0.25801375830E+03  0.00000000000E+00 0. -1.
        -24    2    1    2    0    0  0.64523391524E+02 -0.57440082081E+02  0.46878249508E+02  0.12962916931E+03  0.84519347941E+02 0.  0.
         25    2    1    2    0    0 -0.50534488991E+02 -0.34634584304E+03  0.11175894991E+03  0.38813244752E+03  0.12509019292E+03 0.  0.
         24    2    1    2    0    0 -0.13988902533E+02  0.40378592512E+03  0.46196185569E+03  0.61886495489E+03  0.79663753039E+02 0.  0.
        -11    1    5    5    0    0 -0.14473837565E+02  0.79667137773E+02  0.14174572442E+03  0.16324274932E+03  0.00000000000E+00 0.  1.
         12    1    5    5    0    0  0.48493503193E+00  0.32411878735E+03  0.32021613127E+03  0.45562220556E+03  0.00000000000E+00 0. -1.
         11    1    3    3    0    0  0.78484955328E+02 -0.66915404444E+02  0.34697106529E+02  0.10881842108E+03  0.00000000000E+00 0. -1.
        -12    1    3    3    0    0 -0.13961563804E+02  0.94753223632E+01  0.12181142979E+02  0.20810748233E+02  0.00000000000E+00 0.  1.
          5    1    4    4  501    0  0.19362080047E+02 -0.24592232906E+03  0.53047838876E+02  0.25235734125E+03  0.41800000000E+01 0.  1.
         -5    1    4    4    0  501 -0.69896569038E+02 -0.10042351398E+03  0.58711111034E+02  0.13577510627E+03  0.41800000000E+01 0.  1.
</event>
<event>
11    1  0.8328696E-009  0.3311953E+03  0.7561462E-02  0.9877898E-01
         22   -1    0    0    0    0  0.00000000000E+00  0.00000000000E+00  0.19618202365E+04  0.19618202365E+04  0.00000000000E+00 0. -1.
         22   -1    0    0    0    0 -0.00000000000E+00 -0.00000000000E+00 -0.62797094442E+03  0.62797094442E+03  0.00000000000E+00 0. -1.
        -24    2    1    2    0    0 -0.30363808654E+03  0.38229225215E+02 -0.55913491484E+03  0.64349329406E+03  0.88284796267E+02 0.  0.
         25    2    1    2    0    0  0.32445744407E+03 -0.29775094257E+02  0.12491651670E+04  0.12970043773E+04  0.12509017155E+03 0.  0.
         24    2    1    2    0    0 -0.20819357531E+02 -0.84541309582E+01  0.64381903990E+03  0.64929350954E+03  0.81081362900E+02 0.  0.
        -11    1    5    5    0    0  0.23489235212E+02 -0.13708698711E+02  0.99538488987E+02  0.10318712798E+03  0.00000000000E+00 0.  1.
         12    1    5    5    0    0 -0.44308592742E+02  0.52545677523E+01  0.54428055091E+03  0.54610638156E+03  0.00000000000E+00 0. -1.
         11    1    3    3    0    0 -0.30288221137E+03  0.29722761241E+02 -0.55695261783E+03  0.63467889125E+03  0.00000000000E+00 0. -1.
        -12    1    3    3    0    0 -0.75587516480E+00  0.85064639746E+01 -0.21822970184E+01  0.88144028097E+01  0.00000000000E+00 0.  1.
          5    1    4    4  501    0  0.19180989899E+03 -0.11910481276E+02  0.94976260480E+03  0.96901980103E+03  0.41800000000E+01 0.  1.
         -5    1    4    4    0  501  0.13264754508E+03 -0.17864612981E+02  0.29940256219E+03  0.32798457625E+03  0.41800000000E+01 0.  1.
</event>
<event>
11    1  0.8328696E-009  0.1585841E+03  0.7561462E-02  0.1088417E+00
         22   -1    0    0    0    0  0.00000000000E+00  0.00000000000E+00  0.15809279973E+04  0.15809279973E+04  0.00000000000E+00 0.  1.
         22   -1    0    0    0    0 -0.00000000000E+00 -0.00000000000E+00 -0.55419327623E+03  0.55419327623E+03  0.00000000000E+00 0.  1.
         24    2    1    2    0    0 -0.19330383286E+02 -0.93300116915E+02 -0.47250692995E+03  0.48877644909E+03  0.81000264210E+02 0.  0.
         25    2    1    2    0    0  0.15109509039E+02  0.12684713042E+03  0.38434440832E+02  0.18287474670E+03  0.12508986761E+03 0.  0.
        -24    2    1    2    0    0  0.42208742468E+01 -0.33547013503E+02  0.14608072102E+04  0.14634700777E+04  0.81509172548E+02 0.  0.
        -11    1    3    3    0    0 -0.47616967335E+02 -0.63062559377E+02 -0.24183594015E+03  0.25441871771E+03  0.00000000000E+00 0.  1.
         12    1    3    3    0    0  0.28286584049E+02 -0.30237557538E+02 -0.23067098980E+03  0.23435773138E+03  0.00000000000E+00 0. -1.
         13    1    5    5    0    0  0.12083585273E+02 -0.12714159456E+01  0.31279933903E+02  0.33556874058E+02  0.00000000000E+00 0. -1.
        -14    1    5    5    0    0 -0.78627110266E+01 -0.32275597558E+02  0.14295272762E+04  0.14299132036E+04  0.00000000000E+00 0.  1.
          5    1    4    4  501    0 -0.17759681305E+02 -0.10365428983E+02  0.36033209347E+02  0.41697877330E+02  0.41800000000E+01 0. -1.
         -5    1    4    4    0  501  0.32869190344E+02  0.13721255940E+03  0.24012314849E+01  0.14117686937E+03  0.41800000000E+01 0. -1.
</event>
<event>
11    1  0.8328696E-009  0.1688375E+03  0.7561462E-02  0.1079048E+00
         22   -1    0    0    0    0  0.00000000000E+00  0.00000000000E+00  0.52911929927E+03  0.52911929927E+03  0.00000000000E+00 0. -1.
         22   -1    0    0    0    0 -0.00000000000E+00 -0.00000000000E+00 -0.49436004966E+03  0.49436004966E+03  0.00000000000E+00 0. -1.
         24    2    1    2    0    0 -0.48856523829E+02 -0.51471272173E+02 -0.43733548233E+03  0.45052073668E+03  0.81672261460E+02 0.  0.
         25    2    1    2    0    0  0.14538291868E+03  0.41741324428E+02  0.25602350031E+03  0.32260408422E+03  0.12508729448E+03 0.  0.
        -24    2    1    2    0    0 -0.96526394852E+02  0.97299477450E+01  0.21607123163E+03  0.25035452802E+03  0.81108543168E+02 0.  0.
        -11    1    3    3    0    0 -0.28378192692E+02 -0.30814769760E+02 -0.66822172885E+02  0.78867449844E+02  0.00000000000E+00 0.  1.
         12    1    3    3    0    0 -0.20478331136E+02 -0.20656502412E+02 -0.37051330945E+03  0.37165328684E+03  0.00000000000E+00 0. -1.
         11    1    5    5    0    0 -0.59180142460E+02 -0.33370400963E+02  0.98197080815E+02  0.11940912697E+03  0.00000000000E+00 0. -1.
        -12    1    5    5    0    0 -0.37346252391E+02  0.43100348708E+02  0.11787415082E+03  0.13094540106E+03  0.00000000000E+00 0.  1.
          5    1    4    4  501    0  0.61978540477E+02 -0.36737116702E+02  0.53249655955E+02  0.89688089971E+02  0.41800000000E+01 0.  1.
         -5    1    4    4    0  501  0.83404378203E+02  0.78478441129E+02  0.20277384435E+03  0.23291599425E+03  0.41800000000E+01 0.  1.
</event>
<event>
11    1  0.8328696E-009  0.3245767E+03  0.7561462E-02  0.9902949E-01
         22   -1    0    0    0    0  0.00000000000E+00  0.00000000000E+00  0.21241480477E+03  0.21241480477E+03  0.00000000000E+00 0.  1.
         22   -1    0    0    0    0 -0.00000000000E+00 -0.00000000000E+00 -0.22108751317E+04  0.22108751317E+04  0.00000000000E+00 0. -1.
        -24    2    1    2    0    0  0.11229402522E+03  0.32863533214E+02 -0.16654659220E+04  0.16714842701E+04  0.79956037829E+02 0.  0.
         25    2    1    2    0    0 -0.26597776476E+03 -0.25128884908E+03 -0.25144074545E+03  0.46125912435E+03  0.12508906548E+03 0.  0.
         24    2    1    2    0    0  0.15368373954E+03  0.21842531586E+03 -0.81553659452E+02  0.29054654198E+03  0.80237044299E+02 0.  0.
        -13    1    5    5    0    0  0.13462522442E+03  0.21399491064E+03 -0.91155352320E+02  0.26875094621E+03  0.00000000000E+00 0.  1.
         14    1    5    5    0    0  0.19058515129E+02  0.44304052195E+01  0.96016928676E+01  0.21795595776E+02  0.00000000000E+00 0. -1.
         11    1    3    3    0    0  0.78106820969E+02 -0.18082976175E+02 -0.98576623985E+03  0.98902110652E+03  0.00000000000E+00 0. -1.
        -12    1    3    3    0    0  0.34187204248E+02  0.50946509389E+02 -0.67969968217E+03  0.68246316362E+03  0.00000000000E+00 0.  1.
          5    1    4    4  501    0 -0.15493524923E+03 -0.15267238389E+03 -0.73923411884E+02  0.22977365271E+03  0.41800000000E+01 0.  1.
         -5    1    4    4    0  501 -0.11104251553E+03 -0.98616465186E+02 -0.17751733356E+03  0.23148547163E+03  0.41800000000E+01 0.  1.
</event>
<event>
11    1  0.8328696E-009  0.1891551E+03  0.7561462E-02  0.1062469E+00
         22   -1    0    0    0    0  0.00000000000E+00  0.00000000000E+00  0.53589344824E+03  0.53589344824E+03  0.00000000000E+00 0. -1.
         22   -1    0    0    0    0 -0.00000000000E+00 -0.00000000000E+00 -0.58025820666E+03  0.58025820666E+03  0.00000000000E+00 0.  1.
        -24    2    1    2    0    0  0.24414658101E+02 -0.22831839045E+02 -0.42726984286E+03  0.43585012668E+03  0.79299722024E+02 0.  0.
         25    2    1    2    0    0  0.79306466648E+02  0.11990403285E+03 -0.66985023189E+02  0.20199560624E+03  0.12509491942E+03 0.  0.
         24    2    1    2    0    0 -0.10372112475E+03 -0.97072193807E+02  0.44989010763E+03  0.47830592197E+03  0.78704278945E+02 0.  0.
        -13    1    5    5    0    0  0.59817599138E+01  0.73373485424E+00  0.80880208948E+02  0.81104426624E+02  0.00000000000E+00 0.  1.
         14    1    5    5    0    0 -0.10970288466E+03 -0.97805928662E+02  0.36900989868E+03  0.39720149535E+03  0.00000000000E+00 0. -1.
         13    1    3    3    0    0 -0.21319984606E+01 -0.24751432378E+02 -0.36368393903E+02  0.44043602229E+02  0.00000000000E+00 0. -1.
        -14    1    3    3    0    0  0.26546656562E+02  0.19195933329E+01 -0.39090144895E+03  0.39180652446E+03  0.00000000000E+00 0.  1.
          5    1    4    4  501    0  0.51109126716E+02 -0.14373554607E+02 -0.16883979205E+02  0.55868444220E+02  0.41800000000E+01 0. -1.
         -5    1    4    4    0  501  0.28197339931E+02  0.13427758746E+03 -0.50101043984E+02  0.14612716202E+03  0.41800000000E+01 0. -1.
</event>
<event>
11    1  0.8328696E-009  0.1319422E+03  0.7561462E-02  0.1116905E+00
         22   -1    0    0    0    0  0.00000000000E+00  0.00000000000E+00  0.39319716565E+03  0.39319716565E+03  0.00000000000E+00 0.  1.
         22   -1    0    0    0    0 -0.00000000000E+00 -0.00000000000E+00 -0.39848204851E+03  0.39848204851E+03  0.00000000000E+00 0.  1.
         24    2    1    2    0    0  0.82958857614E+01  0.40121429690E+02 -0.30994260824E+03  0.32253660583E+03  0.79289916505E+02 0.  0.
         25    2    1    2    0    0 -0.21232349357E+02 -0.47912238562E+02 -0.17475263127E+02  0.13674676007E+03  0.12509155169E+03 0.  0.
        -24    2    1    2    0    0  0.12936463596E+02  0.77908088723E+01  0.32213298851E+03  0.33239584825E+03  0.80556122426E+02 0.  0.
        -11    1    3    3    0    0  0.18413708279E+02  0.61701468891E+02 -0.20287859870E+03  0.21285173649E+03  0.00000000000E+00 0.  1.
         12    1    3    3    0    0 -0.10117822518E+02 -0.21580039201E+02 -0.10706400954E+03  0.10968486934E+03  0.00000000000E+00 0. -1.
         11    1    5    5    0    0 -0.32253077539E+02 -0.36253462651E+01  0.17735137249E+03  0.18029673727E+03  0.00000000000E+00 0. -1.
        -12    1    5    5    0    0  0.45189541135E+02  0.11416155137E+02  0.14478161601E+03  0.15209911098E+03  0.00000000000E+00 0.  1.
          5    1    4    4  501    0 -0.12161517103E+02 -0.82580734494E+02 -0.41588713813E+02  0.93351881204E+02  0.41800000000E+01 0. -1.
         -5    1    4    4    0  501 -0.90708322537E+01  0.34668495931E+02  0.24113450686E+02  0.43394878867E+02  0.41800000000E+01 0. -1.
</event>
<event>
11    1  0.8328696E-009  0.1768798E+03  0.7561462E-02  0.1072195E+00
         22   -1    0    0    0    0  0.00000000000E+00  0.00000000000E+00  0.14091396173E+04  0.14091396173E+04  0.00000000000E+00 0. -1.
         22   -1    0    0    0    0 -0.00000000000E+00 -0.00000000000E+00 -0.21310809430E+04  0.21310809430E+04  0.00000000000E+00 0. -1.
        -24    2    1    2    0    0 -0.12587099780E+03 -0.45251351468E+01 -0.20090860304E+04  0.20149948785E+04  0.88958968742E+02 0.  0.
         25    2    1    2    0    0  0.10532121667E+03 -0.78758195629E+02 -0.45733694257E+02  0.18717720198E+03  0.12509325358E+03 0.  0.
         24    2    1    2    0    0  0.20549781130E+02  0.83283330775E+02  0.13328783989E+04  0.13380484799E+04  0.80315014565E+02 0.  0.
        -13    1    5    5    0    0 -0.25244582833E+02  0.35232744982E+01  0.27341040516E+03  0.27459597972E+03  0.00000000000E+00 0.  1.
         14    1    5    5    0    0  0.45794363963E+02  0.79760056277E+02  0.10594679938E+04  0.10634525002E+04  0.00000000000E+00 0. -1.
         13    1    3    3    0    0 -0.11194004727E+03  0.30397462429E+02 -0.15901812176E+04  0.15944061229E+04  0.00000000000E+00 0. -1.
        -14    1    3    3    0    0 -0.13930950535E+02 -0.34922597575E+02 -0.41890481275E+03  0.42058875561E+03  0.00000000000E+00 0.  1.
          5    1    4    4  501    0  0.22195733788E+02  0.33502890397E+02 -0.19978351397E+02  0.45074396146E+02  0.41800000000E+01 0.  1.
         -5    1    4    4    0  501  0.83125482885E+02 -0.11226108603E+03 -0.25755342860E+02  0.14210280584E+03  0.41800000000E+01 0.  1.
</event>
<event>
11    1  0.8328696E-009  0.1818416E+03  0.7561462E-02  0.1068163E+00
         22   -1    0    0    0    0  0.00000000000E+00  0.00000000000E+00  0.24670325123E+03  0.24670325123E+03  0.00000000000E+00 0.  1.
         22   -1    0    0    0    0 -0.00000000000E+00 -0.00000000000E+00 -0.50113065156E+03  0.50113065156E+03  0.00000000000E+00 0. -1.
        -24    2    1    2    0    0  0.65366508607E+01 -0.13370799316E+03 -0.38976900593E+03  0.42028091029E+03  0.82435491949E+02 0.  0.
         25    2    1    2    0    0 -0.47763446913E+02  0.11677824866E+03  0.17243836604E+02  0.17850321145E+03  0.12509012901E+03 0.  0.
         24    2    1    2    0    0  0.41226796052E+02  0.16929744496E+02  0.11809776899E+03  0.14904978105E+03  0.79262155099E+02 0.  0.
        -13    1    5    5    0    0  0.14705001898E+02 -0.27835734907E+02  0.75514059414E+02  0.81813436475E+02  0.00000000000E+00 0.  1.
         14    1    5    5    0    0  0.26521794154E+02  0.44765479403E+02  0.42583709574E+02  0.67236344579E+02  0.00000000000E+00 0. -1.
         11    1    3    3    0    0  0.36732175666E+02 -0.10090413854E+03 -0.31948277625E+03  0.33704620192E+03  0.00000000000E+00 0. -1.
        -12    1    3    3    0    0 -0.30195524805E+02 -0.32803854621E+02 -0.70286229674E+02  0.83234708373E+02  0.00000000000E+00 0.  1.
          5    1    4    4  501    0 -0.36954094344E+02  0.14274443583E+03  0.23549026638E+02  0.14937740158E+03  0.41800000000E+01 0. -1.
         -5    1    4    4    0  501 -0.10809352569E+02 -0.25966187165E+02 -0.63051900341E+01  0.29125809863E+02  0.41800000000E+01 0. -1.
</event>
<event>
11    1  0.8328696E-009  0.2444944E+03  0.7561462E-02  0.1026874E+00
         22   -1    0    0    0    0  0.00000000000E+00  0.00000000000E+00  0.43877775740E+02  0.43877775740E+02  0.00000000000E+00 0. -1.
         22   -1    0    0    0    0 -0.00000000000E+00 -0.00000000000E+00 -0.18295934757E+04  0.18295934757E+04  0.00000000000E+00 0.  1.
         24    2    1    2    0    0 -0.10311584201E+03 -0.18155396597E+03 -0.72844811511E+03  0.76198987042E+03  0.79982415395E+02 0.  0.
         25    2    1    2    0    0  0.89408888842E+02  0.19183517438E+03 -0.90687937095E+03  0.93961363348E+03  0.12509557640E+03 0.  0.
        -24    2    1    2    0    0  0.13706953173E+02 -0.10281208413E+02 -0.15038821392E+03  0.17186774756E+03  0.81414519318E+02 0.  0.
        -13    1    3    3    0    0 -0.74369133192E+02 -0.17467662826E+03 -0.56932268708E+03  0.60014249513E+03  0.00000000000E+00 0.  1.
         14    1    3    3    0    0 -0.28746708822E+02 -0.68773377116E+01 -0.15912542803E+03  0.16184737529E+03  0.00000000000E+00 0. -1.
         13    1    5    5    0    0  0.29031942428E+01 -0.36477383381E+02 -0.27551973106E+02  0.45805450081E+02  0.00000000000E+00 0. -1.
        -14    1    5    5    0    0  0.10803758930E+02  0.26196174968E+02 -0.12283624081E+03  0.12606229748E+03  0.00000000000E+00 0.  1.
          5    1    4    4  501    0  0.94379260521E+02  0.66807941828E+02 -0.34256670942E+03  0.36158010000E+03  0.41800000000E+01 0.  1.
         -5    1    4    4    0  501 -0.49703716788E+01  0.12502723255E+03 -0.56431266152E+03  0.57803353348E+03  0.41800000000E+01 0.  1.
</event>
<event>
11    1  0.8803494E-009  0.1531015E+03  0.7561462E-02  0.1093751E+00
         22   -1    0    0    0    0  0.00000000000E+00  0.00000000000E+00  0.12549277369E+04  0.12549277369E+04  0.00000000000E+00 0.  1.
         22   -1    0    0    0    0 -0.00000000000E+00 -0.00000000000E+00 -0.18704846116E+04  0.18704846116E+04  0.00000000000E+00 0.  1.
         24    2    1    2    0    0  0.33946633543E+02  0.68484444944E+02 -0.11361948282E+04  0.11415911095E+04  0.80306167020E+02 0.  0.
         25    2    1    2    0    0  0.22331851953E+01 -0.14879563644E+03 -0.71576251633E+03  0.74169318789E+03  0.12509067365E+03 0.  0.
        -24    2    1    2    0    0 -0.36179818739E+02  0.80311191501E+02  0.12364004698E+04  0.12421280511E+04  0.80231582698E+02 0.  0.
        -11    1    3    3    0    0  0.23608068611E+02  0.71650513480E+02 -0.53433470508E+03  0.53963387035E+03  0.00000000000E+00 0.  1.
         12    1    3    3    0    0  0.10338564932E+02 -0.31660685358E+01 -0.60186012312E+03  0.60195723911E+03  0.00000000000E+00 0. -1.
         11    1    5    5    0    0 -0.44857466764E+02  0.64338585910E+02  0.55812532931E+03  0.56360937641E+03  0.00000000000E+00 0. -1.
        -12    1    5    5    0    0  0.86776480253E+01  0.15972605591E+02  0.67827514050E+03  0.67851867471E+03  0.00000000000E+00 0.  1.
          5    1    4    4  501    0  0.19388213427E+02 -0.11802701504E+03 -0.28021635095E+03  0.30470470105E+03  0.41800000000E+01 0. -1.
         -5    1    4    4    0  501 -0.17155028232E+02 -0.30768621406E+02 -0.43554616537E+03  0.43698848684E+03  0.41800000000E+01 0. -1.
</event>
<event>
11    1  0.8328696E-009  0.1337668E+03  0.7561462E-02  0.1114726E+00
         22   -1    0    0    0    0  0.00000000000E+00  0.00000000000E+00  0.24225930947E+03  0.24225930947E+03  0.00000000000E+00 0.  1.
         22   -1    0    0    0    0 -0.00000000000E+00 -0.00000000000E+00 -0.26201213768E+04  0.26201213768E+04  0.00000000000E+00 0.  1.
        -24    2    1    2    0    0  0.14597509210E+02 -0.24383187151E+02 -0.21862834091E+04  0.21881312128E+04  0.85296144252E+02 0.  0.
         25    2    1    2    0    0 -0.37850176316E+02 -0.17254390780E+02 -0.41321095548E+03  0.43373023181E+03  0.12509304700E+03 0.  0.
         24    2    1    2    0    0  0.23252667106E+02  0.41637577931E+02  0.22163229728E+03  0.24051924168E+03  0.80338384354E+02 0.  0.
        -11    1    5    5    0    0  0.32233994708E+02  0.36693289604E+02  0.22459758849E+03  0.22984669820E+03  0.00000000000E+00 0.  1.
         12    1    5    5    0    0 -0.89813276014E+01  0.49442883270E+01 -0.29652912113E+01  0.10672543488E+02  0.00000000000E+00 0. -1.
         13    1    3    3    0    0  0.56785327052E+01  0.29149689996E+02 -0.43798723726E+03  0.43899290446E+03  0.00000000000E+00 0. -1.
        -14    1    3    3    0    0  0.89189765044E+01 -0.53532877147E+02 -0.17482961719E+04  0.17491383083E+04  0.00000000000E+00 0.  1.
          5    1    4    4  501    0 -0.73887190444E+02 -0.16922649243E+00 -0.35755061719E+03  0.36512910292E+03  0.41800000000E+01 0.  1.
         -5    1    4    4    0  501  0.36037014128E+02 -0.17085164287E+02 -0.55660338295E+02  0.68601128891E+02  0.41800000000E+01 0.  1.
</event>
<event>
11    1  0.8328696E-009  0.1342635E+03  0.7561462E-02  0.1114139E+00
         22   -1    0    0    0    0  0.00000000000E+00  0.00000000000E+00  0.11851494597E+04  0.11851494597E+04  0.00000000000E+00 0. -1.
         22   -1    0    0    0    0 -0.00000000000E+00 -0.00000000000E+00 -0.11385462798E+04  0.11385462798E+04  0.00000000000E+00 0.  1.
        -24    2    1    2    0    0 -0.42381739793E+02  0.23786697688E+02 -0.10849768765E+04  0.10889082636E+04  0.78640734513E+02 0.  0.
         25    2    1    2    0    0  0.28218625741E+02 -0.69091353499E+02  0.57016041899E+02  0.15642061685E+03  0.12508666746E+03 0.  0.
         24    2    1    2    0    0  0.14163114052E+02  0.45304655811E+02  0.10745640145E+04  0.10783668591E+04  0.77033472303E+02 0.  0.
        -13    1    5    5    0    0  0.17222181367E+02 -0.28743051061E+01  0.55987533869E+02  0.58646987217E+02  0.00000000000E+00 0.  1.
         14    1    5    5    0    0 -0.30590673145E+01  0.48178960917E+02  0.10185764806E+04  0.10197198719E+04  0.00000000000E+00 0. -1.
         13    1    3    3    0    0 -0.47360544740E+02  0.50636748530E+01 -0.30550662865E+03  0.30919728677E+03  0.00000000000E+00 0. -1.
        -14    1    3    3    0    0  0.49788049470E+01  0.18723022835E+02 -0.77947024784E+03  0.77971097680E+03  0.00000000000E+00 0.  1.
          5    1    4    4  501    0  0.72368694221E+02 -0.31922322189E+02  0.58611805633E+02  0.98534657440E+02  0.41800000000E+01 0. -1.
         -5    1    4    4    0  501 -0.44150068480E+02 -0.37169031310E+02 -0.15957637341E+01  0.57885959413E+02  0.41800000000E+01 0. -1.
</event>
<event>
11    1  0.8328696E-009  0.2233399E+03  0.7561462E-02  0.1039145E+00
         22   -1    0    0    0    0  0.00000000000E+00  0.00000000000E+00  0.28695411185E+04  0.28695411185E+04  0.00000000000E+00 0.  1.
         22   -1    0    0    0    0 -0.00000000000E+00 -0.00000000000E+00 -0.18292841968E+03  0.18292841968E+03  0.00000000000E+00 0.  1.
         24    2    1    2    0    0  0.10804424395E+03 -0.14435617818E+03 -0.92715510048E+02  0.21851886692E+03  0.81498862372E+02 0.  0.
         25    2    1    2    0    0 -0.17279084210E+03  0.16772505257E+03  0.68296412204E+03  0.73489813806E+03  0.12508762110E+03 0.  0.
        -24    2    1    2    0    0  0.64746598145E+02 -0.23368874387E+02  0.20963640868E+04  0.20990525332E+04  0.80875993396E+02 0.  0.
        -11    1    3    3    0    0  0.80291388129E+02 -0.12708615212E+03 -0.10525272280E+03  0.18350948946E+03  0.00000000000E+00 0.  1.
         12    1    3    3    0    0  0.27752855825E+02 -0.17270026063E+02  0.12537212747E+02  0.35009377460E+02  0.00000000000E+00 0. -1.
         11    1    5    5    0    0  0.72296610452E+01 -0.42294705825E+02  0.64479703158E+03  0.64622312097E+03  0.00000000000E+00 0. -1.
        -12    1    5    5    0    0  0.57516937100E+02  0.18925831438E+02  0.14515670552E+04  0.14528294122E+04  0.00000000000E+00 0.  1.
          5    1    4    4  501    0 -0.11465956053E+03  0.94402655877E+02  0.24101771322E+03  0.28313545653E+03  0.41800000000E+01 0.  1.
         -5    1    4    4    0  501 -0.58131281573E+02  0.73322396690E+02  0.44194640882E+03  0.45176268153E+03  0.41800000000E+01 0.  1.
</event>
<event>
11    1  0.8328696E-009  0.1344182E+03  0.7561462E-02  0.1113956E+00
         22   -1    0    0    0    0  0.00000000000E+00  0.00000000000E+00  0.10074015081E+04  0.10074015081E+04  0.00000000000E+00 0. -1.
         22   -1    0    0    0    0 -0.00000000000E+00 -0.00000000000E+00 -0.20803853675E+04  0.20803853675E+04  0.00000000000E+00 0. -1.
         24    2    1    2    0    0 -0.78422483662E+01  0.48153732883E+02 -0.19719387692E+04  0.19740860610E+04  0.78057567756E+02 0.  0.
         25    2    1    2    0    0  0.49057711904E+00 -0.74580122869E+02 -0.55310949321E+02  0.15575149964E+03  0.12504716363E+03 0.  0.
        -24    2    1    2    0    0  0.73516712472E+01  0.26426389986E+02  0.95426585914E+03  0.95794931492E+03  0.79316826035E+02 0.  0.
        -11    1    3    3    0    0 -0.11744588944E+02 -0.20317532903E+02 -0.50106594077E+03  0.50161520562E+03  0.00000000000E+00 0.  1.
         12    1    3    3    0    0  0.39023405781E+01  0.68471265786E+02 -0.14708728284E+04  0.14724708554E+04  0.00000000000E+00 0. -1.
         11    1    5    5    0    0 -0.63254584934E+01  0.48121436666E+02  0.80766861549E+03  0.80912562470E+03  0.00000000000E+00 0. -1.
        -12    1    5    5    0    0  0.13677129741E+02 -0.21695046680E+02  0.14659724364E+03  0.14882369022E+03  0.00000000000E+00 0.  1.
          5    1    4    4  501    0 -0.28431580240E+02 -0.23879421136E+02  0.32973838395E+02  0.49833000384E+02  0.41800000000E+01 0.  1.
         -5    1    4    4    0  501  0.28922157359E+02 -0.50700701733E+02 -0.88284787717E+02  0.10591849926E+03  0.41800000000E+01 0.  1.
</event>
<event>
11    1  0.8328696E-009  0.1280620E+03  0.7561462E-02  0.1121673E+00
         22   -1    0    0    0    0  0.00000000000E+00  0.00000000000E+00  0.68641756220E+03  0.68641756220E+03  0.00000000000E+00 0. -1.
         22   -1    0    0    0    0 -0.00000000000E+00 -0.00000000000E+00 -0.49690283096E+03  0.49690283096E+03  0.00000000000E+00 0.  1.
        -24    2    1    2    0    0  0.26220486502E+02 -0.18913445221E+02 -0.38837235966E+03  0.40274532491E+03  0.10161434282E+03 0.  0.
         25    2    1    2    0    0  0.32137632770E+01  0.47345650806E+01 -0.58696695795E+02  0.13829615784E+03  0.12509108999E+03 0.  0.
         24    2    1    2    0    0 -0.29434249779E+02  0.14178880141E+02  0.63658378670E+03  0.64227891041E+03  0.78840760843E+02 0.  0.
        -13    1    5    5    0    0  0.11067566112E+02  0.23383771825E+02  0.78530845474E+02  0.82682437648E+02  0.00000000000E+00 0.  1.
         14    1    5    5    0    0 -0.40501815891E+02 -0.92048916843E+01  0.55805294122E+03  0.55959647276E+03  0.00000000000E+00 0. -1.
         11    1    3    3    0    0  0.21964998087E+02  0.17020434518E+02 -0.24403744617E+02  0.36982415869E+02  0.00000000000E+00 0. -1.
        -12    1    3    3    0    0  0.42554884148E+01 -0.35933879740E+02 -0.36396861504E+03  0.36576290904E+03  0.00000000000E+00 0.  1.
          5    1    4    4  501    0 -0.43590099600E+02 -0.40262971184E+02 -0.20887457303E+02  0.63047298945E+02  0.41800000000E+01 0. -1.
         -5    1    4    4    0  501  0.46803862877E+02  0.44997536264E+02 -0.37809238491E+02  0.75248858897E+02  0.41800000000E+01 0. -1.
</event>
<event>
11    1  0.8328696E-009  0.1570700E+03  0.7561462E-02  0.1089866E+00
         22   -1    0    0    0    0  0.00000000000E+00  0.00000000000E+00  0.29823599010E+03  0.29823599010E+03  0.00000000000E+00 0. -1.
         22   -1    0    0    0    0 -0.00000000000E+00 -0.00000000000E+00 -0.12298299396E+04  0.12298299396E+04  0.00000000000E+00 0. -1.
         24    2    1    2    0    0 -0.21550912657E+02 -0.91574725923E+02 -0.11345198872E+04  0.11414283043E+04  0.82902515840E+02 0.  0.
         25    2    1    2    0    0  0.63043572251E+02  0.10855532727E+03  0.15336235086E+02  0.17788504518E+03  0.12509651518E+03 0.  0.
        -24    2    1    2    0    0 -0.41492659593E+02 -0.16980601345E+02  0.18758970264E+03  0.20875258021E+03  0.79860888972E+02 0.  0.
        -13    1    3    3    0    0 -0.61630907714E+01 -0.44452074550E+02 -0.17613412606E+03  0.18176138474E+03  0.00000000000E+00 0.  1.
         14    1    3    3    0    0 -0.15387821886E+02 -0.47122651373E+02 -0.95838576116E+03  0.95966691957E+03  0.00000000000E+00 0. -1.
         11    1    5    5    0    0 -0.51375333258E+02  0.12552446423E+02  0.15455261339E+03  0.16335084660E+03  0.00000000000E+00 0. -1.
        -12    1    5    5    0    0  0.98826736648E+01 -0.29533047767E+02  0.33037089247E+02  0.45401733613E+02  0.00000000000E+00 0.  1.
          5    1    4    4  501    0  0.99893413834E+02  0.77887320247E+02  0.23991160322E+02  0.12898905751E+03  0.41800000000E+01 0.  1.
         -5    1    4    4    0  501 -0.36849841584E+02  0.30668007021E+02 -0.86549252363E+01  0.48895987670E+02  0.41800000000E+01 0.  1.
</event>
<event>
11    1  0.8328696E-009  0.1573020E+03  0.7561462E-02  0.1089643E+00
         22   -1    0    0    0    0  0.00000000000E+00  0.00000000000E+00  0.59680552818E+03  0.59680552818E+03  0.00000000000E+00 0. -1.
         22   -1    0    0    0    0 -0.00000000000E+00 -0.00000000000E+00 -0.38009928820E+03  0.38009928820E+03  0.00000000000E+00 0.  1.
        -24    2    1    2    0    0  0.88144735984E+02  0.32084875253E+02 -0.32289686819E+03  0.34652867639E+03  0.83790228363E+02 0.  0.
         25    2    1    2    0    0 -0.11087898102E+03 -0.46639056536E+02  0.14417171515E+03  0.22561106942E+03  0.12508205773E+03 0.  0.
         24    2    1    2    0    0  0.22734245039E+02  0.14554181284E+02  0.39543139302E+03  0.40476507058E+03  0.82098146659E+02 0.  0.
        -11    1    5    5    0    0  0.12229884452E+02  0.93713826818E+00  0.39211068985E+01  0.12877242762E+02  0.00000000000E+00 0.  1.
         12    1    5    5    0    0  0.10504360587E+02  0.13617043015E+02  0.39151028612E+03  0.39188782782E+03  0.00000000000E+00 0. -1.
         13    1    3    3    0    0  0.54034094555E+02 -0.19645974761E+02 -0.10181301136E+03  0.11692534789E+03  0.00000000000E+00 0. -1.
        -14    1    3    3    0    0  0.34110641429E+02  0.51730850014E+02 -0.22108385684E+03  0.22960332850E+03  0.00000000000E+00 0.  1.
          5    1    4    4  501    0 -0.97795449333E+02 -0.25426393315E+02  0.16455212533E+03  0.19314586648E+03  0.41800000000E+01 0. -1.
         -5    1    4    4    0  501 -0.13083531690E+02 -0.21212663221E+02 -0.20380410180E+02  0.32465202934E+02  0.41800000000E+01 0. -1.
</event>
<event>
11    1  0.8328696E-009  0.1456924E+03  0.7561462E-02  0.1101363E+00
         22   -1    0    0    0    0  0.00000000000E+00  0.00000000000E+00  0.60579111228E+03  0.60579111228E+03  0.00000000000E+00 0.  1.
         22   -1    0    0    0    0 -0.00000000000E+00 -0.00000000000E+00 -0.11312063939E+03  0.11312063939E+03  0.00000000000E+00 0.  1.
        -24    2    1    2    0    0  0.52390019866E+02  0.47065826396E+02 -0.43054601066E+02  0.11856311367E+03  0.85109382887E+02 0.  0.
         25    2    1    2    0    0 -0.74727590734E+02 -0.70894237970E+02  0.22229828754E+03  0.27508262299E+03  0.12507483773E+03 0.  0.
         24    2    1    2    0    0  0.22337570868E+02  0.23828411575E+02  0.31342678642E+03  0.32526601500E+03  0.80590755043E+02 0.  0.
        -13    1    5    5    0    0  0.17644413716E+02  0.53190863934E+02  0.22894326365E+03  0.23570237867E+03  0.00000000000E+00 0.  1.
         14    1    5    5    0    0  0.46931571525E+01 -0.29362452360E+02  0.84483522776E+02  0.89563636334E+02  0.00000000000E+00 0. -1.
         11    1    3    3    0    0  0.31168239926E+02 -0.87461711397E+01  0.14643882621E+02  0.35530240471E+02  0.00000000000E+00 0. -1.
        -12    1    3    3    0    0  0.21221779940E+02  0.55811997535E+02 -0.57698483687E+02  0.83032873204E+02  0.00000000000E+00 0.  1.
          5    1    4    4  501    0 -0.95201824898E+02 -0.68519113400E+02  0.22510398035E+03  0.25386518220E+03  0.41800000000E+01 0. -1.
         -5    1    4    4    0  501  0.20474234164E+02 -0.23751245707E+01 -0.28056928136E+01  0.21217440785E+02  0.41800000000E+01 0. -1.
</event>
<event>
11    1  0.8328696E-009  0.1424712E+03  0.7561462E-02  0.1104830E+00
         22   -1    0    0    0    0  0.00000000000E+00  0.00000000000E+00  0.84820812513E+03  0.84820812513E+03  0.00000000000E+00 0.  1.
         22   -1    0    0    0    0 -0.00000000000E+00 -0.00000000000E+00 -0.28687114068E+03  0.28687114068E+03  0.00000000000E+00 0. -1.
         24    2    1    2    0    0  0.37927679668E+02 -0.55903505050E+02 -0.25130549461E+03  0.27230223404E+03  0.80189427466E+02 0.  0.
         25    2    1    2    0    0 -0.78202951251E+01  0.99214261776E+02  0.28880689293E+03  0.33009305330E+03  0.12508947070E+03 0.  0.
        -24    2    1    2    0    0 -0.30107384543E+02 -0.43310756726E+02  0.52383558613E+03  0.53268397846E+03  0.81032236541E+02 0.  0.
        -11    1    3    3    0    0  0.18193243406E+02 -0.12586531147E+02 -0.67098545170E+01  0.23117893927E+02  0.00000000000E+00 0.  1.
         12    1    3    3    0    0  0.19734436262E+02 -0.43316973903E+02 -0.24459564009E+03  0.24918434011E+03  0.00000000000E+00 0. -1.
         13    1    5    5    0    0 -0.48410416918E+02 -0.56172833654E+02  0.41498910294E+03  0.42156246426E+03  0.00000000000E+00 0. -1.
        -14    1    5    5    0    0  0.18303032375E+02  0.12862076928E+02  0.10884648319E+03  0.11112151421E+03  0.00000000000E+00 0.  1.
          5    1    4    4  501    0  0.41814620263E+02  0.17484612035E+02  0.30938203126E+02  0.55034706671E+02  0.41800000000E+01 0. -1.
         -5    1    4    4    0  501 -0.49634915388E+02  0.81729649741E+02  0.25786868980E+03  0.27505834663E+03  0.41800000000E+01 0. -1.
</event>
<event>
11    1  0.8328696E-009  0.1510379E+03  0.7561462E-02  0.1095823E+00
         22   -1    0    0    0    0  0.00000000000E+00  0.00000000000E+00  0.35621193524E+03  0.35621193524E+03  0.00000000000E+00 0.  1.
         22   -1    0    0    0    0 -0.00000000000E+00 -0.00000000000E+00 -0.14372218563E+04  0.14372218563E+04  0.00000000000E+00 0. -1.
        -24    2    1    2    0    0 -0.59289541922E+02 -0.47994192295E+02 -0.88003181231E+03  0.88688844329E+03  0.79350033924E+02 0.  0.
         25    2    1    2    0    0  0.70258464225E+02  0.99787632204E+02 -0.53301210992E+03  0.56093123812E+03  0.12509245081E+03 0.  0.
         24    2    1    2    0    0 -0.10968922303E+02 -0.51793439909E+02  0.33203400122E+03  0.34561411008E+03  0.79997858988E+02 0.  0.
        -11    1    5    5    0    0 -0.45080150698E+02 -0.20926321329E+02  0.16056426512E+03  0.16808038001E+03  0.00000000000E+00 0.  1.
         12    1    5    5    0    0  0.34111228395E+02 -0.30867118580E+02  0.17146973610E+03  0.17753373007E+03  0.00000000000E+00 0. -1.
         11    1    3    3    0    0 -0.78805437836E+02 -0.42966949244E+02 -0.69947553349E+03  0.70521094554E+03  0.00000000000E+00 0. -1.
        -12    1    3    3    0    0  0.19515895914E+02 -0.50272430513E+01 -0.18055627882E+03  0.18167749775E+03  0.00000000000E+00 0.  1.
          5    1    4    4  501    0 -0.14809559872E+02 -0.61732063314E+01 -0.76415801551E+01  0.18256442350E+02  0.41800000000E+01 0. -1.
         -5    1    4    4    0  501  0.85068024097E+02  0.10596083854E+03 -0.52537052976E+03  0.54267479577E+03  0.41800000000E+01 0. -1.
</event>
<event>
11    1  0.8328696E-009  0.1709750E+03  0.7561462E-02  0.1077186E+00
         22   -1    0    0    0    0  0.00000000000E+00  0.00000000000E+00  0.74599415090E+03  0.74599415090E+03  0.00000000000E+00 0. -1.
         22   -1    0    0    0    0 -0.00000000000E+00 -0.00000000000E+00 -0.36830824906E+04  0.36830824906E+04  0.00000000000E+00 0. -1.
         24    2    1    2    0    0  0.11085866100E+02  0.11563512669E+03 -0.36068197032E+04  0.36095819184E+04  0.80242604071E+02 0.  0.
         25    2    1    2    0    0 -0.42898079317E+02 -0.15395364359E+03  0.74822207917E+02  0.21630597601E+03  0.12509173785E+03 0.  0.
        -24    2    1    2    0    0  0.31812213217E+02  0.38318516900E+02  0.59490915554E+03  0.60318874710E+03  0.86252163073E+02 0.  0.
        -13    1    3    3    0    0 -0.28699572380E+02  0.52595621172E+02 -0.10780657712E+04  0.10797294901E+04  0.00000000000E+00 0.  1.
         14    1    3    3    0    0  0.39785438481E+02  0.63039505517E+02 -0.25287539320E+04  0.25298524283E+04  0.00000000000E+00 0. -1.
         13    1    5    5    0    0  0.38180850378E+02  0.33073458468E+02  0.59242184393E+03  0.59457150298E+03  0.00000000000E+00 0. -1.
        -14    1    5    5    0    0 -0.63686371608E+01  0.52450584315E+01  0.24873116158E+01  0.86172441250E+01  0.00000000000E+00 0.  1.
          5    1    4    4  501    0 -0.43896036006E+02 -0.15246126576E+03  0.10205867692E+03  0.18869219769E+03  0.41800000000E+01 0. -1.
         -5    1    4    4    0  501  0.99795668899E+00 -0.14923778274E+01 -0.27236469006E+02  0.27613778319E+02  0.41800000000E+01 0. -1.
</event>
<event>
11    1  0.8328696E-009  0.1444921E+03  0.7561462E-02  0.1102643E+00
         22   -1    0    0    0    0  0.00000000000E+00  0.00000000000E+00  0.95889917445E+02  0.95889917445E+02  0.00000000000E+00 0. -1.
         22   -1    0    0    0    0 -0.00000000000E+00 -0.00000000000E+00 -0.52433663839E+03  0.52433663839E+03  0.00000000000E+00 0.  1.
         24    2    1    2    0    0  0.54539755841E+02 -0.39258199994E+02 -0.32995320981E+03  0.34591926054E+03  0.79216304609E+02 0.  0.
         25    2    1    2    0    0 -0.68484599667E+02  0.79928704886E+02 -0.92204610517E+02  0.18769476580E+03  0.12509555009E+03 0.  0.
        -24    2    1    2    0    0  0.13944843826E+02 -0.40670504893E+02 -0.62889006212E+01  0.86612529498E+02  0.74924170716E+02 0.  0.
        -13    1    3    3    0    0  0.69168736766E+02 -0.24055589685E+02 -0.30281679629E+03  0.31154614050E+03  0.00000000000E+00 0.  1.
         14    1    3    3    0    0 -0.14628980925E+02 -0.15202610308E+02 -0.27136413514E+02  0.34373120043E+02  0.00000000000E+00 0. -1.
         11    1    5    5    0    0 -0.49261295414E+01 -0.13712517077E+02  0.32577036557E+02  0.35687017075E+02  0.00000000000E+00 0. -1.
        -12    1    5    5    0    0  0.18870973367E+02 -0.26957987815E+02 -0.38865937178E+02  0.50925512424E+02  0.00000000000E+00 0.  1.
          5    1    4    4  501    0  0.28588756420E+02  0.42244392497E+02 -0.43059985478E+01  0.51360682575E+02  0.41800000000E+01 0.  1.
         -5    1    4    4    0  501 -0.97073356087E+02  0.37684312389E+02 -0.87898611969E+02  0.13633408322E+03  0.41800000000E+01 0.  1.
</event>
<event>
11    1  0.8328696E-009  0.1634386E+03  0.7561462E-02  0.1083887E+00
         22   -1    0    0    0    0  0.00000000000E+00  0.00000000000E+00  0.79097854803E+03  0.79097854803E+03  0.00000000000E+00 0. -1.
         22   -1    0    0    0    0 -0.00000000000E+00 -0.00000000000E+00 -0.25689446824E+03  0.25689446824E+03  0.00000000000E+00 0. -1.
        -24    2    1    2    0    0 -0.34985694690E+02 -0.41507150487E+02 -0.97577722404E+02  0.13549435719E+03  0.76749374899E+02 0.  0.
         25    2    1    2    0    0  0.79729355901E+02  0.13416022278E+03 -0.59714145500E+02  0.20873029957E+03  0.12508726240E+03 0.  0.
         24    2    1    2    0    0 -0.44743661211E+02 -0.92653072297E+02  0.69137594769E+03  0.70364835951E+03  0.80831465254E+02 0.  0.
        -11    1    5    5    0    0  0.12592650661E+02  0.46140444309E+01  0.15147557810E+03  0.15206812624E+03  0.00000000000E+00 0.  1.
         12    1    5    5    0    0 -0.57336311872E+02 -0.97267116727E+02  0.53990036958E+03  0.55158023327E+03  0.00000000000E+00 0. -1.
         13    1    3    3    0    0 -0.54394589585E+02 -0.15669203657E+02 -0.39481107454E+02  0.69014876405E+02  0.00000000000E+00 0. -1.
        -14    1    3    3    0    0  0.19408894894E+02 -0.25837946831E+02 -0.58096614950E+02  0.66479480790E+02  0.00000000000E+00 0.  1.
          5    1    4    4  501    0 -0.29280983095E+02  0.30369047992E+02  0.88043755204E+01  0.43297164749E+02  0.41800000000E+01 0. -1.
         -5    1    4    4    0  501  0.10901033900E+03  0.10379117479E+03 -0.68518521021E+02  0.16543313482E+03  0.41800000000E+01 0. -1.
</event>
<event>
11    1  0.8328696E-009  0.1418862E+03  0.7561462E-02  0.1105470E+00
         22   -1    0    0    0    0  0.00000000000E+00  0.00000000000E+00  0.96091508200E+03  0.96091508200E+03  0.00000000000E+00 0.  1.
         22   -1    0    0    0    0 -0.00000000000E+00 -0.00000000000E+00 -0.32792232933E+03  0.32792232933E+03  0.00000000000E+00 0.  1.
        -24    2    1    2    0    0 -0.64178728833E+02 -0.33673596768E+02 -0.26067370239E+03  0.28264967733E+03  0.81775550299E+02 0.  0.
         25    2    1    2    0    0  0.13644358915E+02  0.32193618776E+02  0.24930956224E+02  0.13225888801E+03  0.12509301843E+03 0.  0.
         24    2    1    2    0    0  0.50534369918E+02  0.14799779922E+01  0.86873549884E+03  0.87392884598E+03  0.80587517787E+02 0.  0.
        -13    1    5    5    0    0 -0.46279528789E+00 -0.15467308858E+02  0.58171735772E+03  0.58192313590E+03  0.00000000000E+00 0.  1.
         14    1    5    5    0    0  0.50997165206E+02  0.16947286851E+02  0.28701814112E+03  0.29200571008E+03  0.00000000000E+00 0. -1.
         13    1    3    3    0    0  0.66638451052E+01  0.89994246407E+01 -0.23924966138E+01  0.11450786676E+02  0.00000000000E+00 0. -1.
        -14    1    3    3    0    0 -0.70842573938E+02 -0.42673021409E+02 -0.25828120577E+03  0.27119889066E+03  0.00000000000E+00 0.  1.
          5    1    4    4  501    0  0.39108661438E+02  0.42630972312E+02 -0.33894188900E+02  0.67180172975E+02  0.41800000000E+01 0.  1.
         -5    1    4    4    0  501 -0.25464302523E+02 -0.10437353536E+02  0.58825145124E+02  0.65078715035E+02  0.41800000000E+01 0.  1.
</event>
<event>
11    1  0.8328696E-009  0.1639588E+03  0.7561462E-02  0.1083412E+00
         22   -1    0    0    0    0  0.00000000000E+00  0.00000000000E+00  0.24038201882E+03  0.24038201882E+03  0.00000000000E+00 0. -1.
         22   -1    0    0    0    0 -0.00000000000E+00 -0.00000000000E+00 -0.59321122707E+03  0.59321122707E+03  0.00000000000E+00 0.  1.
         24    2    1    2    0    0 -0.16947413479E+02  0.12766301457E+02 -0.41221132443E+03  0.42019714877E+03  0.78722770339E+02 0.  0.
         25    2    1    2    0    0  0.97251208328E+01 -0.11692530361E+03 -0.10554217148E+03  0.20138863192E+03  0.12510845898E+03 0.  0.
        -24    2    1    2    0    0  0.72222926465E+01  0.10415900215E+03  0.16492428766E+03  0.21200746520E+03  0.82739865843E+02 0.  0.
        -13    1    3    3    0    0 -0.43654951303E+02  0.26869113056E+02 -0.26761524749E+03  0.27248050333E+03  0.00000000000E+00 0.  1.
         14    1    3    3    0    0  0.26707537824E+02 -0.14102811599E+02 -0.14459607695E+03  0.14771664544E+03  0.00000000000E+00 0. -1.
         13    1    5    5    0    0 -0.31474061802E+02  0.79207852373E+02  0.12360776152E+03  0.15014452754E+03  0.00000000000E+00 0. -1.
        -14    1    5    5    0    0  0.38696354448E+02  0.24951149775E+02  0.41316526141E+02  0.61862937653E+02  0.00000000000E+00 0.  1.
          5    1    4    4  501    0  0.27077856546E+02 -0.38366389672E+01  0.17959062257E+02  0.32983790425E+02  0.41800000000E+01 0. -1.
         -5    1    4    4    0  501 -0.17352735713E+02 -0.11308866464E+03 -0.12350123373E+03  0.16840484150E+03  0.41800000000E+01 0. -1.
</event>
<event>
11    1  0.8328696E-009  0.1459263E+03  0.7561462E-02  0.1101115E+00
         22   -1    0    0    0    0  0.00000000000E+00  0.00000000000E+00  0.80605888172E+03  0.80605888172E+03  0.00000000000E+00 0. -1.
         22   -1    0    0    0    0 -0.00000000000E+00 -0.00000000000E+00 -0.38678871335E+03  0.38678871335E+03  0.00000000000E+00 0.  1.
        -24    2    1    2    0    0 -0.69917287299E+02  0.25433259710E+02 -0.34263492348E+03  0.36022535985E+03  0.82633778352E+02 0.  0.
         25    2    1    2    0    0  0.72623113752E+02 -0.72513745870E+02  0.17475090331E+03  0.23814370142E+03  0.12506871844E+03 0.  0.
         24    2    1    2    0    0 -0.27058264530E+01  0.47080486161E+02  0.58715418854E+03  0.59447853379E+03  0.80192221192E+02 0.  0.
        -11    1    5    5    0    0  0.28729504064E+02 -0.19185659096E+01  0.30653621275E+03  0.30788555508E+03  0.00000000000E+00 0.  1.
         12    1    5    5    0    0 -0.31435330517E+02  0.48999052070E+02  0.28061797579E+03  0.28659297871E+03  0.00000000000E+00 0. -1.
         13    1    3    3    0    0  0.90356653858E+01  0.22140099144E+02 -0.33556532220E+02  0.41205194984E+02  0.00000000000E+00 0. -1.
        -14    1    3    3    0    0 -0.78952952685E+02  0.32931605661E+01 -0.30907839126E+03  0.31902016486E+03  0.00000000000E+00 0.  1.
          5    1    4    4  501    0  0.55387867510E+02  0.53312810273E+01  0.12309709398E+02  0.57142276558E+02  0.41800000000E+01 0. -1.
         -5    1    4    4    0  501  0.17235246241E+02 -0.77845026898E+02  0.16244119391E+03  0.18100142487E+03  0.41800000000E+01 0. -1.
</event>
<event>
11    1  0.8328696E-009  0.1588277E+03  0.7561462E-02  0.1088185E+00
         22   -1    0    0    0    0  0.00000000000E+00  0.00000000000E+00  0.36386505062E+03  0.36386505062E+03  0.00000000000E+00 0.  1.
         22   -1    0    0    0    0 -0.00000000000E+00 -0.00000000000E+00 -0.14332725462E+04  0.14332725462E+04  0.00000000000E+00 0. -1.
         24    2    1    2    0    0  0.14222630914E+02 -0.24012101306E+02 -0.13193092661E+04  0.13220493335E+04  0.80365641152E+02 0.  0.
         25    2    1    2    0    0  0.72260820501E+02  0.70015094117E+02 -0.32540846848E+02  0.16380652560E+03  0.12509968638E+03 0.  0.
        -24    2    1    2    0    0 -0.86483451415E+02 -0.46002992810E+02  0.28244261738E+03  0.31128173774E+03  0.86757278798E+02 0.  0.
        -13    1    3    3    0    0 -0.24888423114E+02 -0.34348370857E+02 -0.52509857017E+03  0.52680902857E+03  0.00000000000E+00 0.  1.
         14    1    3    3    0    0  0.39111054028E+02  0.10336269551E+02 -0.79421069598E+03  0.79524030495E+03  0.00000000000E+00 0. -1.
         11    1    5    5    0    0 -0.43686545062E+02 -0.13224637488E+01  0.34346224118E+02  0.55587104988E+02  0.00000000000E+00 0. -1.
        -12    1    5    5    0    0 -0.42796906354E+02 -0.44680529062E+02  0.24809639326E+03  0.25569463276E+03  0.00000000000E+00 0.  1.
          5    1    4    4  501    0 -0.52290867470E+01  0.17626064269E+01  0.38035466842E+02  0.38660306097E+02  0.41800000000E+01 0.  1.
         -5    1    4    4    0  501  0.77489907248E+02  0.68252487690E+02 -0.70576313690E+02  0.12514621950E+03  0.41800000000E+01 0.  1.
</event>
<event>
11    1  0.8328696E-009  0.1617116E+03  0.7561462E-02  0.1085478E+00
         22   -1    0    0    0    0  0.00000000000E+00  0.00000000000E+00  0.13773870991E+04  0.13773870991E+04  0.00000000000E+00 0. -1.
         22   -1    0    0    0    0 -0.00000000000E+00 -0.00000000000E+00 -0.49181557253E+02  0.49181557253E+02  0.00000000000E+00 0. -1.
        -24    2    1    2    0    0  0.11318691574E+03  0.30784880135E+01  0.15688967206E+03  0.20903314699E+03  0.79118470404E+02 0.  0.
         25    2    1    2    0    0 -0.59330515455E+02 -0.10161820276E+03  0.42166875215E+03  0.45530043199E+03  0.12509027795E+03 0.  0.
         24    2    1    2    0    0 -0.53856400288E+02  0.98539714745E+02  0.74964711767E+03  0.76223507739E+03  0.80130674220E+02 0.  0.
        -13    1    5    5    0    0 -0.28189588688E+02  0.25997605600E+02  0.48808206610E+03  0.48958618410E+03  0.00000000000E+00 0.  1.
         14    1    5    5    0    0 -0.25666811600E+02  0.72542109145E+02  0.26156505156E+03  0.27264889330E+03  0.00000000000E+00 0. -1.
         11    1    3    3    0    0  0.11242622544E+03 -0.16383756875E+02  0.15042892409E+03  0.18851245280E+03  0.00000000000E+00 0. -1.
        -12    1    3    3    0    0  0.76069029969E+00  0.19462244888E+02  0.64607479630E+01  0.20520694191E+02  0.00000000000E+00 0.  1.
          5    1    4    4  501    0 -0.15854022273E+02 -0.97151713086E+02  0.38703788125E+03  0.39938152098E+03  0.41800000000E+01 0.  1.
         -5    1    4    4    0  501 -0.43476493182E+02 -0.44664896729E+01  0.34630870897E+02  0.55918911010E+02  0.41800000000E+01 0.  1.
</event>
<event>
11    1  0.8328696E-009  0.1522714E+03  0.7561462E-02  0.1094580E+00
         22   -1    0    0    0    0  0.00000000000E+00  0.00000000000E+00  0.40640654185E+03  0.40640654185E+03  0.00000000000E+00 0. -1.
         22   -1    0    0    0    0 -0.00000000000E+00 -0.00000000000E+00 -0.12876233649E+04  0.12876233649E+04  0.00000000000E+00 0.  1.
        -24    2    1    2    0    0  0.43198368925E+01  0.55726936465E+02 -0.86020893186E+03  0.86562691079E+03  0.78907476181E+02 0.  0.
         25    2    1    2    0    0 -0.34559769053E+02 -0.13588983650E+03 -0.39437315321E+03  0.43685046362E+03  0.12509084017E+03 0.  0.
         24    2    1    2    0    0  0.30239932160E+02  0.80162900036E+02  0.37336526206E+03  0.39155253229E+03  0.81063077823E+02 0.  0.
        -11    1    5    5    0    0 -0.24217624506E+02  0.46355356645E+02  0.13678104818E+03  0.14643895509E+03  0.00000000000E+00 0.  1.
         12    1    5    5    0    0  0.54457556667E+02  0.33807543390E+02  0.23658421389E+03  0.24511357720E+03  0.00000000000E+00 0. -1.
         11    1    3    3    0    0  0.28268837839E+02 -0.73619598676E+01 -0.25589727574E+03  0.25755919975E+03  0.00000000000E+00 0. -1.
        -12    1    3    3    0    0 -0.23949000946E+02  0.63088896332E+02 -0.60431165612E+03  0.60806771104E+03  0.00000000000E+00 0.  1.
          5    1    4    4  501    0 -0.50167806292E+02 -0.94796181024E+02 -0.12893308088E+03  0.16776273862E+03  0.41800000000E+01 0.  1.
         -5    1    4    4    0  501  0.15608037239E+02 -0.41093655476E+02 -0.26544007234E+03  0.26908772500E+03  0.41800000000E+01 0.  1.
</event>
<event>
11    1  0.8328696E-009  0.1346336E+03  0.7561462E-02  0.1113703E+00
         22   -1    0    0    0    0  0.00000000000E+00  0.00000000000E+00  0.95887551214E+02  0.95887551214E+02  0.00000000000E+00 0. -1.
         22   -1    0    0    0    0 -0.00000000000E+00 -0.00000000000E+00 -0.11525877688E+04  0.11525877688E+04  0.00000000000E+00 0.  1.
        -24    2    1    2    0    0  0.17534754075E+00  0.22723834818E+02 -0.99009671137E+03  0.99361441979E+03  0.80384786658E+02 0.  0.
         25    2    1    2    0    0  0.47076475043E+02 -0.32645256402E+02 -0.79140281412E+02  0.15872064774E+03  0.12508857905E+03 0.  0.
         24    2    1    2    0    0 -0.47251822584E+02  0.99214215843E+01  0.12536775219E+02  0.96140252468E+02  0.82186422650E+02 0.  0.
        -13    1    5    5    0    0 -0.24307226434E+02  0.35034435398E+02 -0.21728112540E+02  0.47857745404E+02  0.00000000000E+00 0.  1.
         14    1    5    5    0    0 -0.22944596150E+02 -0.25113013813E+02  0.34264887759E+02  0.48282507064E+02  0.00000000000E+00 0. -1.
         11    1    3    3    0    0  0.17823799037E+02 -0.18909105945E+02 -0.14508646956E+03  0.14739513475E+03  0.00000000000E+00 0. -1.
        -12    1    3    3    0    0 -0.17648451497E+02  0.41632940763E+02 -0.84501024181E+03  0.84621928503E+03  0.00000000000E+00 0.  1.
          5    1    4    4  501    0 -0.34356011480E+02  0.18889612570E+02 -0.12071035034E+02  0.41235121858E+02  0.41800000000E+01 0.  1.
         -5    1    4    4    0  501  0.81432486523E+02 -0.51534868972E+02 -0.67069246378E+02  0.11748552588E+03  0.41800000000E+01 0.  1.
</event>
<event>
11    1  0.8328696E-009  0.1382814E+03  0.7561462E-02  0.1109493E+00
         22   -1    0    0    0    0  0.00000000000E+00  0.00000000000E+00  0.24286855525E+03  0.24286855525E+03  0.00000000000E+00 0. -1.
         22   -1    0    0    0    0 -0.00000000000E+00 -0.00000000000E+00 -0.10463467903E+04  0.10463467903E+04  0.00000000000E+00 0.  1.
        -24    2    1    2    0    0 -0.50511566289E+02 -0.27464755410E+02 -0.96289448384E+03  0.96789881088E+03  0.79728225740E+02 0.  0.
         25    2    1    2    0    0 -0.11967180438E+02  0.48958640531E+02  0.52785309745E+01  0.13496068864E+03  0.12508542160E+03 0.  0.
         24    2    1    2    0    0  0.62478746727E+02 -0.21493885122E+02  0.15413771780E+03  0.18635584605E+03  0.81267979041E+02 0.  0.
        -11    1    5    5    0    0  0.43245134052E+02  0.22913359413E+02  0.43032190402E+02  0.65168497525E+02  0.00000000000E+00 0.  1.
         12    1    5    5    0    0  0.19233612675E+02 -0.44407244535E+02  0.11110552740E+03  0.12118734852E+03  0.00000000000E+00 0. -1.
         13    1    3    3    0    0 -0.16932937743E+01  0.25793809432E+02 -0.22743551060E+03  0.22889975826E+03  0.00000000000E+00 0. -1.
        -14    1    3    3    0    0 -0.48818272515E+02 -0.53258564841E+02 -0.73545897323E+03  0.73899905262E+03  0.00000000000E+00 0.  1.
          5    1    4    4  501    0  0.16840061762E+02 -0.38427886585E+02  0.75067182191E+01  0.42826549779E+02  0.41800000000E+01 0. -1.
         -5    1    4    4    0  501 -0.28807242200E+02  0.87386527117E+02 -0.22281872446E+01  0.92134138858E+02  0.41800000000E+01 0. -1.
</event>
<event>
11    1  0.8328696E-009  0.1926062E+03  0.7561462E-02  0.1059879E+00
         22   -1    0    0    0    0  0.00000000000E+00  0.00000000000E+00  0.25826883474E+04  0.25826883474E+04  0.00000000000E+00 0. -1.
         22   -1    0    0    0    0 -0.00000000000E+00 -0.00000000000E+00 -0.14038741930E+03  0.14038741930E+03  0.00000000000E+00 0. -1.
        -24    2    1    2    0    0  0.60807312293E+02  0.33340415922E+02 -0.61630764062E+02  0.12050175632E+03  0.76897396807E+02 0.  0.
         25    2    1    2    0    0  0.74918854689E+02  0.32154724343E+02  0.74104417288E+02  0.16669394644E+03  0.12509454838E+03 0.  0.
         24    2    1    2    0    0 -0.13572616698E+03 -0.65495140265E+02  0.24298272749E+04  0.24358800639E+04  0.82096859307E+02 0.  0.
        -13    1    5    5    0    0 -0.21711329999E+02 -0.23679376389E+02  0.18488039500E+03  0.18765088641E+03  0.00000000000E+00 0.  1.
         14    1    5    5    0    0 -0.11401483698E+03 -0.41815763876E+02  0.22449468799E+04  0.22482291775E+04  0.00000000000E+00 0. -1.
         13    1    3    3    0    0 -0.11496949681E+02  0.66875101323E+01 -0.37442187457E+02  0.39734368566E+02  0.00000000000E+00 0. -1.
        -14    1    3    3    0    0  0.72304261975E+02  0.26652905790E+02 -0.24188576605E+02  0.80767387756E+02  0.00000000000E+00 0.  1.
          5    1    4    4  501    0  0.10948167314E+03  0.27359886225E+02  0.65368704840E+02  0.13048118676E+03  0.41800000000E+01 0. -1.
         -5    1    4    4    0  501 -0.34562818447E+02  0.47948381183E+01  0.87357124486E+01  0.36212759679E+02  0.41800000000E+01 0. -1.
</event>
<event>
11    1  0.8328696E-009  0.2967224E+03  0.7561462E-02  0.1001588E+00
         22   -1    0    0    0    0  0.00000000000E+00  0.00000000000E+00  0.44986416471E+03  0.44986416471E+03  0.00000000000E+00 0. -1.
         22   -1    0    0    0    0 -0.00000000000E+00 -0.00000000000E+00 -0.97952502681E+03  0.97952502681E+03  0.00000000000E+00 0. -1.
         24    2    1    2    0    0 -0.39091184004E+02 -0.27441826337E+02 -0.71372367639E+03  0.71966555500E+03  0.78967400308E+02 0.  0.
         25    2    1    2    0    0  0.15332165277E+03 -0.21800420895E+03 -0.98245490886E+02  0.31037905465E+03  0.12509842828E+03 0.  0.
        -24    2    1    2    0    0 -0.11423046877E+03  0.24544603528E+03  0.28230830518E+03  0.39934458187E+03  0.80534214272E+02 0.  0.
        -13    1    3    3    0    0  0.18355809441E+02  0.86837460998E+01 -0.90071428242E+02  0.92332038709E+02  0.00000000000E+00 0.  1.
         14    1    3    3    0    0 -0.57446993445E+02 -0.36125572437E+02 -0.62365224815E+03  0.62733351629E+03  0.00000000000E+00 0. -1.
         11    1    5    5    0    0  0.78997355621E+01  0.46798580836E+02  0.65893357375E+02  0.81206203805E+02  0.00000000000E+00 0. -1.
        -12    1    5    5    0    0 -0.12213020433E+03  0.19864745445E+03  0.21641494780E+03  0.31813837807E+03  0.00000000000E+00 0.  1.
          5    1    4    4  501    0  0.12181348626E+03 -0.99088261911E+02 -0.10189369912E+03  0.18723463196E+03  0.41800000000E+01 0.  1.
         -5    1    4    4    0  501  0.31508166505E+02 -0.11891594703E+03  0.36482082352E+01  0.12314442269E+03  0.41800000000E+01 0.  1.
</event>
<event>
11    1  0.8328696E-009  0.1553592E+03  0.7561462E-02  0.1091525E+00
         22   -1    0    0    0    0  0.00000000000E+00  0.00000000000E+00  0.32191886515E+04  0.32191886515E+04  0.00000000000E+00 0.  1.
         22   -1    0    0    0    0 -0.00000000000E+00 -0.00000000000E+00 -0.27899540437E+03  0.27899540437E+03  0.00000000000E+00 0.  1.
        -24    2    1    2    0    0  0.22593933039E+02 -0.44108214566E+01 -0.25667039884E+03  0.27020240654E+03  0.81238572749E+02 0.  0.
         25    2    1    2    0    0  0.70101023914E+02 -0.11670837337E+02  0.34934140896E+03  0.37780973034E+03  0.12510160003E+03 0.  0.
         24    2    1    2    0    0 -0.92694956953E+02  0.16081658793E+02  0.28475222370E+04  0.28501719190E+04  0.79032288867E+02 0.  0.
        -11    1    5    5    0    0 -0.87847563950E+02  0.38331302530E+02  0.25400075156E+04  0.25418152299E+04  0.00000000000E+00 0.  1.
         12    1    5    5    0    0 -0.48473930037E+01 -0.22249643737E+02  0.30751472134E+03  0.30835668909E+03  0.00000000000E+00 0. -1.
         13    1    3    3    0    0  0.42247572742E+02  0.18627493624E+01 -0.65781332597E+02  0.78201732436E+02  0.00000000000E+00 0. -1.
        -14    1    3    3    0    0 -0.19653639703E+02 -0.62735708190E+01 -0.19088906625E+03  0.19200067411E+03  0.00000000000E+00 0.  1.
          5    1    4    4  501    0 -0.35278081642E+02 -0.14239777520E+02  0.99710767946E+02  0.10680367013E+03  0.41800000000E+01 0. -1.
         -5    1    4    4    0  501  0.10537910556E+03  0.25689401832E+01  0.24963064101E+03  0.27100606021E+03  0.41800000000E+01 0. -1.
</event>
<event>
11    1  0.8328696E-009  0.1647017E+03  0.7561462E-02  0.1082737E+00
         22   -1    0    0    0    0  0.00000000000E+00  0.00000000000E+00  0.18410722811E+04  0.18410722811E+04  0.00000000000E+00 0.  1.
         22   -1    0    0    0    0 -0.00000000000E+00 -0.00000000000E+00 -0.65767917447E+03  0.65767917447E+03  0.00000000000E+00 0.  1.
         24    2    1    2    0    0  0.40784517116E+02 -0.15227467969E+01 -0.61800729324E+03  0.62449010946E+03  0.79932388464E+02 0.  0.
         25    2    1    2    0    0 -0.13762249666E+03  0.39843942515E+02  0.23558059357E+03  0.30277518965E+03  0.12508840098E+03 0.  0.
        -24    2    1    2    0    0  0.96837979542E+02 -0.38321195718E+02  0.15658198063E+04  0.15714861565E+04  0.83252422514E+02 0.  0.
        -13    1    3    3    0    0  0.27476844942E+02 -0.39017780576E+02 -0.26657776329E+03  0.27081556101E+03  0.00000000000E+00 0.  1.
         14    1    3    3    0    0  0.13307672174E+02  0.37495033779E+02 -0.35142952995E+03  0.35367454844E+03  0.00000000000E+00 0. -1.
         11    1    5    5    0    0  0.95321651222E+02 -0.20155637869E+02  0.87184877015E+03  0.87727575194E+03  0.00000000000E+00 0. -1.
        -12    1    5    5    0    0  0.15163283194E+01 -0.18165557848E+02  0.69397103616E+03  0.69421040454E+03  0.00000000000E+00 0.  1.
          5    1    4    4  501    0  0.14288167203E+02  0.16775680566E+02  0.11648813497E+01  0.22458952091E+02  0.41800000000E+01 0.  1.
         -5    1    4    4    0  501 -0.15191066386E+03  0.23068261948E+02  0.23441571222E+03  0.28031623756E+03  0.41800000000E+01 0.  1.
</event>
<event>
11    1  0.8328696E-009  0.1514632E+03  0.7561462E-02  0.1095393E+00
         22   -1    0    0    0    0  0.00000000000E+00  0.00000000000E+00  0.45472967683E+03  0.45472967683E+03  0.00000000000E+00 0. -1.
         22   -1    0    0    0    0 -0.00000000000E+00 -0.00000000000E+00 -0.39477417427E+04  0.39477417427E+04  0.00000000000E+00 0. -1.
         24    2    1    2    0    0  0.84649492908E+02 -0.78873020969E+01 -0.38058645158E+04  0.38075915609E+04  0.76948269695E+02 0.  0.
         25    2    1    2    0    0 -0.10710544499E+03  0.12941791434E+02 -0.86065894645E+02  0.18626282198E+03  0.12508970508E+03 0.  0.
        -24    2    1    2    0    0  0.22455952082E+02 -0.50544893376E+01  0.39891834454E+03  0.40861703664E+03  0.85453024361E+02 0.  0.
        -11    1    3    3    0    0 -0.86124021802E+01 -0.11247198874E+02 -0.19182481649E+03  0.19234716836E+03  0.00000000000E+00 0.  1.
         12    1    3    3    0    0  0.93261895088E+02  0.33598967771E+01 -0.36140396993E+04  0.36152443926E+04  0.00000000000E+00 0. -1.
         11    1    5    5    0    0  0.51240441550E+02 -0.18849142090E+02  0.29098957275E+03  0.29606722962E+03  0.00000000000E+00 0. -1.
        -12    1    5    5    0    0 -0.28784489468E+02  0.13794652753E+02  0.10792877179E+03  0.11254980702E+03  0.00000000000E+00 0.  1.
          5    1    4    4  501    0 -0.45397939763E+02  0.68022760170E+02 -0.35706493254E+02  0.89333615713E+02  0.41800000000E+01 0.  1.
         -5    1    4    4    0  501 -0.61707505227E+02 -0.55080968736E+02 -0.50359401391E+02  0.96929206263E+02  0.41800000000E+01 0.  1.
</event>
<event>
11    1  0.8328696E-009  0.1833010E+03  0.7561462E-02  0.1067004E+00
         22   -1    0    0    0    0  0.00000000000E+00  0.00000000000E+00  0.15085728440E+04  0.15085728440E+04  0.00000000000E+00 0. -1.
         22   -1    0    0    0    0 -0.00000000000E+00 -0.00000000000E+00 -0.32988629999E+03  0.32988629999E+03  0.00000000000E+00 0. -1.
        -24    2    1    2    0    0 -0.33117268315E+02 -0.31055602888E+02 -0.30310968007E+03  0.31689693045E+03  0.80541805579E+02 0.  0.
         25    2    1    2    0    0 -0.70498914566E+02  0.11755898201E+03  0.69708446503E+03  0.72136314592E+03  0.12509126947E+03 0.  0.
         24    2    1    2    0    0  0.10361618288E+03 -0.86503379119E+02  0.78471175901E+03  0.80019906758E+03  0.79541530465E+02 0.  0.
        -11    1    5    5    0    0  0.57329140473E+02 -0.34894472021E+02  0.19089032191E+03  0.20234468000E+03  0.00000000000E+00 0.  1.
         12    1    5    5    0    0  0.46287042408E+02 -0.51608907098E+02  0.59382143710E+03  0.59785438758E+03  0.00000000000E+00 0. -1.
         13    1    3    3    0    0 -0.46103741945E+02 -0.21627149548E+02 -0.29413288614E+03  0.29850869892E+03  0.00000000000E+00 0. -1.
        -14    1    3    3    0    0  0.12986473630E+02 -0.94284533396E+01 -0.89767939280E+01  0.18388231534E+02  0.00000000000E+00 0.  1.
          5    1    4    4  501    0 -0.72245652362E+02  0.36571543583E+02  0.52374048860E+03  0.52997970139E+03  0.41800000000E+01 0. -1.
         -5    1    4    4    0  501  0.17467377955E+01  0.80987438424E+02  0.17334397643E+03  0.19138344453E+03  0.41800000000E+01 0. -1.
</event>
<event>
11    1  0.8328696E-009  0.1526983E+03  0.7561462E-02  0.1094153E+00
         22   -1    0    0    0    0  0.00000000000E+00  0.00000000000E+00  0.35173500499E+03  0.35173500499E+03  0.00000000000E+00 0. -1.
         22   -1    0    0    0    0 -0.00000000000E+00 -0.00000000000E+00 -0.66263314473E+03  0.66263314473E+03  0.00000000000E+00 0.  1.
         24    2    1    2    0    0  0.55185699009E+02 -0.64020954738E+02 -0.46719125988E+03  0.48136040823E+03  0.79347497029E+02 0.  0.
         25    2    1    2    0    0 -0.12370380078E+03  0.28478846801E+02 -0.13344626672E+03  0.22264195367E+03  0.12509140015E+03 0.  0.
        -24    2    1    2    0    0  0.68518101774E+02  0.35542107937E+02  0.28973938686E+03  0.31036578782E+03  0.80125141132E+02 0.  0.
        -11    1    3    3    0    0  0.52403634279E+02 -0.85211063171E+01 -0.31278774646E+03  0.31726160258E+03  0.00000000000E+00 0.  1.
         12    1    3    3    0    0  0.27820647307E+01 -0.55499848421E+02 -0.15440351342E+03  0.16409880565E+03  0.00000000000E+00 0. -1.
         11    1    5    5    0    0  0.59392872432E+02  0.14049798740E+02  0.27724596833E+03  0.28388419663E+03  0.00000000000E+00 0. -1.
        -12    1    5    5    0    0  0.91252293423E+01  0.21492309197E+02  0.12493418527E+02  0.26481591185E+02  0.00000000000E+00 0.  1.
          5    1    4    4  501    0 -0.14981651234E+02 -0.10567324497E+02  0.21989881442E+02  0.28933466895E+02  0.41800000000E+01 0.  1.
         -5    1    4    4    0  501 -0.10872214955E+03  0.39046171297E+02 -0.15543614816E+03  0.19370848678E+03  0.41800000000E+01 0.  1.
</event>
<event>
11    1  0.8328696E-009  0.2278802E+03  0.7561462E-02  0.1036390E+00
         22   -1    0    0    0    0  0.00000000000E+00  0.00000000000E+00  0.18645225560E+04  0.18645225560E+04  0.00000000000E+00 0.  1.
         22   -1    0    0    0    0 -0.00000000000E+00 -0.00000000000E+00 -0.22052653113E+04  0.22052653113E+04  0.00000000000E+00 0. -1.
         24    2    1    2    0    0 -0.10702576127E+02 -0.31967076002E+02 -0.19019930431E+04  0.19039783473E+04  0.80122232204E+02 0.  0.
         25    2    1    2    0    0  0.10683745284E+03 -0.13296511292E+03 -0.25867546065E+03  0.33414982544E+03  0.12509655996E+03 0.  0.
        -24    2    1    2    0    0 -0.96134876713E+02  0.16493218892E+03  0.18199257484E+04  0.18316596946E+04  0.80018533331E+02 0.  0.
        -11    1    3    3    0    0  0.53026621871E+01 -0.14345079685E+02 -0.62948242887E+02  0.64779478387E+02  0.00000000000E+00 0.  1.
         12    1    3    3    0    0 -0.16005238314E+02 -0.17621996317E+02 -0.18390448002E+04  0.18391988689E+04  0.00000000000E+00 0. -1.
         11    1    5    5    0    0 -0.25729711667E+02 -0.19487713643E+01  0.24294479234E+03  0.24431125209E+03  0.00000000000E+00 0. -1.
        -12    1    5    5    0    0 -0.70405165045E+02  0.16688096029E+03  0.15769809561E+04  0.15873484425E+04  0.00000000000E+00 0.  1.
          5    1    4    4  501    0  0.10401630488E+03 -0.12690420170E+03 -0.14150554223E+03  0.21671492559E+03  0.41800000000E+01 0. -1.
         -5    1    4    4    0  501  0.28211479602E+01 -0.60609112205E+01 -0.11716991842E+03  0.11743489986E+03  0.41800000000E+01 0. -1.
</event>
<event>
11    1  0.8328696E-009  0.4541499E+03  0.7561462E-02  0.9502247E-01
         22   -1    0    0    0    0  0.00000000000E+00  0.00000000000E+00  0.81758605602E+03  0.81758605602E+03  0.00000000000E+00 0. -1.
         22   -1    0    0    0    0 -0.00000000000E+00 -0.00000000000E+00 -0.66272085033E+03  0.66272085033E+03  0.00000000000E+00 0.  1.
        -24    2    1    2    0    0 -0.28793264301E+03  0.32992338476E+03 -0.41571934297E+03  0.60911056264E+03  0.80240006707E+02 0.  0.
         25    2    1    2    0    0  0.33000425833E+03 -0.28375807926E+03  0.21437155425E+03  0.50102308562E+03  0.12509001154E+03 0.  0.
         24    2    1    2    0    0 -0.42071615318E+02 -0.46165305496E+02  0.35621299440E+03  0.37017325810E+03  0.78989159917E+02 0.  0.
        -13    1    5    5    0    0 -0.49150521547E+02 -0.64264610306E+02  0.27405041062E+03  0.28574348894E+03  0.00000000000E+00 0.  1.
         14    1    5    5    0    0  0.70789062290E+01  0.18099304809E+02  0.82162583776E+02  0.84429769162E+02  0.00000000000E+00 0. -1.
         13    1    3    3    0    0 -0.51125712782E+02  0.52034102442E+02 -0.32652354207E+02  0.79922228195E+02  0.00000000000E+00 0. -1.
        -14    1    3    3    0    0 -0.23680693023E+03  0.27788928231E+03 -0.38306698876E+03  0.52918833444E+03  0.00000000000E+00 0.  1.
          5    1    4    4  501    0  0.12777165218E+03 -0.45050330792E+02  0.97728749013E+02  0.16710328599E+03  0.41800000000E+01 0. -1.
         -5    1    4    4    0  501  0.20223260616E+03 -0.23870774847E+03  0.11664280524E+03  0.33391979963E+03  0.41800000000E+01 0. -1.
</event>
<event>
11    1  0.8328696E-009  0.1343285E+03  0.7561462E-02  0.1114062E+00
         22   -1    0    0    0    0  0.00000000000E+00  0.00000000000E+00  0.54433230327E+03  0.54433230327E+03  0.00000000000E+00 0.  1.
         22   -1    0    0    0    0 -0.00000000000E+00 -0.00000000000E+00 -0.57312744130E+03  0.57312744130E+03  0.00000000000E+00 0. -1.
         24    2    1    2    0    0  0.27637711406E+02  0.44736410956E+01 -0.51005240974E+03  0.51695451506E+03  0.79401847655E+02 0.  0.
         25    2    1    2    0    0 -0.61781732160E+02 -0.36910131811E+02  0.39883188759E+02  0.14973209175E+03  0.12509872220E+03 0.  0.
        -24    2    1    2    0    0  0.34144020754E+02  0.32436490715E+02  0.44137408295E+03  0.45077313775E+03  0.78532799097E+02 0.  0.
        -13    1    3    3    0    0  0.12703131262E+02  0.33974448679E+02 -0.11651026714E+03  0.12202571473E+03  0.00000000000E+00 0.  1.
         14    1    3    3    0    0  0.14934580144E+02 -0.29500807583E+02 -0.39354214260E+03  0.39492880033E+03  0.00000000000E+00 0. -1.
         11    1    5    5    0    0 -0.13972473120E+02  0.36635944195E+02  0.13369629683E+03  0.13932739214E+03  0.00000000000E+00 0. -1.
        -12    1    5    5    0    0  0.48116493875E+02 -0.41994534794E+01  0.30767778611E+03  0.31144574561E+03  0.00000000000E+00 0.  1.
          5    1    4    4  501    0 -0.72614145347E+02 -0.72437454591E+02  0.44858858412E+02  0.11202583858E+03  0.41800000000E+01 0. -1.
         -5    1    4    4    0  501  0.10832413187E+02  0.35527322781E+02 -0.49756696530E+01  0.37706253167E+02  0.41800000000E+01 0. -1.
</event>
<event>
11    1  0.8328696E-009  0.1299562E+03  0.7561462E-02  0.1119323E+00
         22   -1    0    0    0    0  0.00000000000E+00  0.00000000000E+00  0.60465329337E+03  0.60465329337E+03  0.00000000000E+00 0. -1.
         22   -1    0    0    0    0 -0.00000000000E+00 -0.00000000000E+00 -0.32763574581E+03  0.32763574581E+03  0.00000000000E+00 0.  1.
        -24    2    1    2    0    0 -0.32851301127E+02  0.23335005020E+02 -0.27552701165E+03  0.28985317451E+03  0.80473586860E+02 0.  0.
         25    2    1    2    0    0  0.54871088309E+02  0.34360994641E+01  0.76015714559E+02  0.15636115872E+03  0.12509108675E+03 0.  0.
         24    2    1    2    0    0 -0.22019787182E+02 -0.26771104485E+02  0.47652884465E+03  0.48607470594E+03  0.89371790371E+02 0.  0.
        -11    1    5    5    0    0 -0.29491221480E+01  0.32398568177E+02  0.12966154830E+03  0.13368052083E+03  0.00000000000E+00 0.  1.
         12    1    5    5    0    0 -0.19070665034E+02 -0.59169672661E+02  0.34686729635E+03  0.35239418511E+03  0.00000000000E+00 0. -1.
         11    1    3    3    0    0 -0.33244641583E+02 -0.24694020375E+02 -0.14372636365E+03  0.14957362216E+03  0.00000000000E+00 0. -1.
        -12    1    3    3    0    0  0.39334045592E+00  0.48029025395E+02 -0.13180064800E+03  0.14027955236E+03  0.00000000000E+00 0.  1.
          5    1    4    4  501    0  0.47611584461E+02  0.29653021454E+02 -0.17479045595E+02  0.58899525390E+02  0.41800000000E+01 0.  1.
         -5    1    4    4    0  501  0.72595038485E+01 -0.26216921990E+02  0.93494760154E+02  0.97461633328E+02  0.41800000000E+01 0.  1.
</event>
<event>
11    1  0.8328696E-009  0.1474980E+03  0.7561462E-02  0.1099463E+00
         22   -1    0    0    0    0  0.00000000000E+00  0.00000000000E+00  0.13035911814E+04  0.13035911814E+04  0.00000000000E+00 0. -1.
         22   -1    0    0    0    0 -0.00000000000E+00 -0.00000000000E+00 -0.91437720246E+02  0.91437720246E+02  0.00000000000E+00 0.  1.
        -24    2    1    2    0    0 -0.57546561854E+02 -0.47498837489E+02 -0.33138379949E+02  0.11381530414E+03  0.79297067335E+02 0.  0.
         25    2    1    2    0    0  0.10509678034E+03  0.10449372900E+03  0.78008264429E+03  0.80382865613E+03  0.12508918357E+03 0.  0.
         24    2    1    2    0    0 -0.47550218486E+02 -0.56994891507E+02  0.46520919679E+03  0.47738494135E+03  0.77248589096E+02 0.  0.
        -11    1    5    5    0    0  0.80938255585E+00  0.13110705719E+02  0.18863138083E+02  0.22986162858E+02  0.00000000000E+00 0.  1.
         12    1    5    5    0    0 -0.48359601041E+02 -0.70105597226E+02  0.44634605870E+03  0.45439877849E+03  0.00000000000E+00 0. -1.
         11    1    3    3    0    0  0.34792946343E+01 -0.14283662235E+02  0.21069146088E+02  0.25691193333E+02  0.00000000000E+00 0. -1.
        -12    1    3    3    0    0 -0.61025856488E+02 -0.33215175254E+02 -0.54207526037E+02  0.88124110812E+02  0.00000000000E+00 0.  1.
          5    1    4    4  501    0  0.12928192920E+03  0.62841972327E+02  0.53290726008E+03  0.55196970112E+03  0.41800000000E+01 0. -1.
         -5    1    4    4    0  501 -0.24185148858E+02  0.41651756669E+02  0.24717538421E+03  0.25185895501E+03  0.41800000000E+01 0. -1.
</event>
<event>
11    1  0.8328696E-009  0.1304941E+03  0.7561462E-02  0.1118663E+00
         22   -1    0    0    0    0  0.00000000000E+00  0.00000000000E+00  0.43222041770E+03  0.43222041770E+03  0.00000000000E+00 0.  1.
         22   -1    0    0    0    0 -0.00000000000E+00 -0.00000000000E+00 -0.45001814607E+03  0.45001814607E+03  0.00000000000E+00 0. -1.
        -24    2    1    2    0    0  0.61843819500E+01  0.38630869798E+02 -0.40752831739E+03  0.42148403969E+03  0.10019418925E+03 0.  0.
         25    2    1    2    0    0 -0.21063584338E+02  0.81810238186E+01  0.11973827374E+03  0.17463224635E+03  0.12509421862E+03 0.  0.
         24    2    1    2    0    0  0.14879202388E+02 -0.46811893616E+02  0.26999231528E+03  0.28612227774E+03  0.80977549117E+02 0.  0.
        -13    1    5    5    0    0 -0.13391415649E+02 -0.11720247729E+02  0.21168184607E+03  0.21242857194E+03  0.00000000000E+00 0.  1.
         14    1    5    5    0    0  0.28270618037E+02 -0.35091645888E+02  0.58310469209E+02  0.73693705801E+02  0.00000000000E+00 0. -1.
         11    1    3    3    0    0 -0.27520374770E+02 -0.40637119219E+01 -0.29695721096E+03  0.29825738872E+03  0.00000000000E+00 0. -1.
        -12    1    3    3    0    0  0.33704756720E+02  0.42694581720E+02 -0.11057110642E+03  0.12322665097E+03  0.00000000000E+00 0.  1.
          5    1    4    4  501    0 -0.16588495868E+02  0.64899259634E+02  0.83158719002E+02  0.10686410549E+03  0.41800000000E+01 0. -1.
         -5    1    4    4    0  501 -0.44750884695E+01 -0.56718235816E+02  0.36579554737E+02  0.67768140860E+02  0.41800000000E+01 0. -1.
</event>
<event>
11    1  0.8328696E-009  0.1483895E+03  0.7561462E-02  0.1098536E+00
         22   -1    0    0    0    0  0.00000000000E+00  0.00000000000E+00  0.27840808588E+03  0.27840808588E+03  0.00000000000E+00 0. -1.
         22   -1    0    0    0    0 -0.00000000000E+00 -0.00000000000E+00 -0.14930961800E+04  0.14930961800E+04  0.00000000000E+00 0.  1.
         24    2    1    2    0    0  0.10504049201E+02  0.17490364138E+02 -0.12196347860E+04  0.12222988032E+04  0.78032718348E+02 0.  0.
         25    2    1    2    0    0  0.19128160690E+01 -0.95633345683E+02 -0.23612818775E+03  0.28381964662E+03  0.12509066747E+03 0.  0.
        -24    2    1    2    0    0 -0.12416865270E+02  0.78142981546E+02  0.24107487960E+03  0.26538581611E+03  0.77794792303E+02 0.  0.
        -11    1    3    3    0    0 -0.21944561580E+02  0.23400900019E+02 -0.96547893127E+03  0.96601176630E+03  0.00000000000E+00 0.  1.
         12    1    3    3    0    0  0.32448610781E+02 -0.59105358818E+01 -0.25415585472E+03  0.25628703686E+03  0.00000000000E+00 0. -1.
         11    1    5    5    0    0 -0.40236401838E+02  0.61126742432E+02  0.19981465457E+03  0.21279413256E+03  0.00000000000E+00 0. -1.
        -12    1    5    5    0    0  0.27819536568E+02  0.17016239113E+02  0.41260225032E+02  0.52591683545E+02  0.00000000000E+00 0.  1.
          5    1    4    4  501    0  0.27573580807E+02 -0.78970994493E+02 -0.55270243363E+02  0.10034436970E+03  0.41800000000E+01 0.  1.
         -5    1    4    4    0  501 -0.25660764738E+02 -0.16662351190E+02 -0.18085794438E+03  0.18347527692E+03  0.41800000000E+01 0.  1.
</event>
<event>
11    1  0.8328696E-009  0.1379553E+03  0.7561462E-02  0.1109863E+00
         22   -1    0    0    0    0  0.00000000000E+00  0.00000000000E+00  0.75359550542E+03  0.75359550542E+03  0.00000000000E+00 0.  1.
         22   -1    0    0    0    0 -0.00000000000E+00 -0.00000000000E+00 -0.14536095091E+03  0.14536095091E+03  0.00000000000E+00 0. -1.
        -24    2    1    2    0    0 -0.27851330044E+02 -0.13180880092E+02 -0.82795738729E+02  0.12187972501E+03  0.83964878560E+02 0.  0.
         25    2    1    2    0    0  0.69493809729E+02  0.49677605868E+02  0.10827320367E+03  0.18619195418E+03  0.12508838096E+03 0.  0.
         24    2    1    2    0    0 -0.41642479685E+02 -0.36496725775E+02  0.58275708958E+03  0.59088477714E+03  0.80454255940E+02 0.  0.
        -13    1    5    5    0    0 -0.31118218011E+02  0.74672642381E+01  0.43951785593E+03  0.44068134657E+03  0.00000000000E+00 0.  1.
         14    1    5    5    0    0 -0.10524261674E+02 -0.43963990014E+02  0.14323923364E+03  0.15020343057E+03  0.00000000000E+00 0. -1.
         13    1    3    3    0    0  0.11252921013E+01 -0.78417758421E+01 -0.90960630869E+02  0.91304962070E+02  0.00000000000E+00 0. -1.
        -14    1    3    3    0    0 -0.28976622146E+02 -0.53391042502E+01  0.81648921394E+01  0.30574762940E+02  0.00000000000E+00 0.  1.
          5    1    4    4  501    0  0.29698421253E+02  0.81551494763E+01 -0.25703941977E+02  0.40331968971E+02  0.41800000000E+01 0. -1.
         -5    1    4    4    0  501  0.39795388477E+02  0.41522456391E+02  0.13397714565E+03  0.14585998521E+03  0.41800000000E+01 0. -1.
</event>
<event>
11    1  0.8328696E-009  0.1430549E+03  0.7561462E-02  0.1104194E+00
         22   -1    0    0    0    0  0.00000000000E+00  0.00000000000E+00  0.16851133057E+04  0.16851133057E+04  0.00000000000E+00 0. -1.
         22   -1    0    0    0    0 -0.00000000000E+00 -0.00000000000E+00 -0.22290018080E+04  0.22290018080E+04  0.00000000000E+00 0.  1.
         24    2    1    2    0    0 -0.52413026275E+02 -0.45800507662E+02 -0.22090683719E+04  0.22116616665E+04  0.81359963653E+02 0.  0.
         25    2    1    2    0    0  0.38848674617E+02  0.41533550436E+01  0.23339689612E+03  0.26767030617E+03  0.12508721682E+03 0.  0.
        -24    2    1    2    0    0  0.13564351658E+02  0.41647152619E+02  0.14317829734E+04  0.14347831409E+04  0.81741675222E+02 0.  0.
        -11    1    3    3    0    0 -0.74290341124E+02 -0.40274495237E+02 -0.17488109884E+04  0.17508514966E+04  0.00000000000E+00 0.  1.
         12    1    3    3    0    0  0.21877314849E+02 -0.55260124254E+01 -0.46025738345E+03  0.46081016996E+03  0.00000000000E+00 0. -1.
         13    1    5    5    0    0  0.20122110882E+02 -0.23642867725E+00  0.11143614865E+04  0.11145431700E+04  0.00000000000E+00 0. -1.
        -14    1    5    5    0    0 -0.65577592245E+01  0.41883581296E+02  0.31742148695E+03  0.32023997090E+03  0.00000000000E+00 0.  1.
          5    1    4    4  501    0  0.27199922136E+02  0.62470913775E+02  0.95031615019E+02  0.11700825221E+03  0.41800000000E+01 0. -1.
         -5    1    4    4    0  501  0.11648752480E+02 -0.58317558732E+02  0.13836528110E+03  0.15066205396E+03  0.41800000000E+01 0. -1.
</event>
<event>
11    1  0.8328696E-009  0.1326187E+03  0.7561462E-02  0.1116093E+00
         22   -1    0    0    0    0  0.00000000000E+00  0.00000000000E+00  0.55543123280E+03  0.55543123280E+03  0.00000000000E+00 0.  1.
         22   -1    0    0    0    0 -0.00000000000E+00 -0.00000000000E+00 -0.73677424802E+03  0.73677424802E+03  0.00000000000E+00 0. -1.
        -24    2    1    2    0    0  0.20328194214E+02  0.38202246597E+01 -0.68531543978E+03  0.69032123773E+03  0.80363733507E+02 0.  0.
         25    2    1    2    0    0 -0.45602121499E+02 -0.38040562486E+02  0.64252324358E+02  0.15265546258E+03  0.12509472887E+03 0.  0.
         24    2    1    2    0    0  0.25273927284E+02  0.34220337826E+02  0.43972010020E+03  0.44922878051E+03  0.81504158136E+02 0.  0.
        -11    1    5    5    0    0 -0.12488349235E+02  0.32856187816E+02  0.35154799257E+03  0.35330083360E+03  0.00000000000E+00 0.  1.
         12    1    5    5    0    0  0.37762276519E+02  0.13641500100E+01  0.88172107637E+02  0.95927946909E+02  0.00000000000E+00 0. -1.
         11    1    3    3    0    0 -0.13338132787E+02  0.30195125162E+02 -0.16615911204E+03  0.16940632185E+03  0.00000000000E+00 0. -1.
        -12    1    3    3    0    0  0.33666327002E+02 -0.26374900503E+02 -0.51915632774E+03  0.52091491588E+03  0.00000000000E+00 0.  1.
          5    1    4    4  501    0 -0.29433142695E+02 -0.15428590877E+02 -0.35625079322E+02  0.48897545767E+02  0.41800000000E+01 0. -1.
         -5    1    4    4    0  501 -0.16168978804E+02 -0.22611971609E+02  0.99877403680E+02  0.10375791681E+03  0.41800000000E+01 0. -1.
</event>
<event>
11    1  0.8328696E-009  0.2182161E+03  0.7561462E-02  0.1042341E+00
         22   -1    0    0    0    0  0.00000000000E+00  0.00000000000E+00  0.30162878708E+03  0.30162878708E+03  0.00000000000E+00 0.  1.
         22   -1    0    0    0    0 -0.00000000000E+00 -0.00000000000E+00 -0.18805702100E+04  0.18805702100E+04  0.00000000000E+00 0.  1.
         24    2    1    2    0    0  0.17673765742E+03  0.19011591124E+02 -0.17045399625E+04  0.17156809895E+04  0.80666807149E+02 0.  0.
         25    2    1    2    0    0 -0.20010752171E+03  0.35502321479E+02 -0.66866229108E+02  0.24783960183E+03  0.12509972247E+03 0.  0.
        -24    2    1    2    0    0  0.23369864290E+02 -0.54513912604E+02  0.19246476869E+03  0.21867840576E+03  0.85203525344E+02 0.  0.
        -13    1    3    3    0    0  0.25366783404E+02 -0.10915874227E+02 -0.57348309700E+03  0.57414762262E+03  0.00000000000E+00 0.  1.
         14    1    3    3    0    0  0.15137087402E+03  0.29927465351E+02 -0.11310568655E+04  0.11415333669E+04  0.00000000000E+00 0. -1.
         11    1    5    5    0    0 -0.15732515495E+02  0.48203839304E+01  0.35390240601E+01  0.16830711106E+02  0.00000000000E+00 0. -1.
        -12    1    5    5    0    0  0.39102379784E+02 -0.59334296534E+02  0.18892574463E+03  0.20184769465E+03  0.00000000000E+00 0.  1.
          5    1    4    4  501    0 -0.48867763972E+02  0.34261132246E+02  0.31260973478E+02  0.67502625143E+02  0.41800000000E+01 0. -1.
         -5    1    4    4    0  501 -0.15123975774E+03  0.12411892329E+01 -0.98127202585E+02  0.18033697669E+03  0.41800000000E+01 0. -1.
</event>
<event>
11    1  0.8328696E-009  0.1000075E+04  0.7561462E-02  0.8678943E-01
         22   -1    0    0    0    0  0.00000000000E+00  0.00000000000E+00  0.79326393080E+03  0.79326393080E+03  0.00000000000E+00 0.  1.
         22   -1    0    0    0    0 -0.00000000000E+00 -0.00000000000E+00 -0.31520082158E+03  0.31520082158E+03  0.00000000000E+00 0.  1.
        -24    2    1    2    0    0 -0.21567276281E+03 -0.83898428258E+02 -0.72480887108E+02  0.25523236728E+03  0.79601478821E+02 0.  0.
         25    2    1    2    0    0  0.39478691286E+03  0.13366485490E+03  0.45294395137E+03  0.62811522375E+03  0.12509001250E+03 0.  0.
         24    2    1    2    0    0 -0.17911415005E+03 -0.49766426640E+02  0.97600044955E+02  0.22511716135E+03  0.81199701910E+02 0.  0.
        -13    1    5    5    0    0 -0.14177549545E+03 -0.15090260093E+01  0.65713638732E+02  0.15627172036E+03  0.00000000000E+00 0.  1.
         14    1    5    5    0    0 -0.37338654600E+02 -0.48257400631E+02  0.31886406223E+02  0.68845440988E+02  0.00000000000E+00 0. -1.
         13    1    3    3    0    0 -0.16798780769E+03 -0.26928825237E+02 -0.44609006594E+02  0.17588356555E+03  0.00000000000E+00 0. -1.
        -14    1    3    3    0    0 -0.47684955121E+02 -0.56969603021E+02 -0.27871880514E+02  0.79348801734E+02  0.00000000000E+00 0.  1.
          5    1    4    4  501    0  0.39980584401E+03  0.14007186525E+03  0.43106379316E+03  0.60439912848E+03  0.41800000000E+01 0.  1.
         -5    1    4    4    0  501 -0.50189311494E+01 -0.64070103480E+01  0.21880158214E+02  0.23716095272E+02  0.41800000000E+01 0.  1.
</event>
<event>
11    1  0.8328696E-009  0.1365815E+03  0.7561462E-02  0.1111437E+00
         22   -1    0    0    0    0  0.00000000000E+00  0.00000000000E+00  0.28000199112E+03  0.28000199112E+03  0.00000000000E+00 0. -1.
         22   -1    0    0    0    0 -0.00000000000E+00 -0.00000000000E+00 -0.10261765112E+04  0.10261765112E+04  0.00000000000E+00 0. -1.
         24    2    1    2    0    0 -0.27797178579E+01  0.22621827042E+02 -0.94048006532E+03  0.94418391841E+03  0.80380623526E+02 0.  0.
         25    2    1    2    0    0  0.10811639299E+02 -0.73689443875E+02  0.82721793061E+00  0.14559595696E+03  0.12510184935E+03 0.  0.
        -24    2    1    2    0    0 -0.80319214409E+01  0.51067616833E+02  0.19347832731E+03  0.21639862694E+03  0.81988348891E+02 0.  0.
        -13    1    3    3    0    0 -0.93544696203E+01  0.42284887025E+02 -0.27570242243E+03  0.27908304052E+03  0.00000000000E+00 0.  1.
         14    1    3    3    0    0  0.65747517624E+01 -0.19663059983E+02 -0.66477764289E+03  0.66510087789E+03  0.00000000000E+00 0. -1.
         13    1    5    5    0    0  0.94527506796E+01  0.11006065103E+02  0.16171810099E+03  0.16236758344E+03  0.00000000000E+00 0. -1.
        -14    1    5    5    0    0 -0.17484672120E+02  0.40061551730E+02  0.31760226318E+02  0.54031043503E+02  0.00000000000E+00 0.  1.
          5    1    4    4  501    0  0.27564375580E+02  0.23549277342E+02  0.24604960734E+02  0.44014085895E+02  0.41800000000E+01 0.  1.
         -5    1    4    4    0  501 -0.16752736281E+02 -0.97238721217E+02 -0.23777742803E+02  0.10158187107E+03  0.41800000000E+01 0.  1.
</event>
<event>
11    1  0.8328696E-009  0.2540416E+03  0.7561462E-02  0.1021768E+00
         22   -1    0    0    0    0  0.00000000000E+00  0.00000000000E+00  0.21514129908E+04  0.21514129908E+04  0.00000000000E+00 0.  1.
         22   -1    0    0    0    0 -0.00000000000E+00 -0.00000000000E+00 -0.22481149309E+03  0.22481149309E+03  0.00000000000E+00 0.  1.
        -24    2    1    2    0    0 -0.17376144827E+03  0.12703676185E+03 -0.11796754373E+03  0.25797100506E+03  0.79380843488E+02 0.  0.
         25    2    1    2    0    0  0.17460901979E+03 -0.27696118082E+03  0.98988172885E+03  0.10500997276E+04  0.12509114813E+03 0.  0.
         24    2    1    2    0    0 -0.84757152566E+00  0.14992441897E+03  0.10546873126E+04  0.10681537512E+04  0.78160470510E+02 0.  0.
        -13    1    5    5    0    0 -0.13004502459E+02  0.94707864542E+02  0.86367345728E+03  0.86894794867E+03  0.00000000000E+00 0.  1.
         14    1    5    5    0    0  0.12156930933E+02  0.55216554430E+02  0.19101385527E+03  0.19920580252E+03  0.00000000000E+00 0. -1.
         11    1    3    3    0    0 -0.63853617722E+02  0.91271217420E+02 -0.39130295757E+02  0.11806311732E+03  0.00000000000E+00 0. -1.
        -12    1    3    3    0    0 -0.10990783054E+03  0.35765544426E+02 -0.78837247970E+02  0.13990788773E+03  0.00000000000E+00 0.  1.
          5    1    4    4  501    0  0.67835050615E+02 -0.12406778374E+03  0.25184994754E+03  0.28886030799E+03  0.41800000000E+01 0. -1.
         -5    1    4    4    0  501  0.10677396918E+03 -0.15289339708E+03  0.73803178131E+03  0.76123941962E+03  0.41800000000E+01 0. -1.
</event>
<event>
11    1  0.8328696E-009  0.1479875E+03  0.7561462E-02  0.1098953E+00
         22   -1    0    0    0    0  0.00000000000E+00  0.00000000000E+00  0.10343036720E+04  0.10343036720E+04  0.00000000000E+00 0.  1.
         22   -1    0    0    0    0 -0.00000000000E+00 -0.00000000000E+00 -0.99805573425E+03  0.99805573425E+03  0.00000000000E+00 0.  1.
         24    2    1    2    0    0  0.21586576856E+02 -0.76310856409E+02 -0.97336280070E+03  0.97997178766E+03  0.81364830949E+02 0.  0.
         25    2    1    2    0    0 -0.12232262881E+02  0.60903572521E+02  0.23444675573E+03  0.27289281991E+03  0.12508531683E+03 0.  0.
        -24    2    1    2    0    0 -0.93543139742E+01  0.15407283888E+02  0.77516398273E+03  0.77949479867E+03  0.80050318242E+02 0.  0.
        -11    1    3    3    0    0  0.52751685749E+02 -0.51001478963E+02 -0.60946144812E+03  0.61386248293E+03  0.00000000000E+00 0.  1.
         12    1    3    3    0    0 -0.31165108893E+02 -0.25309377445E+02 -0.36390135258E+03  0.36610930473E+03  0.00000000000E+00 0. -1.
         11    1    5    5    0    0  0.75326323847E+01  0.93634196509E+01  0.15470190010E+02  0.19589307214E+02  0.00000000000E+00 0. -1.
        -12    1    5    5    0    0 -0.16886946359E+02  0.60438642369E+01  0.75969379272E+03  0.75990549146E+03  0.00000000000E+00 0.  1.
          5    1    4    4  501    0 -0.40494722528E+02  0.88575571023E+02  0.18778199017E+03  0.21157741507E+03  0.41800000000E+01 0. -1.
         -5    1    4    4    0  501  0.28262459647E+02 -0.27671998503E+02  0.46664765554E+02  0.61315404839E+02  0.41800000000E+01 0. -1.
</event>
<event>
11    1  0.8328696E-009  0.1659700E+03  0.7561462E-02  0.1081593E+00
         22   -1    0    0    0    0  0.00000000000E+00  0.00000000000E+00  0.28349341637E+02  0.28349341637E+02  0.00000000000E+00 0. -1.
         22   -1    0    0    0    0 -0.00000000000E+00 -0.00000000000E+00 -0.22975710412E+04  0.22975710412E+04  0.00000000000E+00 0.  1.
         24    2    1    2    0    0  0.41912346912E+02  0.96284545488E+02 -0.15813888430E+04  0.15870770811E+04  0.83639881766E+02 0.  0.
         25    2    1    2    0    0 -0.64968817190E+02 -0.11321621407E+03 -0.54715820586E+03  0.57625385331E+03  0.12509013900E+03 0.  0.
        -24    2    1    2    0    0  0.23056470279E+02  0.16931668581E+02 -0.14067465063E+03  0.16258944843E+03  0.76339303042E+02 0.  0.
        -11    1    3    3    0    0  0.52441205293E+02  0.10186323741E+03 -0.15317265910E+04  0.15360053870E+04  0.00000000000E+00 0.  1.
         12    1    3    3    0    0 -0.10528858381E+02 -0.55786919227E+01 -0.49662252027E+02  0.51071694106E+02  0.00000000000E+00 0. -1.
         11    1    5    5    0    0 -0.19913440253E+02  0.21536291124E+02 -0.96217194455E+02  0.10058879384E+03  0.00000000000E+00 0. -1.
        -12    1    5    5    0    0  0.42969910532E+02 -0.46046225425E+01 -0.44457456173E+02  0.62000654587E+02  0.00000000000E+00 0.  1.
          5    1    4    4  501    0 -0.77811811217E+00  0.26260952676E+02 -0.65423944825E+02  0.70625831392E+02  0.41800000000E+01 0.  1.
         -5    1    4    4    0  501 -0.64190699078E+02 -0.13947716675E+03 -0.48173426104E+03  0.50562802192E+03  0.41800000000E+01 0.  1.
</event>
<event>
11    1  0.8328696E-009  0.1393274E+03  0.7561462E-02  0.1108312E+00
         22   -1    0    0    0    0  0.00000000000E+00  0.00000000000E+00  0.44093755197E+03  0.44093755197E+03  0.00000000000E+00 0. -1.
         22   -1    0    0    0    0 -0.00000000000E+00 -0.00000000000E+00 -0.22063785929E+04  0.22063785929E+04  0.00000000000E+00 0. -1.
        -24    2    1    2    0    0 -0.78761472152E+01  0.30828707782E+02 -0.19369328133E+04  0.19388155235E+04  0.79274637738E+02 0.  0.
         25    2    1    2    0    0  0.69056213533E+02 -0.29407083536E+02 -0.24216107247E+03  0.28270530988E+03  0.12508704978E+03 0.  0.
         24    2    1    2    0    0 -0.61180066318E+02 -0.14216242453E+01  0.41365284478E+03  0.42579531151E+03  0.80299126896E+02 0.  0.
        -13    1    5    5    0    0  0.14580672594E+00 -0.28023407031E+02  0.64869697447E+02  0.70664066173E+02  0.00000000000E+00 0.  1.
         14    1    5    5    0    0 -0.61325873044E+02  0.26601782786E+02  0.34878314734E+03  0.35513124534E+03  0.00000000000E+00 0. -1.
         13    1    3    3    0    0 -0.45406454324E+01  0.40156474257E+02 -0.19039107465E+04  0.19043395944E+04  0.00000000000E+00 0. -1.
        -14    1    3    3    0    0 -0.33355017828E+01 -0.93277664751E+01 -0.33022066727E+02  0.34475929146E+02  0.00000000000E+00 0.  1.
          5    1    4    4  501    0 -0.77943685554E+01 -0.61144469124E+02 -0.88329454601E+02  0.10779129480E+03  0.41800000000E+01 0.  1.
         -5    1    4    4    0  501  0.76850582089E+02  0.31737385588E+02 -0.15383161787E+03  0.17491401507E+03  0.41800000000E+01 0.  1.
</event>
<event>
11    1  0.8328696E-009  0.1608813E+03  0.7561462E-02  0.1086251E+00
         22   -1    0    0    0    0  0.00000000000E+00  0.00000000000E+00  0.26143069458E+03  0.26143069458E+03  0.00000000000E+00 0. -1.
         22   -1    0    0    0    0 -0.00000000000E+00 -0.00000000000E+00 -0.48448619864E+03  0.48448619864E+03  0.00000000000E+00 0. -1.
        -24    2    1    2    0    0  0.39208754903E+02 -0.38245116788E+02 -0.39096656161E+03  0.40345422433E+03  0.83189202514E+02 0.  0.
         25    2    1    2    0    0  0.62372704137E+02  0.75256627587E+02  0.56403276434E+02  0.16847262817E+03  0.12509109733E+03 0.  0.
         24    2    1    2    0    0 -0.10158145904E+03 -0.37011510799E+02  0.11150778111E+03  0.17399004073E+03  0.78421325362E+02 0.  0.
        -11    1    5    5    0    0 -0.90207552020E+02  0.31639791102E+01  0.63482161790E+02  0.11035124861E+03  0.00000000000E+00 0.  1.
         12    1    5    5    0    0 -0.11373907020E+02 -0.40175489909E+02  0.48025619321E+02  0.63638792112E+02  0.00000000000E+00 0. -1.
         13    1    3    3    0    0  0.23291813915E+02 -0.49368080432E+02 -0.37308398264E+03  0.37705619484E+03  0.00000000000E+00 0. -1.
        -14    1    3    3    0    0  0.15916940988E+02  0.11122963644E+02 -0.17882578966E+02  0.26398029493E+02  0.00000000000E+00 0.  1.
          5    1    4    4  501    0 -0.57750763750E-03 -0.25304122354E+02 -0.15476881373E+02  0.29955047413E+02  0.41800000000E+01 0. -1.
         -5    1    4    4    0  501  0.62373281645E+02  0.10056074994E+03  0.71880157807E+02  0.13851758076E+03  0.41800000000E+01 0. -1.
</event>
<event>
11    1  0.8328696E-009  0.1516063E+03  0.7561462E-02  0.1095249E+00
         22   -1    0    0    0    0  0.00000000000E+00  0.00000000000E+00  0.84720019286E+03  0.84720019286E+03  0.00000000000E+00 0. -1.
         22   -1    0    0    0    0 -0.00000000000E+00 -0.00000000000E+00 -0.22866035301E+03  0.22866035301E+03  0.00000000000E+00 0.  1.
         24    2    1    2    0    0 -0.53091018164E+02  0.72071572639E+02 -0.18191095273E+03  0.21834435893E+03  0.81053664689E+02 0.  0.
         25    2    1    2    0    0 -0.93586944595E+00 -0.56468272022E+02  0.16478090962E+03  0.21445151958E+03  0.12508862650E+03 0.  0.
        -24    2    1    2    0    0  0.54026887610E+02 -0.15603300617E+02  0.63566988296E+03  0.64306466736E+03  0.79332204878E+02 0.  0.
        -11    1    3    3    0    0 -0.70741613488E+01  0.37435868035E+02 -0.14503538983E+03  0.14995583442E+03  0.00000000000E+00 0.  1.
         12    1    3    3    0    0 -0.46016856815E+02  0.34635704604E+02 -0.36875562900E+02  0.68388524503E+02  0.00000000000E+00 0. -1.
         13    1    5    5    0    0  0.31934588190E+02 -0.78201131414E+01  0.59664333109E+03  0.59754852240E+03  0.00000000000E+00 0. -1.
        -14    1    5    5    0    0  0.22092299420E+02 -0.77831874760E+01  0.39026551872E+02  0.45516144960E+02  0.00000000000E+00 0.  1.
          5    1    4    4  501    0  0.25154114002E+02 -0.56922020678E+02  0.17525630040E+03  0.18602443151E+03  0.41800000000E+01 0.  1.
         -5    1    4    4    0  501 -0.26089983448E+02  0.45374865589E+00 -0.10475390781E+02  0.28427088071E+02  0.41800000000E+01 0.  1.
</event>
<event>
11    1  0.8328696E-009  0.1294955E+03  0.7561462E-02  0.1119890E+00
         22   -1    0    0    0    0  0.00000000000E+00  0.00000000000E+00  0.12538206434E+04  0.12538206434E+04  0.00000000000E+00 0.  1.
         22   -1    0    0    0    0 -0.00000000000E+00 -0.00000000000E+00 -0.46064718174E+02  0.46064718174E+02  0.00000000000E+00 0.  1.
        -24    2    1    2    0    0  0.23243290219E+02 -0.12755598633E+02  0.29812050648E+02  0.90653970549E+02  0.81402875722E+02 0.  0.
         25    2    1    2    0    0 -0.10277571560E+02 -0.21209599462E+02  0.28977512023E+03  0.31649925148E+03  0.12508669112E+03 0.  0.
         24    2    1    2    0    0 -0.12965718659E+02  0.33965198095E+02  0.88816875437E+03  0.89273213957E+03  0.82493589046E+02 0.  0.
        -13    1    5    5    0    0 -0.16089814215E+02  0.72122085843E+01  0.80736355138E+03  0.80755606751E+03  0.00000000000E+00 0.  1.
         14    1    5    5    0    0  0.31240955562E+01  0.26752989510E+02  0.80805202987E+02  0.85176072054E+02  0.00000000000E+00 0. -1.
         11    1    3    3    0    0  0.39624809169E+02  0.33586103857E+01  0.47286802539E+02  0.61785495545E+02  0.00000000000E+00 0. -1.
        -12    1    3    3    0    0 -0.16381518950E+02 -0.16114209018E+02 -0.17474751891E+02  0.28868475004E+02  0.00000000000E+00 0.  1.
          5    1    4    4  501    0 -0.15887497074E+01 -0.62384335287E+02  0.25248958636E+03  0.26012072781E+03  0.41800000000E+01 0.  1.
         -5    1    4    4    0  501 -0.86888218525E+01  0.41174735825E+02  0.37285533868E+02  0.56378523670E+02  0.41800000000E+01 0.  1.
</event>
<event>
11    1  0.8328696E-009  0.1538105E+03  0.7561462E-02  0.1093048E+00
         22   -1    0    0    0    0  0.00000000000E+00  0.00000000000E+00  0.33898077405E+03  0.33898077405E+03  0.00000000000E+00 0.  1.
         22   -1    0    0    0    0 -0.00000000000E+00 -0.00000000000E+00 -0.87629474892E+03  0.87629474892E+03  0.00000000000E+00 0.  1.
        -24    2    1    2    0    0  0.35726084996E+02 -0.85912574691E+02 -0.80834583899E+03  0.81789543494E+03  0.82901287346E+02 0.  0.
         25    2    1    2    0    0  0.38591428901E+02  0.35516890303E+02  0.47281754748E+02  0.14364471771E+03  0.12508993849E+03 0.  0.
         24    2    1    2    0    0 -0.74317513897E+02  0.50395684388E+02  0.22375010937E+03  0.25373537032E+03  0.79086717177E+02 0.  0.
        -13    1    5    5    0    0 -0.81716818227E+02  0.44485273105E+02  0.22564794615E+03  0.24407698275E+03  0.00000000000E+00 0.  1.
         14    1    5    5    0    0  0.73993043299E+01  0.59104112829E+01 -0.18978367840E+01  0.96583875755E+01  0.00000000000E+00 0. -1.
         11    1    3    3    0    0  0.32158893548E+02  0.52525540217E+01 -0.17437445156E+03  0.17739287786E+03  0.00000000000E+00 0. -1.
        -12    1    3    3    0    0  0.35671914476E+01 -0.91165128713E+02 -0.63397138742E+03  0.64050255708E+03  0.00000000000E+00 0.  1.
          5    1    4    4  501    0  0.29371546180E+02  0.43383382018E+02 -0.33188833295E+02  0.62159284229E+02  0.41800000000E+01 0. -1.
         -5    1    4    4    0  501  0.92198827209E+01 -0.78664917152E+01  0.80470588043E+02  0.81485433479E+02  0.41800000000E+01 0. -1.
</event>
<event>
11    1  0.8328696E-009  0.1795711E+03  0.7561462E-02  0.1069990E+00
         22   -1    0    0    0    0  0.00000000000E+00  0.00000000000E+00  0.11769245260E+03  0.11769245260E+03  0.00000000000E+00 0. -1.
         22   -1    0    0    0    0 -0.00000000000E+00 -0.00000000000E+00 -0.12068836409E+04  0.12068836409E+04  0.00000000000E+00 0. -1.
         24    2    1    2    0    0 -0.11490811594E+03 -0.17493446322E+01 -0.72424441815E+03  0.73787051566E+03  0.81951115644E+02 0.  0.
         25    2    1    2    0    0  0.18812186090E+03  0.16143134198E+02 -0.40982862797E+03  0.46824985025E+03  0.12509189674E+03 0.  0.
        -24    2    1    2    0    0 -0.73213744966E+02 -0.14393789566E+02  0.44881857773E+02  0.11845572761E+03  0.80311547224E+02 0.  0.
        -11    1    3    3    0    0 -0.61786682561E+01 -0.81717192215E+01 -0.70109022683E+01  0.12413931169E+02  0.00000000000E+00 0.  1.
         12    1    3    3    0    0 -0.10872944768E+03  0.64223745893E+01 -0.71723351588E+03  0.72545658449E+03  0.00000000000E+00 0. -1.
         13    1    5    5    0    0 -0.56956291135E+02  0.19370829794E+02  0.22801915128E+00  0.60160619508E+02  0.00000000000E+00 0. -1.
        -14    1    5    5    0    0 -0.16257453831E+02 -0.33764619360E+02  0.44653838621E+02  0.58295108107E+02  0.00000000000E+00 0.  1.
          5    1    4    4  501    0  0.15982164306E+03  0.60212930493E+02 -0.27749149367E+03  0.32586432154E+03  0.41800000000E+01 0. -1.
         -5    1    4    4    0  501  0.28300217844E+02 -0.44069796295E+02 -0.13233713429E+03  0.14238552872E+03  0.41800000000E+01 0. -1.
</event>
<event>
11    1  0.8328696E-009  0.1668506E+03  0.7561462E-02  0.1080805E+00
         22   -1    0    0    0    0  0.00000000000E+00  0.00000000000E+00  0.80376469109E+03  0.80376469109E+03  0.00000000000E+00 0. -1.
         22   -1    0    0    0    0 -0.00000000000E+00 -0.00000000000E+00 -0.90917911066E+03  0.90917911066E+03  0.00000000000E+00 0. -1.
        -24    2    1    2    0    0 -0.57261505267E+02 -0.39811443097E+02 -0.85196817888E+03  0.85857453954E+03  0.80228618021E+02 0.  0.
         25    2    1    2    0    0  0.13996688859E+03  0.97148201876E+02  0.19461866943E+03  0.28732051830E+03  0.12509256858E+03 0.  0.
         24    2    1    2    0    0 -0.82705383327E+02 -0.57336758780E+02  0.55193508987E+03  0.56704874391E+03  0.82366559923E+02 0.  0.
        -13    1    5    5    0    0 -0.15118499590E+02  0.13415318616E+02  0.31021281519E+02  0.37025122694E+02  0.00000000000E+00 0.  1.
         14    1    5    5    0    0 -0.67586883738E+02 -0.70752077396E+02  0.52091380836E+03  0.53002362121E+03  0.00000000000E+00 0. -1.
         13    1    3    3    0    0 -0.70738522496E+02 -0.49437970773E+02 -0.77815615583E+03  0.78292723441E+03  0.00000000000E+00 0. -1.
        -14    1    3    3    0    0  0.13477017229E+02  0.96265276760E+01 -0.73812023041E+02  0.75647305133E+02  0.00000000000E+00 0.  1.
          5    1    4    4  501    0  0.12207955234E+03  0.11574990461E+03  0.11579049860E+03  0.20427033432E+03  0.41800000000E+01 0. -1.
         -5    1    4    4    0  501  0.17887336250E+02 -0.18601702733E+02  0.78828170828E+02  0.83050183978E+02  0.41800000000E+01 0. -1.
</event>
<event>
11    1  0.8328696E-009  0.1424647E+03  0.7561462E-02  0.1104837E+00
         22   -1    0    0    0    0  0.00000000000E+00  0.00000000000E+00  0.70957151717E+03  0.70957151717E+03  0.00000000000E+00 0.  1.
         22   -1    0    0    0    0 -0.00000000000E+00 -0.00000000000E+00 -0.20309400973E+03  0.20309400973E+03  0.00000000000E+00 0.  1.
         24    2    1    2    0    0  0.67633088010E+02  0.14975296957E+02 -0.14602608441E+03  0.17630244549E+03  0.70430397162E+02 0.  0.
         25    2    1    2    0    0 -0.60515549782E+02 -0.48085761387E+00  0.84955760343E+02  0.16286966222E+03  0.12508670059E+03 0.  0.
        -24    2    1    2    0    0 -0.71175382285E+01 -0.14494439343E+02  0.56754783150E+03  0.57349341920E+03  0.80767646390E+02 0.  0.
        -13    1    3    3    0    0  0.82211162344E+02  0.12640913778E+02 -0.11483841731E+03  0.14179679123E+03  0.00000000000E+00 0.  1.
         14    1    3    3    0    0 -0.14578074334E+02  0.23343831789E+01 -0.31187667103E+02  0.34505654253E+02  0.00000000000E+00 0. -1.
         11    1    5    5    0    0  0.25161410605E+02 -0.55636294465E+01  0.66359668052E+02  0.71187471511E+02  0.00000000000E+00 0. -1.
        -12    1    5    5    0    0 -0.32278948833E+02 -0.89308098962E+01  0.50118816345E+03  0.50230594769E+03  0.00000000000E+00 0.  1.
          5    1    4    4  501    0  0.30018362962E+02 -0.26457444041E+02  0.76590763067E+01  0.40954026786E+02  0.41800000000E+01 0. -1.
         -5    1    4    4    0  501 -0.90533912744E+02  0.25976586428E+02  0.77296684037E+02  0.12191563543E+03  0.41800000000E+01 0. -1.
</event>
<event>
11    1  0.8328696E-009  0.1914363E+03  0.7561462E-02  0.1060750E+00
         22   -1    0    0    0    0  0.00000000000E+00  0.00000000000E+00  0.75026683560E+03  0.75026683560E+03  0.00000000000E+00 0.  1.
         22   -1    0    0    0    0 -0.00000000000E+00 -0.00000000000E+00 -0.41048561287E+03  0.41048561287E+03  0.00000000000E+00 0. -1.
         24    2    1    2    0    0  0.29027984936E+02 -0.10962365941E+03 -0.34443597002E+03  0.37071475250E+03  0.77028044678E+02 0.  0.
         25    2    1    2    0    0  0.50818808771E+02  0.20287184663E+03  0.36463639665E+03  0.43857204620E+03  0.12508477311E+03 0.  0.
        -24    2    1    2    0    0 -0.79846793706E+02 -0.93248187226E+02  0.31958079610E+03  0.35146564977E+03  0.79532904186E+02 0.  0.
        -13    1    3    3    0    0 -0.21553290384E+02 -0.55607200954E+02 -0.19571583066E+03  0.20460056572E+03  0.00000000000E+00 0.  1.
         14    1    3    3    0    0  0.50581275320E+02 -0.54016458454E+02 -0.14872013936E+03  0.16611418678E+03  0.00000000000E+00 0. -1.
         13    1    5    5    0    0 -0.68486642648E+02 -0.19655755912E+02  0.17163850028E+03  0.18584010262E+03  0.00000000000E+00 0. -1.
        -14    1    5    5    0    0 -0.11360151059E+02 -0.73592431314E+02  0.14794229581E+03  0.16562554715E+03  0.00000000000E+00 0.  1.
          5    1    4    4  501    0  0.19627720561E+02  0.13153424757E+03  0.32483652226E+03  0.35103097341E+03  0.41800000000E+01 0. -1.
         -5    1    4    4    0  501  0.31191088209E+02  0.71337599062E+02  0.39799874388E+02  0.87541072789E+02  0.41800000000E+01 0. -1.
</event>
<event>
11    1  0.8328696E-009  0.1519731E+03  0.7561462E-02  0.1094880E+00
         22   -1    0    0    0    0  0.00000000000E+00  0.00000000000E+00  0.34861298164E+04  0.34861298164E+04  0.00000000000E+00 0. -1.
         22   -1    0    0    0    0 -0.00000000000E+00 -0.00000000000E+00 -0.37166555097E+02  0.37166555097E+02  0.00000000000E+00 0.  1.
         24    2    1    2    0    0 -0.81015294629E+02  0.19974958984E+02  0.11622364070E+03  0.16481943894E+03  0.81823198708E+02 0.  0.
         25    2    1    2    0    0  0.92056814206E+02 -0.30298634031E+02  0.49860138527E+03  0.52310955243E+03  0.12509115948E+03 0.  0.
        -24    2    1    2    0    0 -0.11041519577E+02  0.10323675047E+02  0.28341382354E+04  0.28353673801E+04  0.82098415743E+02 0.  0.
        -13    1    3    3    0    0 -0.97889535149E+02  0.16438833076E+02  0.10340111770E+03  0.14333313458E+03  0.00000000000E+00 0.  1.
         14    1    3    3    0    0  0.16874240520E+02  0.35361259080E+01  0.12822522990E+02  0.21486304368E+02  0.00000000000E+00 0. -1.
         11    1    5    5    0    0 -0.27571150303E+02  0.25416559160E+01  0.26810282407E+04  0.26811712097E+04  0.00000000000E+00 0. -1.
        -12    1    5    5    0    0  0.16529630726E+02  0.77820191306E+01  0.15310999465E+03  0.15419617043E+03  0.00000000000E+00 0.  1.
          5    1    4    4  501    0  0.37649849199E+02 -0.77169184573E+02  0.28848072432E+03  0.30101693457E+03  0.41800000000E+01 0. -1.
         -5    1    4    4    0  501  0.54406965007E+02  0.46870550542E+02  0.21012066095E+03  0.22209261786E+03  0.41800000000E+01 0. -1.
</event>
<event>
11    1  0.8328696E-009  0.1773155E+03  0.7561462E-02  0.1071835E+00
         22   -1    0    0    0    0  0.00000000000E+00  0.00000000000E+00  0.16856824155E+04  0.16856824155E+04  0.00000000000E+00 0.  1.
         22   -1    0    0    0    0 -0.00000000000E+00 -0.00000000000E+00 -0.28829020078E+03  0.28829020078E+03  0.00000000000E+00 0. -1.
        -24    2    1    2    0    0  0.63527795773E+02 -0.51861156654E+02 -0.25645751200E+03  0.28096807123E+03  0.80294714546E+02 0.  0.
         25    2    1    2    0    0 -0.10314945879E+03 -0.74454535627E+02  0.55035782880E+03  0.57855297911E+03  0.12508605515E+03 0.  0.
         24    2    1    2    0    0  0.39621663021E+02  0.12631569228E+03  0.11034918979E+04  0.11144515659E+04  0.82355289730E+02 0.  0.
        -11    1    5    5    0    0  0.50983304086E+02  0.85077952969E+02  0.94829886950E+03  0.95347170973E+03  0.00000000000E+00 0.  1.
         12    1    5    5    0    0 -0.11361641065E+02  0.41237739312E+02  0.15519302840E+03  0.16097985618E+03  0.00000000000E+00 0. -1.
         13    1    3    3    0    0  0.64436465323E+02 -0.94919727358E+01 -0.10384170952E+03  0.12257755196E+03  0.00000000000E+00 0. -1.
        -14    1    3    3    0    0 -0.90866955022E+00 -0.42369183918E+02 -0.15261580248E+03  0.15839051926E+03  0.00000000000E+00 0.  1.
          5    1    4    4  501    0 -0.30970396922E+02 -0.59212785585E+01  0.37907287440E+03  0.38040497306E+03  0.41800000000E+01 0.  1.
         -5    1    4    4    0  501 -0.72179061872E+02 -0.68533257068E+02  0.17128495440E+03  0.19814800605E+03  0.41800000000E+01 0.  1.
</event>
<event>
11    1  0.8328696E-009  0.1468351E+03  0.7561462E-02  0.1100157E+00
         22   -1    0    0    0    0  0.00000000000E+00  0.00000000000E+00  0.12828683980E+04  0.12828683980E+04  0.00000000000E+00 0. -1.
         22   -1    0    0    0    0 -0.00000000000E+00 -0.00000000000E+00 -0.47901093148E+03  0.47901093148E+03  0.00000000000E+00 0. -1.
         24    2    1    2    0    0 -0.29221454800E+02 -0.71573930954E+02 -0.46242029619E+03  0.47559726249E+03  0.79896838147E+02 0.  0.
         25    2    1    2    0    0  0.49942052202E+01  0.41977470783E+02  0.56721935697E+03  0.58238522097E+03  0.12509075324E+03 0.  0.
        -24    2    1    2    0    0  0.24227249580E+02  0.29596460172E+02  0.69905840574E+03  0.70389684601E+03  0.72974002996E+02 0.  0.
        -11    1    3    3    0    0  0.10633497893E+02 -0.15740486473E+02 -0.18875534613E+02  0.26779096302E+02  0.00000000000E+00 0.  1.
         12    1    3    3    0    0 -0.39854952693E+02 -0.55833444481E+02 -0.44354476158E+03  0.44881816619E+03  0.00000000000E+00 0. -1.
         13    1    5    5    0    0  0.14572162787E+02  0.28593393184E+02  0.68959111194E+03  0.69033747670E+03  0.00000000000E+00 0. -1.
        -14    1    5    5    0    0  0.96550867929E+01  0.10030669875E+01  0.94672937947E+01  0.13559369313E+02  0.00000000000E+00 0.  1.
          5    1    4    4  501    0  0.87293060205E+01  0.43454183283E+02  0.57268807183E+03  0.57441584835E+03  0.41800000000E+01 0. -1.
         -5    1    4    4    0  501 -0.37351008003E+01 -0.14767125004E+01 -0.54687148540E+01  0.79693726197E+01  0.41800000000E+01 0. -1.
</event>
<event>
11    1  0.8328696E-009  0.2275363E+03  0.7561462E-02  0.1036597E+00
         22   -1    0    0    0    0  0.00000000000E+00  0.00000000000E+00  0.46578159807E+03  0.46578159807E+03  0.00000000000E+00 0. -1.
         22   -1    0    0    0    0 -0.00000000000E+00 -0.00000000000E+00 -0.56874206387E+03  0.56874206387E+03  0.00000000000E+00 0. -1.
        -24    2    1    2    0    0 -0.90567881428E+01 -0.18433532313E+02 -0.39909059534E+03  0.40958060416E+03  0.89783893281E+02 0.  0.
         25    2    1    2    0    0  0.13192639515E+03 -0.12847567138E+03 -0.43513557763E+02  0.22682925831E+03  0.12509001097E+03 0.  0.
         24    2    1    2    0    0 -0.12286960701E+03  0.14690920369E+03  0.33964368730E+03  0.39811379947E+03  0.80358624603E+02 0.  0.
        -13    1    5    5    0    0 -0.54109178369E+02  0.11833903484E+03  0.18158247969E+03  0.22339231697E+03  0.00000000000E+00 0.  1.
         14    1    5    5    0    0 -0.68760428638E+02  0.28570168848E+02  0.15806120761E+03  0.17472148250E+03  0.00000000000E+00 0. -1.
         13    1    3    3    0    0 -0.45815426513E+02 -0.66914531470E+01 -0.29411403088E+03  0.29773627930E+03  0.00000000000E+00 0. -1.
        -14    1    3    3    0    0  0.36758638370E+02 -0.11742079166E+02 -0.10497656446E+03  0.11184432486E+03  0.00000000000E+00 0.  1.
          5    1    4    4  501    0  0.81015900267E+02 -0.11408758865E+02  0.19786836308E+02  0.84277678931E+02  0.41800000000E+01 0. -1.
         -5    1    4    4    0  501  0.50910494883E+02 -0.11706691251E+03 -0.63300394072E+02  0.14255157938E+03  0.41800000000E+01 0. -1.
</event>
<event>
11    1  0.8328696E-009  0.1663095E+03  0.7561462E-02  0.1081289E+00
         22   -1    0    0    0    0  0.00000000000E+00  0.00000000000E+00  0.45009744981E+03  0.45009744981E+03  0.00000000000E+00 0.  1.
         22   -1    0    0    0    0 -0.00000000000E+00 -0.00000000000E+00 -0.60295144070E+03  0.60295144070E+03  0.00000000000E+00 0.  1.
        -24    2    1    2    0    0  0.97521362586E+02  0.47333561154E+02 -0.53501204800E+03  0.55157251895E+03  0.79015631289E+02 0.  0.
         25    2    1    2    0    0 -0.14808056528E+03 -0.74222633131E+01  0.14232528142E+03  0.24059944137E+03  0.12509461080E+03 0.  0.
         24    2    1    2    0    0  0.50559202696E+02 -0.39911297841E+02  0.23983277569E+03  0.26087693018E+03  0.79924137349E+02 0.  0.
        -11    1    5    5    0    0  0.45240129114E+02 -0.35567724068E+02  0.24538701281E+03  0.25204467527E+03  0.00000000000E+00 0.  1.
         12    1    5    5    0    0  0.53190735815E+01 -0.43435737725E+01 -0.55542371136E+01  0.88322549101E+01  0.00000000000E+00 0. -1.
         13    1    3    3    0    0  0.27408892420E+01 -0.15704415907E+02 -0.30913524876E+02  0.34781994955E+02  0.00000000000E+00 0. -1.
        -14    1    3    3    0    0  0.94780473344E+02  0.63037977060E+02 -0.50409852312E+03  0.51679052400E+03  0.00000000000E+00 0.  1.
          5    1    4    4  501    0 -0.23345910754E+02 -0.20765962276E+02 -0.18531635232E+02  0.36567070467E+02  0.41800000000E+01 0.  1.
         -5    1    4    4    0  501 -0.12473465453E+03  0.13343698963E+02  0.16085691665E+03  0.20403237091E+03  0.41800000000E+01 0.  1.
</event>
<event>
11    1  0.8328696E-009  0.2689595E+03  0.7561462E-02  0.1014257E+00
         22   -1    0    0    0    0  0.00000000000E+00  0.00000000000E+00  0.13199968852E+03  0.13199968852E+03  0.00000000000E+00 0.  1.
         22   -1    0    0    0    0 -0.00000000000E+00 -0.00000000000E+00 -0.11630100107E+04  0.11630100107E+04  0.00000000000E+00 0.  1.
         24    2    1    2    0    0  0.14504065708E+03  0.11385578109E+03 -0.12080598680E+03  0.23454367990E+03  0.80104433317E+02 0.  0.
         25    2    1    2    0    0 -0.25629959773E+03 -0.71006525163E+02 -0.85814261735E+03  0.90707603516E+03  0.12508705541E+03 0.  0.
        -24    2    1    2    0    0  0.11125894065E+03 -0.42849255927E+02 -0.52061717997E+02  0.15338998414E+03  0.81261640071E+02 0.  0.
        -13    1    3    3    0    0  0.15169277763E+03  0.92118725210E+02 -0.11351522210E+03  0.21067098511E+03  0.00000000000E+00 0.  1.
         14    1    3    3    0    0 -0.66521205521E+01  0.21737055880E+02 -0.72907647063E+01  0.23872694783E+02  0.00000000000E+00 0. -1.
         13    1    5    5    0    0 -0.61670020334E+01 -0.17266677130E+02  0.68175347855E+01  0.19561411855E+02  0.00000000000E+00 0. -1.
        -14    1    5    5    0    0  0.11742594268E+03 -0.25582578797E+02 -0.58879252783E+02  0.13382857229E+03  0.00000000000E+00 0.  1.
          5    1    4    4  501    0 -0.13605796428E+03 -0.91150791759E+02 -0.38385604363E+03  0.41735257410E+03  0.41800000000E+01 0.  1.
         -5    1    4    4    0  501 -0.12024163345E+03  0.20144266596E+02 -0.47428657372E+03  0.48972346105E+03  0.41800000000E+01 0.  1.
</event>
<event>
11    1  0.8328696E-009  0.2200433E+03  0.7561462E-02  0.1041190E+00
         22   -1    0    0    0    0  0.00000000000E+00  0.00000000000E+00  0.83715459527E+03  0.83715459527E+03  0.00000000000E+00 0.  1.
         22   -1    0    0    0    0 -0.00000000000E+00 -0.00000000000E+00 -0.26549722280E+03  0.26549722280E+03  0.00000000000E+00 0. -1.
        -24    2    1    2    0    0 -0.79235076391E+02  0.31947858104E+02 -0.15056404253E+03  0.18953781971E+03  0.77176364442E+02 0.  0.
         25    2    1    2    0    0  0.19158105239E+03 -0.15789899816E+03  0.16031289189E+03  0.32090914732E+03  0.12508822595E+03 0.  0.
         24    2    1    2    0    0 -0.11234597600E+03  0.12595114005E+03  0.56190852311E+03  0.59220485105E+03  0.80499001546E+02 0.  0.
        -13    1    5    5    0    0 -0.33413942247E+02  0.96381839637E+02  0.33281656556E+03  0.34809886075E+03  0.00000000000E+00 0.  1.
         14    1    5    5    0    0 -0.78932033752E+02  0.29569300414E+02  0.22909195756E+03  0.24410599029E+03  0.00000000000E+00 0. -1.
         11    1    3    3    0    0 -0.69242935858E+02  0.40369433514E+02 -0.15599879151E+03  0.17538500016E+03  0.00000000000E+00 0. -1.
        -12    1    3    3    0    0 -0.99921405334E+01 -0.84215754100E+01  0.54347489762E+01  0.14152819552E+02  0.00000000000E+00 0.  1.
          5    1    4    4  501    0  0.20580917203E+03 -0.16207623246E+03  0.14627654545E+03  0.30006736005E+03  0.41800000000E+01 0.  1.
         -5    1    4    4    0  501 -0.14228119639E+02  0.41772343087E+01  0.14036346441E+02  0.20841787264E+02  0.41800000000E+01 0.  1.
</event>
<event>
11    1  0.8328696E-009  0.1286959E+03  0.7561462E-02  0.1120882E+00
         22   -1    0    0    0    0  0.00000000000E+00  0.00000000000E+00  0.23156696328E+04  0.23156696328E+04  0.00000000000E+00 0. -1.
         22   -1    0    0    0    0 -0.00000000000E+00 -0.00000000000E+00 -0.26147065051E+03  0.26147065051E+03  0.00000000000E+00 0. -1.
         24    2    1    2    0    0  0.54780913497E+01 -0.29936224036E+02 -0.24446604160E+03  0.26046173031E+03  0.84560513647E+02 0.  0.
         25    2    1    2    0    0  0.28227587378E+02  0.23191302851E+02  0.52516722022E+03  0.54109412323E+03  0.12509039846E+03 0.  0.
        -24    2    1    2    0    0 -0.33705678728E+02  0.67449211846E+01  0.17734978037E+04  0.17755844298E+04  0.78892590745E+02 0.  0.
        -13    1    3    3    0    0 -0.48985066609E+01 -0.24207763231E+02 -0.11587102612E+02  0.27281351050E+02  0.00000000000E+00 0.  1.
         14    1    3    3    0    0  0.10376598011E+02 -0.57284608047E+01 -0.23287893899E+03  0.23318037926E+03  0.00000000000E+00 0. -1.
         13    1    5    5    0    0 -0.22783547166E+02  0.34668428564E+02  0.14752675947E+04  0.14758507601E+04  0.00000000000E+00 0. -1.
        -14    1    5    5    0    0 -0.10922131562E+02 -0.27923507380E+02  0.29823020895E+03  0.29973366970E+03  0.00000000000E+00 0.  1.
          5    1    4    4  501    0  0.56608561261E+02 -0.34010855851E+02  0.28000545630E+03  0.28771825712E+03  0.41800000000E+01 0.  1.
         -5    1    4    4    0  501 -0.28380973883E+02  0.57202158702E+02  0.24516176392E+03  0.25337586611E+03  0.41800000000E+01 0.  1.
</event>
<event>
11    1  0.8328696E-009  0.1691969E+03  0.7561462E-02  0.1078733E+00
         22   -1    0    0    0    0  0.00000000000E+00  0.00000000000E+00  0.14596951994E+03  0.14596951994E+03  0.00000000000E+00 0. -1.
         22   -1    0    0    0    0 -0.00000000000E+00 -0.00000000000E+00 -0.90079310990E+03  0.90079310990E+03  0.00000000000E+00 0. -1.
        -24    2    1    2    0    0 -0.11998242311E+02 -0.16563894611E+02 -0.31801867564E+03  0.32833033924E+03  0.79035518523E+02 0.  0.
         25    2    1    2    0    0  0.11824919649E+03 -0.23499598635E+02 -0.52515115913E+03  0.55314448610E+03  0.12509987596E+03 0.  0.
         24    2    1    2    0    0 -0.10625095417E+03  0.40063493246E+02  0.88346244811E+02  0.16528780449E+03  0.81367380367E+02 0.  0.
        -11    1    5    5    0    0  0.11656651618E+02 -0.41068641733E+01  0.15498751329E+02  0.19823096454E+02  0.00000000000E+00 0.  1.
         12    1    5    5    0    0 -0.11790760579E+03  0.44170357419E+02  0.72847493482E+02  0.14546470804E+03  0.00000000000E+00 0. -1.
         11    1    3    3    0    0 -0.37231173821E+02 -0.16835189715E+02 -0.27823016592E+03  0.28121452513E+03  0.00000000000E+00 0. -1.
        -12    1    3    3    0    0  0.25232931510E+02  0.27129510374E+00 -0.39788509717E+02  0.47115814109E+02  0.00000000000E+00 0.  1.
          5    1    4    4  501    0  0.13056441934E+03 -0.13380968961E+01 -0.50144835513E+03  0.51818605092E+03  0.41800000000E+01 0.  1.
         -5    1    4    4    0  501 -0.12315222855E+02 -0.22161501739E+02 -0.23702803999E+02  0.34958435187E+02  0.41800000000E+01 0.  1.
</event>
<event>
11    1  0.8328696E-009  0.1364354E+03  0.7561462E-02  0.1111605E+00
         22   -1    0    0    0    0  0.00000000000E+00  0.00000000000E+00  0.62945145085E+03  0.62945145085E+03  0.00000000000E+00 0. -1.
         22   -1    0    0    0    0 -0.00000000000E+00 -0.00000000000E+00 -0.96072057068E+03  0.96072057068E+03  0.00000000000E+00 0.  1.
        -24    2    1    2    0    0 -0.37306812860E+02 -0.35254930902E+02 -0.65318656258E+03  0.65989085696E+03  0.78540111586E+02 0.  0.
         25    2    1    2    0    0  0.76971229806E+02  0.19479134439E+02 -0.28254665116E+03  0.31903911390E+03  0.12509731901E+03 0.  0.
         24    2    1    2    0    0 -0.39664416946E+02  0.15775796463E+02  0.60446409391E+03  0.61124205066E+03  0.80111559314E+02 0.  0.
        -11    1    5    5    0    0 -0.21044188505E+02  0.34853497835E+02  0.13461289818E+03  0.14063518954E+03  0.00000000000E+00 0.  1.
         12    1    5    5    0    0 -0.18620228441E+02 -0.19077701371E+02  0.46985119573E+03  0.47060686111E+03  0.00000000000E+00 0. -1.
         11    1    3    3    0    0  0.71011218781E+01 -0.45191173684E+02 -0.25065080051E+03  0.25479107502E+03  0.00000000000E+00 0. -1.
        -12    1    3    3    0    0 -0.44407934738E+02  0.99362427814E+01 -0.40253576207E+03  0.40509978195E+03  0.00000000000E+00 0.  1.
          5    1    4    4  501    0  0.36810418651E+02 -0.48106199852E+02 -0.17862974907E+03  0.18866709581E+03  0.41800000000E+01 0. -1.
         -5    1    4    4    0  501  0.40160811154E+02  0.67585334291E+02 -0.10391690209E+03  0.13037201810E+03  0.41800000000E+01 0. -1.
</event>
<event>
11    1  0.8328696E-009  0.1940725E+03  0.7561462E-02  0.1058796E+00
         22   -1    0    0    0    0  0.00000000000E+00  0.00000000000E+00  0.11671504157E+03  0.11671504157E+03  0.00000000000E+00 0.  1.
         22   -1    0    0    0    0 -0.00000000000E+00 -0.00000000000E+00 -0.26060838524E+04  0.26060838524E+04  0.00000000000E+00 0. -1.
         24    2    1    2    0    0 -0.28374971143E+02 -0.61818215243E+02 -0.85932430584E+03  0.86575598660E+03  0.80427203106E+02 0.  0.
         25    2    1    2    0    0  0.30338951078E+01  0.20584202779E+03 -0.16683054196E+04  0.16856068223E+04  0.12508893429E+03 0.  0.
        -24    2    1    2    0    0  0.25341076035E+02 -0.14402381255E+03  0.38260914524E+02  0.17143608512E+03  0.80878952673E+02 0.  0.
        -13    1    3    3    0    0 -0.18685968471E+02 -0.28996936307E+02 -0.10232011465E+03  0.10797867194E+03  0.00000000000E+00 0.  1.
         14    1    3    3    0    0 -0.96890026720E+01 -0.32821278936E+02 -0.75700419120E+03  0.75777731466E+03  0.00000000000E+00 0. -1.
         13    1    5    5    0    0  0.38731882536E+02 -0.57320106616E+02 -0.12171687236E+02  0.70241749105E+02  0.00000000000E+00 0. -1.
        -14    1    5    5    0    0 -0.13390806501E+02 -0.86703705935E+02  0.50432601759E+02  0.10119433602E+03  0.00000000000E+00 0.  1.
          5    1    4    4  501    0 -0.35904276842E+01  0.14678027871E+03 -0.14979363552E+04  0.15051206390E+04  0.41800000000E+01 0.  1.
         -5    1    4    4    0  501  0.66243227920E+01  0.59061749087E+02 -0.17036906435E+03  0.18048618325E+03  0.41800000000E+01 0.  1.
</event>
<event>
11    1  0.8328696E-009  0.1551114E+03  0.7561462E-02  0.1091767E+00
         22   -1    0    0    0    0  0.00000000000E+00  0.00000000000E+00  0.35402451450E+03  0.35402451450E+03  0.00000000000E+00 0.  1.
         22   -1    0    0    0    0 -0.00000000000E+00 -0.00000000000E+00 -0.41370956434E+03  0.41370956434E+03  0.00000000000E+00 0.  1.
         24    2    1    2    0    0 -0.87494832689E+02 -0.13308318385E+02 -0.24014646628E+03  0.26809693856E+03  0.79832237305E+02 0.  0.
         25    2    1    2    0    0  0.82595535028E+02  0.96985941460E+02 -0.93914331416E+02  0.20173119040E+03  0.12508907341E+03 0.  0.
        -24    2    1    2    0    0  0.48992976609E+01 -0.83677623076E+02  0.27437574786E+03  0.29790594988E+03  0.80249337932E+02 0.  0.
        -11    1    3    3    0    0 -0.29081025950E+02  0.51677239582E+01 -0.17941775674E+03  0.18183273323E+03  0.00000000000E+00 0.  1.
         12    1    3    3    0    0 -0.58413806738E+02 -0.18476042343E+02 -0.60728709538E+02  0.86264205326E+02  0.00000000000E+00 0. -1.
         11    1    5    5    0    0  0.39695279666E+02 -0.24152619239E+02  0.95571532230E+02  0.10626844318E+03  0.00000000000E+00 0. -1.
        -12    1    5    5    0    0 -0.34795982005E+02 -0.59525003837E+02  0.17880421563E+03  0.19163750670E+03  0.00000000000E+00 0.  1.
          5    1    4    4  501    0  0.54130929703E+02  0.84927641238E+02 -0.12303726975E+03  0.15905503432E+03  0.41800000000E+01 0. -1.
         -5    1    4    4    0  501  0.28464605325E+02  0.12058300223E+02  0.29122938330E+02  0.42676156077E+02  0.41800000000E+01 0. -1.
</event>
<event>
11    1  0.8328696E-009  0.1297868E+03  0.7561462E-02  0.1119531E+00
         22   -1    0    0    0    0  0.00000000000E+00  0.00000000000E+00  0.21158213564E+03  0.21158213564E+03  0.00000000000E+00 0. -1.
         22   -1    0    0    0    0 -0.00000000000E+00 -0.00000000000E+00 -0.10763110068E+04  0.10763110068E+04  0.00000000000E+00 0. -1.
         24    2    1    2    0    0 -0.19295957975E+02 -0.28236377775E+02 -0.99600015909E+03  0.99976202936E+03  0.79612633557E+02 0.  0.
         25    2    1    2    0    0  0.25611424418E+02  0.40944514425E+02 -0.16628274972E+00  0.13409325629E+03  0.12509426610E+03 0.  0.
        -24    2    1    2    0    0 -0.63154664439E+01 -0.12708136650E+02  0.13143757065E+03  0.15403785681E+03  0.79059752726E+02 0.  0.
        -13    1    3    3    0    0  0.58246316625E+01 -0.10369106857E+02 -0.19955777140E+02  0.23230965375E+02  0.00000000000E+00 0.  1.
         14    1    3    3    0    0 -0.25120589637E+02 -0.17867270918E+02 -0.97604438195E+03  0.97653106398E+03  0.00000000000E+00 0. -1.
         13    1    5    5    0    0 -0.14472042604E+02  0.49558454220E+01  0.13358994221E+03  0.13446290597E+03  0.00000000000E+00 0. -1.
        -14    1    5    5    0    0  0.81565761599E+01 -0.17663982072E+02 -0.21523715661E+01  0.19574950847E+02  0.00000000000E+00 0.  1.
          5    1    4    4  501    0 -0.24195656734E+02  0.56848125092E+02 -0.34997888314E+02  0.71129907336E+02  0.41800000000E+01 0. -1.
         -5    1    4    4    0  501  0.49807081153E+02 -0.15903610667E+02  0.34831605564E+02  0.62963348953E+02  0.41800000000E+01 0. -1.
</event>
<event>
11    1  0.8328696E-009  0.1266648E+03  0.7561462E-02  0.1123436E+00
         22   -1    0    0    0    0  0.00000000000E+00  0.00000000000E+00  0.38583175326E+03  0.38583175326E+03  0.00000000000E+00 0.  1.
         22   -1    0    0    0    0 -0.00000000000E+00 -0.00000000000E+00 -0.15857949903E+04  0.15857949903E+04  0.00000000000E+00 0.  1.
         24    2    1    2    0    0 -0.19811267223E+02 -0.48372130353E+01 -0.14957123769E+04  0.14980928774E+04  0.81919900307E+02 0.  0.
         25    2    1    2    0    0  0.15282377735E+01 -0.33743077616E+01 -0.37217734541E+02  0.13056300388E+03  0.12509123372E+03 0.  0.
        -24    2    1    2    0    0  0.18283029449E+02  0.82115207969E+01  0.33296687435E+03  0.34297086229E+03  0.79751957487E+02 0.  0.
        -11    1    3    3    0    0  0.31767559618E+02 -0.50974380219E+01 -0.66874111052E+03  0.66951462614E+03  0.00000000000E+00 0.  1.
         12    1    3    3    0    0 -0.51578826840E+02  0.26022498659E+00 -0.82697126637E+03  0.82857825129E+03  0.00000000000E+00 0. -1.
         13    1    5    5    0    0 -0.24463467523E+01 -0.69766924576E+01 -0.14785850288E+01  0.75395665504E+01  0.00000000000E+00 0. -1.
        -14    1    5    5    0    0  0.20729376201E+02  0.15188213255E+02  0.33444545938E+03  0.33543129574E+03  0.00000000000E+00 0.  1.
          5    1    4    4  501    0 -0.19574796669E+02  0.32009361640E+02  0.32274718088E+02  0.49667914441E+02  0.41800000000E+01 0. -1.
         -5    1    4    4    0  501  0.21103034443E+02 -0.35383669401E+02 -0.69492452629E+02  0.80895089439E+02  0.41800000000E+01 0. -1.
</event>
<event>
11    1  0.8328696E-009  0.1500918E+03  0.7561462E-02  0.1096785E+00
         22   -1    0    0    0    0  0.00000000000E+00  0.00000000000E+00  0.32716047596E+03  0.32716047596E+03  0.00000000000E+00 0.  1.
         22   -1    0    0    0    0 -0.00000000000E+00 -0.00000000000E+00 -0.16287535874E+04  0.16287535874E+04  0.00000000000E+00 0. -1.
         24    2    1    2    0    0 -0.78443214686E+02 -0.16224296135E+02 -0.13756771405E+04  0.13804176646E+04  0.81539978814E+02 0.  0.
         25    2    1    2    0    0  0.11077028805E+03  0.73120756805E+02 -0.20716770236E+03  0.27601216309E+03  0.12509018939E+03 0.  0.
        -24    2    1    2    0    0 -0.32327073364E+02 -0.56896460671E+02  0.28125173132E+03  0.29948423577E+03  0.79410479095E+02 0.  0.
        -11    1    3    3    0    0  0.12320432191E+02  0.89866924433E+01 -0.89014799806E+02  0.90311617607E+02  0.00000000000E+00 0.  1.
         12    1    3    3    0    0 -0.90763646877E+02 -0.25210988578E+02 -0.12866623406E+04  0.12901060469E+04  0.00000000000E+00 0. -1.
         11    1    5    5    0    0  0.16835215142E+02 -0.18834972460E+02  0.24068065964E+02  0.34892011345E+02  0.00000000000E+00 0. -1.
        -12    1    5    5    0    0 -0.49162288505E+02 -0.38061488211E+02  0.25718366536E+03  0.26459222442E+03  0.00000000000E+00 0.  1.
          5    1    4    4  501    0  0.10596173157E+03  0.49726661117E+02 -0.21951204679E+03  0.24880442213E+03  0.41800000000E+01 0.  1.
         -5    1    4    4    0  501  0.48085564821E+01  0.23394095689E+02  0.12344344437E+02  0.27207740959E+02  0.41800000000E+01 0.  1.
</event>
<event>
11    1  0.8328696E-009  0.1489315E+03  0.7561462E-02  0.1097976E+00
         22   -1    0    0    0    0  0.00000000000E+00  0.00000000000E+00  0.16780813377E+03  0.16780813377E+03  0.00000000000E+00 0.  1.
         22   -1    0    0    0    0 -0.00000000000E+00 -0.00000000000E+00 -0.12614528202E+04  0.12614528202E+04  0.00000000000E+00 0. -1.
         24    2    1    2    0    0  0.10443289230E+02 -0.42222276015E+02 -0.99791797101E+03  0.10020562260E+04  0.79903819421E+02 0.  0.
         25    2    1    2    0    0 -0.90332209880E+02  0.40516809908E+02 -0.21190104911E+03  0.26523761954E+03  0.12508964857E+03 0.  0.
        -24    2    1    2    0    0  0.79888920650E+02  0.17054661078E+01  0.11617433370E+03  0.16196710839E+03  0.79697679591E+02 0.  0.
        -11    1    3    3    0    0 -0.74754581022E+01  0.21966741069E+02 -0.19456657251E+03  0.19594532739E+03  0.00000000000E+00 0.  1.
         12    1    3    3    0    0  0.17918747333E+02 -0.64189017084E+02 -0.80335139850E+03  0.80611089863E+03  0.00000000000E+00 0. -1.
         13    1    5    5    0    0  0.18624246297E+02 -0.64105409562E+01 -0.95388524597E+01  0.21884864444E+02  0.00000000000E+00 0. -1.
        -14    1    5    5    0    0  0.61264674353E+02  0.81160070640E+01  0.12571318616E+03  0.14008224395E+03  0.00000000000E+00 0.  1.
          5    1    4    4  501    0 -0.92954988715E+02  0.63980783766E+02 -0.10012686786E+03  0.15092061717E+03  0.41800000000E+01 0. -1.
         -5    1    4    4    0  501  0.26227788345E+01 -0.23463973859E+02 -0.11177418124E+03  0.11431700237E+03  0.41800000000E+01 0. -1.
</event>
<event>
11    1  0.8328696E-009  0.1279998E+03  0.7561462E-02  0.1121751E+00
         22   -1    0    0    0    0  0.00000000000E+00  0.00000000000E+00  0.26213614809E+04  0.26213614809E+04  0.00000000000E+00 0. -1.
         22   -1    0    0    0    0 -0.00000000000E+00 -0.00000000000E+00 -0.25733923890E+02  0.25733923890E+02  0.00000000000E+00 0. -1.
        -24    2    1    2    0    0  0.28533444140E+02 -0.66699551304E+01  0.64918386087E+02  0.10379720003E+03  0.75503749213E+02 0.  0.
         25    2    1    2    0    0 -0.92335184298E+00  0.25582977438E+02  0.74498406500E+03  0.75584666909E+03  0.12509032240E+03 0.  0.
         24    2    1    2    0    0 -0.27610092297E+02 -0.18913022308E+02  0.17857251059E+04  0.17874515357E+04  0.71055040924E+02 0.  0.
        -11    1    5    5    0    0 -0.51133948616E+02 -0.56552074662E+01  0.11289436326E+04  0.11301152099E+04  0.00000000000E+00 0.  1.
         12    1    5    5    0    0  0.23523856319E+02 -0.13257814841E+02  0.65678147331E+03  0.65733632575E+03  0.00000000000E+00 0. -1.
         11    1    3    3    0    0  0.10300054583E+02 -0.29346274578E+02 -0.16521668443E+01  0.31145218113E+02  0.00000000000E+00 0. -1.
        -12    1    3    3    0    0  0.18233389558E+02  0.22676319447E+02  0.66570552931E+02  0.72651981914E+02  0.00000000000E+00 0.  1.
          5    1    4    4  501    0 -0.46311917881E+02  0.55854739911E+02  0.44989583589E+03  0.45572829762E+03  0.41800000000E+01 0.  1.
         -5    1    4    4    0  501  0.45388566038E+02 -0.30271762473E+02  0.29508822912E+03  0.30011837147E+03  0.41800000000E+01 0.  1.
</event>
<event>
11    1  0.8328696E-009  0.2102328E+03  0.7561462E-02  0.1047514E+00
         22   -1    0    0    0    0  0.00000000000E+00  0.00000000000E+00  0.76734986160E+03  0.76734986160E+03  0.00000000000E+00 0.  1.
         22   -1    0    0    0    0 -0.00000000000E+00 -0.00000000000E+00 -0.57923142591E+03  0.57923142591E+03  0.00000000000E+00 0. -1.
         24    2    1    2    0    0 -0.35173006754E+02  0.10263956805E+02 -0.45454712857E+03  0.46298607484E+03  0.80003276108E+02 0.  0.
         25    2    1    2    0    0  0.18526544200E+03  0.60416320611E+02  0.18046055805E+02  0.23226554272E+03  0.12509279118E+03 0.  0.
        -24    2    1    2    0    0 -0.15009243525E+03 -0.70680277416E+02  0.62461950846E+03  0.65132966995E+03  0.80977576394E+02 0.  0.
        -11    1    3    3    0    0  0.10256765902E+02 -0.16200993120E+02 -0.32949143928E+02  0.38122427918E+02  0.00000000000E+00 0.  1.
         12    1    3    3    0    0 -0.45429772656E+02  0.26464949925E+02 -0.42159798465E+03  0.42486364692E+03  0.00000000000E+00 0. -1.
         11    1    5    5    0    0 -0.97427086146E+01 -0.38470933507E+02  0.16360809783E+03  0.16835243620E+03  0.00000000000E+00 0. -1.
        -12    1    5    5    0    0 -0.14034972664E+03 -0.32209343909E+02  0.46101141063E+03  0.48297723376E+03  0.00000000000E+00 0.  1.
          5    1    4    4  501    0  0.13882698854E+02  0.57189622982E+02  0.14547334342E+02  0.60765776887E+02  0.41800000000E+01 0.  1.
         -5    1    4    4    0  501  0.17138274315E+03  0.32266976286E+01  0.34987214631E+01  0.17149976583E+03  0.41800000000E+01 0.  1.
</event>
<event>
11    1  0.8328696E-009  0.1318199E+03  0.7561462E-02  0.1117053E+00
         22   -1    0    0    0    0  0.00000000000E+00  0.00000000000E+00  0.32637030609E+03  0.32637030609E+03  0.00000000000E+00 0. -1.
         22   -1    0    0    0    0 -0.00000000000E+00 -0.00000000000E+00 -0.11073908679E+04  0.11073908679E+04  0.00000000000E+00 0. -1.
         24    2    1    2    0    0 -0.71771678123E+01  0.41257081489E+02 -0.64246845055E+03  0.64901179228E+03  0.81834821778E+02 0.  0.
         25    2    1    2    0    0  0.44094510883E+02 -0.29106473962E+02 -0.44518012636E+03  0.46542993726E+03  0.12509264116E+03 0.  0.
        -24    2    1    2    0    0 -0.36917343071E+02 -0.12150607528E+02  0.30662801514E+03  0.31931944441E+03  0.80209977101E+02 0.  0.
        -13    1    3    3    0    0  0.29536365027E+01 -0.15982342860E+02 -0.33079153557E+02  0.36856338016E+02  0.00000000000E+00 0.  1.
         14    1    3    3    0    0 -0.10130804315E+02  0.57239424349E+02 -0.60938929699E+03  0.61215545426E+03  0.00000000000E+00 0. -1.
         11    1    5    5    0    0 -0.59035773208E+02 -0.11487990176E+02  0.26922359591E+03  0.27585964009E+03  0.00000000000E+00 0. -1.
        -12    1    5    5    0    0  0.22118430137E+02 -0.66261735162E+00  0.37404419236E+02  0.43459804324E+02  0.00000000000E+00 0.  1.
          5    1    4    4  501    0  0.75797273311E+02 -0.31031050210E+02 -0.40884668549E+03  0.41699069217E+03  0.41800000000E+01 0.  1.
         -5    1    4    4    0  501 -0.31702762428E+02  0.19245762488E+01 -0.36333440872E+02  0.48439245090E+02  0.41800000000E+01 0.  1.
</event>
<event>
11    1  0.8328696E-009  0.1324798E+03  0.7561462E-02  0.1116259E+00
         22   -1    0    0    0    0  0.00000000000E+00  0.00000000000E+00  0.40748518155E+03  0.40748518155E+03  0.00000000000E+00 0. -1.
         22   -1    0    0    0    0 -0.00000000000E+00 -0.00000000000E+00 -0.20533835900E+03  0.20533835900E+03  0.00000000000E+00 0. -1.
         24    2    1    2    0    0  0.14201512909E+02 -0.85926784740E+01 -0.14583902696E+03  0.16427589454E+03  0.73770120309E+02 0.  0.
         25    2    1    2    0    0  0.11725631328E+02  0.43871549920E+02  0.61377243090E+02  0.14655000914E+03  0.12509011107E+03 0.  0.
        -24    2    1    2    0    0 -0.25927144237E+02 -0.35278871446E+02  0.28660860641E+03  0.30199763686E+03  0.84505998743E+02 0.  0.
        -13    1    3    3    0    0  0.17187634543E+02  0.29370991167E+02 -0.44518597784E+02  0.56035483864E+02  0.00000000000E+00 0.  1.
         14    1    3    3    0    0 -0.29861216342E+01 -0.37963669641E+02 -0.10132042917E+03  0.10824041067E+03  0.00000000000E+00 0. -1.
         13    1    5    5    0    0 -0.18361597158E+02 -0.36482766378E+02  0.29053329815E+03  0.29339007793E+03  0.00000000000E+00 0. -1.
        -14    1    5    5    0    0 -0.75655470787E+01  0.12038949322E+01 -0.39246917379E+01  0.86075589366E+01  0.00000000000E+00 0.  1.
          5    1    4    4  501    0 -0.36441691870E+02 -0.19782645505E+02  0.51128679999E+02  0.65961839634E+02  0.41800000000E+01 0.  1.
         -5    1    4    4    0  501  0.48167323198E+02  0.63654195425E+02  0.10248563091E+02  0.80588169508E+02  0.41800000000E+01 0.  1.
</event>
<event>
11    1  0.8328696E-009  0.1694569E+03  0.7561462E-02  0.1078505E+00
         22   -1    0    0    0    0  0.00000000000E+00  0.00000000000E+00  0.21916359340E+03  0.21916359340E+03  0.00000000000E+00 0. -1.
         22   -1    0    0    0    0 -0.00000000000E+00 -0.00000000000E+00 -0.31977832257E+04  0.31977832257E+04  0.00000000000E+00 0. -1.
         24    2    1    2    0    0 -0.73156998254E+02  0.85245936753E+02 -0.29440654525E+04  0.29472663186E+04  0.78984480155E+02 0.  0.
         25    2    1    2    0    0  0.94863004007E+02 -0.15216751119E+03 -0.18392590395E+03  0.28571002121E+03  0.12509011587E+03 0.  0.
        -24    2    1    2    0    0 -0.21706005753E+02  0.66921574442E+02  0.14937172414E+03  0.18397047928E+03  0.81139247369E+02 0.  0.
        -13    1    3    3    0    0 -0.29449795479E+02  0.66294933838E+02 -0.10045217866E+04  0.10071376909E+04  0.00000000000E+00 0.  1.
         14    1    3    3    0    0 -0.43707202775E+02  0.18951002914E+02 -0.19395436659E+04  0.19401286277E+04  0.00000000000E+00 0. -1.
         11    1    5    5    0    0 -0.37782840841E+02  0.27881770876E+02  0.12862458085E+03  0.13692778757E+03  0.00000000000E+00 0. -1.
        -12    1    5    5    0    0  0.16076835088E+02  0.39039803566E+02  0.20747143283E+02  0.47042691710E+02  0.00000000000E+00 0.  1.
          5    1    4    4  501    0  0.10592372179E+03 -0.60522912662E+02 -0.76709787559E+02  0.14416907332E+03  0.41800000000E+01 0. -1.
         -5    1    4    4    0  501 -0.11060717780E+02 -0.91644598533E+02 -0.10721611639E+03  0.14154094790E+03  0.41800000000E+01 0. -1.
</event>
<event>
11    1  0.8328696E-009  0.1402807E+03  0.7561462E-02  0.1107245E+00
         22   -1    0    0    0    0  0.00000000000E+00  0.00000000000E+00  0.86081414704E+03  0.86081414704E+03  0.00000000000E+00 0.  1.
         22   -1    0    0    0    0 -0.00000000000E+00 -0.00000000000E+00 -0.15623032119E+04  0.15623032119E+04  0.00000000000E+00 0.  1.
         24    2    1    2    0    0  0.28271990674E+02 -0.56706677481E+02 -0.11437628550E+04  0.11481996556E+04  0.78447612454E+02 0.  0.
         25    2    1    2    0    0 -0.56420761040E+02  0.42292862375E+02 -0.40163618372E+03  0.42653367519E+03  0.12508942205E+03 0.  0.
        -24    2    1    2    0    0  0.28148770366E+02  0.14413815107E+02  0.84390997389E+03  0.84838402813E+03  0.81063578826E+02 0.  0.
        -11    1    3    3    0    0  0.44168127655E+02 -0.66323404374E+02 -0.80695037274E+03  0.81087515780E+03  0.00000000000E+00 0.  1.
         12    1    3    3    0    0 -0.15896136981E+02  0.96167268923E+01 -0.33681248225E+03  0.33732449778E+03  0.00000000000E+00 0. -1.
         13    1    5    5    0    0  0.16221991153E+02 -0.10558751637E+02  0.44891918149E+02  0.48886854554E+02  0.00000000000E+00 0. -1.
        -14    1    5    5    0    0  0.11926779213E+02  0.24972566744E+02  0.79901805574E+03  0.79949717357E+03  0.00000000000E+00 0.  1.
          5    1    4    4  501    0 -0.93960113002E+02  0.18235291373E+02 -0.23009079303E+03  0.24923939120E+03  0.41800000000E+01 0.  1.
         -5    1    4    4    0  501  0.37539351962E+02  0.24057571001E+02 -0.17154539069E+03  0.17729428399E+03  0.41800000000E+01 0.  1.
</event>
<event>
11    1  0.8328696E-009  0.1795490E+03  0.7561462E-02  0.1070008E+00
         22   -1    0    0    0    0  0.00000000000E+00  0.00000000000E+00  0.22596184713E+04  0.22596184713E+04  0.00000000000E+00 0.  1.
         22   -1    0    0    0    0 -0.00000000000E+00 -0.00000000000E+00 -0.23228622882E+03  0.23228622882E+03  0.00000000000E+00 0.  1.
         24    2    1    2    0    0  0.12189255438E+03  0.38926228607E+02 -0.14852741025E+03  0.21210752910E+03  0.80970156348E+02 0.  0.
         25    2    1    2    0    0 -0.13919883997E+03  0.12136604407E+01  0.12086369378E+03  0.22278514307E+03  0.12508955782E+03 0.  0.
        -24    2    1    2    0    0  0.17306285593E+02 -0.40139889048E+02  0.20549959589E+04  0.20570120279E+04  0.79870981248E+02 0.  0.
        -13    1    3    3    0    0  0.12255709725E+03  0.39594650990E+02 -0.98682095047E+02  0.16225330307E+03  0.00000000000E+00 0.  1.
         14    1    3    3    0    0 -0.66454287177E+00 -0.66842238280E+00 -0.49845315203E+02  0.49854226033E+02  0.00000000000E+00 0. -1.
         11    1    5    5    0    0 -0.18740070682E+02  0.12897188486E+02  0.85615960528E+03  0.85646178982E+03  0.00000000000E+00 0. -1.
        -12    1    5    5    0    0  0.36046356275E+02 -0.53037077533E+02  0.11988363536E+04  0.12005502381E+04  0.00000000000E+00 0.  1.
          5    1    4    4  501    0 -0.13808381781E+02 -0.42611356848E+02  0.64015890759E+02  0.78242608657E+02  0.41800000000E+01 0.  1.
         -5    1    4    4    0  501 -0.12539045819E+03  0.43825017288E+02  0.56847803021E+02  0.14454253441E+03  0.41800000000E+01 0.  1.
</event>
<event>
11    1  0.8328696E-009  0.3314458E+03  0.7561462E-02  0.9876962E-01
         22   -1    0    0    0    0  0.00000000000E+00  0.00000000000E+00  0.17212847293E+04  0.17212847293E+04  0.00000000000E+00 0. -1.
         22   -1    0    0    0    0 -0.00000000000E+00 -0.00000000000E+00 -0.11368538814E+04  0.11368538814E+04  0.00000000000E+00 0.  1.
         24    2    1    2    0    0 -0.48305037992E+02 -0.12733057343E+03 -0.63505859413E+03  0.65432472411E+03  0.79340878403E+02 0.  0.
         25    2    1    2    0    0  0.19627784239E+03  0.39145415018E+03 -0.36814060664E+03  0.58560790905E+03  0.12509106194E+03 0.  0.
        -24    2    1    2    0    0 -0.14797280440E+03 -0.26412357675E+03  0.15876300487E+04  0.16182059775E+04  0.79775933991E+02 0.  0.
        -11    1    3    3    0    0 -0.68503287659E+02 -0.98102680166E+02 -0.43599574020E+03  0.45211627016E+03  0.00000000000E+00 0.  1.
         12    1    3    3    0    0  0.20198249667E+02 -0.29227893260E+02 -0.19906285393E+03  0.20220845395E+03  0.00000000000E+00 0. -1.
         11    1    5    5    0    0 -0.12308383503E+03 -0.23460491790E+03  0.12131976271E+04  0.12417880577E+04  0.00000000000E+00 0. -1.
        -12    1    5    5    0    0 -0.24888969374E+02 -0.29518658849E+02  0.37443242159E+03  0.37641791981E+03  0.00000000000E+00 0.  1.
          5    1    4    4  501    0 -0.65605968745E+01  0.82610844519E+02 -0.94754860643E+02  0.12595058189E+03  0.41800000000E+01 0.  1.
         -5    1    4    4    0  501  0.20283843927E+03  0.30884330566E+03 -0.27338574599E+03  0.45965732715E+03  0.41800000000E+01 0.  1.
</event>
<event>
11    1  0.8328696E-009  0.1662165E+03  0.7561462E-02  0.1081372E+00
         22   -1    0    0    0    0  0.00000000000E+00  0.00000000000E+00  0.14659634898E+04  0.14659634898E+04  0.00000000000E+00 0.  1.
         22   -1    0    0    0    0 -0.00000000000E+00 -0.00000000000E+00 -0.19350351380E+03  0.19350351380E+03  0.00000000000E+00 0.  1.
         24    2    1    2    0    0 -0.10201896242E+03 -0.40924228131E+02 -0.14465950513E+03  0.20010139831E+03  0.83854254745E+02 0.  0.
         25    2    1    2    0    0  0.95516768894E+02  0.40866415893E+02  0.31673615609E+03  0.35603609349E+03  0.12508553157E+03 0.  0.
        -24    2    1    2    0    0  0.65021935263E+01  0.57812238418E-01  0.11003833251E+04  0.11033295118E+04  0.80313558720E+02 0.  0.
        -13    1    3    3    0    0 -0.11515738168E+03 -0.37625186347E+02 -0.14133773209E+03  0.18615378512E+03  0.00000000000E+00 0.  1.
         14    1    3    3    0    0  0.13138419263E+02 -0.32990417837E+01 -0.33217730437E+01  0.13947613186E+02  0.00000000000E+00 0. -1.
         13    1    5    5    0    0 -0.36764284696E+01 -0.54709596445E+01  0.60877630018E+01  0.89726464374E+01  0.00000000000E+00 0. -1.
        -14    1    5    5    0    0  0.10178621996E+02  0.55287718829E+01  0.10942955621E+04  0.10943568654E+04  0.00000000000E+00 0.  1.
          5    1    4    4  501    0  0.33804049898E+02 -0.43670380573E+01  0.25590094270E+03  0.25819479020E+03  0.41800000000E+01 0.  1.
         -5    1    4    4    0  501  0.61712718996E+02  0.45233453950E+02  0.60835213386E+02  0.97841303291E+02  0.41800000000E+01 0.  1.
</event>
<event>
11    1  0.8328696E-009  0.1339886E+03  0.7561462E-02  0.1114463E+00
         22   -1    0    0    0    0  0.00000000000E+00  0.00000000000E+00  0.12653663086E+03  0.12653663086E+03  0.00000000000E+00 0.  1.
         22   -1    0    0    0    0 -0.00000000000E+00 -0.00000000000E+00 -0.69042012972E+03  0.69042012972E+03  0.00000000000E+00 0. -1.
         24    2    1    2    0    0 -0.27328024809E+02 -0.32237255462E+02 -0.43970286014E+03  0.44917201138E+03  0.81429902455E+02 0.  0.
         25    2    1    2    0    0  0.72470474856E+02  0.38684639941E+02 -0.20323442597E+03  0.25238789178E+03  0.12508774890E+03 0.  0.
        -24    2    1    2    0    0 -0.45142450047E+02 -0.64473844794E+01  0.79053787253E+02  0.11539685742E+03  0.70622403386E+02 0.  0.
        -13    1    3    3    0    0 -0.33351043676E+02 -0.59385156804E+01 -0.63222434524E+02  0.71726106195E+02  0.00000000000E+00 0.  1.
         14    1    3    3    0    0  0.60230188664E+01 -0.26298739781E+02 -0.37648042562E+03  0.37744590519E+03  0.00000000000E+00 0. -1.
         11    1    5    5    0    0 -0.13039639468E+02  0.16791625957E+02 -0.55484123902E+01  0.21972159197E+02  0.00000000000E+00 0. -1.
        -12    1    5    5    0    0 -0.32102810579E+02 -0.23239010436E+02  0.84602199643E+02  0.93424698221E+02  0.00000000000E+00 0.  1.
          5    1    4    4  501    0 -0.34211714636E+02  0.26954153370E+00 -0.64789648392E+02  0.73387226475E+02  0.41800000000E+01 0. -1.
         -5    1    4    4    0  501  0.10668218949E+03  0.38415098407E+02 -0.13844477758E+03  0.17900066531E+03  0.41800000000E+01 0. -1.
</event>
<event>
11    1  0.8328696E-009  0.2576146E+03  0.7561462E-02  0.1019919E+00
         22   -1    0    0    0    0  0.00000000000E+00  0.00000000000E+00  0.15639631742E+04  0.15639631742E+04  0.00000000000E+00 0.  1.
         22   -1    0    0    0    0 -0.00000000000E+00 -0.00000000000E+00 -0.94792478080E+03  0.94792478080E+03  0.00000000000E+00 0. -1.
        -24    2    1    2    0    0  0.21564740703E+03  0.74280823763E+02 -0.58939311583E+03  0.63724434278E+03  0.81698607582E+02 0.  0.
         25    2    1    2    0    0 -0.13691333109E+03 -0.22009959527E+03 -0.26591752568E+03  0.39185236745E+03  0.12508819027E+03 0.  0.
         24    2    1    2    0    0 -0.78734075941E+02  0.14581877151E+03  0.14713490349E+04  0.14827912448E+04  0.79622385155E+02 0.  0.
        -11    1    5    5    0    0 -0.67557634595E+02  0.15300120425E+03  0.12640573473E+04  0.12750742644E+04  0.00000000000E+00 0.  1.
         12    1    5    5    0    0 -0.11176441346E+02 -0.71824327397E+01  0.20729168760E+03  0.20771698036E+03  0.00000000000E+00 0. -1.
         13    1    3    3    0    0  0.13791260329E+03  0.86085662878E+02 -0.36827660654E+03  0.40256463633E+03  0.00000000000E+00 0. -1.
        -14    1    3    3    0    0  0.77734803741E+02 -0.11804839115E+02 -0.22111650929E+03  0.23467970645E+03  0.00000000000E+00 0.  1.
          5    1    4    4  501    0 -0.11892191814E+03 -0.75034765356E+02 -0.11492499221E+03  0.18165314438E+03  0.41800000000E+01 0.  1.
         -5    1    4    4    0  501 -0.17991412946E+02 -0.14506482992E+03 -0.15099253346E+03  0.21019922307E+03  0.41800000000E+01 0.  1.
</event>
<event>
11    1  0.8328696E-009  0.1493325E+03  0.7561462E-02  0.1097563E+00
         22   -1    0    0    0    0  0.00000000000E+00  0.00000000000E+00  0.17350773025E+03  0.17350773025E+03  0.00000000000E+00 0.  1.
         22   -1    0    0    0    0 -0.00000000000E+00 -0.00000000000E+00 -0.37588813609E+04  0.37588813609E+04  0.00000000000E+00 0. -1.
         24    2    1    2    0    0  0.23452312706E+02  0.77687223976E+02 -0.34928090869E+04  0.34947366208E+04  0.82966353741E+02 0.  0.
         25    2    1    2    0    0 -0.60172504630E+02 -0.77700560197E+02 -0.22625770396E+03  0.27658651037E+03  0.12509772880E+03 0.  0.
        -24    2    1    2    0    0  0.36720191924E+02  0.13336220950E-01  0.13369316013E+03  0.16106596000E+03  0.81975665490E+02 0.  0.
        -11    1    3    3    0    0  0.69387379937E+01  0.38372187088E+02 -0.46644263753E+03  0.46806976503E+03  0.00000000000E+00 0.  1.
         12    1    3    3    0    0  0.16513574712E+02  0.39315036888E+02 -0.30263664493E+04  0.30266668558E+04  0.00000000000E+00 0. -1.
         13    1    5    5    0    0 -0.22959583938E+02  0.15743362354E+02  0.47460191740E+02  0.55022411369E+02  0.00000000000E+00 0. -1.
        -14    1    5    5    0    0  0.59679775862E+02 -0.15730026133E+02  0.86232968393E+02  0.10604354863E+03  0.00000000000E+00 0.  1.
          5    1    4    4  501    0 -0.66759318739E+02 -0.53469057516E+02 -0.51379581567E+02  0.99865312057E+02  0.41800000000E+01 0.  1.
         -5    1    4    4    0  501  0.65868141086E+01 -0.24231502680E+02 -0.17487812239E+03  0.17672119831E+03  0.41800000000E+01 0.  1.
</event>
<event>
11    1  0.8328696E-009  0.1318620E+03  0.7561462E-02  0.1117002E+00
         22   -1    0    0    0    0  0.00000000000E+00  0.00000000000E+00  0.47202055307E+03  0.47202055307E+03  0.00000000000E+00 0.  1.
         22   -1    0    0    0    0 -0.00000000000E+00 -0.00000000000E+00 -0.35072385409E+03  0.35072385409E+03  0.00000000000E+00 0.  1.
         24    2    1    2    0    0 -0.96735400508E+01  0.39668970162E+02 -0.30962554558E+03  0.32263964208E+03  0.81000960437E+02 0.  0.
         25    2    1    2    0    0 -0.13112932376E+02 -0.72801582264E+02  0.16522056173E+03  0.22003870583E+03  0.12508868322E+03 0.  0.
        -24    2    1    2    0    0  0.22786472427E+02  0.33132612102E+02  0.26570168284E+03  0.28006605926E+03  0.78883584979E+02 0.  0.
        -13    1    3    3    0    0 -0.19082081313E+02  0.62512321220E+02 -0.20653196820E+03  0.21662726056E+03  0.00000000000E+00 0.  1.
         14    1    3    3    0    0  0.94085412623E+01 -0.22843351058E+02 -0.10309357738E+03  0.10601238151E+03  0.00000000000E+00 0. -1.
         11    1    5    5    0    0  0.12559168545E+02  0.28842838014E+02  0.28026475811E+02  0.42132236655E+02  0.00000000000E+00 0. -1.
        -12    1    5    5    0    0  0.10227303882E+02  0.42897740887E+01  0.23767520703E+03  0.23793382261E+03  0.00000000000E+00 0.  1.
          5    1    4    4  501    0  0.24622141584E+00 -0.94063174372E+02  0.59692187611E+02  0.11148350129E+03  0.41800000000E+01 0.  1.
         -5    1    4    4    0  501 -0.13359153792E+02  0.21261592108E+02  0.10552837411E+03  0.10855520454E+03  0.41800000000E+01 0.  1.
</event>
<event>
11    1  0.8328696E-009  0.1505533E+03  0.7561462E-02  0.1096315E+00
         22   -1    0    0    0    0  0.00000000000E+00  0.00000000000E+00  0.62546301108E+03  0.62546301108E+03  0.00000000000E+00 0. -1.
         22   -1    0    0    0    0 -0.00000000000E+00 -0.00000000000E+00 -0.34084029546E+03  0.34084029546E+03  0.00000000000E+00 0.  1.
        -24    2    1    2    0    0 -0.55061043252E+02 -0.60533849788E+02 -0.19736977212E+03  0.22858850163E+03  0.81251527234E+02 0.  0.
         25    2    1    2    0    0  0.19044111484E+02  0.99610715074E+02 -0.71107617219E+02  0.17603310520E+03  0.12508552339E+03 0.  0.
         24    2    1    2    0    0  0.36016931768E+02 -0.39076865286E+02  0.55310010496E+03  0.56168169971E+03  0.82112026585E+02 0.  0.
        -13    1    5    5    0    0 -0.19662795032E+02 -0.19216594323E+02  0.73893811247E+02  0.78842871247E+02  0.00000000000E+00 0.  1.
         14    1    5    5    0    0  0.55679726800E+02 -0.19860270963E+02  0.47920629371E+03  0.48283882846E+03  0.00000000000E+00 0. -1.
         13    1    3    3    0    0 -0.50504006644E+02 -0.73468205181E+01 -0.14536030072E+03  0.15405923369E+03  0.00000000000E+00 0. -1.
        -14    1    3    3    0    0 -0.45570366081E+01 -0.53187029270E+02 -0.52009471398E+02  0.74529267945E+02  0.00000000000E+00 0.  1.
          5    1    4    4  501    0  0.35758425906E+02 -0.15797297670E+02 -0.38146812340E+02  0.54780209279E+02  0.41800000000E+01 0. -1.
         -5    1    4    4    0  501 -0.16714314422E+02  0.11540801274E+03 -0.32960804879E+02  0.12125289593E+03  0.41800000000E+01 0. -1.
</event>
<event>
11    1  0.8328696E-009  0.2242914E+03  0.7561462E-02  0.1038562E+00
         22   -1    0    0    0    0  0.00000000000E+00  0.00000000000E+00  0.70234673548E+03  0.70234673548E+03  0.00000000000E+00 0.  1.
         22   -1    0    0    0    0 -0.00000000000E+00 -0.00000000000E+00 -0.10439429741E+04  0.10439429741E+04  0.00000000000E+00 0. -1.
        -24    2    1    2    0    0  0.37641621484E+02  0.18100267164E+03 -0.93314926384E+03  0.95461161541E+03  0.79604829479E+02 0.  0.
         25    2    1    2    0    0 -0.41686154458E+02 -0.19962519484E+03  0.52595122480E+02  0.24496185833E+03  0.12510839797E+03 0.  0.
         24    2    1    2    0    0  0.40445329738E+01  0.18622523193E+02  0.53895790274E+03  0.54671623583E+03  0.89776750736E+02 0.  0.
        -11    1    5    5    0    0 -0.91846725577E+01  0.11029104687E+02  0.52735729749E+03  0.52755257423E+03  0.00000000000E+00 0.  1.
         12    1    5    5    0    0  0.13229205532E+02  0.75934185063E+01  0.11600605249E+02  0.19163661596E+02  0.00000000000E+00 0. -1.
         11    1    3    3    0    0  0.47916349555E+02  0.14080437370E+03 -0.83355342305E+03  0.84671905452E+03  0.00000000000E+00 0. -1.
        -12    1    3    3    0    0 -0.10274728071E+02  0.40198297946E+02 -0.99595840784E+02  0.10789256089E+03  0.00000000000E+00 0.  1.
          5    1    4    4  501    0  0.12973216971E+02 -0.22390815086E+02 -0.31747501748E+02  0.41170732639E+02  0.41800000000E+01 0. -1.
         -5    1    4    4    0  501 -0.54659371429E+02 -0.17723437975E+03  0.84342624227E+02  0.20379112570E+03  0.41800000000E+01 0. -1.
</event>
<event>
11    1  0.8328696E-009  0.1653913E+03  0.7561462E-02  0.1082113E+00
         22   -1    0    0    0    0  0.00000000000E+00  0.00000000000E+00  0.16449406660E+04  0.16449406660E+04  0.00000000000E+00 0. -1.
         22   -1    0    0    0    0 -0.00000000000E+00 -0.00000000000E+00 -0.15018559840E+03  0.15018559840E+03  0.00000000000E+00 0.  1.
        -24    2    1    2    0    0 -0.10401489832E+03  0.16442239493E+02 -0.97016605131E+02  0.16624156823E+03  0.84466508297E+02 0.  0.
         25    2    1    2    0    0  0.18178201185E+03 -0.47407780536E+02  0.93015608152E+03  0.95714689191E+03  0.12509052408E+03 0.  0.
         24    2    1    2    0    0 -0.77767113528E+02  0.30965541044E+02  0.66161559122E+03  0.67173780427E+03  0.80559906057E+02 0.  0.
        -11    1    5    5    0    0  0.11299973873E+02 -0.74510023104E+01  0.32771904006E+02  0.35457080212E+02  0.00000000000E+00 0.  1.
         12    1    5    5    0    0 -0.89067087402E+02  0.38416543354E+02  0.62884368721E+03  0.63628072406E+03  0.00000000000E+00 0. -1.
         11    1    3    3    0    0  0.10863061717E+02 -0.11555654424E+02 -0.57326691073E+01  0.16864244843E+02  0.00000000000E+00 0. -1.
        -12    1    3    3    0    0 -0.11487796004E+03  0.27997893917E+02 -0.91283936024E+02  0.14937732338E+03  0.00000000000E+00 0.  1.
          5    1    4    4  501    0  0.72082021185E+01 -0.40566454841E+02  0.90904485530E+02  0.99893409820E+02  0.41800000000E+01 0. -1.
         -5    1    4    4    0  501  0.17457380973E+03 -0.68413256954E+01  0.83925159599E+03  0.85725348209E+03  0.41800000000E+01 0. -1.
</event>
<event>
11    1  0.8328696E-009  0.1357760E+03  0.7561462E-02  0.1112369E+00
         22   -1    0    0    0    0  0.00000000000E+00  0.00000000000E+00  0.10820786024E+04  0.10820786024E+04  0.00000000000E+00 0.  1.
         22   -1    0    0    0    0 -0.00000000000E+00 -0.00000000000E+00 -0.16799707464E+04  0.16799707464E+04  0.00000000000E+00 0. -1.
        -24    2    1    2    0    0  0.44288542740E+02  0.24201933176E+02 -0.16478039143E+04  0.16504768894E+04  0.79177104643E+02 0.  0.
         25    2    1    2    0    0  0.11822357765E+02 -0.15950468821E+02  0.11368234074E+03  0.17019657523E+03  0.12509601922E+03 0.  0.
         24    2    1    2    0    0 -0.56110900505E+02 -0.82514643550E+01  0.93622942955E+03  0.94137588419E+03  0.80290041418E+02 0.  0.
        -11    1    5    5    0    0  0.18346461639E+02 -0.14148233303E+02  0.18589750319E+03  0.18733565292E+03  0.00000000000E+00 0.  1.
         12    1    5    5    0    0 -0.74457362144E+02  0.58967689476E+01  0.75033192636E+03  0.75404023127E+03  0.00000000000E+00 0. -1.
         11    1    3    3    0    0  0.64873489510E+02  0.31418140464E+02 -0.12674722704E+04  0.12695202343E+04  0.00000000000E+00 0. -1.
        -12    1    3    3    0    0 -0.20584946770E+02 -0.72162072879E+01 -0.38033164393E+03  0.38095665509E+03  0.00000000000E+00 0.  1.
          5    1    4    4  501    0  0.50656498563E+02 -0.35627832113E+01  0.17318778234E+01  0.50982801724E+02  0.41800000000E+01 0. -1.
         -5    1    4    4    0  501 -0.38834140798E+02 -0.12387685610E+02  0.11195046292E+03  0.11921377351E+03  0.41800000000E+01 0. -1.
</event>
<event>
11    1  0.8328696E-009  0.1935347E+03  0.7561462E-02  0.1059192E+00
         22   -1    0    0    0    0  0.00000000000E+00  0.00000000000E+00  0.15290770838E+03  0.15290770838E+03  0.00000000000E+00 0.  1.
         22   -1    0    0    0    0 -0.00000000000E+00 -0.00000000000E+00 -0.38160175166E+04  0.38160175166E+04  0.00000000000E+00 0. -1.
         24    2    1    2    0    0  0.40600332503E+02  0.52413956364E+02 -0.35028849629E+04  0.35044533497E+04  0.81207184606E+02 0.  0.
         25    2    1    2    0    0 -0.52832111366E+02  0.10469860691E+03 -0.21775374424E+03  0.27715886284E+03  0.12508921551E+03 0.  0.
        -24    2    1    2    0    0  0.12231778862E+02 -0.15711256327E+03  0.57528898930E+02  0.18731301247E+03  0.83322364799E+02 0.  0.
        -11    1    3    3    0    0  0.46746142511E+01  0.38619742320E+02 -0.57452055838E+03  0.57583609518E+03  0.00000000000E+00 0.  1.
         12    1    3    3    0    0  0.35925718252E+02  0.13794214044E+02 -0.29283644045E+04  0.29286172545E+04  0.00000000000E+00 0. -1.
         11    1    5    5    0    0  0.71957781877E+01 -0.53313974478E+02 -0.20278056596E+02  0.57492248849E+02  0.00000000000E+00 0. -1.
        -12    1    5    5    0    0  0.50360006747E+01 -0.10379858880E+03  0.77806955527E+02  0.12982076362E+03  0.00000000000E+00 0.  1.
          5    1    4    4  501    0 -0.11598721384E+02  0.10591195233E+02  0.15366151769E+02  0.22367270160E+02  0.41800000000E+01 0.  1.
         -5    1    4    4    0  501 -0.41233389981E+02  0.94107411677E+02 -0.23311989601E+03  0.25479159268E+03  0.41800000000E+01 0.  1.
</event>
<event>
11    1  0.8328696E-009  0.1328287E+03  0.7561462E-02  0.1115841E+00
         22   -1    0    0    0    0  0.00000000000E+00  0.00000000000E+00  0.11029407372E+04  0.11029407372E+04  0.00000000000E+00 0. -1.
         22   -1    0    0    0    0 -0.00000000000E+00 -0.00000000000E+00 -0.12933243861E+03  0.12933243861E+03  0.00000000000E+00 0. -1.
         24    2    1    2    0    0 -0.10971105760E+02  0.11262070094E+02 -0.63594428122E+02  0.10317224529E+03  0.79706094664E+02 0.  0.
         25    2    1    2    0    0 -0.34077403638E+02 -0.70560496836E+01  0.52518016304E+02  0.14005860188E+03  0.12508881904E+03 0.  0.
        -24    2    1    2    0    0  0.45048509398E+02 -0.42060204107E+01  0.98468471039E+03  0.98904232861E+03  0.80954864639E+02 0.  0.
        -11    1    3    3    0    0 -0.45243976495E+02  0.29744920523E+01 -0.29300878339E+02  0.53985243201E+02  0.00000000000E+00 0.  1.
         12    1    3    3    0    0  0.34272870735E+02  0.82875780419E+01 -0.34293549783E+02  0.49187002094E+02  0.00000000000E+00 0. -1.
         11    1    5    5    0    0 -0.15989294243E+02  0.20042434668E+02  0.20519718994E+03  0.20679275490E+03  0.00000000000E+00 0. -1.
        -12    1    5    5    0    0  0.61037803641E+02 -0.24248455078E+02  0.77948752045E+03  0.78224957372E+03  0.00000000000E+00 0.  1.
          5    1    4    4  501    0 -0.72202788668E+02  0.21067116619E+02  0.94930738378E+01  0.75925337964E+02  0.41800000000E+01 0. -1.
         -5    1    4    4    0  501  0.38125385030E+02 -0.28123166303E+02  0.43024942467E+02  0.64133263918E+02  0.41800000000E+01 0. -1.
</event>
<event>
11    1  0.8328696E-009  0.1455613E+03  0.7561462E-02  0.1101502E+00
         22   -1    0    0    0    0  0.00000000000E+00  0.00000000000E+00  0.18158680861E+04  0.18158680861E+04  0.00000000000E+00 0.  1.
         22   -1    0    0    0    0 -0.00000000000E+00 -0.00000000000E+00 -0.16878912792E+03  0.16878912792E+03  0.00000000000E+00 0. -1.
        -24    2    1    2    0    0 -0.42571855177E+02 -0.64089482195E+02 -0.13808200372E+03  0.17777291353E+03  0.81343373744E+02 0.  0.
         25    2    1    2    0    0  0.23688131934E+02  0.44980530846E+01  0.44642412556E+03  0.46424505378E+03  0.12509040732E+03 0.  0.
         24    2    1    2    0    0  0.18883723244E+02  0.59591429111E+02  0.13387368363E+04  0.13426392467E+04  0.80969725331E+02 0.  0.
        -11    1    5    5    0    0  0.22781842931E+02 -0.14334001076E+02  0.46158988781E+03  0.46237398335E+03  0.00000000000E+00 0.  1.
         12    1    5    5    0    0 -0.38981196879E+01  0.73925430187E+02  0.87714694853E+03  0.88026526336E+03  0.00000000000E+00 0. -1.
         13    1    3    3    0    0 -0.34051848870E+02 -0.47698650026E+02 -0.14626439790E+03  0.15756891736E+03  0.00000000000E+00 0. -1.
        -14    1    3    3    0    0 -0.85200063075E+01 -0.16390832169E+02  0.81823941785E+01  0.20203996168E+02  0.00000000000E+00 0.  1.
          5    1    4    4  501    0  0.56353436247E+01  0.53840240921E+02  0.99591678444E+02  0.11343061075E+03  0.41800000000E+01 0. -1.
         -5    1    4    4    0  501  0.18052788309E+02 -0.49342187836E+02  0.34683244711E+03  0.35081444303E+03  0.41800000000E+01 0. -1.
</event>
<event>
11    1  0.8328696E-009  0.1408900E+03  0.7561462E-02  0.1106569E+00
         22   -1    0    0    0    0  0.00000000000E+00  0.00000000000E+00  0.19334550870E+03  0.19334550870E+03  0.00000000000E+00 0.  1.
         22   -1    0    0    0    0 -0.00000000000E+00 -0.00000000000E+00 -0.85843546843E+03  0.85843546843E+03  0.00000000000E+00 0.  1.
         24    2    1    2    0    0 -0.29273030294E+02  0.24974184830E+02 -0.63862019931E+03  0.64485125932E+03  0.80726497964E+02 0.  0.
         25    2    1    2    0    0  0.17363931315E+02 -0.87207555049E+02 -0.17108498386E+03  0.22983225598E+03  0.12508449311E+03 0.  0.
        -24    2    1    2    0    0  0.11909098979E+02  0.62233370219E+02  0.14461522345E+03  0.17709746183E+03  0.80219256596E+02 0.  0.
        -13    1    3    3    0    0 -0.11542945394E+02  0.21560162079E+02 -0.61311110787E+03  0.61359865611E+03  0.00000000000E+00 0.  1.
         14    1    3    3    0    0 -0.17730084900E+02  0.34140227518E+01 -0.25509091432E+02  0.31252603213E+02  0.00000000000E+00 0. -1.
         13    1    5    5    0    0  0.38217585081E+02  0.64210148773E+02  0.94611668473E+02  0.12056075160E+03  0.00000000000E+00 0. -1.
        -14    1    5    5    0    0 -0.26308486102E+02 -0.19767785540E+01  0.50003554972E+02  0.56536710235E+02  0.00000000000E+00 0.  1.
          5    1    4    4  501    0  0.12110697980E+02 -0.50703012615E+02 -0.18341202762E+03  0.19072207206E+03  0.41800000000E+01 0. -1.
         -5    1    4    4    0  501  0.52532333357E+01 -0.36504542434E+02  0.12327043756E+02  0.39110183924E+02  0.41800000000E+01 0. -1.
</event>
<event>
11    1  0.8328696E-009  0.1377848E+03  0.7561462E-02  0.1110058E+00
         22   -1    0    0    0    0  0.00000000000E+00  0.00000000000E+00  0.56157511655E+02  0.56157511655E+02  0.00000000000E+00 0. -1.
         22   -1    0    0    0    0 -0.00000000000E+00 -0.00000000000E+00 -0.20419941272E+04  0.20419941272E+04  0.00000000000E+00 0. -1.
        -24    2    1    2    0    0 -0.98593752811E+01 -0.56056808958E+02 -0.12418094693E+04  0.12457468163E+04  0.80961714646E+02 0.  0.
         25    2    1    2    0    0  0.11786350875E+02  0.59343616942E+02 -0.75853568471E+03  0.77115794393E+03  0.12509039356E+03 0.  0.
         24    2    1    2    0    0 -0.19269755941E+01 -0.32868079843E+01  0.14508538465E+02  0.81246878601E+02  0.79850117422E+02 0.  0.
        -13    1    5    5    0    0 -0.34992404060E+02 -0.58824054729E+01 -0.13370675722E+02  0.37918939928E+02  0.00000000000E+00 0.  1.
         14    1    5    5    0    0  0.33065428466E+02  0.25955974886E+01  0.27879214187E+02  0.43327938672E+02  0.00000000000E+00 0. -1.
         13    1    3    3    0    0 -0.58359095261E+01 -0.73395771817E+02 -0.11413715502E+04  0.11437438580E+04  0.00000000000E+00 0. -1.
        -14    1    3    3    0    0 -0.40234657550E+01  0.17338962859E+02 -0.10043791904E+03  0.10200295824E+03  0.00000000000E+00 0.  1.
          5    1    4    4  501    0  0.16192604730E+02  0.98205942027E+02 -0.54437563641E+03  0.55341567868E+03  0.41800000000E+01 0. -1.
         -5    1    4    4    0  501 -0.44062538550E+01 -0.38862325085E+02 -0.21416004831E+03  0.21774226525E+03  0.41800000000E+01 0. -1.
</event>
<event>
11    1  0.8328696E-009  0.1578753E+03  0.7561462E-02  0.1089093E+00
         22   -1    0    0    0    0  0.00000000000E+00  0.00000000000E+00  0.12443093360E+04  0.12443093360E+04  0.00000000000E+00 0.  1.
         22   -1    0    0    0    0 -0.00000000000E+00 -0.00000000000E+00 -0.36992749768E+03  0.36992749768E+03  0.00000000000E+00 0.  1.
         24    2    1    2    0    0 -0.50253232126E+02  0.55431059572E+02 -0.32884747118E+03  0.34640694926E+03  0.79114635113E+02 0.  0.
         25    2    1    2    0    0  0.28880827683E+02 -0.14362367746E+03  0.30016100340E+03  0.35665515077E+03  0.12507759862E+03 0.  0.
        -24    2    1    2    0    0  0.21372404443E+02  0.88192617892E+02  0.90306830612E+03  0.91117473367E+03  0.80450681989E+02 0.  0.
        -11    1    3    3    0    0 -0.66185067069E+02  0.54035332192E+02 -0.31062514459E+03  0.32216185479E+03  0.00000000000E+00 0.  1.
         12    1    3    3    0    0  0.15931834943E+02  0.13957273799E+01 -0.18222326586E+02  0.24245094468E+02  0.00000000000E+00 0. -1.
         13    1    5    5    0    0  0.18606830655E+01 -0.59300863737E+01  0.49997314767E+01  0.79765519311E+01  0.00000000000E+00 0. -1.
        -14    1    5    5    0    0  0.19511721378E+02  0.94122704265E+02  0.89806857465E+03  0.90319818174E+03  0.00000000000E+00 0.  1.
          5    1    4    4  501    0 -0.43702513262E+02 -0.38655216131E+02  0.14067315336E+03  0.15235007015E+03  0.41800000000E+01 0. -1.
         -5    1    4    4    0  501  0.72583340945E+02 -0.10496846133E+03  0.15948785004E+03  0.20430508062E+03  0.41800000000E+01 0. -1.
</event>
<event>
11    1  0.8328696E-009  0.4475919E+03  0.7561462E-02  0.9518913E-01
         22   -1    0    0    0    0  0.00000000000E+00  0.00000000000E+00  0.10956936385E+04  0.10956936385E+04  0.00000000000E+00 0. -1.
         22   -1    0    0    0    0 -0.00000000000E+00 -0.00000000000E+00 -0.45808998476E+03  0.45808998476E+03  0.00000000000E+00 0. -1.
        -24    2    1    2    0    0 -0.44648317143E+03 -0.12080942812E+03 -0.16665265834E+03  0.49827834089E+03  0.81031204958E+02 0.  0.
         25    2    1    2    0    0  0.72600188218E+02  0.20868330887E+03  0.15713061657E+03  0.29859266023E+03  0.12509210745E+03 0.  0.
         24    2    1    2    0    0  0.37388298321E+03 -0.87873880750E+02  0.64712569554E+03  0.75691262216E+03  0.81453960699E+02 0.  0.
        -11    1    5    5    0    0  0.30253751211E+02 -0.16018161960E+02  0.11027850922E+03  0.11546956556E+03  0.00000000000E+00 0.  1.
         12    1    5    5    0    0  0.34362923200E+03 -0.71855718789E+02  0.53684718631E+03  0.64144305660E+03  0.00000000000E+00 0. -1.
         11    1    3    3    0    0 -0.43103375562E+03 -0.12158143160E+03 -0.17484614498E+03  0.48077366547E+03  0.00000000000E+00 0. -1.
        -12    1    3    3    0    0 -0.15449415806E+02  0.77200347864E+00  0.81934866437E+01  0.17504675418E+02  0.00000000000E+00 0.  1.
          5    1    4    4  501    0 -0.11288893709E+02  0.88719149158E+02  0.11589950691E+03  0.14645372870E+03  0.41800000000E+01 0.  1.
         -5    1    4    4    0  501  0.83889081927E+02  0.11996415972E+03  0.41231109660E+02  0.15213893153E+03  0.41800000000E+01 0.  1.
</event>
<event>
11    1  0.8328696E-009  0.1458336E+03  0.7561462E-02  0.1101214E+00
         22   -1    0    0    0    0  0.00000000000E+00  0.00000000000E+00  0.13723307739E+04  0.13723307739E+04  0.00000000000E+00 0. -1.
         22   -1    0    0    0    0 -0.00000000000E+00 -0.00000000000E+00 -0.12475599544E+04  0.12475599544E+04  0.00000000000E+00 0. -1.
        -24    2    1    2    0    0 -0.49408973799E+02 -0.53527857513E+02 -0.11129577471E+04  0.11179552497E+04  0.76436348306E+02 0.  0.
         25    2    1    2    0    0  0.11413395826E+03  0.71436005388E+02 -0.65032781105E+02  0.19495069435E+03  0.12508735874E+03 0.  0.
         24    2    1    2    0    0 -0.64724984458E+02 -0.17908147875E+02  0.13027613477E+04  0.13069847843E+04  0.80697409190E+02 0.  0.
        -11    1    5    5    0    0 -0.41218192564E+01 -0.19061630224E+02  0.68127017616E+02  0.70863429709E+02  0.00000000000E+00 0.  1.
         12    1    5    5    0    0 -0.60603165202E+02  0.11534823493E+01  0.12346343301E+04  0.12361213545E+04  0.00000000000E+00 0. -1.
         11    1    3    3    0    0 -0.56886883125E+02 -0.56690977557E+02 -0.10980223839E+04  0.11009555576E+04  0.00000000000E+00 0. -1.
        -12    1    3    3    0    0  0.74779093267E+01  0.31631200438E+01 -0.14935363198E+02  0.16999692061E+02  0.00000000000E+00 0.  1.
          5    1    4    4  501    0  0.33086145403E+01  0.39318618375E+02 -0.68807179579E+02  0.79427961341E+02  0.41800000000E+01 0. -1.
         -5    1    4    4    0  501  0.11082534372E+03  0.32117387013E+02  0.37743984743E+01  0.11552273301E+03  0.41800000000E+01 0. -1.
</event>
<event>
11    1  0.8328696E-009  0.1868578E+03  0.7561462E-02  0.1064227E+00
         22   -1    0    0    0    0  0.00000000000E+00  0.00000000000E+00  0.93064992457E+03  0.93064992457E+03  0.00000000000E+00 0.  1.
         22   -1    0    0    0    0 -0.00000000000E+00 -0.00000000000E+00 -0.22673441646E+03  0.22673441646E+03  0.00000000000E+00 0. -1.
         24    2    1    2    0    0 -0.23631009309E+02 -0.37164297405E+02 -0.16842266913E+03  0.19256215938E+03  0.82306622733E+02 0.  0.
         25    2    1    2    0    0  0.15337400556E+03 -0.42660113627E+01  0.23082398091E+03  0.30408793054E+03  0.12509186585E+03 0.  0.
        -24    2    1    2    0    0 -0.12974299625E+03  0.41430308768E+02  0.64151419633E+03  0.66073425110E+03  0.80495782041E+02 0.  0.
        -11    1    3    3    0    0 -0.92564204401E+01 -0.44334520080E+02 -0.32625137125E+02  0.55817833732E+02  0.00000000000E+00 0.  1.
         12    1    3    3    0    0 -0.14374588869E+02  0.71702226746E+01 -0.13579753201E+03  0.13674432565E+03  0.00000000000E+00 0. -1.
         13    1    5    5    0    0 -0.31490746141E+01 -0.17869480327E+02  0.62263760180E+02  0.64853764963E+02  0.00000000000E+00 0. -1.
        -14    1    5    5    0    0 -0.12659392164E+03  0.59299789096E+02  0.57925043615E+03  0.59588048614E+03  0.00000000000E+00 0.  1.
          5    1    4    4  501    0 -0.13910243814E+02  0.20614750450E+02  0.52730488697E+02  0.58450317855E+02  0.41800000000E+01 0.  1.
         -5    1    4    4    0  501  0.16728424937E+03 -0.24880761813E+02  0.17809349222E+03  0.24563761269E+03  0.41800000000E+01 0.  1.
</event>
<event>
11    1  0.8328696E-009  0.1631326E+03  0.7561462E-02  0.1084167E+00
         22   -1    0    0    0    0  0.00000000000E+00  0.00000000000E+00  0.12532250802E+04  0.12532250802E+04  0.00000000000E+00 0.  1.
         22   -1    0    0    0    0 -0.00000000000E+00 -0.00000000000E+00 -0.11862661962E+04  0.11862661962E+04  0.00000000000E+00 0.  1.
         24    2    1    2    0    0 -0.95146484527E+02  0.42698431934E+02 -0.11406410991E+04  0.11482107023E+04  0.80309963731E+02 0.  0.
         25    2    1    2    0    0  0.12110784236E+03 -0.39816335982E+02  0.15909906526E+03  0.23919324313E+03  0.12509374445E+03 0.  0.
        -24    2    1    2    0    0 -0.25961357828E+02 -0.28820959516E+01  0.10485009178E+04  0.10520873310E+04  0.82772452580E+02 0.  0.
        -11    1    3    3    0    0 -0.70352866403E+02  0.28283647163E+02 -0.10583960361E+04  0.10611086937E+04  0.00000000000E+00 0.  1.
         12    1    3    3    0    0 -0.24793618124E+02  0.14414784770E+02 -0.82245062960E+02  0.87102008593E+02  0.00000000000E+00 0. -1.
         13    1    5    5    0    0 -0.14774765819E+02  0.14453618360E+02  0.61683230449E+02  0.65053990710E+02  0.00000000000E+00 0. -1.
        -14    1    5    5    0    0 -0.11186592009E+02 -0.17335714311E+02  0.98681768733E+03  0.98703334030E+03  0.00000000000E+00 0.  1.
          5    1    4    4  501    0  0.42024351027E+01 -0.59595502019E+02  0.56736012644E+02  0.82496859652E+02  0.41800000000E+01 0.  1.
         -5    1    4    4    0  501  0.11690540725E+03  0.19779166037E+02  0.10236305262E+03  0.15669638348E+03  0.41800000000E+01 0.  1.
</event>
<event>
11    1  0.8328696E-009  0.1419098E+03  0.7561462E-02  0.1105444E+00
         22   -1    0    0    0    0  0.00000000000E+00  0.00000000000E+00  0.14845823679E+03  0.14845823679E+03  0.00000000000E+00 0. -1.
         22   -1    0    0    0    0 -0.00000000000E+00 -0.00000000000E+00 -0.21124033101E+04  0.21124033101E+04  0.00000000000E+00 0. -1.
         24    2    1    2    0    0 -0.32056535910E+01 -0.21075684429E+01 -0.13595653102E+04  0.13619445710E+04  0.80377009485E+02 0.  0.
         25    2    1    2    0    0 -0.63104218505E+02  0.12250384734E+02 -0.72535957367E+03  0.73886883524E+03  0.12509368588E+03 0.  0.
        -24    2    1    2    0    0  0.66309872097E+02 -0.10142816291E+02  0.12097981054E+03  0.16004814071E+03  0.80494825464E+02 0.  0.
        -13    1    3    3    0    0  0.10710301236E+02 -0.23000138961E+02 -0.15085989949E+03  0.15297851555E+03  0.00000000000E+00 0.  1.
         14    1    3    3    0    0 -0.13915954827E+02  0.20892570519E+02 -0.12087054107E+04  0.12089660554E+04  0.00000000000E+00 0. -1.
         13    1    5    5    0    0  0.44579117026E+02  0.19494788965E+02  0.11215290297E+03  0.12225227243E+03  0.00000000000E+00 0. -1.
        -14    1    5    5    0    0  0.21730755070E+02 -0.29637605256E+02  0.88269075716E+01  0.37795868273E+02  0.00000000000E+00 0.  1.
          5    1    4    4  501    0 -0.48640161296E+02  0.60040152848E+02 -0.27339898965E+03  0.28413934115E+03  0.41800000000E+01 0.  1.
         -5    1    4    4    0  501 -0.14464057209E+02 -0.47789768113E+02 -0.45196058402E+03  0.45472949409E+03  0.41800000000E+01 0.  1.
</event>
<event>
11    1  0.8328696E-009  0.1390002E+03  0.7561462E-02  0.1108680E+00
         22   -1    0    0    0    0  0.00000000000E+00  0.00000000000E+00  0.69404304053E+02  0.69404304053E+02  0.00000000000E+00 0. -1.
         22   -1    0    0    0    0 -0.00000000000E+00 -0.00000000000E+00 -0.12258966557E+04  0.12258966557E+04  0.00000000000E+00 0.  1.
         24    2    1    2    0    0  0.43875730983E+02 -0.28994283890E+02 -0.62962172704E+03  0.63659454681E+03  0.77867513118E+02 0.  0.
         25    2    1    2    0    0 -0.52362220720E+02  0.71155314629E+02 -0.54639857448E+03  0.56745362742E+03  0.12508931256E+03 0.  0.
        -24    2    1    2    0    0  0.84864897375E+01 -0.42161030739E+02  0.19527949888E+02  0.91252785510E+02  0.78077890695E+02 0.  0.
        -11    1    3    3    0    0  0.64557429495E+02 -0.11886095519E+02 -0.39151332347E+03  0.39697811454E+03  0.00000000000E+00 0.  1.
         12    1    3    3    0    0 -0.20681698512E+02 -0.17108188371E+02 -0.23810840357E+03  0.23961643227E+03  0.00000000000E+00 0. -1.
         11    1    5    5    0    0 -0.39987706394E+01 -0.32672099031E+02  0.48320595264E+02  0.58466538708E+02  0.00000000000E+00 0. -1.
        -12    1    5    5    0    0  0.12485260377E+02 -0.94889317077E+01 -0.28792645376E+02  0.32786246802E+02  0.00000000000E+00 0.  1.
          5    1    4    4  501    0 -0.91055282960E+02  0.28884256566E+02 -0.33326730476E+03  0.34671304224E+03  0.41800000000E+01 0. -1.
         -5    1    4    4    0  501  0.38693062240E+02  0.42271058063E+02 -0.21313126971E+03  0.22074058518E+03  0.41800000000E+01 0. -1.
</event>
<event>
11    1  0.8328696E-009  0.1433349E+03  0.7561462E-02  0.1103891E+00
         22   -1    0    0    0    0  0.00000000000E+00  0.00000000000E+00  0.53560992235E+03  0.53560992235E+03  0.00000000000E+00 0. -1.
         22   -1    0    0    0    0 -0.00000000000E+00 -0.00000000000E+00 -0.19744945460E+03  0.19744945460E+03  0.00000000000E+00 0.  1.
         24    2    1    2    0    0  0.58401446823E+02  0.39309819151E+02 -0.14334422820E+03  0.17892947260E+03  0.80698187926E+02 0.  0.
         25    2    1    2    0    0 -0.18097335286E+02 -0.85849174744E+02  0.18126624403E+03  0.23707147203E+03  0.12509131574E+03 0.  0.
        -24    2    1    2    0    0 -0.40304111538E+02  0.46539355593E+02  0.30023845192E+03  0.31705843233E+03  0.81194756456E+02 0.  0.
        -11    1    3    3    0    0 -0.75108593060E+01  0.20453720975E+02 -0.88477275473E+02  0.91120776908E+02  0.00000000000E+00 0.  1.
         12    1    3    3    0    0  0.65912306129E+02  0.18856098176E+02 -0.54866952724E+02  0.87808695691E+02  0.00000000000E+00 0. -1.
         11    1    5    5    0    0  0.70004333334E+01 -0.19453175279E+02  0.63890084839E+02  0.67151880362E+02  0.00000000000E+00 0. -1.
        -12    1    5    5    0    0 -0.47304544871E+02  0.65992530872E+02  0.23634836708E+03  0.24990655197E+03  0.00000000000E+00 0.  1.
          5    1    4    4  501    0 -0.44282037379E+02  0.33971967976E+01  0.16011348686E+02  0.47394888619E+02  0.41800000000E+01 0.  1.
         -5    1    4    4    0  501  0.26184702093E+02 -0.89246371542E+02  0.16525489535E+03  0.18967658341E+03  0.41800000000E+01 0.  1.
</event>
<event>
11    1  0.8328696E-009  0.1373134E+03  0.7561462E-02  0.1110596E+00
         22   -1    0    0    0    0  0.00000000000E+00  0.00000000000E+00  0.23214719244E+03  0.23214719244E+03  0.00000000000E+00 0. -1.
         22   -1    0    0    0    0 -0.00000000000E+00 -0.00000000000E+00 -0.23337051094E+04  0.23337051094E+04  0.00000000000E+00 0.  1.
         24    2    1    2    0    0  0.19115690566E+01 -0.57281573360E+02 -0.21395420319E+04  0.21418773361E+04  0.81936462423E+02 0.  0.
         25    2    1    2    0    0 -0.14985097742E+02  0.40874355369E+02 -0.15685810810E+03  0.20531213895E+03  0.12511331760E+03 0.  0.
        -24    2    1    2    0    0  0.13073528686E+02  0.16407217991E+02  0.19484222311E+03  0.21866282673E+03  0.97004257304E+02 0.  0.
        -13    1    3    3    0    0 -0.17705665263E+02 -0.36608415710E+02 -0.19274694854E+04  0.19278984111E+04  0.00000000000E+00 0.  1.
         14    1    3    3    0    0  0.19617234320E+02 -0.20673157650E+02 -0.21207254657E+03  0.21397892499E+03  0.00000000000E+00 0. -1.
         13    1    5    5    0    0  0.28706260574E+02  0.19153518663E+02  0.19922895091E+03  0.20219565167E+03  0.00000000000E+00 0. -1.
        -14    1    5    5    0    0 -0.15632731889E+02 -0.27463006722E+01 -0.43867278047E+01  0.16467175062E+02  0.00000000000E+00 0.  1.
          5    1    4    4  501    0  0.35400673252E+02  0.66395114454E+02 -0.98093057473E+02  0.12369817789E+03  0.41800000000E+01 0. -1.
         -5    1    4    4    0  501 -0.50385770994E+02 -0.25520759085E+02 -0.58765050632E+02  0.81613961053E+02  0.41800000000E+01 0. -1.
</event>
<event>
11    1  0.8328696E-009  0.1455760E+03  0.7561462E-02  0.1101487E+00
         22   -1    0    0    0    0  0.00000000000E+00  0.00000000000E+00  0.21381714704E+03  0.21381714704E+03  0.00000000000E+00 0. -1.
         22   -1    0    0    0    0 -0.00000000000E+00 -0.00000000000E+00 -0.20899080415E+03  0.20899080415E+03  0.00000000000E+00 0.  1.
         24    2    1    2    0    0 -0.41354843134E+02 -0.57041477354E+02 -0.10217956050E+03  0.14855613083E+03  0.81635214416E+02 0.  0.
         25    2    1    2    0    0  0.35017918493E+02  0.85871037894E+02  0.29753933312E+02  0.15853503031E+03  0.12509184435E+03 0.  0.
        -24    2    1    2    0    0  0.63369246412E+01 -0.28829560539E+02  0.77251970085E+02  0.11571679005E+03  0.80939535720E+02 0.  0.
        -13    1    3    3    0    0 -0.44076600568E+02 -0.60913407665E+02 -0.38077902600E+02  0.84279989425E+02  0.00000000000E+00 0.  1.
         14    1    3    3    0    0  0.27217574338E+01  0.38719303108E+01 -0.64101657903E+02  0.64276141404E+02  0.00000000000E+00 0. -1.
         13    1    5    5    0    0  0.23987813546E+02  0.18689045557E+02  0.49043125735E+02  0.57705491978E+02  0.00000000000E+00 0. -1.
        -14    1    5    5    0    0 -0.17650888904E+02 -0.47518606096E+02  0.28208844350E+02  0.58011298072E+02  0.00000000000E+00 0.  1.
          5    1    4    4  501    0 -0.44833836400E+02  0.21729760357E+02  0.25043957186E+02  0.55918937428E+02  0.41800000000E+01 0. -1.
         -5    1    4    4    0  501  0.79851754893E+02  0.64141277536E+02  0.47099761266E+01  0.10261609288E+03  0.41800000000E+01 0. -1.
</event>
<event>
11    1  0.2009140E-008  0.2025462E+03  0.7561462E-02  0.1052738E+00
         22   -1    0    0    0    0  0.00000000000E+00  0.00000000000E+00  0.11453500081E+04  0.11453500081E+04  0.00000000000E+00 0. -1.
         22   -1    0    0    0    0 -0.00000000000E+00 -0.00000000000E+00 -0.51586913869E+03  0.51586913869E+03  0.00000000000E+00 0.  1.
         24    2    1    2    0    0 -0.12190485707E+02  0.51445640494E+02 -0.18062119455E+03  0.20514379708E+03  0.81637611991E+02 0.  0.
         25    2    1    2    0    0 -0.13499559399E+03 -0.11190788541E+03 -0.27898126571E+03  0.35245228215E+03  0.12507949215E+03 0.  0.
        -24    2    1    2    0    0  0.14718607970E+03  0.60462244919E+02  0.10890833296E+04  0.11036230675E+04  0.81005871094E+02 0.  0.
        -13    1    3    3    0    0  0.27722106250E+02  0.40018360149E+02 -0.13475247779E+03  0.14327670640E+03  0.00000000000E+00 0.  1.
         14    1    3    3    0    0 -0.39912591957E+02  0.11427280344E+02 -0.45868716760E+02  0.61867090687E+02  0.00000000000E+00 0. -1.
         11    1    5    5    0    0  0.14660887630E+03  0.39340332067E+02  0.83679655904E+03  0.85045300020E+03  0.00000000000E+00 0. -1.
        -12    1    5    5    0    0  0.57720340334E+00  0.21121912851E+02  0.25228677060E+03  0.25317006731E+03  0.00000000000E+00 0.  1.
          5    1    4    4  501    0 -0.79665637023E+02 -0.13130628438E+03 -0.22624772646E+03  0.27348393036E+03  0.41800000000E+01 0.  1.
         -5    1    4    4    0  501 -0.55329956970E+02  0.19398398967E+02 -0.52733539259E+02  0.78968351785E+02  0.41800000000E+01 0.  1.
</event>
<event>
11    1  0.8328696E-009  0.1397585E+03  0.7561462E-02  0.1107828E+00
         22   -1    0    0    0    0  0.00000000000E+00  0.00000000000E+00  0.10326349243E+04  0.10326349243E+04  0.00000000000E+00 0.  1.
         22   -1    0    0    0    0 -0.00000000000E+00 -0.00000000000E+00 -0.61597190073E+03  0.61597190073E+03  0.00000000000E+00 0.  1.
        -24    2    1    2    0    0 -0.37457818474E+02  0.50748025921E+02 -0.58603016756E+03  0.59487069219E+03  0.80382416202E+02 0.  0.
         25    2    1    2    0    0  0.23045155002E+02 -0.22840533606E+02  0.15666209224E+03  0.20308379527E+03  0.12508895879E+03 0.  0.
         24    2    1    2    0    0  0.14412663472E+02 -0.27907492316E+02  0.84603109894E+03  0.85065233762E+03  0.82790253858E+02 0.  0.
        -11    1    5    5    0    0 -0.23640893162E+02 -0.41733504812E+02  0.47846729141E+03  0.48086539301E+03  0.00000000000E+00 0.  1.
         12    1    5    5    0    0  0.38053556634E+02  0.13826012496E+02  0.36756380753E+03  0.36978694461E+03  0.00000000000E+00 0. -1.
         11    1    3    3    0    0 -0.19131548003E+02  0.11974066890E+02 -0.31864078637E+02  0.39047585256E+02  0.00000000000E+00 0. -1.
        -12    1    3    3    0    0 -0.18326270471E+02  0.38773959031E+02 -0.55416608892E+03  0.55582310693E+03  0.00000000000E+00 0.  1.
          5    1    4    4  501    0  0.60954956687E+02  0.10239503403E+02  0.34519854860E+02  0.70918593854E+02  0.41800000000E+01 0.  1.
         -5    1    4    4    0  501 -0.37909801685E+02 -0.33080037008E+02  0.12214223738E+03  0.13216520141E+03  0.41800000000E+01 0.  1.
</event>
<event>
11    1  0.8328696E-009  0.1342485E+03  0.7561462E-02  0.1114156E+00
         22   -1    0    0    0    0  0.00000000000E+00  0.00000000000E+00  0.76138694803E+03  0.76138694803E+03  0.00000000000E+00 0. -1.
         22   -1    0    0    0    0 -0.00000000000E+00 -0.00000000000E+00 -0.22114269088E+04  0.22114269088E+04  0.00000000000E+00 0. -1.
         24    2    1    2    0    0  0.87802368802E+01 -0.51864745726E+02 -0.16052125514E+04  0.16081875226E+04  0.82418009757E+02 0.  0.
         25    2    1    2    0    0  0.30133699108E+02  0.33065179762E+02 -0.59465881903E+03  0.60931699209E+03  0.12508692927E+03 0.  0.
        -24    2    1    2    0    0 -0.38913935988E+02  0.18799565964E+02  0.74983140964E+03  0.75530934213E+03  0.79858257842E+02 0.  0.
        -11    1    3    3    0    0  0.13504844323E+02 -0.21865374710E+02 -0.12263282267E+03  0.12529678619E+03  0.00000000000E+00 0.  1.
         12    1    3    3    0    0 -0.47246074424E+01 -0.29999371015E+02 -0.14825797287E+04  0.14828907364E+04  0.00000000000E+00 0. -1.
         13    1    5    5    0    0 -0.39100574380E+02 -0.18031221554E+02  0.57661868794E+03  0.57822408386E+03  0.00000000000E+00 0. -1.
        -14    1    5    5    0    0  0.18663839232E+00  0.36830787518E+02  0.17321272169E+03  0.17708525828E+03  0.00000000000E+00 0.  1.
          5    1    4    4  501    0 -0.37680673007E+01  0.48664613630E+01 -0.53480083433E+03  0.53485258303E+03  0.41800000000E+01 0. -1.
         -5    1    4    4    0  501  0.33901766408E+02  0.28198718399E+02 -0.59857984700E+02  0.74464409064E+02  0.41800000000E+01 0. -1.
</event>
<event>
11    1  0.8328696E-009  0.1977738E+03  0.7561462E-02  0.1056109E+00
         22   -1    0    0    0    0  0.00000000000E+00  0.00000000000E+00  0.13061350266E+04  0.13061350266E+04  0.00000000000E+00 0. -1.
         22   -1    0    0    0    0 -0.00000000000E+00 -0.00000000000E+00 -0.49495555834E+03  0.49495555834E+03  0.00000000000E+00 0. -1.
         24    2    1    2    0    0 -0.15349978459E+03  0.10757060887E+02 -0.39281560426E+03  0.42958336239E+03  0.80993012457E+02 0.  0.
         25    2    1    2    0    0  0.15064578245E+03  0.97776406832E+02  0.70404609415E+02  0.22990817820E+03  0.12508630570E+03 0.  0.
        -24    2    1    2    0    0  0.28540021398E+01 -0.10853346772E+03  0.11335904631E+04  0.11415990444E+04  0.80208360348E+02 0.  0.
        -11    1    3    3    0    0  0.13768592817E+01  0.68070696291E+01  0.39117315814E+00  0.69559294746E+01  0.00000000000E+00 0.  1.
         12    1    3    3    0    0 -0.15487664387E+03  0.39499912582E+01 -0.39320677742E+03  0.42262743292E+03  0.00000000000E+00 0. -1.
         13    1    5    5    0    0  0.12704717915E+02 -0.33175310864E+00  0.38042642934E+03  0.38063865813E+03  0.00000000000E+00 0. -1.
        -14    1    5    5    0    0 -0.98507157755E+01 -0.10820171461E+03  0.75316403378E+03  0.76096038624E+03  0.00000000000E+00 0.  1.
          5    1    4    4  501    0  0.65543379347E+02  0.10480847539E+03  0.77791097658E+01  0.12393037577E+03  0.41800000000E+01 0.  1.
         -5    1    4    4    0  501  0.85102403099E+02 -0.70320685588E+01  0.62625499649E+02  0.10597780243E+03  0.41800000000E+01 0.  1.
</event>
<event>
11    1  0.8328696E-009  0.1451454E+03  0.7561462E-02  0.1101945E+00
         22   -1    0    0    0    0  0.00000000000E+00  0.00000000000E+00  0.12199079689E+03  0.12199079689E+03  0.00000000000E+00 0. -1.
         22   -1    0    0    0    0 -0.00000000000E+00 -0.00000000000E+00 -0.81055144801E+03  0.81055144801E+03  0.00000000000E+00 0.  1.
        -24    2    1    2    0    0  0.75501897734E+02  0.94799187490E+01 -0.64275057807E+03  0.65451619173E+03  0.97327972332E+02 0.  0.
         25    2    1    2    0    0 -0.55780230777E+02  0.70238354892E+02 -0.53047713218E+02  0.16281014637E+03  0.12509285846E+03 0.  0.
         24    2    1    2    0    0 -0.19721666958E+02 -0.79718273641E+02  0.72376401694E+01  0.11521590681E+03  0.80488349755E+02 0.  0.
        -11    1    5    5    0    0  0.17424313974E+02 -0.22353663283E+02 -0.26676825137E+02  0.38922306959E+02  0.00000000000E+00 0.  1.
         12    1    5    5    0    0 -0.37145980932E+02 -0.57364610357E+02  0.33914465306E+02  0.76293599848E+02  0.00000000000E+00 0. -1.
         11    1    3    3    0    0  0.12727352479E+02  0.31245085643E+02 -0.67707166858E+02  0.75647216220E+02  0.00000000000E+00 0. -1.
        -12    1    3    3    0    0  0.62774545256E+02 -0.21765166894E+02 -0.57504341122E+03  0.57886897551E+03  0.00000000000E+00 0.  1.
          5    1    4    4  501    0 -0.29041596881E+02 -0.18809406252E+02  0.23725755281E+02  0.42161498747E+02  0.41800000000E+01 0. -1.
         -5    1    4    4    0  501 -0.26738633896E+02  0.89047761143E+02 -0.76773468498E+02  0.12064864762E+03  0.41800000000E+01 0. -1.
</event>
<event>
11    1  0.8328696E-009  0.2525537E+03  0.7561462E-02  0.1022548E+00
         22   -1    0    0    0    0  0.00000000000E+00  0.00000000000E+00  0.10311736981E+04  0.10311736981E+04  0.00000000000E+00 0.  1.
         22   -1    0    0    0    0 -0.00000000000E+00 -0.00000000000E+00 -0.36513066525E+03  0.36513066525E+03  0.00000000000E+00 0. -1.
         24    2    1    2    0    0  0.18957096268E+03 -0.79945112056E+02 -0.21463816966E+03  0.30797322201E+03  0.80309344213E+02 0.  0.
         25    2    1    2    0    0 -0.27450192226E+03  0.10872130544E+03  0.15966327442E+03  0.35820603664E+03  0.12509027103E+03 0.  0.
        -24    2    1    2    0    0  0.84930959582E+02 -0.28776193387E+02  0.72101792810E+03  0.73012510471E+03  0.71933849393E+02 0.  0.
        -11    1    3    3    0    0  0.40792257911E+02  0.10167304218E+02 -0.18830483390E+02  0.46064840011E+02  0.00000000000E+00 0.  1.
         12    1    3    3    0    0  0.14877870476E+03 -0.90112416274E+02 -0.19580768627E+03  0.26190838199E+03  0.00000000000E+00 0. -1.
         11    1    5    5    0    0  0.31351995812E+02  0.70435301095E+01  0.85354932366E+02  0.91203198612E+02  0.00000000000E+00 0. -1.
        -12    1    5    5    0    0  0.53578963770E+02 -0.35819723497E+02  0.63566299574E+03  0.63892190610E+03  0.00000000000E+00 0.  1.
          5    1    4    4  501    0 -0.19681197730E+03  0.44927904997E+02  0.47307033179E+02  0.20738586944E+03  0.41800000000E+01 0.  1.
         -5    1    4    4    0  501 -0.77689944960E+02  0.63793400446E+02  0.11235624124E+03  0.15082016720E+03  0.41800000000E+01 0.  1.
</event>
<event>
11    1  0.8328696E-009  0.1479638E+03  0.7561462E-02  0.1098978E+00
         22   -1    0    0    0    0  0.00000000000E+00  0.00000000000E+00  0.61701793046E+03  0.61701793046E+03  0.00000000000E+00 0. -1.
         22   -1    0    0    0    0 -0.00000000000E+00 -0.00000000000E+00 -0.81212900365E+03  0.81212900365E+03  0.00000000000E+00 0. -1.
         24    2    1    2    0    0  0.74190488633E+02  0.17414907291E+02 -0.62096543827E+03  0.63058159125E+03  0.78914891539E+02 0.  0.
         25    2    1    2    0    0 -0.83174161619E+02 -0.85240971977E+02 -0.14036846166E+03  0.22256380696E+03  0.12508948267E+03 0.  0.
        -24    2    1    2    0    0  0.89836729857E+01  0.67826064686E+02  0.56622282674E+03  0.57600153589E+03  0.80550595303E+02 0.  0.
        -13    1    3    3    0    0  0.26568382938E+02 -0.15856840913E+02 -0.69640978106E+02  0.76204883093E+02  0.00000000000E+00 0.  1.
         14    1    3    3    0    0  0.47622105695E+02  0.33271748205E+02 -0.55132446016E+03  0.55437670816E+03  0.00000000000E+00 0. -1.
         11    1    5    5    0    0  0.40250172622E+02  0.60066065508E+02  0.42878903346E+03  0.43484255063E+03  0.00000000000E+00 0. -1.
        -12    1    5    5    0    0 -0.31266499636E+02  0.77599991774E+01  0.13743379327E+03  0.14115898526E+03  0.00000000000E+00 0.  1.
          5    1    4    4  501    0 -0.98972805619E+02 -0.10666348839E+03 -0.11439310904E+03  0.18513771038E+03  0.41800000000E+01 0. -1.
         -5    1    4    4    0  501  0.15798644001E+02  0.21422516413E+02 -0.25975352616E+02  0.37426096580E+02  0.41800000000E+01 0. -1.
</event>
<event>
11    1  0.8328696E-009  0.1509847E+03  0.7561462E-02  0.1095877E+00
         22   -1    0    0    0    0  0.00000000000E+00  0.00000000000E+00  0.34762561931E+02  0.34762561931E+02  0.00000000000E+00 0. -1.
         22   -1    0    0    0    0 -0.00000000000E+00 -0.00000000000E+00 -0.16124580807E+04  0.16124580807E+04  0.00000000000E+00 0.  1.
         24    2    1    2    0    0 -0.19338922444E+02  0.55517698418E+02 -0.96349762423E+03  0.96852935017E+03  0.79153152059E+02 0.  0.
         25    2    1    2    0    0  0.23615387871E+02 -0.12359236705E+03 -0.44419327922E+03  0.47831785525E+03  0.12509013391E+03 0.  0.
        -24    2    1    2    0    0 -0.42764654266E+01  0.68074668636E+02 -0.17000461527E+03  0.20037343717E+03  0.81212661850E+02 0.  0.
        -11    1    3    3    0    0 -0.71589898435E+01  0.13727621393E+02 -0.77165823534E+03  0.77181353376E+03  0.00000000000E+00 0.  1.
         12    1    3    3    0    0 -0.12179932601E+02  0.41790077025E+02 -0.19183938888E+03  0.19671581640E+03  0.00000000000E+00 0. -1.
         13    1    5    5    0    0 -0.37085202947E+02  0.59418421281E+02 -0.94797503143E+02  0.11786614301E+03  0.00000000000E+00 0. -1.
        -14    1    5    5    0    0  0.32808737521E+02  0.86562473544E+01 -0.75207112128E+02  0.82507294166E+02  0.00000000000E+00 0.  1.
          5    1    4    4  501    0  0.31870615100E+02 -0.13099620673E+01 -0.22766601629E+02  0.39411199641E+02  0.41800000000E+01 0. -1.
         -5    1    4    4    0  501 -0.82552272289E+01 -0.12228240499E+03 -0.42142667759E+03  0.43890665560E+03  0.41800000000E+01 0. -1.
</event>
<event>
11    1  0.8328696E-009  0.2362248E+03  0.7561462E-02  0.1031504E+00
         22   -1    0    0    0    0  0.00000000000E+00  0.00000000000E+00  0.16399509222E+04  0.16399509222E+04  0.00000000000E+00 0. -1.
         22   -1    0    0    0    0 -0.00000000000E+00 -0.00000000000E+00 -0.15359826222E+04  0.15359826222E+04  0.00000000000E+00 0. -1.
         24    2    1    2    0    0  0.72068701695E+02  0.91078749632E+02 -0.14885026109E+04  0.14952050959E+04  0.80678495031E+02 0.  0.
         25    2    1    2    0    0 -0.24057612023E+03  0.65673688046E+01  0.50805699760E+03  0.57592806597E+03  0.12510485367E+03 0.  0.
        -24    2    1    2    0    0  0.16850741854E+03 -0.97646118437E+02  0.10844139133E+04  0.11048003825E+04  0.81858630361E+02 0.  0.
        -11    1    3    3    0    0  0.45316755610E+02 -0.11764722851E+01 -0.46359097189E+03  0.46580208420E+03  0.00000000000E+00 0.  1.
         12    1    3    3    0    0  0.26751946085E+02  0.92255221917E+02 -0.10249116390E+04  0.10294030117E+04  0.00000000000E+00 0. -1.
         11    1    5    5    0    0  0.16528510254E+03 -0.10582206038E+03  0.94790924734E+03  0.96801312738E+03  0.00000000000E+00 0. -1.
        -12    1    5    5    0    0  0.32223160000E+01  0.81759419443E+01  0.13650466597E+03  0.13678725517E+03  0.00000000000E+00 0.  1.
          5    1    4    4  501    0 -0.15427708066E+03  0.61231148208E+02  0.27186646286E+03  0.31855849880E+03  0.41800000000E+01 0. -1.
         -5    1    4    4    0  501 -0.86299039574E+02 -0.54663779404E+02  0.23619053473E+03  0.25736956717E+03  0.41800000000E+01 0. -1.
</event>
<event>
11    1  0.8328696E-009  0.1464211E+03  0.7561462E-02  0.1100593E+00
         22   -1    0    0    0    0  0.00000000000E+00  0.00000000000E+00  0.71020436862E+03  0.71020436862E+03  0.00000000000E+00 0. -1.
         22   -1    0    0    0    0 -0.00000000000E+00 -0.00000000000E+00 -0.24855881815E+03  0.24855881815E+03  0.00000000000E+00 0.  1.
        -24    2    1    2    0    0 -0.22120308612E+02 -0.49130481401E+02 -0.20219227322E+03  0.22173299839E+03  0.73353220579E+02 0.  0.
         25    2    1    2    0    0 -0.56440029128E+02  0.54734999212E+02  0.14907271713E+03  0.20988508854E+03  0.12509068060E+03 0.  0.
         24    2    1    2    0    0  0.78560337740E+02 -0.56045178110E+01  0.51476510657E+03  0.52714509984E+03  0.81827281861E+02 0.  0.
        -13    1    5    5    0    0  0.56071585693E+02  0.35054416768E+02  0.26750040649E+03  0.27555272151E+03  0.00000000000E+00 0.  1.
         14    1    5    5    0    0  0.22488752047E+02 -0.40658934579E+02  0.24726470007E+03  0.25159237833E+03  0.00000000000E+00 0. -1.
         13    1    3    3    0    0  0.31085399111E+01 -0.15637843285E+02 -0.73777232916E+00  0.15960873127E+02  0.00000000000E+00 0. -1.
        -14    1    3    3    0    0 -0.25228848523E+02 -0.33492638116E+02 -0.20145450090E+03  0.20577212527E+03  0.00000000000E+00 0.  1.
          5    1    4    4  501    0 -0.50012650170E+02  0.72760707859E+02  0.16329170442E+03  0.18567993677E+03  0.41800000000E+01 0. -1.
         -5    1    4    4    0  501 -0.64273789585E+01 -0.18025708647E+02 -0.14218987299E+02  0.24205151772E+02  0.41800000000E+01 0. -1.
</event>
<event>
11    1  0.8328696E-009  0.1528910E+03  0.7561462E-02  0.1093961E+00
         22   -1    0    0    0    0  0.00000000000E+00  0.00000000000E+00  0.26718538769E+04  0.26718538769E+04  0.00000000000E+00 0. -1.
         22   -1    0    0    0    0 -0.00000000000E+00 -0.00000000000E+00 -0.58363121449E+02  0.58363121449E+02  0.00000000000E+00 0.  1.
         24    2    1    2    0    0 -0.76999282897E+02 -0.42804409816E+02  0.14033801590E+02  0.11959221318E+03  0.79650755175E+02 0.  0.
         25    2    1    2    0    0  0.72375655515E+02  0.43180552763E+02  0.13889864390E+04  0.13971512989E+04  0.12508248760E+03 0.  0.
        -24    2    1    2    0    0  0.46236273818E+01 -0.37614294752E+00  0.12104705148E+04  0.12134734862E+04  0.85191050390E+02 0.  0.
        -11    1    3    3    0    0 -0.88358994602E+02 -0.17138445846E+02  0.16157282406E+02  0.91444496979E+02  0.00000000000E+00 0.  1.
         12    1    3    3    0    0  0.11359711705E+02 -0.25665963970E+02 -0.21234808164E+01  0.28147716200E+02  0.00000000000E+00 0. -1.
         13    1    5    5    0    0  0.32267470102E+02 -0.15886831845E+02  0.99835186046E+03  0.99899950867E+03  0.00000000000E+00 0. -1.
        -14    1    5    5    0    0 -0.27643842720E+02  0.15510688898E+02  0.21211865438E+03  0.21447397755E+03  0.00000000000E+00 0.  1.
          5    1    4    4  501    0  0.46805753120E+02  0.46765420049E+02  0.27575210279E+03  0.28360972767E+03  0.41800000000E+01 0.  1.
         -5    1    4    4    0  501  0.25569902395E+02 -0.35848672860E+01  0.11132343362E+04  0.11135415712E+04  0.41800000000E+01 0.  1.
</event>
<event>
11    1  0.8328696E-009  0.2447336E+03  0.7561462E-02  0.1026743E+00
         22   -1    0    0    0    0  0.00000000000E+00  0.00000000000E+00  0.71878605550E+03  0.71878605550E+03  0.00000000000E+00 0.  1.
         22   -1    0    0    0    0 -0.00000000000E+00 -0.00000000000E+00 -0.42177034911E+03  0.42177034911E+03  0.00000000000E+00 0.  1.
         24    2    1    2    0    0 -0.47742650186E+02  0.12164513363E+02 -0.32568364850E+03  0.33918816769E+03  0.80940954843E+02 0.  0.
         25    2    1    2    0    0  0.13793856723E+03 -0.19088901823E+03  0.22391153516E+03  0.34820970488E+03  0.12509179583E+03 0.  0.
        -24    2    1    2    0    0 -0.90195917044E+02  0.17872450486E+03  0.39878781972E+03  0.45315853204E+03  0.79013783091E+02 0.  0.
        -11    1    3    3    0    0 -0.58704850138E+02  0.25414360217E+02 -0.30780262991E+03  0.31437971963E+03  0.00000000000E+00 0.  1.
         12    1    3    3    0    0  0.10962199951E+02 -0.13249846853E+02 -0.17881018581E+02  0.24808448055E+02  0.00000000000E+00 0. -1.
         13    1    5    5    0    0 -0.11488997807E+01  0.13394617878E+02  0.12522529254E+01  0.13501996007E+02  0.00000000000E+00 0. -1.
        -14    1    5    5    0    0 -0.89047017263E+02  0.16532988698E+03  0.39753556679E+03  0.43965653604E+03  0.00000000000E+00 0.  1.
          5    1    4    4  501    0  0.38907377084E+02  0.89158869744E+01  0.15721329124E+02  0.43103475748E+02  0.41800000000E+01 0.  1.
         -5    1    4    4    0  501  0.99031190146E+02 -0.19980490520E+03  0.20819020604E+03  0.30510622913E+03  0.41800000000E+01 0.  1.
</event>
<event>
11    1  0.8328696E-009  0.1384981E+03  0.7561462E-02  0.1109247E+00
         22   -1    0    0    0    0  0.00000000000E+00  0.00000000000E+00  0.15426612220E+04  0.15426612220E+04  0.00000000000E+00 0. -1.
         22   -1    0    0    0    0 -0.00000000000E+00 -0.00000000000E+00 -0.59816857086E+03  0.59816857086E+03  0.00000000000E+00 0. -1.
        -24    2    1    2    0    0  0.17577331269E+02 -0.58195263746E+02 -0.50243188608E+03  0.51237755855E+03  0.79983192404E+02 0.  0.
         25    2    1    2    0    0 -0.56051125390E+02  0.28150088958E+02 -0.34506807216E+02  0.14412788887E+03  0.12509185601E+03 0.  0.
         24    2    1    2    0    0  0.38473794121E+02  0.30045174788E+02  0.14814313445E+04  0.14843243455E+04  0.78720955367E+02 0.  0.
        -13    1    5    5    0    0 -0.46667666863E+01  0.24556689794E+02  0.14173002426E+03  0.14391737040E+03  0.00000000000E+00 0.  1.
         14    1    5    5    0    0  0.43140560808E+02  0.54884849949E+01  0.13397013202E+04  0.13404069751E+04  0.00000000000E+00 0. -1.
         13    1    3    3    0    0  0.22063104766E+02 -0.74896164987E+02 -0.45962722226E+03  0.46621175400E+03  0.00000000000E+00 0. -1.
        -14    1    3    3    0    0 -0.44857734966E+01  0.16700901240E+02 -0.42804663813E+02  0.46165804555E+02  0.00000000000E+00 0.  1.
          5    1    4    4  501    0  0.11773979307E+02 -0.40530245257E+02 -0.18168322358E+02  0.46139871116E+02  0.41800000000E+01 0.  1.
         -5    1    4    4    0  501 -0.67825104697E+02  0.68680334215E+02 -0.16338484859E+02  0.97988017750E+02  0.41800000000E+01 0.  1.
</event>
<event>
11    1  0.1246150E-008  0.1841522E+03  0.7561462E-02  0.1066333E+00
         22   -1    0    0    0    0  0.00000000000E+00  0.00000000000E+00  0.18233486097E+04  0.18233486097E+04  0.00000000000E+00 0. -1.
         22   -1    0    0    0    0 -0.00000000000E+00 -0.00000000000E+00 -0.57009370947E+03  0.57009370947E+03  0.00000000000E+00 0.  1.
        -24    2    1    2    0    0  0.36450196082E+02  0.45416715764E+02 -0.40532809869E+03  0.41754896732E+03  0.81639314397E+02 0.  0.
         25    2    1    2    0    0  0.68436266164E+02 -0.13063102762E+03 -0.95462827920E+02  0.21565574773E+03  0.12508501953E+03 0.  0.
         24    2    1    2    0    0 -0.10488646225E+03  0.85214311852E+02  0.17540458268E+04  0.17602376041E+04  0.59135534543E+02 0.  0.
        -11    1    5    5    0    0 -0.80086612137E+01  0.35957849797E+01  0.44280540769E+03  0.44289242193E+03  0.00000000000E+00 0.  1.
         12    1    5    5    0    0 -0.96877801032E+02  0.81618526873E+02  0.13112404191E+04  0.13173451822E+04  0.00000000000E+00 0. -1.
         13    1    3    3    0    0  0.31383407943E+01 -0.13396172397E+02 -0.11411283907E+02  0.17875234774E+02  0.00000000000E+00 0. -1.
        -14    1    3    3    0    0  0.33311855288E+02  0.58812888161E+02 -0.39391681478E+03  0.39967373254E+03  0.00000000000E+00 0.  1.
          5    1    4    4  501    0 -0.23926901093E+02 -0.11664192081E+02 -0.52449708105E+02  0.58966043221E+02  0.41800000000E+01 0.  1.
         -5    1    4    4    0  501  0.92363167256E+02 -0.11896683554E+03 -0.43013119815E+02  0.15668970451E+03  0.41800000000E+01 0.  1.
</event>
<event>
11    1  0.8328696E-009  0.1507598E+03  0.7561462E-02  0.1096105E+00
         22   -1    0    0    0    0  0.00000000000E+00  0.00000000000E+00  0.54434887633E+03  0.54434887633E+03  0.00000000000E+00 0. -1.
         22   -1    0    0    0    0 -0.00000000000E+00 -0.00000000000E+00 -0.13439881953E+03  0.13439881953E+03  0.00000000000E+00 0. -1.
         24    2    1    2    0    0  0.40351235124E+02 -0.74288541732E+02 -0.67493770471E+02  0.13480420011E+03  0.80434779201E+02 0.  0.
         25    2    1    2    0    0 -0.61302084685E+02  0.59039023805E+02  0.18309145336E+03  0.23751648702E+03  0.12509216361E+03 0.  0.
        -24    2    1    2    0    0  0.20950849561E+02  0.15249517926E+02  0.29435237391E+03  0.30642700873E+03  0.81133875503E+02 0.  0.
        -13    1    3    3    0    0 -0.13772382280E+02 -0.23319352824E+02  0.86051084659E+01  0.28416872128E+02  0.00000000000E+00 0.  1.
         14    1    3    3    0    0  0.54123617404E+02 -0.50969188907E+02 -0.76098878937E+02  0.10638732798E+03  0.00000000000E+00 0. -1.
         13    1    5    5    0    0  0.31805826971E+02  0.28624046298E+02  0.28200657270E+03  0.28523438380E+03  0.00000000000E+00 0. -1.
        -14    1    5    5    0    0 -0.10854977410E+02 -0.13374528372E+02  0.12345801219E+02  0.21192624931E+02  0.00000000000E+00 0.  1.
          5    1    4    4  501    0  0.38753067820E+02  0.18680574761E+02  0.56445207505E+02  0.71093586132E+02  0.41800000000E+01 0. -1.
         -5    1    4    4    0  501 -0.10005515250E+03  0.40358449044E+02  0.12664624586E+03  0.16642290089E+03  0.41800000000E+01 0. -1.
</event>
<event>
11    1  0.8328696E-009  0.1323510E+03  0.7561462E-02  0.1116414E+00
         22   -1    0    0    0    0  0.00000000000E+00  0.00000000000E+00  0.80220502065E+02  0.80220502065E+02  0.00000000000E+00 0. -1.
         22   -1    0    0    0    0 -0.00000000000E+00 -0.00000000000E+00 -0.97214740449E+03  0.97214740449E+03  0.00000000000E+00 0. -1.
         24    2    1    2    0    0  0.13869761055E+02 -0.37770123846E+02 -0.49963522106E+03  0.50755282285E+03  0.79721774504E+02 0.  0.
         25    2    1    2    0    0 -0.24509119323E+00  0.53268007255E+02 -0.43035747538E+03  0.45132431654E+03  0.12509413024E+03 0.  0.
        -24    2    1    2    0    0 -0.13624669862E+02 -0.15497883409E+02  0.38065794015E+02  0.93490767163E+02  0.82859536879E+02 0.  0.
        -13    1    3    3    0    0  0.16026751379E+02 -0.42064368820E+02 -0.12451567454E+03  0.13240249654E+03  0.00000000000E+00 0.  1.
         14    1    3    3    0    0 -0.21569903238E+01  0.42942449736E+01 -0.37511954652E+03  0.37515032631E+03  0.00000000000E+00 0. -1.
         13    1    5    5    0    0  0.26123225807E+02 -0.78585446702E+01  0.44806825304E+02  0.52457899736E+02  0.00000000000E+00 0. -1.
        -14    1    5    5    0    0 -0.39747895669E+02 -0.76393387388E+01 -0.67410312888E+01  0.41032867427E+02  0.00000000000E+00 0.  1.
          5    1    4    4  501    0 -0.53582005829E+02  0.58900137811E+02 -0.29720721918E+03  0.30771717715E+03  0.41800000000E+01 0.  1.
         -5    1    4    4    0  501  0.53336914636E+02 -0.56321305555E+01 -0.13315025620E+03  0.14360713939E+03  0.41800000000E+01 0.  1.
</event>
<event>
11    1  0.8328696E-009  0.1438488E+03  0.7561462E-02  0.1103335E+00
         22   -1    0    0    0    0  0.00000000000E+00  0.00000000000E+00  0.23650945350E+03  0.23650945350E+03  0.00000000000E+00 0. -1.
         22   -1    0    0    0    0 -0.00000000000E+00 -0.00000000000E+00 -0.30582657103E+03  0.30582657103E+03  0.00000000000E+00 0. -1.
        -24    2    1    2    0    0 -0.93043967552E+01  0.12985406309E+02 -0.17883927309E+03  0.19700018725E+03  0.81057976779E+02 0.  0.
         25    2    1    2    0    0 -0.23054757842E+02 -0.75045240453E+02 -0.47666225770E+02  0.15518766028E+03  0.12509129007E+03 0.  0.
         24    2    1    2    0    0  0.32359154597E+02  0.62059834144E+02  0.15718838133E+03  0.19014817700E+03  0.80929624304E+02 0.  0.
        -13    1    5    5    0    0 -0.76285579949E+01  0.66338886007E+02  0.98891285053E+02  0.11932530726E+03  0.00000000000E+00 0.  1.
         14    1    5    5    0    0  0.39987712592E+02 -0.42790518629E+01  0.58297096278E+02  0.70822869736E+02  0.00000000000E+00 0. -1.
         13    1    3    3    0    0 -0.43663862058E+01  0.27894108005E+02 -0.17908112773E+03  0.18129312425E+03  0.00000000000E+00 0. -1.
        -14    1    3    3    0    0 -0.49380105494E+01 -0.14908701695E+02  0.24185463932E+00  0.15707063000E+02  0.00000000000E+00 0.  1.
          5    1    4    4  501    0  0.10656745021E+02  0.31270409983E+02 -0.24127074433E+02  0.41121683765E+02  0.41800000000E+01 0. -1.
         -5    1    4    4    0  501 -0.33711502863E+02 -0.10631565044E+03 -0.23539151337E+02  0.11406597652E+03  0.41800000000E+01 0. -1.
</event>
<event>
11    1  0.8328696E-009  0.1526938E+03  0.7561462E-02  0.1094158E+00
         22   -1    0    0    0    0  0.00000000000E+00  0.00000000000E+00  0.17257848563E+04  0.17257848563E+04  0.00000000000E+00 0.  1.
         22   -1    0    0    0    0 -0.00000000000E+00 -0.00000000000E+00 -0.76750007300E+02  0.76750007300E+02  0.00000000000E+00 0.  1.
         24    2    1    2    0    0 -0.91109492392E+02 -0.40146630976E+02  0.20326247023E+02  0.12974603722E+03  0.80673330614E+02 0.  0.
         25    2    1    2    0    0  0.51604080061E+02  0.11008365796E+02  0.20293501710E+03  0.24416048152E+03  0.12509018495E+03 0.  0.
        -24    2    1    2    0    0  0.39505412330E+02  0.29138265180E+02  0.14257735849E+04  0.14286283449E+04  0.75755635666E+02 0.  0.
        -11    1    3    3    0    0 -0.78500892768E+02 -0.57112593105E+01 -0.13498291453E+02  0.79857451252E+02  0.00000000000E+00 0.  1.
         12    1    3    3    0    0 -0.12608599624E+02 -0.34435371666E+02  0.33824538477E+02  0.49888585963E+02  0.00000000000E+00 0. -1.
         11    1    5    5    0    0  0.10773742168E+02  0.39211795852E+02  0.33928641602E+03  0.34171466248E+03  0.00000000000E+00 0. -1.
        -12    1    5    5    0    0  0.28731670163E+02 -0.10073530672E+02  0.10864871688E+04  0.10869136824E+04  0.00000000000E+00 0.  1.
          5    1    4    4  501    0  0.47342371383E+02 -0.53130234415E+02  0.10290394443E+03  0.12518313032E+03  0.41800000000E+01 0. -1.
         -5    1    4    4    0  501  0.42617086782E+01  0.64138600211E+02  0.10003107268E+03  0.11897735120E+03  0.41800000000E+01 0. -1.
</event>
<event>
11    1  0.8328696E-009  0.2329251E+03  0.7561462E-02  0.1033410E+00
         22   -1    0    0    0    0  0.00000000000E+00  0.00000000000E+00  0.52490223679E+03  0.52490223679E+03  0.00000000000E+00 0.  1.
         22   -1    0    0    0    0 -0.00000000000E+00 -0.00000000000E+00 -0.45925276580E+03  0.45925276580E+03  0.00000000000E+00 0. -1.
         24    2    1    2    0    0 -0.13743135277E+03 -0.13589737089E+03 -0.35108732515E+03  0.40785461479E+03  0.75680940723E+02 0.  0.
         25    2    1    2    0    0  0.16430799114E+03  0.14895694050E+03  0.14914660897E+03  0.29508969525E+03  0.12509169116E+03 0.  0.
        -24    2    1    2    0    0 -0.26876638373E+02 -0.13059569617E+02  0.26759018717E+03  0.28121069255E+03  0.81129768186E+02 0.  0.
        -11    1    3    3    0    0  0.49020309599E+01 -0.14580871385E+02 -0.59409876786E+02  0.61369089757E+02  0.00000000000E+00 0.  1.
         12    1    3    3    0    0 -0.14233338373E+03 -0.12131649950E+03 -0.29167744836E+03  0.34648552503E+03  0.00000000000E+00 0. -1.
         11    1    5    5    0    0  0.69539902403E+01 -0.46256107698E+01 -0.26255314318E+01  0.87548655362E+01  0.00000000000E+00 0. -1.
        -12    1    5    5    0    0 -0.33830628613E+02 -0.84339588469E+01  0.27021571861E+03  0.27245582702E+03  0.00000000000E+00 0.  1.
          5    1    4    4  501    0  0.39470279956E+02  0.11241328881E+03  0.10126151715E+03  0.15641616846E+03  0.41800000000E+01 0. -1.
         -5    1    4    4    0  501  0.12483771118E+03  0.36543651694E+02  0.47885091816E+02  0.13867352678E+03  0.41800000000E+01 0. -1.
</event>
<event>
11    1  0.8328696E-009  0.1695070E+03  0.7561462E-02  0.1078461E+00
         22   -1    0    0    0    0  0.00000000000E+00  0.00000000000E+00  0.39235215040E+03  0.39235215040E+03  0.00000000000E+00 0.  1.
         22   -1    0    0    0    0 -0.00000000000E+00 -0.00000000000E+00 -0.42669298368E+03  0.42669298368E+03  0.00000000000E+00 0. -1.
         24    2    1    2    0    0 -0.33829986268E+02  0.65074784548E+02 -0.32419177121E+03  0.34196285231E+03  0.80368478190E+02 0.  0.
         25    2    1    2    0    0 -0.40273482208E+02 -0.14495363393E+03  0.50293913871E+02  0.20201302940E+03  0.12508507871E+03 0.  0.
        -24    2    1    2    0    0  0.74103468476E+02  0.79878849382E+02  0.23955702406E+03  0.27506925237E+03  0.80022316897E+02 0.  0.
        -11    1    3    3    0    0 -0.70761288466E+01 -0.18540226490E+02 -0.42439060223E+02  0.46849604378E+02  0.00000000000E+00 0.  1.
         12    1    3    3    0    0 -0.26753857421E+02  0.83615011039E+02 -0.28175271099E+03  0.29511324794E+03  0.00000000000E+00 0. -1.
         11    1    5    5    0    0 -0.85983705885E+01 -0.97827465289E+01  0.27620178101E+02  0.30536999603E+02  0.00000000000E+00 0. -1.
        -12    1    5    5    0    0  0.82701839064E+02  0.89661595911E+02  0.21193684596E+03  0.24453225276E+03  0.00000000000E+00 0.  1.
          5    1    4    4  501    0 -0.72356250207E+02 -0.37310119482E+02  0.34466236959E+02  0.88503479310E+02  0.41800000000E+01 0.  1.
         -5    1    4    4    0  501  0.32082767999E+02 -0.10764351445E+03  0.15827676913E+02  0.11350955009E+03  0.41800000000E+01 0.  1.
</event>
<event>
11    1  0.8328696E-009  0.1667562E+03  0.7561462E-02  0.1080890E+00
         22   -1    0    0    0    0  0.00000000000E+00  0.00000000000E+00  0.16918998568E+03  0.16918998568E+03  0.00000000000E+00 0. -1.
         22   -1    0    0    0    0 -0.00000000000E+00 -0.00000000000E+00 -0.38525889785E+04  0.38525889785E+04  0.00000000000E+00 0.  1.
        -24    2    1    2    0    0 -0.83480948772E+02 -0.92350737970E+02 -0.28127290244E+04  0.28166209845E+04  0.80071704541E+02 0.  0.
         25    2    1    2    0    0 -0.29262426768E+02  0.99520588811E+02 -0.10015444956E+04  0.10146431803E+04  0.12509504148E+03 0.  0.
         24    2    1    2    0    0  0.11274337554E+03 -0.71698508410E+01  0.13087452721E+03  0.19051479939E+03  0.80032939629E+02 0.  0.
        -11    1    5    5    0    0 -0.56966282943E+01 -0.68290954540E+01 -0.50501754568E+01  0.10227042133E+02  0.00000000000E+00 0.  1.
         12    1    5    5    0    0  0.11844000383E+03 -0.34075538703E+00  0.13592470266E+03  0.18028775726E+03  0.00000000000E+00 0. -1.
         13    1    3    3    0    0 -0.43121936641E+02  0.27090613728E+01 -0.65651714497E+03  0.65793738461E+03  0.00000000000E+00 0. -1.
        -14    1    3    3    0    0 -0.40359012131E+02 -0.95059799342E+02 -0.21562118794E+04  0.21586835999E+04  0.00000000000E+00 0.  1.
          5    1    4    4  501    0 -0.57237587817E+01  0.97630632519E+02 -0.97045363413E+03  0.97537799350E+03  0.41800000000E+01 0. -1.
         -5    1    4    4    0  501 -0.23538667986E+02  0.18899562913E+01 -0.31090861472E+02  0.39265186774E+02  0.41800000000E+01 0. -1.
</event>
<event>
11    1  0.8328696E-009  0.1971127E+03  0.7561462E-02  0.1056584E+00
         22   -1    0    0    0    0  0.00000000000E+00  0.00000000000E+00  0.42798532560E+03  0.42798532560E+03  0.00000000000E+00 0.  1.
         22   -1    0    0    0    0 -0.00000000000E+00 -0.00000000000E+00 -0.23383568209E+03  0.23383568209E+03  0.00000000000E+00 0.  1.
         24    2    1    2    0    0  0.10943472055E+03  0.92860567977E+02 -0.98163930102E+02  0.19154809904E+03  0.80345963973E+02 0.  0.
         25    2    1    2    0    0 -0.11485421528E+03 -0.17912033596E+03  0.22632445721E+03  0.33488210501E+03  0.12509068230E+03 0.  0.
        -24    2    1    2    0    0  0.54194947354E+01  0.86259767985E+02  0.65989116392E+02  0.13539080364E+03  0.80659703277E+02 0.  0.
        -13    1    3    3    0    0  0.12144050669E+03  0.74652246439E+02 -0.87584613120E+02  0.16730755816E+03  0.00000000000E+00 0.  1.
         14    1    3    3    0    0 -0.12005786144E+02  0.18208321538E+02 -0.10579316983E+02  0.24240540877E+02  0.00000000000E+00 0. -1.
         13    1    5    5    0    0 -0.25014248932E+02  0.62845359439E+02  0.69313788771E+02  0.96848609523E+02  0.00000000000E+00 0. -1.
        -14    1    5    5    0    0  0.30433743667E+02  0.23414408546E+02 -0.33246723794E+01  0.38542194120E+02  0.00000000000E+00 0.  1.
          5    1    4    4  501    0 -0.43980908250E+01 -0.34283003010E+02 -0.10237423856E+02  0.36289733335E+02  0.41800000000E+01 0.  1.
         -5    1    4    4    0  501 -0.11045612446E+03 -0.14483733295E+03  0.23656188107E+03  0.29859237167E+03  0.41800000000E+01 0.  1.
</event>
<event>
11    1  0.8328696E-009  0.1877529E+03  0.7561462E-02  0.1063539E+00
         22   -1    0    0    0    0  0.00000000000E+00  0.00000000000E+00  0.71260946784E+03  0.71260946784E+03  0.00000000000E+00 0.  1.
         22   -1    0    0    0    0 -0.00000000000E+00 -0.00000000000E+00 -0.10055985663E+04  0.10055985663E+04  0.00000000000E+00 0.  1.
         24    2    1    2    0    0 -0.12110362884E+03 -0.85139434117E+02 -0.76586398729E+03  0.78475944384E+03  0.85935589318E+02 0.  0.
         25    2    1    2    0    0  0.10266932475E+03  0.50306163948E+02 -0.19558358993E+03  0.25878839343E+03  0.12508713582E+03 0.  0.
        -24    2    1    2    0    0  0.18434304094E+02  0.34833270168E+02  0.66845847872E+03  0.67466019690E+03  0.82319276161E+02 0.  0.
        -11    1    3    3    0    0 -0.26602387674E+02 -0.22349882593E+02 -0.40480418494E+03  0.40629254537E+03  0.00000000000E+00 0.  1.
         12    1    3    3    0    0 -0.94501241169E+02 -0.62789551523E+02 -0.36105980235E+03  0.37846689847E+03  0.00000000000E+00 0. -1.
         13    1    5    5    0    0 -0.22467236940E+02 -0.67882172199E+01  0.81620895532E+02  0.84928365204E+02  0.00000000000E+00 0. -1.
        -14    1    5    5    0    0  0.40901541034E+02  0.41621487388E+02  0.58683758319E+03  0.58973183169E+03  0.00000000000E+00 0.  1.
          5    1    4    4  501    0  0.36730150840E+02  0.59280614248E+02 -0.17589940770E+03  0.18926534082E+03  0.41800000000E+01 0.  1.
         -5    1    4    4    0  501  0.65939173908E+02 -0.89744502999E+01 -0.19684182228E+02  0.69523052607E+02  0.41800000000E+01 0.  1.
</event>
<event>
11    1  0.8328696E-009  0.2036524E+03  0.7561462E-02  0.1051970E+00
         22   -1    0    0    0    0  0.00000000000E+00  0.00000000000E+00  0.13026880689E+03  0.13026880689E+03  0.00000000000E+00 0. -1.
         22   -1    0    0    0    0 -0.00000000000E+00 -0.00000000000E+00 -0.15999955183E+04  0.15999955183E+04  0.00000000000E+00 0. -1.
         24    2    1    2    0    0  0.64195822669E+02 -0.10604890628E+03 -0.10401924822E+04  0.10504109367E+04  0.77429075918E+02 0.  0.
         25    2    1    2    0    0 -0.15880820433E+03  0.21222240765E+03 -0.42507621116E+03  0.51633001416E+03  0.12509397328E+03 0.  0.
        -24    2    1    2    0    0  0.94612381662E+02 -0.10617350137E+03 -0.44580180651E+01  0.16352337433E+03  0.80595935810E+02 0.  0.
        -11    1    3    3    0    0  0.15784941017E+02 -0.39697687748E+02 -0.13735958617E+03  0.14384966697E+03  0.00000000000E+00 0.  1.
         12    1    3    3    0    0  0.48410881652E+02 -0.66351218535E+02 -0.90283289600E+03  0.90656126972E+03  0.00000000000E+00 0. -1.
         13    1    5    5    0    0  0.64043689392E+02 -0.11181754485E+03 -0.17053812229E+02  0.12998303735E+03  0.00000000000E+00 0. -1.
        -14    1    5    5    0    0  0.30568692270E+02  0.56440434795E+01  0.12595794164E+02  0.33540336977E+02  0.00000000000E+00 0.  1.
          5    1    4    4  501    0 -0.48887243704E+02  0.56668092853E+02 -0.23718453925E+03  0.24874728824E+03  0.41800000000E+01 0.  1.
         -5    1    4    4    0  501 -0.10992096063E+03  0.15555431480E+03 -0.18789167191E+03  0.26758272592E+03  0.41800000000E+01 0.  1.
</event>
<event>
11    1  0.8328696E-009  0.1018587E+04  0.7561462E-02  0.8661534E-01
         22   -1    0    0    0    0  0.00000000000E+00  0.00000000000E+00  0.10423518382E+04  0.10423518382E+04  0.00000000000E+00 0.  1.
         22   -1    0    0    0    0 -0.00000000000E+00 -0.00000000000E+00 -0.18750835160E+04  0.18750835160E+04  0.00000000000E+00 0.  1.
         24    2    1    2    0    0  0.93614798043E+03  0.37078624105E+03 -0.13031007081E+04  0.16489969000E+04  0.85228181998E+02 0.  0.
         25    2    1    2    0    0 -0.99468805084E+03 -0.28001291499E+03  0.43975654840E+03  0.11299757438E+04  0.12509120128E+03 0.  0.
        -24    2    1    2    0    0  0.58540070411E+02 -0.90773326056E+02  0.30612481862E+02  0.13846271034E+03  0.81043578041E+02 0.  0.
        -13    1    3    3    0    0  0.38840052743E+03  0.10899394091E+03 -0.51717033614E+03  0.65589618496E+03  0.00000000000E+00 0.  1.
         14    1    3    3    0    0  0.54774745300E+03  0.26179230014E+03 -0.78593037198E+03  0.99310071508E+03  0.00000000000E+00 0. -1.
         11    1    5    5    0    0  0.67695530208E+02 -0.98352415002E+02  0.36960968461E+02  0.12498798157E+03  0.00000000000E+00 0. -1.
        -12    1    5    5    0    0 -0.91554597969E+01  0.75790889462E+01 -0.63484865990E+01  0.13474728771E+02  0.00000000000E+00 0.  1.
          5    1    4    4  501    0 -0.61994766454E+02 -0.21572473359E+02 -0.26117621863E+01  0.65825651355E+02  0.41800000000E+01 0. -1.
         -5    1    4    4    0  501 -0.93269328439E+03 -0.25844044163E+03  0.44236831059E+03  0.10641500924E+04  0.41800000000E+01 0. -1.
</event>
<event>
11    1  0.8328696E-009  0.1526402E+03  0.7561462E-02  0.1094211E+00
         22   -1    0    0    0    0  0.00000000000E+00  0.00000000000E+00  0.14251166817E+04  0.14251166817E+04  0.00000000000E+00 0.  1.
         22   -1    0    0    0    0 -0.00000000000E+00 -0.00000000000E+00 -0.11861197255E+04  0.11861197255E+04  0.00000000000E+00 0. -1.
        -24    2    1    2    0    0 -0.79741123261E+02 -0.14178503785E+02 -0.57122139576E+03  0.58271793366E+03  0.81894020103E+02 0.  0.
         25    2    1    2    0    0  0.10256766459E+03 -0.44911901916E+02 -0.59570797004E+03  0.61891290852E+03  0.12509195821E+03 0.  0.
         24    2    1    2    0    0 -0.22826541334E+02  0.59090405701E+02  0.14059263220E+04  0.14096055651E+04  0.79663662793E+02 0.  0.
        -11    1    5    5    0    0  0.13919794085E+02  0.53078071382E+02  0.11085373972E+04  0.11098946812E+04  0.00000000000E+00 0.  1.
         12    1    5    5    0    0 -0.36746335418E+02  0.60123343186E+01  0.29738892480E+03  0.29971088390E+03  0.00000000000E+00 0. -1.
         11    1    3    3    0    0 -0.72183474412E+02 -0.39002871797E+02 -0.32758133036E+03  0.33769987561E+03  0.00000000000E+00 0. -1.
        -12    1    3    3    0    0 -0.75576488483E+01  0.24824368012E+02 -0.24364006540E+03  0.24501805805E+03  0.00000000000E+00 0.  1.
          5    1    4    4  501    0  0.12335804015E+03 -0.60024012991E+02 -0.54362156318E+03  0.56067991275E+03  0.41800000000E+01 0. -1.
         -5    1    4    4    0  501 -0.20790375555E+02  0.15112111075E+02 -0.52086406856E+02  0.58232995768E+02  0.41800000000E+01 0. -1.
</event>
<event>
11    1  0.8328696E-009  0.1251352E+03  0.7561462E-02  0.1125395E+00
         22   -1    0    0    0    0  0.00000000000E+00  0.00000000000E+00  0.15750523216E+03  0.15750523216E+03  0.00000000000E+00 0. -1.
         22   -1    0    0    0    0 -0.00000000000E+00 -0.00000000000E+00 -0.34332172547E+03  0.34332172547E+03  0.00000000000E+00 0. -1.
         24    2    1    2    0    0 -0.34089489079E+02 -0.26542560380E+02 -0.24849569364E+03  0.26400006571E+03  0.77970020927E+02 0.  0.
         25    2    1    2    0    0  0.22299008001E+02  0.21600937888E+02  0.20250519331E+01  0.12890000478E+03  0.12508902478E+03 0.  0.
        -24    2    1    2    0    0  0.11790481078E+02  0.49416224915E+01  0.60654148399E+02  0.10792688714E+03  0.88350733855E+02 0.  0.
        -11    1    3    3    0    0 -0.22192191615E+02 -0.23302443638E+02 -0.26566544519E+02  0.41728629690E+02  0.00000000000E+00 0.  1.
         12    1    3    3    0    0 -0.11897297464E+02 -0.32401167420E+01 -0.22192914912E+03  0.22227143602E+03  0.00000000000E+00 0. -1.
         11    1    5    5    0    0  0.43970978109E+02 -0.73567209038E+01  0.58304956485E+02  0.73396431855E+02  0.00000000000E+00 0. -1.
        -12    1    5    5    0    0 -0.32180497032E+02  0.12298343395E+02  0.23491919139E+01  0.34530455284E+02  0.00000000000E+00 0.  1.
          5    1    4    4  501    0  0.19999001533E+02  0.61299646918E+02  0.38130291775E+02  0.75026650768E+02  0.41800000000E+01 0. -1.
         -5    1    4    4    0  501  0.23000064677E+01 -0.39698709030E+02 -0.36105239842E+02  0.53873354011E+02  0.41800000000E+01 0. -1.
</event>
<event>
11    1  0.8328696E-009  0.2465117E+03  0.7561462E-02  0.1025774E+00
         22   -1    0    0    0    0  0.00000000000E+00  0.00000000000E+00  0.15607092079E+04  0.15607092079E+04  0.00000000000E+00 0.  1.
         22   -1    0    0    0    0 -0.00000000000E+00 -0.00000000000E+00 -0.16481381512E+03  0.16481381512E+03  0.00000000000E+00 0.  1.
         24    2    1    2    0    0 -0.81126318401E+02 -0.74363861296E+02  0.12950032058E+03  0.18754999559E+03  0.79329719604E+02 0.  0.
         25    2    1    2    0    0  0.51992420193E+02  0.27991250095E+03  0.67055767883E+02  0.31811647363E+03  0.12508954729E+03 0.  0.
        -24    2    1    2    0    0  0.29133898209E+02 -0.20554863965E+03  0.11993393043E+04  0.12198565538E+04  0.80846877915E+02 0.  0.
        -11    1    3    3    0    0  0.99609686278E+01  0.78542282368E+01  0.15823612298E+02  0.20280446330E+02  0.00000000000E+00 0.  1.
         12    1    3    3    0    0 -0.91087287029E+02 -0.82218089533E+02  0.11367670828E+03  0.16726954926E+03  0.00000000000E+00 0. -1.
         11    1    5    5    0    0  0.11369339136E+02  0.38256731607E+01  0.46398012665E+02  0.47923618674E+02  0.00000000000E+00 0. -1.
        -12    1    5    5    0    0  0.17764559072E+02 -0.20937431281E+03  0.11529412916E+04  0.11719329351E+04  0.00000000000E+00 0.  1.
          5    1    4    4  501    0  0.74456671342E+02  0.19373020128E+03  0.89679959463E+02  0.22613083453E+03  0.41800000000E+01 0.  1.
         -5    1    4    4    0  501 -0.22464251149E+02  0.86182299670E+02 -0.22624191579E+02  0.91985639100E+02  0.41800000000E+01 0.  1.
</event>
<event>
11    1  0.8328696E-009  0.1472751E+03  0.7561462E-02  0.1099696E+00
         22   -1    0    0    0    0  0.00000000000E+00  0.00000000000E+00  0.57373527437E+03  0.57373527437E+03  0.00000000000E+00 0.  1.
         22   -1    0    0    0    0 -0.00000000000E+00 -0.00000000000E+00 -0.20601506800E+04  0.20601506800E+04  0.00000000000E+00 0. -1.
         24    2    1    2    0    0 -0.18413698485E+02 -0.73499319728E+02 -0.18504697008E+04  0.18538356065E+04  0.82019070732E+02 0.  0.
         25    2    1    2    0    0  0.54294524254E+02  0.11307664033E+03 -0.16460672144E+03  0.24181632050E+03  0.12508212569E+03 0.  0.
        -24    2    1    2    0    0 -0.35880825769E+02 -0.39577320598E+02  0.52866101669E+03  0.53823402732E+03  0.85788108943E+02 0.  0.
        -11    1    3    3    0    0  0.27138863046E+02 -0.40794323883E+02 -0.55699350411E+03  0.55914439849E+03  0.00000000000E+00 0.  1.
         12    1    3    3    0    0 -0.45552561531E+02 -0.32704995845E+02 -0.12934761967E+04  0.12946912080E+04  0.00000000000E+00 0. -1.
         13    1    5    5    0    0 -0.43864333818E+02  0.14575742187E+02  0.23013286609E+03  0.23472892471E+03  0.00000000000E+00 0. -1.
        -14    1    5    5    0    0  0.79835080485E+01 -0.54153062785E+02  0.29852815060E+03  0.30350510261E+03  0.00000000000E+00 0.  1.
          5    1    4    4  501    0 -0.45003285624E+01  0.11528683277E+03 -0.88174033934E+02  0.14527022898E+03  0.41800000000E+01 0. -1.
         -5    1    4    4    0  501  0.58794852817E+02 -0.22101924472E+01 -0.76432687507E+02  0.96546091521E+02  0.41800000000E+01 0. -1.
</event>
<event>
11    1  0.8328696E-009  0.1300439E+03  0.7561462E-02  0.1119215E+00
         22   -1    0    0    0    0  0.00000000000E+00  0.00000000000E+00  0.31441962024E+03  0.31441962024E+03  0.00000000000E+00 0.  1.
         22   -1    0    0    0    0 -0.00000000000E+00 -0.00000000000E+00 -0.69240228034E+03  0.69240228034E+03  0.00000000000E+00 0.  1.
         24    2    1    2    0    0  0.14558722863E+01  0.64093086600E+01 -0.57583465415E+03  0.58175030437E+03  0.82490417115E+02 0.  0.
         25    2    1    2    0    0 -0.34696283819E+02 -0.18661118854E+02 -0.65140532761E+02  0.14640365846E+03  0.12505467898E+03 0.  0.
        -24    2    1    2    0    0  0.33240411532E+02  0.12251810194E+02  0.26299252681E+03  0.27866793774E+03  0.85063026964E+02 0.  0.
        -11    1    3    3    0    0 -0.22052076846E+02  0.29257280767E+02 -0.14101470954E+03  0.14569636536E+03  0.00000000000E+00 0.  1.
         12    1    3    3    0    0  0.23507949132E+02 -0.22847972107E+02 -0.43481994461E+03  0.43605393901E+03  0.00000000000E+00 0. -1.
         13    1    5    5    0    0  0.26463989204E+02  0.44838886031E+02  0.10491089401E+03  0.11712029759E+03  0.00000000000E+00 0. -1.
        -14    1    5    5    0    0  0.67764223287E+01 -0.32587075837E+02  0.15808163279E+03  0.16154764015E+03  0.00000000000E+00 0.  1.
          5    1    4    4  501    0  0.33630475354E+02  0.90872419300E+00 -0.67102072246E+02  0.75179752273E+02  0.41800000000E+01 0. -1.
         -5    1    4    4    0  501 -0.68326759173E+02 -0.19569843047E+02  0.19615394847E+01  0.71223906191E+02  0.41800000000E+01 0. -1.
</event>
<event>
11    1  0.8328696E-009  0.1707144E+03  0.7561462E-02  0.1077412E+00
         22   -1    0    0    0    0  0.00000000000E+00  0.00000000000E+00  0.51220466737E+03  0.51220466737E+03  0.00000000000E+00 0. -1.
         22   -1    0    0    0    0 -0.00000000000E+00 -0.00000000000E+00 -0.27009655177E+03  0.27009655177E+03  0.00000000000E+00 0. -1.
         24    2    1    2    0    0 -0.10648573807E+03 -0.50044753680E+02 -0.20263206145E+03  0.24893414397E+03  0.84052161933E+02 0.  0.
         25    2    1    2    0    0  0.98351728003E+02  0.37885929831E+02  0.13243140879E+03  0.21046147069E+03  0.12509015361E+03 0.  0.
        -24    2    1    2    0    0  0.81340100643E+01  0.12158823849E+02  0.31230876825E+03  0.32290560448E+03  0.80729570547E+02 0.  0.
        -11    1    3    3    0    0 -0.26300659853E+02 -0.55545343497E+02 -0.64292334798E+02  0.88941071540E+02  0.00000000000E+00 0.  1.
         12    1    3    3    0    0 -0.80185078214E+02  0.55005898168E+01 -0.13833972665E+03  0.15999307243E+03  0.00000000000E+00 0. -1.
         11    1    5    5    0    0 -0.10410267575E+02 -0.25345606278E+02  0.21822536384E+03  0.21993881616E+03  0.00000000000E+00 0. -1.
        -12    1    5    5    0    0  0.18544277639E+02  0.37504430127E+02  0.94083404413E+02  0.10296678833E+03  0.00000000000E+00 0.  1.
          5    1    4    4  501    0 -0.15607344903E+02  0.64429841386E+01 -0.13922315507E+02  0.22280137536E+02  0.41800000000E+01 0.  1.
         -5    1    4    4    0  501  0.11395907291E+03  0.31442945693E+02  0.14635372430E+03  0.18818133316E+03  0.41800000000E+01 0.  1.
</event>
<event>
11    1  0.8328696E-009  0.1572673E+03  0.7561462E-02  0.1089676E+00
         22   -1    0    0    0    0  0.00000000000E+00  0.00000000000E+00  0.36385593018E+03  0.36385593018E+03  0.00000000000E+00 0. -1.
         22   -1    0    0    0    0 -0.00000000000E+00 -0.00000000000E+00 -0.87496685222E+03  0.87496685222E+03  0.00000000000E+00 0.  1.
        -24    2    1    2    0    0 -0.29580186013E+01 -0.60890461740E+02 -0.80613223291E+03  0.81237849925E+03  0.79957807018E+02 0.  0.
         25    2    1    2    0    0  0.79703323102E+02  0.99807396722E+02  0.11882080302E+03  0.21466974677E+03  0.12510228133E+03 0.  0.
         24    2    1    2    0    0 -0.76745304501E+02 -0.38916934983E+02  0.17620050786E+03  0.21177453638E+03  0.79984159034E+02 0.  0.
        -13    1    5    5    0    0 -0.84403451140E+02 -0.70833843542E+01  0.12950768045E+03  0.15474610236E+03  0.00000000000E+00 0.  1.
         14    1    5    5    0    0  0.76581466399E+01 -0.31833550628E+02  0.46692827406E+02  0.57028434020E+02  0.00000000000E+00 0. -1.
         11    1    3    3    0    0  0.37198011591E+01 -0.26932626334E+02 -0.65242223083E+02  0.70680626446E+02  0.00000000000E+00 0. -1.
        -12    1    3    3    0    0 -0.66778197605E+01 -0.33957835406E+02 -0.74089000983E+03  0.74169787281E+03  0.00000000000E+00 0.  1.
          5    1    4    4  501    0  0.19120028329E+02  0.77234554726E+02  0.39031190657E+00  0.79676700926E+02  0.41800000000E+01 0. -1.
         -5    1    4    4    0  501  0.60583294773E+02  0.22572841996E+02  0.11843049111E+03  0.13499304584E+03  0.41800000000E+01 0. -1.
</event>
<event>
11    1  0.8328696E-009  0.1588750E+03  0.7561462E-02  0.1088140E+00
         22   -1    0    0    0    0  0.00000000000E+00  0.00000000000E+00  0.15231744794E+03  0.15231744794E+03  0.00000000000E+00 0.  1.
         22   -1    0    0    0    0 -0.00000000000E+00 -0.00000000000E+00 -0.26930766656E+04  0.26930766656E+04  0.00000000000E+00 0. -1.
        -24    2    1    2    0    0 -0.74903613372E+02  0.56652539218E+02 -0.20207075652E+04  0.20245037963E+04  0.80848598999E+02 0.  0.
         25    2    1    2    0    0  0.13321062753E+03 -0.28957791201E+02 -0.63807405323E+03  0.66435727683E+03  0.12509384043E+03 0.  0.
         24    2    1    2    0    0 -0.58307014162E+02 -0.27694748016E+02  0.11802240075E+03  0.15653304036E+03  0.80041231102E+02 0.  0.
        -11    1    5    5    0    0 -0.44818633638E+02 -0.13762002831E+02  0.12684202047E+03  0.13522943762E+03  0.00000000000E+00 0.  1.
         12    1    5    5    0    0 -0.13488380524E+02 -0.13932745186E+02 -0.88196197164E+01  0.21303602736E+02  0.00000000000E+00 0. -1.
         11    1    3    3    0    0 -0.85439673756E+02  0.67216883997E+02 -0.17279792968E+04  0.17313955347E+04  0.00000000000E+00 0. -1.
        -12    1    3    3    0    0  0.10536060384E+02 -0.10564344780E+02 -0.29272826831E+03  0.29310826160E+03  0.00000000000E+00 0.  1.
          5    1    4    4  501    0  0.15703004054E+03 -0.32426537114E+02 -0.56347427153E+03  0.58585889173E+03  0.41800000000E+01 0. -1.
         -5    1    4    4    0  501 -0.23819413003E+02  0.34687459132E+01 -0.74599781698E+02  0.78498385101E+02  0.41800000000E+01 0. -1.
</event>
<event>
11    1  0.8328696E-009  0.1727315E+03  0.7561462E-02  0.1075679E+00
         22   -1    0    0    0    0  0.00000000000E+00  0.00000000000E+00  0.26884436368E+04  0.26884436368E+04  0.00000000000E+00 0.  1.
         22   -1    0    0    0    0 -0.00000000000E+00 -0.00000000000E+00 -0.75042780256E+03  0.75042780256E+03  0.00000000000E+00 0. -1.
         24    2    1    2    0    0 -0.87864062277E+02  0.80773722486E+02 -0.73440653383E+03  0.74839551478E+03  0.80612665987E+02 0.  0.
         25    2    1    2    0    0  0.10392658840E+03 -0.25435831968E+02  0.88221822145E+03  0.89743851404E+03  0.12505670274E+03 0.  0.
        -24    2    1    2    0    0 -0.16062526123E+02 -0.55337890518E+02  0.17902041466E+04  0.17930374105E+04  0.82655805478E+02 0.  0.
        -13    1    3    3    0    0  0.67396227542E+01 -0.70443590872E+00 -0.51056285314E+01  0.84844674269E+01  0.00000000000E+00 0.  1.
         14    1    3    3    0    0 -0.94603685031E+02  0.81478158394E+02 -0.72930090530E+03  0.73991104735E+03  0.00000000000E+00 0. -1.
         13    1    5    5    0    0 -0.37246786804E+02  0.29097439505E+01  0.53413521207E+03  0.53544020628E+03  0.00000000000E+00 0. -1.
        -14    1    5    5    0    0  0.21184260681E+02 -0.58247634468E+02  0.12560689345E+04  0.12575972043E+04  0.00000000000E+00 0.  1.
          5    1    4    4  501    0 -0.18342277733E+02 -0.33402720598E+02  0.30094614291E+03  0.30337803847E+03  0.41800000000E+01 0. -1.
         -5    1    4    4    0  501  0.12226886613E+03  0.79668886303E+01  0.58127207854E+03  0.59406047557E+03  0.41800000000E+01 0. -1.
</event>
<event>
11    1  0.8328696E-009  0.1402714E+03  0.7561462E-02  0.1107256E+00
         22   -1    0    0    0    0  0.00000000000E+00  0.00000000000E+00  0.15139945730E+03  0.15139945730E+03  0.00000000000E+00 0. -1.
         22   -1    0    0    0    0 -0.00000000000E+00 -0.00000000000E+00 -0.88833655897E+03  0.88833655897E+03  0.00000000000E+00 0. -1.
         24    2    1    2    0    0 -0.21748618282E+02  0.49944896823E+01 -0.76827987010E+03  0.77228188872E+03  0.75282199220E+02 0.  0.
         25    2    1    2    0    0 -0.46754538534E+02  0.28500412744E+01 -0.38727772439E+02  0.13907073123E+03  0.12508684310E+03 0.  0.
        -24    2    1    2    0    0  0.68503156815E+02 -0.78445309567E+01  0.70070540871E+02  0.12838339633E+03  0.82572371862E+02 0.  0.
        -11    1    3    3    0    0 -0.38088390568E+01  0.35190757899E+02 -0.21552893539E+03  0.21841615940E+03  0.00000000000E+00 0.  1.
         12    1    3    3    0    0 -0.17939779225E+02 -0.30196268217E+02 -0.55275093470E+03  0.55386572931E+03  0.00000000000E+00 0. -1.
         13    1    5    5    0    0  0.83598367614E+02 -0.10443334275E+02  0.74473584581E+02  0.11244583184E+03  0.00000000000E+00 0. -1.
        -14    1    5    5    0    0 -0.15095210799E+02  0.25988033186E+01 -0.44030437098E+01  0.15937564484E+02  0.00000000000E+00 0.  1.
          5    1    4    4  501    0 -0.86704370020E+02  0.18328009323E+02 -0.15192789352E+02  0.90010315823E+02  0.41800000000E+01 0.  1.
         -5    1    4    4    0  501  0.39949831486E+02 -0.15477968049E+02 -0.23534983087E+02  0.49060415404E+02  0.41800000000E+01 0.  1.
</event>
<event>
11    1  0.8328696E-009  0.1519494E+03  0.7561462E-02  0.1094903E+00
         22   -1    0    0    0    0  0.00000000000E+00  0.00000000000E+00  0.16213179298E+03  0.16213179298E+03  0.00000000000E+00 0. -1.
         22   -1    0    0    0    0 -0.00000000000E+00 -0.00000000000E+00 -0.64901571729E+03  0.64901571729E+03  0.00000000000E+00 0. -1.
        -24    2    1    2    0    0 -0.44807106147E+02 -0.34700012022E+02 -0.46975763447E+03  0.48025453076E+03  0.82221722081E+02 0.  0.
         25    2    1    2    0    0  0.11441760232E+03  0.68991190515E+02 -0.89897109527E+02  0.20391033029E+03  0.12508701135E+03 0.  0.
         24    2    1    2    0    0 -0.69610496173E+02 -0.34291178493E+02  0.72770819684E+02  0.12698264923E+03  0.69336101038E+02 0.  0.
        -11    1    5    5    0    0 -0.37242565048E+02 -0.15182169279E+02 -0.50750632065E+01  0.40537182708E+02  0.00000000000E+00 0.  1.
         12    1    5    5    0    0 -0.32367931124E+02 -0.19109009214E+02  0.77845882891E+02  0.86445466518E+02  0.00000000000E+00 0. -1.
         13    1    3    3    0    0 -0.58325392817E+02 -0.42716771758E+02 -0.44565215268E+03  0.45147803404E+03  0.00000000000E+00 0. -1.
        -14    1    3    3    0    0  0.13518286670E+02  0.80167597362E+01 -0.24105481789E+02  0.28776496719E+02  0.00000000000E+00 0.  1.
          5    1    4    4  501    0 -0.20570119716E+02 -0.65032879313E+01 -0.31772973243E+02  0.38631810827E+02  0.41800000000E+01 0.  1.
         -5    1    4    4    0  501  0.13498772204E+03  0.75494478446E+02 -0.58124136285E+02  0.16527851946E+03  0.41800000000E+01 0.  1.
</event>
<event>
11    1  0.8328696E-009  0.1459351E+03  0.7561462E-02  0.1101106E+00
         22   -1    0    0    0    0  0.00000000000E+00  0.00000000000E+00  0.12339488011E+04  0.12339488011E+04  0.00000000000E+00 0. -1.
         22   -1    0    0    0    0 -0.00000000000E+00 -0.00000000000E+00 -0.40958220396E+03  0.40958220396E+03  0.00000000000E+00 0.  1.
        -24    2    1    2    0    0  0.38878237268E+02 -0.64030486000E+02 -0.38659052541E+03  0.40054528552E+03  0.73299870016E+02 0.  0.
         25    2    1    2    0    0 -0.32643947491E+02  0.86902416139E+02  0.41808414770E+03  0.44615989958E+03  0.12508654683E+03 0.  0.
         24    2    1    2    0    0 -0.62342897769E+01 -0.22871930139E+02  0.79287297488E+03  0.79682581999E+03  0.75642855227E+02 0.  0.
        -11    1    5    5    0    0  0.10789471168E+02 -0.24103234996E+02  0.91228497898E+02  0.94973772453E+02  0.00000000000E+00 0.  1.
         12    1    5    5    0    0 -0.17023760945E+02  0.12313048576E+01  0.70164447699E+03  0.70185204754E+03  0.00000000000E+00 0. -1.
         11    1    3    3    0    0 -0.17237555681E+02 -0.26847673409E+02 -0.70757854431E+02  0.77618328100E+02  0.00000000000E+00 0. -1.
        -12    1    3    3    0    0  0.56115792948E+02 -0.37182812591E+02 -0.31583267098E+03  0.32292695742E+03  0.00000000000E+00 0.  1.
          5    1    4    4  501    0 -0.21237916350E+02  0.68341591567E+02  0.80282675449E+02  0.10763086270E+03  0.41800000000E+01 0. -1.
         -5    1    4    4    0  501 -0.11406031141E+02  0.18560824571E+02  0.33780147225E+03  0.33852903688E+03  0.41800000000E+01 0. -1.
</event>
<event>
11    1  0.8328696E-009  0.1556615E+03  0.7561462E-02  0.1091230E+00
         22   -1    0    0    0    0  0.00000000000E+00  0.00000000000E+00  0.17311708582E+03  0.17311708582E+03  0.00000000000E+00 0.  1.
         22   -1    0    0    0    0 -0.00000000000E+00 -0.00000000000E+00 -0.22730940024E+04  0.22730940024E+04  0.00000000000E+00 0.  1.
        -24    2    1    2    0    0  0.92812666719E+02 -0.39436928927E+01 -0.20813290003E+04  0.20849422980E+04  0.80151323464E+02 0.  0.
         25    2    1    2    0    0 -0.80650621943E+02  0.93372905371E+02 -0.11216417577E+03  0.20844684004E+03  0.12508501316E+03 0.  0.
         24    2    1    2    0    0 -0.12162044776E+02 -0.89429212478E+02  0.93516259523E+02  0.15282195016E+03  0.80397501688E+02 0.  0.
        -13    1    5    5    0    0  0.14274020915E+02 -0.87180979414E+02  0.89907524045E+02  0.12604615712E+03  0.00000000000E+00 0.  1.
         14    1    5    5    0    0 -0.26436065691E+02 -0.22482330640E+01  0.36087354780E+01  0.26775793040E+02  0.00000000000E+00 0. -1.
         13    1    3    3    0    0  0.31360370768E+02  0.19303695069E+02 -0.13925223577E+04  0.13930091967E+04  0.00000000000E+00 0. -1.
        -14    1    3    3    0    0  0.61452295950E+02 -0.23247387961E+02 -0.68880664262E+03  0.69193310128E+03  0.00000000000E+00 0.  1.
          5    1    4    4  501    0 -0.10642544631E+01 -0.28717469743E+02 -0.11309879931E+02  0.31164266237E+02  0.41800000000E+01 0.  1.
         -5    1    4    4    0  501 -0.79586367479E+02  0.12209037511E+03 -0.10085429584E+03  0.17728257380E+03  0.41800000000E+01 0.  1.
</event>
<event>
11    1  0.8328696E-009  0.1584286E+03  0.7561462E-02  0.1088565E+00
         22   -1    0    0    0    0  0.00000000000E+00  0.00000000000E+00  0.84091466474E+03  0.84091466474E+03  0.00000000000E+00 0.  1.
         22   -1    0    0    0    0 -0.00000000000E+00 -0.00000000000E+00 -0.23351500579E+03  0.23351500579E+03  0.00000000000E+00 0.  1.
        -24    2    1    2    0    0 -0.13302432088E+02 -0.13276924802E+02 -0.16530581945E+03  0.18746781670E+03  0.86399866440E+02 0.  0.
         25    2    1    2    0    0  0.55021951677E+02  0.99171852907E+02  0.86659799740E+02  0.18978937966E+03  0.12509043195E+03 0.  0.
         24    2    1    2    0    0 -0.41719519589E+02 -0.85894928105E+02  0.68604567867E+03  0.69717247418E+03  0.79198033733E+02 0.  0.
        -11    1    5    5    0    0 -0.24807550421E+02 -0.97775519321E+02  0.50697867101E+03  0.51691666601E+03  0.00000000000E+00 0.  1.
         12    1    5    5    0    0 -0.16911969169E+02  0.11880591217E+02  0.17906700766E+03  0.18025580817E+03  0.00000000000E+00 0. -1.
         11    1    3    3    0    0 -0.16064349017E+02 -0.24506355786E+02 -0.88844567420E+01  0.30619574701E+02  0.00000000000E+00 0. -1.
        -12    1    3    3    0    0  0.27619169294E+01  0.11229430984E+02 -0.15642136271E+03  0.15684824200E+03  0.00000000000E+00 0.  1.
          5    1    4    4  501    0 -0.18996467096E+02  0.90360620535E+02  0.34250392762E+02  0.98572152812E+02  0.41800000000E+01 0.  1.
         -5    1    4    4    0  501  0.74018418774E+02  0.88112323713E+01  0.52409406978E+02  0.91217226846E+02  0.41800000000E+01 0.  1.
</event>
<event>
11    1  0.8328696E-009  0.2600860E+03  0.7561462E-02  0.1018659E+00
         22   -1    0    0    0    0  0.00000000000E+00  0.00000000000E+00  0.29153859486E+03  0.29153859486E+03  0.00000000000E+00 0. -1.
         22   -1    0    0    0    0 -0.00000000000E+00 -0.00000000000E+00 -0.10238642140E+04  0.10238642140E+04  0.00000000000E+00 0. -1.
        -24    2    1    2    0    0  0.14305649036E+03  0.70914483023E+01 -0.50053982818E+03  0.52642584512E+03  0.77901237091E+02 0.  0.
         25    2    1    2    0    0 -0.35306663597E+03  0.36469448561E+01 -0.36835030076E+03  0.52535552863E+03  0.12508851966E+03 0.  0.
         24    2    1    2    0    0  0.21001014561E+03 -0.10738393158E+02  0.13656450976E+03  0.26362143515E+03  0.81405290989E+02 0.  0.
        -13    1    5    5    0    0  0.14451119340E+03  0.27991640835E+02  0.10703930342E+03  0.18200117981E+03  0.00000000000E+00 0.  1.
         14    1    5    5    0    0  0.65498952208E+02 -0.38730033993E+02  0.29525206337E+02  0.81620255346E+02  0.00000000000E+00 0. -1.
         11    1    3    3    0    0  0.14134368212E+03  0.28593604908E+01 -0.50208287740E+03  0.52160658374E+03  0.00000000000E+00 0. -1.
        -12    1    3    3    0    0  0.17128082407E+01  0.42320878115E+01  0.15430492253E+01  0.48192613776E+01  0.00000000000E+00 0.  1.
          5    1    4    4  501    0 -0.37525279930E+00 -0.70349183846E+01  0.65608919825E+01  0.10495170077E+02  0.41800000000E+01 0.  1.
         -5    1    4    4    0  501 -0.35269138317E+03  0.10681863241E+02 -0.37491119274E+03  0.51486035855E+03  0.41800000000E+01 0.  1.
</event>
<event>
11    1  0.8328696E-009  0.1287245E+03  0.7561462E-02  0.1120846E+00
         22   -1    0    0    0    0  0.00000000000E+00  0.00000000000E+00  0.16988242461E+03  0.16988242461E+03  0.00000000000E+00 0. -1.
         22   -1    0    0    0    0 -0.00000000000E+00 -0.00000000000E+00 -0.12929053113E+04  0.12929053113E+04  0.00000000000E+00 0. -1.
         24    2    1    2    0    0  0.14438044147E+02  0.25664513786E+02 -0.11575252202E+04  0.11606677055E+04  0.80110940610E+02 0.  0.
         25    2    1    2    0    0 -0.18834733271E+02 -0.50327730235E+02 -0.82155517299E+02  0.15901050842E+03  0.12508870916E+03 0.  0.
        -24    2    1    2    0    0  0.43966891241E+01  0.24663216448E+02  0.11665785080E+03  0.14310952200E+03  0.79016934970E+02 0.  0.
        -11    1    3    3    0    0  0.12874560890E+02 -0.26659543228E+02 -0.27441973682E+03  0.27601209669E+03  0.00000000000E+00 0.  1.
         12    1    3    3    0    0  0.15634832570E+01  0.52324057015E+02 -0.88310548334E+03  0.88465560877E+03  0.00000000000E+00 0. -1.
         11    1    5    5    0    0 -0.22351530455E+02 -0.14495708924E+02  0.76373100268E+02  0.80886135619E+02  0.00000000000E+00 0. -1.
        -12    1    5    5    0    0  0.26748219579E+02  0.39158925372E+02  0.40284750535E+02  0.62223386380E+02  0.00000000000E+00 0.  1.
          5    1    4    4  501    0 -0.54817018893E+02  0.16599161119E+02 -0.50909707673E+02  0.76744435926E+02  0.41800000000E+01 0.  1.
         -5    1    4    4    0  501  0.35982285623E+02 -0.66926891354E+02 -0.31245809626E+02  0.82266072497E+02  0.41800000000E+01 0.  1.
</event>
<event>
11    1  0.8328696E-009  0.1262172E+03  0.7561462E-02  0.1124006E+00
         22   -1    0    0    0    0  0.00000000000E+00  0.00000000000E+00  0.14896799825E+03  0.14896799825E+03  0.00000000000E+00 0.  1.
         22   -1    0    0    0    0 -0.00000000000E+00 -0.00000000000E+00 -0.12587899184E+04  0.12587899184E+04  0.00000000000E+00 0. -1.
        -24    2    1    2    0    0  0.62855620877E+01 -0.15677830677E+02 -0.10860824062E+04  0.10892258401E+04  0.80948348037E+02 0.  0.
         25    2    1    2    0    0 -0.15844630922E+01  0.16216755677E+02 -0.13199332959E+03  0.18258040525E+03  0.12509145309E+03 0.  0.
         24    2    1    2    0    0 -0.47010989955E+01 -0.53892500071E+00  0.10825381566E+03  0.13595167128E+03  0.82107110207E+02 0.  0.
        -13    1    5    5    0    0 -0.10568920183E+02  0.39931349291E+02  0.52186839476E+02  0.66555848312E+02  0.00000000000E+00 0.  1.
         14    1    5    5    0    0  0.58678211877E+01 -0.40470274292E+02  0.56066976182E+02  0.69395822965E+02  0.00000000000E+00 0. -1.
         11    1    3    3    0    0 -0.29369013414E+01  0.90778754600E+01 -0.97494827872E+03  0.97499496378E+03  0.00000000000E+00 0. -1.
        -12    1    3    3    0    0  0.92224634291E+01 -0.24755706137E+02 -0.11113412750E+03  0.11423087635E+03  0.00000000000E+00 0.  1.
          5    1    4    4  501    0  0.51014442799E+02 -0.18609853682E+02 -0.28927729746E+02  0.61669165524E+02  0.41800000000E+01 0.  1.
         -5    1    4    4    0  501 -0.52598905892E+02  0.34826609359E+02 -0.10306559985E+03  0.12091123973E+03  0.41800000000E+01 0.  1.
</event>
<event>
11    1  0.8328696E-009  0.1419268E+03  0.7561462E-02  0.1105426E+00
         22   -1    0    0    0    0  0.00000000000E+00  0.00000000000E+00  0.58004412140E+03  0.58004412140E+03  0.00000000000E+00 0.  1.
         22   -1    0    0    0    0 -0.00000000000E+00 -0.00000000000E+00 -0.19495110201E+03  0.19495110201E+03  0.00000000000E+00 0.  1.
        -24    2    1    2    0    0  0.59634682041E+00  0.33115382230E+01 -0.15380731535E+03  0.17239926691E+03  0.77804209788E+02 0.  0.
         25    2    1    2    0    0 -0.32135060133E+01 -0.69257261370E+02  0.21211421328E+03  0.25582756779E+03  0.12509360533E+03 0.  0.
         24    2    1    2    0    0  0.26171591929E+01  0.65945723147E+02  0.32678612147E+03  0.34676838870E+03  0.95412044816E+02 0.  0.
        -13    1    5    5    0    0  0.63449371111E+01  0.88669475586E+02  0.29045509865E+03  0.30375433899E+03  0.00000000000E+00 0.  1.
         14    1    5    5    0    0 -0.37277779183E+01 -0.22723752439E+02  0.36331022819E+02  0.43014049707E+02  0.00000000000E+00 0. -1.
         13    1    3    3    0    0 -0.29860325080E+02  0.54821722189E+01 -0.23033723763E+02  0.38108341036E+02  0.00000000000E+00 0. -1.
        -14    1    3    3    0    0  0.30456671901E+02 -0.21706339959E+01 -0.13077359159E+03  0.13429092588E+03  0.00000000000E+00 0.  1.
          5    1    4    4  501    0  0.52396725475E+02 -0.10446284171E+02  0.44543078179E+02  0.69685722406E+02  0.41800000000E+01 0. -1.
         -5    1    4    4    0  501 -0.55610231489E+02 -0.58810977198E+02  0.16757113510E+03  0.18614184539E+03  0.41800000000E+01 0. -1.
</event>
<event>
11    1  0.8328696E-009  0.2763542E+03  0.7561462E-02  0.1010727E+00
         22   -1    0    0    0    0  0.00000000000E+00  0.00000000000E+00  0.15680202260E+04  0.15680202260E+04  0.00000000000E+00 0.  1.
         22   -1    0    0    0    0 -0.00000000000E+00 -0.00000000000E+00 -0.10600802804E+03  0.10600802804E+03  0.00000000000E+00 0. -1.
         24    2    1    2    0    0  0.31791934689E+02  0.18353992293E+03  0.14400720626E+03  0.24875044769E+03  0.80256335271E+02 0.  0.
         25    2    1    2    0    0  0.13848107692E+03  0.68759084471E+02  0.30444463484E+03  0.36364711772E+03  0.12509144727E+03 0.  0.
        -24    2    1    2    0    0 -0.17027301161E+03 -0.25229900740E+03  0.10135603568E+04  0.10616306886E+04  0.84305601366E+02 0.  0.
        -13    1    3    3    0    0 -0.26457380566E+02  0.44253212306E+02  0.42572856874E+02  0.66863950887E+02  0.00000000000E+00 0.  1.
         14    1    3    3    0    0  0.58249315255E+02  0.13928671062E+03  0.10143434938E+03  0.18188649680E+03  0.00000000000E+00 0. -1.
         13    1    5    5    0    0 -0.11945636362E+03 -0.10537592006E+03  0.46893483924E+03  0.49525124007E+03  0.00000000000E+00 0. -1.
        -14    1    5    5    0    0 -0.50816647987E+02 -0.14692308734E+03  0.54462551759E+03  0.56637944853E+03  0.00000000000E+00 0.  1.
          5    1    4    4  501    0  0.24207999170E+02  0.43625224383E+02  0.16345837239E+02  0.52667316443E+02  0.41800000000E+01 0. -1.
         -5    1    4    4    0  501  0.11427307775E+03  0.25133860088E+02  0.28809879760E+03  0.31097980128E+03  0.41800000000E+01 0. -1.
</event>
<event>
11    1  0.8328696E-009  0.2336354E+03  0.7561462E-02  0.1032997E+00
         22   -1    0    0    0    0  0.00000000000E+00  0.00000000000E+00  0.59232923514E+03  0.59232923514E+03  0.00000000000E+00 0. -1.
         22   -1    0    0    0    0 -0.00000000000E+00 -0.00000000000E+00 -0.40725340274E+03  0.40725340274E+03  0.00000000000E+00 0. -1.
         24    2    1    2    0    0 -0.36065511074E+02  0.41666411768E+02 -0.30664400879E+03  0.32167885761E+03  0.80062028120E+02 0.  0.
         25    2    1    2    0    0 -0.67862537248E+02 -0.20204656086E+03  0.19116248366E+03  0.31244039644E+03  0.12509104464E+03 0.  0.
        -24    2    1    2    0    0  0.10392804832E+03  0.16038014910E+03  0.30055735752E+03  0.36546338384E+03  0.81889732642E+02 0.  0.
        -11    1    3    3    0    0  0.24566154879E+01  0.23185512807E+02 -0.16886235859E+02  0.28787982306E+02  0.00000000000E+00 0.  1.
         12    1    3    3    0    0 -0.38522126562E+02  0.18480898961E+02 -0.28975777293E+03  0.29289087530E+03  0.00000000000E+00 0. -1.
         11    1    5    5    0    0  0.62253959057E+02  0.14250520493E+03  0.26724100912E+03  0.30919418786E+03  0.00000000000E+00 0. -1.
        -12    1    5    5    0    0  0.41674089266E+02  0.17874944166E+02  0.33316348403E+02  0.56269195978E+02  0.00000000000E+00 0.  1.
          5    1    4    4  501    0 -0.10271663787E+02 -0.65647490583E+02 -0.48547452183E+01  0.66754333552E+02  0.41800000000E+01 0.  1.
         -5    1    4    4    0  501 -0.57590873461E+02 -0.13639907028E+03  0.19601722888E+03  0.24568606289E+03  0.41800000000E+01 0.  1.
</event>
<event>
11    1  0.8328696E-009  0.2174164E+03  0.7561462E-02  0.1042848E+00
         22   -1    0    0    0    0  0.00000000000E+00  0.00000000000E+00  0.14744569464E+04  0.14744569464E+04  0.00000000000E+00 0.  1.
         22   -1    0    0    0    0 -0.00000000000E+00 -0.00000000000E+00 -0.18530376881E+03  0.18530376881E+03  0.00000000000E+00 0.  1.
        -24    2    1    2    0    0  0.19245816793E+03 -0.22495312747E+02 -0.93773838194E+02  0.22926560850E+03  0.78886000113E+02 0.  0.
         25    2    1    2    0    0 -0.10047111523E+03 -0.33696795687E+02  0.32469627478E+03  0.36373812978E+03  0.12509131532E+03 0.  0.
         24    2    1    2    0    0 -0.91987052701E+02  0.56192108434E+02  0.10582307410E+04  0.10667569769E+04  0.80616224678E+02 0.  0.
        -13    1    5    5    0    0  0.53745890597E+01  0.20624668157E+02  0.38537464241E+03  0.38596357102E+03  0.00000000000E+00 0.  1.
         14    1    5    5    0    0 -0.97361641761E+02  0.35567440277E+02  0.67285609856E+03  0.68079340586E+03  0.00000000000E+00 0. -1.
         13    1    3    3    0    0  0.34358298073E+02 -0.32949639048E+02 -0.55837157222E+01  0.47930671194E+02  0.00000000000E+00 0. -1.
        -14    1    3    3    0    0  0.15809986985E+03  0.10454326300E+02 -0.88190122472E+02  0.18133493731E+03  0.00000000000E+00 0.  1.
          5    1    4    4  501    0 -0.11678390341E+03 -0.71589928854E+01  0.17348272377E+03  0.20929275936E+03  0.41800000000E+01 0. -1.
         -5    1    4    4    0  501  0.16312788183E+02 -0.26537802801E+02  0.15121355101E+03  0.15444537042E+03  0.41800000000E+01 0. -1.
</event>
<event>
11    1  0.8328696E-009  0.1431055E+03  0.7561462E-02  0.1104139E+00
         22   -1    0    0    0    0  0.00000000000E+00  0.00000000000E+00  0.26499178707E+04  0.26499178707E+04  0.00000000000E+00 0.  1.
         22   -1    0    0    0    0 -0.00000000000E+00 -0.00000000000E+00 -0.25577446520E+03  0.25577446520E+03  0.00000000000E+00 0. -1.
        -24    2    1    2    0    0 -0.56708852732E+01  0.69184847281E+02 -0.23773763780E+03  0.26182340506E+03  0.84932967553E+02 0.  0.
         25    2    1    2    0    0  0.47499896592E+01 -0.77468448080E+02  0.10708592103E+04  0.10809307417E+04  0.12509155563E+03 0.  0.
         24    2    1    2    0    0  0.92089561401E+00  0.82836007989E+01  0.15610218330E+04  0.15629381891E+04  0.76923038327E+02 0.  0.
        -11    1    5    5    0    0 -0.23449413231E-01 -0.32906965868E+02  0.92368941877E+03  0.92427539797E+03  0.00000000000E+00 0.  1.
         12    1    5    5    0    0  0.94434502724E+00  0.41190566667E+02  0.63733241425E+03  0.63866279117E+03  0.00000000000E+00 0. -1.
         11    1    3    3    0    0 -0.44173723961E+02  0.34059387310E+02 -0.99202305111E+02  0.11380886210E+03  0.00000000000E+00 0. -1.
        -12    1    3    3    0    0  0.38502838688E+02  0.35125459971E+02 -0.13853533269E+03  0.14801454296E+03  0.00000000000E+00 0.  1.
          5    1    4    4  501    0  0.14522402632E+02 -0.20802365339E+02  0.90447957340E+03  0.90484496445E+03  0.41800000000E+01 0.  1.
         -5    1    4    4    0  501 -0.97724129728E+01 -0.56666082741E+02  0.16637963691E+03  0.17608577730E+03  0.41800000000E+01 0.  1.
</event>
<event>
11    1  0.1157367E-008  0.1524173E+03  0.7561462E-02  0.1094434E+00
         22   -1    0    0    0    0  0.00000000000E+00  0.00000000000E+00  0.33485789755E+03  0.33485789755E+03  0.00000000000E+00 0. -1.
         22   -1    0    0    0    0 -0.00000000000E+00 -0.00000000000E+00 -0.11027151810E+04  0.11027151810E+04  0.00000000000E+00 0.  1.
        -24    2    1    2    0    0  0.44414682669E+02  0.56975010821E+02 -0.98168013221E+03  0.98885197568E+03  0.94411503231E+02 0.  0.
         25    2    1    2    0    0  0.45702199919E+02 -0.31345769067E+02 -0.58897775334E+02  0.14893867300E+03  0.12507010858E+03 0.  0.
         24    2    1    2    0    0 -0.90116882588E+02 -0.25629241753E+02  0.27272062408E+03  0.29978242987E+03  0.81945444681E+02 0.  0.
        -13    1    5    5    0    0 -0.70694101706E+01  0.22286277565E+02  0.25376346597E+02  0.34505270532E+02  0.00000000000E+00 0.  1.
         14    1    5    5    0    0 -0.83047472417E+02 -0.47915519318E+02  0.24734427748E+03  0.26527715934E+03  0.00000000000E+00 0. -1.
         13    1    3    3    0    0  0.31846042181E+01 -0.21605160528E+02 -0.83857167873E+02  0.86654193604E+02  0.00000000000E+00 0. -1.
        -14    1    3    3    0    0  0.41230078451E+02  0.78580171348E+02 -0.89782296434E+03  0.90219778208E+03  0.00000000000E+00 0.  1.
          5    1    4    4  501    0  0.28161574063E+02  0.26517720266E+02 -0.76500861298E+02  0.85826091144E+02  0.41800000000E+01 0.  1.
         -5    1    4    4    0  501  0.17540625856E+02 -0.57863489333E+02  0.17603085964E+02  0.63112581857E+02  0.41800000000E+01 0.  1.
</event>
<event>
11    1  0.8328696E-009  0.1391305E+03  0.7561462E-02  0.1108533E+00
         22   -1    0    0    0    0  0.00000000000E+00  0.00000000000E+00  0.31451954210E+03  0.31451954210E+03  0.00000000000E+00 0.  1.
         22   -1    0    0    0    0 -0.00000000000E+00 -0.00000000000E+00 -0.12437109416E+04  0.12437109416E+04  0.00000000000E+00 0. -1.
         24    2    1    2    0    0 -0.58916879352E+02 -0.17479079213E+02 -0.11978462165E+04  0.12020275348E+04  0.79107010893E+02 0.  0.
         25    2    1    2    0    0  0.22454587602E+02  0.23556349262E+02  0.92690599772E+02  0.15905218227E+03  0.12508772643E+03 0.  0.
        -24    2    1    2    0    0  0.36462291749E+02 -0.60772700488E+01  0.17596421722E+03  0.19715076665E+03  0.80861530519E+02 0.  0.
        -11    1    3    3    0    0 -0.64350957135E+02  0.90280293096E+01 -0.58767938310E+03  0.59126103230E+03  0.00000000000E+00 0.  1.
         12    1    3    3    0    0  0.54340777835E+01 -0.26507108523E+02 -0.61016683341E+03  0.61076650252E+03  0.00000000000E+00 0. -1.
         11    1    5    5    0    0  0.11992225096E+02 -0.24467857547E+02  0.11024011396E+02  0.29394188932E+02  0.00000000000E+00 0. -1.
        -12    1    5    5    0    0  0.24470066653E+02  0.18390587498E+02  0.16494020582E+03  0.16775657771E+03  0.00000000000E+00 0.  1.
          5    1    4    4  501    0  0.23145771378E+02 -0.12017359348E+02 -0.24794200696E+02  0.36226626210E+02  0.41800000000E+01 0. -1.
         -5    1    4    4    0  501 -0.69118377543E+00  0.35573708610E+02  0.11748480047E+03  0.12282555606E+03  0.41800000000E+01 0. -1.
</event>
<event>
11    1  0.8328696E-009  0.1982582E+03  0.7561462E-02  0.1055762E+00
         22   -1    0    0    0    0  0.00000000000E+00  0.00000000000E+00  0.11862721145E+03  0.11862721145E+03  0.00000000000E+00 0.  1.
         22   -1    0    0    0    0 -0.00000000000E+00 -0.00000000000E+00 -0.15454151063E+04  0.15454151063E+04  0.00000000000E+00 0.  1.
        -24    2    1    2    0    0 -0.10237378167E+01  0.26818626948E+02 -0.11699008678E+04  0.11729266400E+04  0.79803354910E+02 0.  0.
         25    2    1    2    0    0 -0.10787718014E+03 -0.12901929051E+03 -0.24271800834E+03  0.32071160055E+03  0.12514166308E+03 0.  0.
         24    2    1    2    0    0  0.10890091796E+03  0.10220066356E+03 -0.14169018689E+02  0.17040407722E+03  0.80823281767E+02 0.  0.
        -11    1    5    5    0    0  0.10802068641E+03  0.97950599210E+02  0.97035520835E+01  0.14614016389E+03  0.00000000000E+00 0.  1.
         12    1    5    5    0    0  0.88023154671E+00  0.42500643534E+01 -0.23872570772E+02  0.24263913325E+02  0.00000000000E+00 0. -1.
         11    1    3    3    0    0 -0.11269864686E+02  0.19980350016E+02 -0.87541456393E+02  0.90497131580E+02  0.00000000000E+00 0. -1.
        -12    1    3    3    0    0  0.10246126869E+02  0.68382769315E+01 -0.10823594114E+04  0.10824295084E+04  0.00000000000E+00 0.  1.
          5    1    4    4  501    0 -0.12304552821E+03 -0.93303106297E+02 -0.23453041752E+03  0.28083386690E+03  0.41800000000E+01 0.  1.
         -5    1    4    4    0  501  0.15168348066E+02 -0.35716184215E+02 -0.81875908206E+01  0.39877733653E+02  0.41800000000E+01 0.  1.
</event>
<event>
11    1  0.8328696E-009  0.1492819E+03  0.7561462E-02  0.1097615E+00
         22   -1    0    0    0    0  0.00000000000E+00  0.00000000000E+00  0.31698221331E+04  0.31698221331E+04  0.00000000000E+00 0.  1.
         22   -1    0    0    0    0 -0.00000000000E+00 -0.00000000000E+00 -0.39791101886E+03  0.39791101886E+03  0.00000000000E+00 0. -1.
        -24    2    1    2    0    0 -0.43283785137E+02 -0.21582274307E+02 -0.36440275065E+03  0.37702230490E+03  0.83768568613E+02 0.  0.
         25    2    1    2    0    0 -0.10860735582E+01  0.90152395762E+02  0.20207094185E+03  0.25418248855E+03  0.12508971951E+03 0.  0.
         24    2    1    2    0    0  0.44369858695E+02 -0.68570121455E+02  0.29342429231E+04  0.29365283585E+04  0.82138438260E+02 0.  0.
        -13    1    5    5    0    0  0.26400108788E+02 -0.35943797323E+02  0.25697983399E+04  0.25701852910E+04  0.00000000000E+00 0.  1.
         14    1    5    5    0    0  0.17969749907E+02 -0.32626324132E+02  0.36444458312E+03  0.36634306750E+03  0.00000000000E+00 0. -1.
         13    1    3    3    0    0 -0.52568019385E+02 -0.29233435872E+02 -0.14097401766E+03  0.15326990602E+03  0.00000000000E+00 0. -1.
        -14    1    3    3    0    0  0.92842342482E+01  0.76511615646E+01 -0.22342873299E+03  0.22375239888E+03  0.00000000000E+00 0.  1.
          5    1    4    4  501    0  0.39569730696E+02 -0.14071788189E+02  0.52798634164E+02  0.67593986269E+02  0.41800000000E+01 0.  1.
         -5    1    4    4    0  501 -0.40655804254E+02  0.10422418395E+03  0.14927230769E+03  0.18658850228E+03  0.41800000000E+01 0.  1.
</event>
<event>
11    1  0.8328696E-009  0.1280614E+03  0.7561462E-02  0.1121674E+00
         22   -1    0    0    0    0  0.00000000000E+00  0.00000000000E+00  0.32141785339E+03  0.32141785339E+03  0.00000000000E+00 0.  1.
         22   -1    0    0    0    0 -0.00000000000E+00 -0.00000000000E+00 -0.30995291979E+03  0.30995291979E+03  0.00000000000E+00 0. -1.
         24    2    1    2    0    0 -0.24876686946E+02 -0.18563453447E+01 -0.24156015243E+03  0.25915214285E+03  0.90477789153E+02 0.  0.
         25    2    1    2    0    0  0.55308919111E+02 -0.25988443326E+02  0.46142096841E+02  0.14666677991E+03  0.12509026944E+03 0.  0.
        -24    2    1    2    0    0 -0.30432232164E+02  0.27844788670E+02  0.20688298918E+03  0.22555185043E+03  0.79822384119E+02 0.  0.
        -13    1    3    3    0    0 -0.24302860425E+02  0.83548374372E+01 -0.10332220123E+02  0.27698142647E+02  0.00000000000E+00 0.  1.
         14    1    3    3    0    0 -0.57382652094E+00 -0.10211182782E+02 -0.23122793230E+03  0.23145400020E+03  0.00000000000E+00 0. -1.
         11    1    5    5    0    0 -0.17116706665E+02 -0.17685069478E+02  0.17198049297E+02  0.30025259851E+02  0.00000000000E+00 0. -1.
        -12    1    5    5    0    0 -0.13315525500E+02  0.45529858148E+02  0.18968493989E+03  0.19552659058E+03  0.00000000000E+00 0.  1.
          5    1    4    4  501    0 -0.33087970695E+02 -0.54624605492E+01  0.44408440343E+02  0.55805324600E+02  0.41800000000E+01 0. -1.
         -5    1    4    4    0  501  0.88396889806E+02 -0.20525982776E+02  0.17336564975E+01  0.90861455310E+02  0.41800000000E+01 0. -1.
</event>
<event>
11    1  0.8328696E-009  0.2016221E+03  0.7561462E-02  0.1053383E+00
         22   -1    0    0    0    0  0.00000000000E+00  0.00000000000E+00  0.90696184140E+03  0.90696184140E+03  0.00000000000E+00 0. -1.
         22   -1    0    0    0    0 -0.00000000000E+00 -0.00000000000E+00 -0.32662930674E+03  0.32662930674E+03  0.00000000000E+00 0.  1.
        -24    2    1    2    0    0 -0.51086238323E+02 -0.16018878535E+03 -0.26748329582E+03  0.32558686167E+03  0.78671724606E+02 0.  0.
         25    2    1    2    0    0 -0.15885893699E+02  0.82607617687E+02  0.21939536769E+03  0.26619438793E+03  0.12509494268E+03 0.  0.
         24    2    1    2    0    0  0.66972132023E+02  0.77581167661E+02  0.62842046278E+03  0.64180989853E+03  0.80644675990E+02 0.  0.
        -13    1    5    5    0    0 -0.15988870286E+02  0.26428179973E+02  0.20521221986E+03  0.20752384886E+03  0.00000000000E+00 0.  1.
         14    1    5    5    0    0  0.82961002308E+02  0.51152987689E+02  0.42320824293E+03  0.43428604967E+03  0.00000000000E+00 0. -1.
         11    1    3    3    0    0  0.24700988366E+01  0.72272373325E+01 -0.24696687357E+02  0.25850739141E+02  0.00000000000E+00 0. -1.
        -12    1    3    3    0    0 -0.53556337160E+02 -0.16741602268E+03 -0.24278660847E+03  0.29973612253E+03  0.00000000000E+00 0.  1.
          5    1    4    4  501    0  0.16315200218E+02  0.43680023532E+02  0.64003343969E+01  0.47250046501E+02  0.41800000000E+01 0.  1.
         -5    1    4    4    0  501 -0.32201093917E+02  0.38927594154E+02  0.21299503329E+03  0.21894434143E+03  0.41800000000E+01 0.  1.
</event>
<event>
11    1  0.8328696E-009  0.2569568E+03  0.7561462E-02  0.1020257E+00
         22   -1    0    0    0    0  0.00000000000E+00  0.00000000000E+00  0.71257263767E+03  0.71257263767E+03  0.00000000000E+00 0. -1.
         22   -1    0    0    0    0 -0.00000000000E+00 -0.00000000000E+00 -0.87617849805E+03  0.87617849805E+03  0.00000000000E+00 0.  1.
         24    2    1    2    0    0  0.21129379643E+03 -0.26234444995E+02 -0.36973543286E+03  0.43412169606E+03  0.80150122686E+02 0.  0.
         25    2    1    2    0    0 -0.37668110927E+03  0.16476812270E+03 -0.34902299247E+03  0.55362494432E+03  0.12508532032E+03 0.  0.
        -24    2    1    2    0    0  0.16538731284E+03 -0.13853367771E+03  0.55515256495E+03  0.60100449534E+03  0.80420705921E+02 0.  0.
        -11    1    3    3    0    0  0.11359363002E+03  0.62109511340E+01 -0.25922732566E+03  0.28309167255E+03  0.00000000000E+00 0.  1.
         12    1    3    3    0    0  0.97700166416E+02 -0.32445396129E+02 -0.11050810719E+03  0.15103002352E+03  0.00000000000E+00 0. -1.
         11    1    5    5    0    0  0.13819289562E+03 -0.86359875281E+02  0.47043961482E+03  0.49786417390E+03  0.00000000000E+00 0. -1.
        -12    1    5    5    0    0  0.27194417218E+02 -0.52173802425E+02  0.84712950125E+02  0.10314032144E+03  0.00000000000E+00 0.  1.
          5    1    4    4  501    0 -0.26502982456E+03  0.16543751110E+03 -0.21571352073E+03  0.37968430756E+03  0.41800000000E+01 0. -1.
         -5    1    4    4    0  501 -0.11165128471E+03 -0.66938839643E+00 -0.13330947175E+03  0.17394063676E+03  0.41800000000E+01 0. -1.
</event>
<event>
11    1  0.8328696E-009  0.1569660E+03  0.7561462E-02  0.1089966E+00
         22   -1    0    0    0    0  0.00000000000E+00  0.00000000000E+00  0.11340020437E+04  0.11340020437E+04  0.00000000000E+00 0. -1.
         22   -1    0    0    0    0 -0.00000000000E+00 -0.00000000000E+00 -0.43895677028E+03  0.43895677028E+03  0.00000000000E+00 0. -1.
         24    2    1    2    0    0  0.39777586198E+02 -0.86138316434E+02 -0.40116551650E+03  0.42008077893E+03  0.80820933386E+02 0.  0.
         25    2    1    2    0    0 -0.78111580769E+02  0.66218788065E+02  0.22618506767E+03  0.27801737605E+03  0.12509048567E+03 0.  0.
        -24    2    1    2    0    0  0.38333994571E+02  0.19919528369E+02  0.87002572221E+03  0.87486065896E+03  0.81056354088E+02 0.  0.
        -13    1    3    3    0    0  0.51582499536E+02 -0.22079711554E+02 -0.13792821989E+03  0.14890420331E+03  0.00000000000E+00 0.  1.
         14    1    3    3    0    0 -0.11804913338E+02 -0.64058604880E+02 -0.26323729661E+03  0.27117657562E+03  0.00000000000E+00 0. -1.
         13    1    5    5    0    0  0.61897657988E+02  0.18177507826E+01  0.61500666449E+03  0.61811634961E+03  0.00000000000E+00 0. -1.
        -14    1    5    5    0    0 -0.23563663417E+02  0.18101777587E+02  0.25501905772E+03  0.25674430935E+03  0.00000000000E+00 0.  1.
          5    1    4    4  501    0  0.89755172634E+01 -0.30130802141E+02  0.44972810709E+02  0.55031366064E+02  0.41800000000E+01 0.  1.
         -5    1    4    4    0  501 -0.87087098033E+02  0.96349590206E+02  0.18121225696E+03  0.22298600999E+03  0.41800000000E+01 0.  1.
</event>
<event>
11    1  0.8328696E-009  0.3528082E+03  0.7561462E-02  0.9800277E-01
         22   -1    0    0    0    0  0.00000000000E+00  0.00000000000E+00  0.89663939873E+03  0.89663939873E+03  0.00000000000E+00 0.  1.
         22   -1    0    0    0    0 -0.00000000000E+00 -0.00000000000E+00 -0.11767421971E+04  0.11767421971E+04  0.00000000000E+00 0. -1.
         24    2    1    2    0    0  0.29003533401E+03  0.52620220090E+02 -0.66844597731E+03  0.73448421002E+03  0.75879164799E+02 0.  0.
         25    2    1    2    0    0 -0.47142927973E+03 -0.79522056232E+01 -0.33221411962E+03  0.59018816441E+03  0.12508814800E+03 0.  0.
        -24    2    1    2    0    0  0.18139394572E+03 -0.44668014467E+02  0.72055729851E+03  0.74870922144E+03  0.80397032040E+02 0.  0.
        -13    1    3    3    0    0  0.42824081181E+02  0.29457831665E+02 -0.75613649201E+02  0.91755597763E+02  0.00000000000E+00 0.  1.
         14    1    3    3    0    0  0.24721125283E+03  0.23162388425E+02 -0.59283232811E+03  0.64272861226E+03  0.00000000000E+00 0. -1.
         13    1    5    5    0    0 -0.29389339571E+01 -0.13105699533E+02  0.24210196969E+02  0.27686284155E+02  0.00000000000E+00 0. -1.
        -14    1    5    5    0    0  0.18433287968E+03 -0.31562314934E+02  0.69634710154E+03  0.72102293728E+03  0.00000000000E+00 0.  1.
          5    1    4    4  501    0 -0.19396194476E+03  0.48582280300E+02 -0.98159495153E+02  0.22278741630E+03  0.41800000000E+01 0.  1.
         -5    1    4    4    0  501 -0.27746733498E+03 -0.56534485924E+02 -0.23405462447E+03  0.36740074811E+03  0.41800000000E+01 0.  1.
</event>
<event>
11    1  0.8328696E-009  0.1867965E+03  0.7561462E-02  0.1064274E+00
         22   -1    0    0    0    0  0.00000000000E+00  0.00000000000E+00  0.92633376425E+03  0.92633376425E+03  0.00000000000E+00 0. -1.
         22   -1    0    0    0    0 -0.00000000000E+00 -0.00000000000E+00 -0.47367303533E+03  0.47367303533E+03  0.00000000000E+00 0. -1.
         24    2    1    2    0    0 -0.11541919822E+03  0.74183874604E+02 -0.42305816600E+03  0.45332519587E+03  0.87753534551E+02 0.  0.
         25    2    1    2    0    0  0.20124475870E+03 -0.59547729194E+02  0.60261379875E+03  0.65025883887E+03  0.12509109529E+03 0.  0.
        -24    2    1    2    0    0 -0.85825560482E+02 -0.14636145410E+02  0.27310509616E+03  0.29642276484E+03  0.75497141578E+02 0.  0.
        -11    1    3    3    0    0 -0.50014887843E+02 -0.41965082801E+01 -0.22472744247E+03  0.23026402908E+03  0.00000000000E+00 0.  1.
         12    1    3    3    0    0 -0.65404310379E+02  0.78380382884E+02 -0.19833072353E+03  0.22306116680E+03  0.00000000000E+00 0. -1.
         11    1    5    5    0    0 -0.66721232277E+02  0.20684545737E+02  0.12749814758E+03  0.14538002237E+03  0.00000000000E+00 0. -1.
        -12    1    5    5    0    0 -0.19104328205E+02 -0.35320691147E+02  0.14560694858E+03  0.15104274247E+03  0.00000000000E+00 0.  1.
          5    1    4    4  501    0 -0.26620462194E+01  0.97099647069E+01  0.64949221104E+00  0.10920812461E+02  0.41800000000E+01 0. -1.
         -5    1    4    4    0  501  0.20390680492E+03 -0.69257693901E+02  0.60196430654E+03  0.63933802640E+03  0.41800000000E+01 0. -1.
</event>
<event>
11    1  0.8328696E-009  0.1352703E+03  0.7561462E-02  0.1112958E+00
         22   -1    0    0    0    0  0.00000000000E+00  0.00000000000E+00  0.12904232001E+04  0.12904232001E+04  0.00000000000E+00 0. -1.
         22   -1    0    0    0    0 -0.00000000000E+00 -0.00000000000E+00 -0.17728694808E+03  0.17728694808E+03  0.00000000000E+00 0.  1.
        -24    2    1    2    0    0 -0.61296976382E+01  0.19446078235E+02 -0.11330292952E+03  0.14084171195E+03  0.81136371846E+02 0.  0.
         25    2    1    2    0    0 -0.81843234813E+01 -0.68207046642E+02  0.57216247537E+02  0.15375681250E+03  0.12509306154E+03 0.  0.
         24    2    1    2    0    0  0.14314021119E+02  0.48760968407E+02  0.11692229340E+04  0.11731116237E+04  0.80784213087E+02 0.  0.
        -11    1    5    5    0    0 -0.12358725775E+02  0.24572560323E+02  0.11388022915E+03  0.11715483522E+03  0.00000000000E+00 0.  1.
         12    1    5    5    0    0  0.26672746895E+02  0.24188408084E+02  0.10553427048E+04  0.10559567885E+04  0.00000000000E+00 0. -1.
         11    1    3    3    0    0  0.13868866650E+02 -0.54152338089E+01  0.69478855562E+01  0.16429952315E+02  0.00000000000E+00 0. -1.
        -12    1    3    3    0    0 -0.19998564288E+02  0.24861312044E+02 -0.12025081507E+03  0.12441175964E+03  0.00000000000E+00 0.  1.
          5    1    4    4  501    0 -0.19725667058E-01 -0.92885449162E+02  0.24738346395E+01  0.93012361076E+02  0.41800000000E+01 0.  1.
         -5    1    4    4    0  501 -0.81645978142E+01  0.24678402521E+02  0.54742412897E+02  0.60744451420E+02  0.41800000000E+01 0.  1.
</event>
<event>
11    1  0.1069075E-008  0.3138637E+03  0.7561462E-02  0.9944887E-01
         22   -1    0    0    0    0  0.00000000000E+00  0.00000000000E+00  0.14435453188E+04  0.14435453188E+04  0.00000000000E+00 0. -1.
         22   -1    0    0    0    0 -0.00000000000E+00 -0.00000000000E+00 -0.11412379479E+04  0.11412379479E+04  0.00000000000E+00 0. -1.
        -24    2    1    2    0    0 -0.90615104926E+02 -0.83340027099E+02 -0.72560959335E+03  0.74263292422E+03  0.99185285274E+02 0.  0.
         25    2    1    2    0    0 -0.15097547864E+03  0.24200057429E+03 -0.32858097600E+03  0.45273691613E+03  0.12508950527E+03 0.  0.
         24    2    1    2    0    0  0.24159058356E+03 -0.15866054720E+03  0.13564979402E+04  0.13894134263E+04  0.82727433274E+02 0.  0.
        -11    1    5    5    0    0 -0.29957518112E+01 -0.66127778520E+00  0.82760747114E+02  0.82817589195E+02  0.00000000000E+00 0.  1.
         12    1    5    5    0    0  0.24458633537E+03 -0.15799926941E+03  0.12737371931E+04  0.13065958371E+04  0.00000000000E+00 0. -1.
         13    1    3    3    0    0 -0.87924738910E+02 -0.93602129436E+02 -0.71844252892E+03  0.72982997041E+03  0.00000000000E+00 0. -1.
        -14    1    3    3    0    0 -0.26903660157E+01  0.10262102338E+02 -0.71670644289E+01  0.12802953808E+02  0.00000000000E+00 0.  1.
          5    1    4    4  501    0 -0.65435597343E+02  0.14130845487E+03 -0.89801733017E+02  0.17981023461E+03  0.41800000000E+01 0.  1.
         -5    1    4    4    0  501 -0.85539881294E+02  0.10069211942E+03 -0.23877924298E+03  0.27292668152E+03  0.41800000000E+01 0.  1.
</event>
<event>
11    1  0.8328696E-009  0.1945293E+03  0.7561462E-02  0.1058461E+00
         22   -1    0    0    0    0  0.00000000000E+00  0.00000000000E+00  0.19831792411E+03  0.19831792411E+03  0.00000000000E+00 0. -1.
         22   -1    0    0    0    0 -0.00000000000E+00 -0.00000000000E+00 -0.13602161389E+04  0.13602161389E+04  0.00000000000E+00 0. -1.
         24    2    1    2    0    0 -0.68839913424E+02 -0.13398684201E+03 -0.12527690357E+04  0.12642711997E+04  0.79120174021E+02 0.  0.
         25    2    1    2    0    0  0.64507743663E+02  0.10441348699E+03  0.87546262591E+01  0.17546508650E+03  0.12509167775E+03 0.  0.
        -24    2    1    2    0    0  0.43321697615E+01  0.29573355025E+02  0.82116194728E+02  0.11879777678E+03  0.80476650712E+02 0.  0.
        -11    1    3    3    0    0 -0.63698079289E+02 -0.55606215201E+02 -0.46764660254E+03  0.47522925135E+03  0.00000000000E+00 0.  1.
         12    1    3    3    0    0 -0.51418341350E+01 -0.78380626810E+02 -0.78512243320E+03  0.78904194833E+03  0.00000000000E+00 0. -1.
         11    1    5    5    0    0  0.21980126367E+02  0.23756349055E+02  0.92158111514E+02  0.97676033874E+02  0.00000000000E+00 0. -1.
        -12    1    5    5    0    0 -0.17647956605E+02  0.58170059698E+01 -0.10041916786E+02  0.21121742910E+02  0.00000000000E+00 0.  1.
          5    1    4    4  501    0  0.65070867670E+01  0.29074596153E+02  0.60185588070E+02  0.67286341340E+02  0.41800000000E+01 0. -1.
         -5    1    4    4    0  501  0.58000656896E+02  0.75338890833E+02 -0.51430961810E+02  0.10817874516E+03  0.41800000000E+01 0. -1.
</event>
<event>
11    1  0.8328696E-009  0.2087043E+03  0.7561462E-02  0.1048533E+00
         22   -1    0    0    0    0  0.00000000000E+00  0.00000000000E+00  0.14293645661E+04  0.14293645661E+04  0.00000000000E+00 0.  1.
         22   -1    0    0    0    0 -0.00000000000E+00 -0.00000000000E+00 -0.30121577644E+03  0.30121577644E+03  0.00000000000E+00 0. -1.
        -24    2    1    2    0    0  0.12414571604E+03 -0.93139422459E+02 -0.84838552849E+02  0.19456827576E+03  0.81068631757E+02 0.  0.
         25    2    1    2    0    0 -0.28593097595E+03  0.84550066389E+02  0.14174837669E+02  0.32366123792E+03  0.12510169534E+03 0.  0.
         24    2    1    2    0    0  0.16178525991E+03  0.85893560698E+01  0.11988125048E+04  0.12123508288E+04  0.79967888174E+02 0.  0.
        -13    1    5    5    0    0  0.70972636408E+02  0.13831303681E+02  0.28529316014E+03  0.29431379054E+03  0.00000000000E+00 0.  1.
         14    1    5    5    0    0  0.90812623501E+02 -0.52419476114E+01  0.91351934466E+03  0.91803703829E+03  0.00000000000E+00 0. -1.
         11    1    3    3    0    0  0.11567400016E+03 -0.10327792593E+03 -0.59692464444E+02  0.16616255477E+03  0.00000000000E+00 0. -1.
        -12    1    3    3    0    0  0.84717158769E+01  0.10138503471E+02 -0.25146088404E+02  0.28405720983E+02  0.00000000000E+00 0.  1.
          5    1    4    4  501    0 -0.25465696658E+03  0.10635878946E+03  0.37845560910E+02  0.27858952170E+03  0.41800000000E+01 0. -1.
         -5    1    4    4    0  501 -0.31274009367E+02 -0.21808723071E+02 -0.23670723241E+02  0.45071716216E+02  0.41800000000E+01 0. -1.
</event>
<event>
11    1  0.8328696E-009  0.2905224E+03  0.7561462E-02  0.1004284E+00
         22   -1    0    0    0    0  0.00000000000E+00  0.00000000000E+00  0.17178552902E+03  0.17178552902E+03  0.00000000000E+00 0. -1.
         22   -1    0    0    0    0 -0.00000000000E+00 -0.00000000000E+00 -0.26178959735E+04  0.26178959735E+04  0.00000000000E+00 0.  1.
         24    2    1    2    0    0 -0.18146757474E+03  0.16752064619E+03 -0.13959462869E+04  0.14200356882E+04  0.82714401576E+02 0.  0.
         25    2    1    2    0    0  0.25629980171E+03 -0.14445381815E+03 -0.11652718778E+04  0.12083313706E+04  0.12509859328E+03 0.  0.
        -24    2    1    2    0    0 -0.74832226966E+02 -0.23066828045E+02  0.11510772031E+03  0.16131444365E+03  0.81490009863E+02 0.  0.
        -11    1    3    3    0    0 -0.91702101247E+02  0.67480588570E+02 -0.85945637555E+03  0.86696491663E+03  0.00000000000E+00 0.  1.
         12    1    3    3    0    0 -0.89765473498E+02  0.10004005762E+03 -0.53648991137E+03  0.55307077157E+03  0.00000000000E+00 0. -1.
         11    1    5    5    0    0 -0.75010015498E+02 -0.45546264406E+02  0.75462189275E+02  0.11573895903E+03  0.00000000000E+00 0. -1.
        -12    1    5    5    0    0  0.17778853266E+00  0.22479436362E+02  0.39645531035E+02  0.45575484626E+02  0.00000000000E+00 0.  1.
          5    1    4    4  501    0  0.20043814489E+03 -0.12217266619E+03 -0.68125318367E+03  0.72057267708E+03  0.41800000000E+01 0. -1.
         -5    1    4    4    0  501  0.55861656824E+02 -0.22281151962E+02 -0.48401869416E+03  0.48775869354E+03  0.41800000000E+01 0. -1.
</event>
<event>
11    1  0.8328696E-009  0.1361157E+03  0.7561462E-02  0.1111975E+00
         22   -1    0    0    0    0  0.00000000000E+00  0.00000000000E+00  0.11509439682E+04  0.11509439682E+04  0.00000000000E+00 0. -1.
         22   -1    0    0    0    0 -0.00000000000E+00 -0.00000000000E+00 -0.33179072931E+03  0.33179072931E+03  0.00000000000E+00 0.  1.
        -24    2    1    2    0    0 -0.37339824507E+02 -0.23247449136E+02 -0.14740908485E+03  0.17265901175E+03  0.78402740121E+02 0.  0.
         25    2    1    2    0    0  0.68823814933E+02  0.37387051394E+02 -0.13805668604E+03  0.20209107559E+03  0.12508655067E+03 0.  0.
         24    2    1    2    0    0 -0.31483990426E+02 -0.14139602257E+02  0.11046190098E+04  0.11079846102E+04  0.79092158931E+02 0.  0.
        -13    1    5    5    0    0 -0.33076842458E+02 -0.48856328135E+00  0.16595085271E+03  0.16921584357E+03  0.00000000000E+00 0.  1.
         14    1    5    5    0    0  0.15928520318E+01 -0.13651038976E+02  0.93866815709E+03  0.93876876662E+03  0.00000000000E+00 0. -1.
         13    1    3    3    0    0 -0.48100745957E+02  0.48301144031E+01 -0.45429827482E+02  0.66339136200E+02  0.00000000000E+00 0. -1.
        -14    1    3    3    0    0  0.10760921450E+02 -0.28077563539E+02 -0.10197925736E+03  0.10631987555E+03  0.00000000000E+00 0.  1.
          5    1    4    4  501    0  0.57983567730E+02  0.97598949895E+01 -0.15627124379E+03  0.16701953094E+03  0.41800000000E+01 0.  1.
         -5    1    4    4    0  501  0.10840247203E+02  0.27627156404E+02  0.18214557752E+02  0.35071544655E+02  0.41800000000E+01 0.  1.
</event>
<event>
11    1  0.8328696E-009  0.2195589E+03  0.7561462E-02  0.1041494E+00
         22   -1    0    0    0    0  0.00000000000E+00  0.00000000000E+00  0.89287060248E+02  0.89287060248E+02  0.00000000000E+00 0. -1.
         22   -1    0    0    0    0 -0.00000000000E+00 -0.00000000000E+00 -0.11653868092E+04  0.11653868092E+04  0.00000000000E+00 0. -1.
         24    2    1    2    0    0  0.10820404055E+03  0.11694788697E+03 -0.58683080273E+03  0.61421297981E+03  0.86615650300E+02 0.  0.
         25    2    1    2    0    0 -0.14240023304E+03 -0.19738110530E+03 -0.42736996518E+03  0.50747393244E+03  0.12509027888E+03 0.  0.
        -24    2    1    2    0    0  0.34196192483E+02  0.80433218330E+02 -0.61898981046E+02  0.13298695720E+03  0.78836316124E+02 0.  0.
        -13    1    3    3    0    0  0.87967625771E+02  0.42931406285E+02 -0.40869310250E+03  0.42025166372E+03  0.00000000000E+00 0.  1.
         14    1    3    3    0    0  0.20236414784E+02  0.74016480684E+02 -0.17813770023E+03  0.19396131609E+03  0.00000000000E+00 0. -1.
         13    1    5    5    0    0  0.58226446988E+02  0.70416278705E+02 -0.52013846999E+02  0.10513901139E+03  0.00000000000E+00 0. -1.
        -14    1    5    5    0    0 -0.24030254505E+02  0.10016939625E+02 -0.98851340468E+01  0.27847945816E+02  0.00000000000E+00 0.  1.
          5    1    4    4  501    0 -0.22310346285E+02 -0.10083625151E+03 -0.26075295408E+03  0.28049113467E+03  0.41800000000E+01 0. -1.
         -5    1    4    4    0  501 -0.12008988675E+03 -0.96544853788E+02 -0.16661701110E+03  0.22698279777E+03  0.41800000000E+01 0. -1.
</event>
<event>
11    1  0.8328696E-009  0.1438965E+03  0.7561462E-02  0.1103284E+00
         22   -1    0    0    0    0  0.00000000000E+00  0.00000000000E+00  0.23356731089E+03  0.23356731089E+03  0.00000000000E+00 0. -1.
         22   -1    0    0    0    0 -0.00000000000E+00 -0.00000000000E+00 -0.17450269273E+04  0.17450269273E+04  0.00000000000E+00 0. -1.
         24    2    1    2    0    0  0.29478914793E+02  0.30016839038E+02 -0.15193663653E+04  0.15217959833E+04  0.74958960434E+02 0.  0.
         25    2    1    2    0    0  0.40355659069E+02 -0.73601375720E+01 -0.19000392460E+03  0.23115341390E+03  0.12509060136E+03 0.  0.
        -24    2    1    2    0    0 -0.69834573862E+02 -0.22656701466E+02  0.19791067348E+03  0.22564484099E+03  0.79729328111E+02 0.  0.
        -11    1    3    3    0    0 -0.21203319793E+02  0.24159161067E+02 -0.41054065337E+03  0.41179712712E+03  0.00000000000E+00 0.  1.
         12    1    3    3    0    0  0.50682234586E+02  0.58576779702E+01 -0.11088257119E+04  0.11099988561E+04  0.00000000000E+00 0. -1.
         13    1    5    5    0    0 -0.56432613430E+02 -0.47600666591E+02  0.10387375809E+03  0.12743712543E+03  0.00000000000E+00 0. -1.
        -14    1    5    5    0    0 -0.13401960433E+02  0.24943965125E+02  0.94036915389E+02  0.98207715560E+02  0.00000000000E+00 0.  1.
          5    1    4    4  501    0  0.61073358011E+02  0.93077868553E+01 -0.19427125831E+03  0.20390042707E+03  0.41800000000E+01 0.  1.
         -5    1    4    4    0  501 -0.20717698942E+02 -0.16667924427E+02  0.42673337060E+01  0.27252986829E+02  0.41800000000E+01 0.  1.
</event>
<event>
11    1  0.8328696E-009  0.1531728E+03  0.7561462E-02  0.1093680E+00
         22   -1    0    0    0    0  0.00000000000E+00  0.00000000000E+00  0.17885369236E+04  0.17885369236E+04  0.00000000000E+00 0. -1.
         22   -1    0    0    0    0 -0.00000000000E+00 -0.00000000000E+00 -0.11687340673E+04  0.11687340673E+04  0.00000000000E+00 0.  1.
         24    2    1    2    0    0 -0.55496261007E+02  0.69036418847E+02 -0.89611602388E+03  0.90403087477E+03  0.80012700069E+02 0.  0.
         25    2    1    2    0    0  0.18468665423E+02 -0.94833562564E+02 -0.24409833537E+03  0.29081121191E+03  0.12511062086E+03 0.  0.
        -24    2    1    2    0    0  0.37027595584E+02  0.25797143717E+02  0.17600172156E+04  0.17624289042E+04  0.80364841198E+02 0.  0.
        -13    1    3    3    0    0 -0.64027723086E+02  0.67097223547E+02 -0.54711355965E+03  0.55491876331E+03  0.00000000000E+00 0.  1.
         14    1    3    3    0    0  0.85314620793E+01  0.19391953005E+01 -0.34900246424E+03  0.34911211146E+03  0.00000000000E+00 0. -1.
         13    1    5    5    0    0  0.31586976978E+01  0.16914469526E+02  0.14961195404E+04  0.14962184853E+04  0.00000000000E+00 0. -1.
        -14    1    5    5    0    0  0.33868897886E+02  0.88826741911E+01  0.26389767518E+03  0.26621041886E+03  0.00000000000E+00 0.  1.
          5    1    4    4  501    0  0.12832377303E+01 -0.60361291553E+01 -0.17933894680E+03  0.17949376533E+03  0.41800000000E+01 0.  1.
         -5    1    4    4    0  501  0.17185427693E+02 -0.88797433409E+02 -0.64759388569E+02  0.11131744658E+03  0.41800000000E+01 0.  1.
</event>
<event>
11    1  0.8328696E-009  0.1376051E+03  0.7561462E-02  0.1110263E+00
         22   -1    0    0    0    0  0.00000000000E+00  0.00000000000E+00  0.36539751573E+03  0.36539751573E+03  0.00000000000E+00 0.  1.
         22   -1    0    0    0    0 -0.00000000000E+00 -0.00000000000E+00 -0.32665193271E+03  0.32665193271E+03  0.00000000000E+00 0.  1.
        -24    2    1    2    0    0  0.28449827990E+02  0.53144236716E+02 -0.26018418694E+03  0.27845968915E+03  0.78805359832E+02 0.  0.
         25    2    1    2    0    0 -0.18319291878E+02  0.12775030049E+02  0.36625885581E+02  0.13223788180E+03  0.12508638632E+03 0.  0.
         24    2    1    2    0    0 -0.10130536112E+02 -0.65919266765E+02  0.26230388438E+03  0.28135187749E+03  0.76860742322E+02 0.  0.
        -13    1    5    5    0    0 -0.30683503727E+01 -0.56366189230E+02  0.26343767864E+03  0.26941784015E+03  0.00000000000E+00 0.  1.
         14    1    5    5    0    0 -0.70621857396E+01 -0.95530775344E+01 -0.11337942575E+01  0.11934037339E+02  0.00000000000E+00 0. -1.
         13    1    3    3    0    0  0.27326857042E+02  0.86358738886E+01 -0.21944941069E+02  0.36095925977E+02  0.00000000000E+00 0. -1.
        -14    1    3    3    0    0  0.11229709474E+01  0.44508362827E+02 -0.23823924587E+03  0.24236376317E+03  0.00000000000E+00 0.  1.
          5    1    4    4  501    0 -0.64367458232E+01  0.54428774339E+01 -0.46704324736E+02  0.47642659042E+02  0.41800000000E+01 0.  1.
         -5    1    4    4    0  501 -0.11882546054E+02  0.73321526152E+01  0.83330210316E+02  0.84595222762E+02  0.41800000000E+01 0.  1.
</event>
<event>
11    1  0.8328696E-009  0.1297755E+03  0.7561462E-02  0.1119545E+00
         22   -1    0    0    0    0  0.00000000000E+00  0.00000000000E+00  0.10000529893E+04  0.10000529893E+04  0.00000000000E+00 0. -1.
         22   -1    0    0    0    0 -0.00000000000E+00 -0.00000000000E+00 -0.21702359823E+03  0.21702359823E+03  0.00000000000E+00 0.  1.
         24    2    1    2    0    0  0.20227545623E+02  0.33333009345E+02 -0.14830199531E+03  0.17302777997E+03  0.80155397286E+02 0.  0.
         25    2    1    2    0    0  0.79933274275E+01 -0.13979140002E+02  0.19024905503E+02  0.12755121009E+03  0.12509218412E+03 0.  0.
        -24    2    1    2    0    0 -0.28220873050E+02 -0.19353869343E+02  0.91230648086E+03  0.91649759746E+03  0.80583752591E+02 0.  0.
        -13    1    3    3    0    0  0.51446090462E+02  0.20536230618E+02 -0.92789103040E+02  0.10806597353E+03  0.00000000000E+00 0.  1.
         14    1    3    3    0    0 -0.31218544840E+02  0.12796778727E+02 -0.55512892271E+02  0.64961806441E+02  0.00000000000E+00 0. -1.
         11    1    5    5    0    0 -0.21596013079E+02 -0.10566733003E+02  0.89859305028E+03  0.89891463089E+03  0.00000000000E+00 0. -1.
        -12    1    5    5    0    0 -0.66248599706E+01 -0.87871363402E+01  0.13713430587E+02  0.17582966563E+02  0.00000000000E+00 0.  1.
          5    1    4    4  501    0 -0.34586724268E+02  0.33844328422E+02 -0.19910931867E+02  0.52493786963E+02  0.41800000000E+01 0.  1.
         -5    1    4    4    0  501  0.42580051696E+02 -0.47823468423E+02  0.38935837370E+02  0.75057423125E+02  0.41800000000E+01 0.  1.
</event>
<event>
11    1  0.8328696E-009  0.1598891E+03  0.7561462E-02  0.1087182E+00
         22   -1    0    0    0    0  0.00000000000E+00  0.00000000000E+00  0.10820506986E+03  0.10820506986E+03  0.00000000000E+00 0. -1.
         22   -1    0    0    0    0 -0.00000000000E+00 -0.00000000000E+00 -0.79808792354E+03  0.79808792354E+03  0.00000000000E+00 0. -1.
         24    2    1    2    0    0  0.36287100330E+02  0.87087159099E+02 -0.53011778908E+03  0.54453194264E+03  0.81174129648E+02 0.  0.
         25    2    1    2    0    0 -0.11787817207E+03 -0.92375305875E+02 -0.15260290559E+03  0.24771645948E+03  0.12508931575E+03 0.  0.
        -24    2    1    2    0    0  0.81591071737E+02  0.52881467755E+01 -0.71621590109E+01  0.11404459128E+03  0.79182098959E+02 0.  0.
        -13    1    3    3    0    0  0.82113047499E+01 -0.13841601901E+02 -0.12734518046E+03  0.12835813358E+03  0.00000000000E+00 0.  1.
         14    1    3    3    0    0  0.28075795580E+02  0.10092876100E+03 -0.40277260862E+03  0.41617380906E+03  0.00000000000E+00 0. -1.
         13    1    5    5    0    0  0.45276396445E+02  0.41585984254E+02 -0.11402845099E+02  0.62524963317E+02  0.00000000000E+00 0. -1.
        -14    1    5    5    0    0  0.36314675292E+02 -0.36297837478E+02  0.42406860881E+01  0.51519627965E+02  0.00000000000E+00 0.  1.
          5    1    4    4  501    0 -0.13526580875E+03 -0.45925548048E+02 -0.12944398798E+03  0.19281912095E+03  0.41800000000E+01 0. -1.
         -5    1    4    4    0  501  0.17387636686E+02 -0.46449757827E+02 -0.23158917613E+02  0.54897338521E+02  0.41800000000E+01 0. -1.
</event>
<event>
11    1  0.8328696E-009  0.1898374E+03  0.7561462E-02  0.1061952E+00
         22   -1    0    0    0    0  0.00000000000E+00  0.00000000000E+00  0.33777703005E+04  0.33777703005E+04  0.00000000000E+00 0. -1.
         22   -1    0    0    0    0 -0.00000000000E+00 -0.00000000000E+00 -0.12929064166E+03  0.12929064166E+03  0.00000000000E+00 0. -1.
        -24    2    1    2    0    0  0.44117051078E+02 -0.13479867373E+03 -0.49636812802E+02  0.17047735330E+03  0.80509118531E+02 0.  0.
         25    2    1    2    0    0 -0.22403344001E+02  0.15150374468E+03  0.50801227790E+03  0.54514098559E+03  0.12508767004E+03 0.  0.
         24    2    1    2    0    0 -0.21713707077E+02 -0.16705070940E+02  0.27901041938E+04  0.27914426033E+04  0.81974697401E+02 0.  0.
        -11    1    5    5    0    0 -0.49425522111E+02 -0.16227738873E+00  0.12103250681E+04  0.12113338429E+04  0.00000000000E+00 0.  1.
         12    1    5    5    0    0  0.27711815034E+02 -0.16542793552E+02  0.15797791257E+04  0.15801087604E+04  0.00000000000E+00 0. -1.
         13    1    3    3    0    0  0.63389830470E+02 -0.12702950674E+03 -0.39519114671E+02  0.14736528293E+03  0.00000000000E+00 0. -1.
        -14    1    3    3    0    0 -0.19272779392E+02 -0.77691669993E+01 -0.10117698131E+02  0.23112070371E+02  0.00000000000E+00 0.  1.
          5    1    4    4  501    0 -0.47188604150E+01  0.15644853652E+03  0.32066979111E+03  0.35685431139E+03  0.41800000000E+01 0.  1.
         -5    1    4    4    0  501 -0.17684483586E+02 -0.49447918438E+01  0.18734248679E+03  0.18828667421E+03  0.41800000000E+01 0.  1.
</event>
<event>
11    1  0.8328696E-009  0.1437298E+03  0.7561462E-02  0.1103464E+00
         22   -1    0    0    0    0  0.00000000000E+00  0.00000000000E+00  0.12797268283E+04  0.12797268283E+04  0.00000000000E+00 0.  1.
         22   -1    0    0    0    0 -0.00000000000E+00 -0.00000000000E+00 -0.52867649906E+03  0.52867649906E+03  0.00000000000E+00 0. -1.
         24    2    1    2    0    0 -0.42024890387E+02 -0.59055003709E+02 -0.48365612689E+03  0.49568319190E+03  0.80777427429E+02 0.  0.
         25    2    1    2    0    0  0.49276307501E+02  0.88902147690E+01  0.85794463742E+02  0.15973465600E+03  0.12508908793E+03 0.  0.
        -24    2    1    2    0    0 -0.72514171137E+01  0.50164788940E+02  0.11489119924E+04  0.11529854795E+04  0.82508547979E+02 0.  0.
        -11    1    3    3    0    0 -0.25593895520E+02 -0.44751061702E+02 -0.11096350393E+03  0.12235442050E+03  0.00000000000E+00 0.  1.
         12    1    3    3    0    0 -0.16430994867E+02 -0.14303942007E+02 -0.37269262295E+03  0.37332877140E+03  0.00000000000E+00 0. -1.
         11    1    5    5    0    0 -0.19520871415E+02  0.54430696553E+02  0.42046156115E+03  0.42441923796E+03  0.00000000000E+00 0. -1.
        -12    1    5    5    0    0  0.12269454301E+02 -0.42659076127E+01  0.72845043125E+03  0.72856624151E+03  0.00000000000E+00 0.  1.
          5    1    4    4  501    0  0.89812359575E+02  0.18051380723E+02  0.48498374650E+02  0.10373850308E+03  0.41800000000E+01 0.  1.
         -5    1    4    4    0  501 -0.40536052074E+02 -0.91611659544E+01  0.37296089092E+02  0.55996152912E+02  0.41800000000E+01 0.  1.
</event>
<event>
11    1  0.8731000E-009  0.1733632E+03  0.7561462E-02  0.1075141E+00
         22   -1    0    0    0    0  0.00000000000E+00  0.00000000000E+00  0.14974000680E+03  0.14974000680E+03  0.00000000000E+00 0. -1.
         22   -1    0    0    0    0 -0.00000000000E+00 -0.00000000000E+00 -0.29936810834E+04  0.29936810834E+04  0.00000000000E+00 0.  1.
         24    2    1    2    0    0 -0.60533678402E+02  0.25368525794E+02 -0.25283935634E+04  0.25306213541E+04  0.83441823126E+02 0.  0.
         25    2    1    2    0    0 -0.43095275283E+02 -0.92035308079E+02 -0.40776458360E+03  0.43846085916E+03  0.12509304016E+03 0.  0.
        -24    2    1    2    0    0  0.10362895369E+03  0.66666782285E+02  0.92217070403E+02  0.17433887698E+03  0.81894053809E+02 0.  0.
        -11    1    3    3    0    0  0.27771357793E+01  0.16532982844E+02 -0.15740514678E+04  0.15741407419E+04  0.00000000000E+00 0.  1.
         12    1    3    3    0    0 -0.63310814182E+02  0.88355429506E+01 -0.95434209558E+03  0.95648061215E+03  0.00000000000E+00 0. -1.
         11    1    5    5    0    0  0.10023849005E+03  0.77393800420E+02  0.59845172072E+02  0.14006784018E+03  0.00000000000E+00 0. -1.
        -12    1    5    5    0    0  0.33904636315E+01 -0.10727018135E+02  0.32371898330E+02  0.34271036798E+02  0.00000000000E+00 0.  1.
          5    1    4    4  501    0 -0.72580572371E+02 -0.71192464332E+02 -0.37807197670E+03  0.39152547609E+03  0.41800000000E+01 0.  1.
         -5    1    4    4    0  501  0.29485297088E+02 -0.20842843748E+02 -0.29692606904E+02  0.46935383077E+02  0.41800000000E+01 0.  1.
</event>
<event>
11    1  0.8328696E-009  0.1397179E+03  0.7561462E-02  0.1107874E+00
         22   -1    0    0    0    0  0.00000000000E+00  0.00000000000E+00  0.35792576611E+03  0.35792576611E+03  0.00000000000E+00 0. -1.
         22   -1    0    0    0    0 -0.00000000000E+00 -0.00000000000E+00 -0.11545989702E+04  0.11545989702E+04  0.00000000000E+00 0.  1.
        -24    2    1    2    0    0 -0.21209498366E+02 -0.23500582221E+02 -0.11114597714E+04  0.11148533315E+04  0.80950646357E+02 0.  0.
         25    2    1    2    0    0 -0.38553778401E+02  0.49807026871E+02  0.20286357234E+03  0.24651243463E+03  0.12509043805E+03 0.  0.
         24    2    1    2    0    0  0.59763276768E+02 -0.26306444649E+02  0.11192299497E+03  0.15115897018E+03  0.77837003949E+02 0.  0.
        -11    1    5    5    0    0  0.47375198386E+02 -0.11913746338E-01  0.14578509818E+02  0.49567555039E+02  0.00000000000E+00 0.  1.
         12    1    5    5    0    0  0.12388078381E+02 -0.26294530903E+02  0.97344485151E+02  0.10159141514E+03  0.00000000000E+00 0. -1.
         11    1    3    3    0    0  0.18143391624E+02  0.20838493014E+02 -0.34726829042E+03  0.34836574313E+03  0.00000000000E+00 0. -1.
        -12    1    3    3    0    0 -0.39352889991E+02 -0.44339075235E+02 -0.76419148095E+03  0.76648758836E+03  0.00000000000E+00 0.  1.
          5    1    4    4  501    0  0.11606750320E+02  0.79922103120E+02  0.10689583424E+03  0.13403899059E+03  0.41800000000E+01 0.  1.
         -5    1    4    4    0  501 -0.50160528722E+02 -0.30115076249E+02  0.95967738096E+02  0.11247344404E+03  0.41800000000E+01 0.  1.
</event>
<event>
11    1  0.8328696E-009  0.1618862E+03  0.7561462E-02  0.1085317E+00
         22   -1    0    0    0    0  0.00000000000E+00  0.00000000000E+00  0.13385339607E+04  0.13385339607E+04  0.00000000000E+00 0. -1.
         22   -1    0    0    0    0 -0.00000000000E+00 -0.00000000000E+00 -0.53937677833E+03  0.53937677833E+03  0.00000000000E+00 0.  1.
         24    2    1    2    0    0 -0.23738289240E+02  0.10525312847E+03 -0.48904795904E+03  0.50737197395E+03  0.81343016164E+02 0.  0.
         25    2    1    2    0    0  0.45139204327E+02 -0.25956397951E+02  0.80882204183E+02  0.15780376938E+03  0.12509522899E+03 0.  0.
        -24    2    1    2    0    0 -0.21400915087E+02 -0.79296730522E+02  0.12073229372E+04  0.12127349957E+04  0.79696451698E+02 0.  0.
        -11    1    3    3    0    0 -0.44858718276E+02  0.42748100966E+02 -0.15608387624E+03  0.16793415723E+03  0.00000000000E+00 0.  1.
         12    1    3    3    0    0  0.21120429036E+02  0.62505027507E+02 -0.33296408280E+03  0.33943781672E+03  0.00000000000E+00 0. -1.
         11    1    5    5    0    0 -0.68954318006E+01 -0.88377540664E+02  0.11332084664E+04  0.11366703853E+04  0.00000000000E+00 0. -1.
        -12    1    5    5    0    0 -0.14505483287E+02  0.90808101422E+01  0.74114470834E+02  0.76064610334E+02  0.00000000000E+00 0.  1.
          5    1    4    4  501    0  0.75723647056E+02 -0.54550501293E+02  0.56168368213E+02  0.10900543978E+03  0.41800000000E+01 0. -1.
         -5    1    4    4    0  501 -0.30584442729E+02  0.28594103342E+02  0.24713835970E+02  0.48798329596E+02  0.41800000000E+01 0. -1.
</event>
<event>
11    1  0.8328696E-009  0.3123959E+03  0.7561462E-02  0.9950773E-01
         22   -1    0    0    0    0  0.00000000000E+00  0.00000000000E+00  0.86079884596E+03  0.86079884596E+03  0.00000000000E+00 0. -1.
         22   -1    0    0    0    0 -0.00000000000E+00 -0.00000000000E+00 -0.37662878925E+03  0.37662878925E+03  0.00000000000E+00 0. -1.
        -24    2    1    2    0    0 -0.84911402270E+01 -0.26691729493E+02 -0.49760526880E+02  0.10215024971E+03  0.84699560768E+02 0.  0.
         25    2    1    2    0    0  0.26288700499E+03  0.15361643488E+03 -0.17051865263E+03  0.37071720511E+03  0.12508816414E+03 0.  0.
         24    2    1    2    0    0 -0.25439586476E+03 -0.12692470539E+03  0.70444923622E+03  0.76456018040E+03  0.86466214147E+02 0.  0.
        -11    1    5    5    0    0 -0.76270152887E+02 -0.75882849750E+02  0.19907618557E+03  0.22628890996E+03  0.00000000000E+00 0.  1.
         12    1    5    5    0    0 -0.17812571188E+03 -0.51041855639E+02  0.50537305065E+03  0.53827127044E+03  0.00000000000E+00 0. -1.
         13    1    3    3    0    0 -0.12255493243E+02 -0.48186523324E+02 -0.60101510932E+02  0.78002113824E+02  0.00000000000E+00 0. -1.
        -14    1    3    3    0    0  0.37643530156E+01  0.21494793832E+02  0.10340984052E+02  0.24148135884E+02  0.00000000000E+00 0.  1.
          5    1    4    4  501    0  0.23625857369E+03  0.15345182187E+03 -0.10641401363E+03  0.30117601161E+03  0.41800000000E+01 0. -1.
         -5    1    4    4    0  501  0.26628431304E+02  0.16461301332E+00 -0.64104638998E+02  0.69541193491E+02  0.41800000000E+01 0. -1.
</event>
<event>
11    1  0.8328696E-009  0.1437708E+03  0.7561462E-02  0.1103419E+00
         22   -1    0    0    0    0  0.00000000000E+00  0.00000000000E+00  0.18994641981E+04  0.18994641981E+04  0.00000000000E+00 0. -1.
         22   -1    0    0    0    0 -0.00000000000E+00 -0.00000000000E+00 -0.76433560008E+02  0.76433560008E+02  0.00000000000E+00 0. -1.
         24    2    1    2    0    0  0.55143870943E+02  0.49814661686E+02 -0.24307382634E+02  0.11234178582E+03  0.80668959145E+02 0.  0.
         25    2    1    2    0    0 -0.23371995692E+02 -0.75236035506E+00  0.67084841178E+03  0.68281168906E+03  0.12508954749E+03 0.  0.
        -24    2    1    2    0    0 -0.31771875251E+02 -0.49062301331E+02  0.11764896090E+04  0.11807442833E+04  0.81318515518E+02 0.  0.
        -13    1    3    3    0    0  0.38059748599E+02  0.13725038391E+02  0.26016261813E+02  0.48101632208E+02  0.00000000000E+00 0.  1.
         14    1    3    3    0    0  0.17084122343E+02  0.36089623295E+02 -0.50323644447E+02  0.64240153613E+02  0.00000000000E+00 0. -1.
         11    1    5    5    0    0 -0.55215642831E+02 -0.44091810437E+02  0.67638852276E+03  0.68006932638E+03  0.00000000000E+00 0. -1.
        -12    1    5    5    0    0  0.23443767580E+02 -0.49704908939E+01  0.50010108620E+03  0.50067495687E+03  0.00000000000E+00 0.  1.
          5    1    4    4  501    0  0.20365994767E+02 -0.54101701876E+02  0.28776891360E+03  0.29354759056E+03  0.41800000000E+01 0.  1.
         -5    1    4    4    0  501 -0.43737990459E+02  0.53349341521E+02  0.38307949818E+03  0.38926409850E+03  0.41800000000E+01 0.  1.
</event>
<event>
11    1  0.8328696E-009  0.1748856E+03  0.7561462E-02  0.1073857E+00
         22   -1    0    0    0    0  0.00000000000E+00  0.00000000000E+00  0.23114768497E+03  0.23114768497E+03  0.00000000000E+00 0. -1.
         22   -1    0    0    0    0 -0.00000000000E+00 -0.00000000000E+00 -0.50103094753E+03  0.50103094753E+03  0.00000000000E+00 0.  1.
         24    2    1    2    0    0  0.38119489070E+02 -0.41516030546E+02 -0.18066474045E+03  0.20573860731E+03  0.80696653322E+02 0.  0.
         25    2    1    2    0    0 -0.15261508810E+03  0.69836421981E+02 -0.24093187612E+03  0.31916205771E+03  0.12509100369E+03 0.  0.
        -24    2    1    2    0    0  0.11449559903E+03 -0.28320391434E+02  0.15171335400E+03  0.20727796748E+03  0.77691230217E+02 0.  0.
        -11    1    3    3    0    0  0.38188343474E+02  0.15116639428E+02 -0.63836947452E+02  0.75907958903E+02  0.00000000000E+00 0.  1.
         12    1    3    3    0    0 -0.68854404607E-01 -0.56632669974E+02 -0.11682779299E+03  0.12983064840E+03  0.00000000000E+00 0. -1.
         11    1    5    5    0    0  0.76859690441E+02  0.78294720757E+01  0.12899780006E+03  0.15036337675E+03  0.00000000000E+00 0. -1.
        -12    1    5    5    0    0  0.37635908585E+02 -0.36149863510E+02  0.22715553940E+02  0.56914590727E+02  0.00000000000E+00 0.  1.
          5    1    4    4  501    0 -0.16949191039E+02 -0.55663114167E+01  0.12335661010E+02  0.22088454727E+02  0.41800000000E+01 0.  1.
         -5    1    4    4    0  501 -0.13566589706E+03  0.75402733397E+02 -0.25326753713E+03  0.29707360299E+03  0.41800000000E+01 0.  1.
</event>
<event>
11    1  0.8328696E-009  0.1375456E+03  0.7561462E-02  0.1110331E+00
         22   -1    0    0    0    0  0.00000000000E+00  0.00000000000E+00  0.15098001656E+04  0.15098001656E+04  0.00000000000E+00 0. -1.
         22   -1    0    0    0    0 -0.00000000000E+00 -0.00000000000E+00 -0.29250832587E+03  0.29250832587E+03  0.00000000000E+00 0.  1.
         24    2    1    2    0    0  0.13814531153E+01  0.30483370699E+02 -0.25425095927E+03  0.26857153686E+03  0.80968980580E+02 0.  0.
         25    2    1    2    0    0  0.54743900821E+02 -0.40218944692E+02  0.14347294537E+03  0.20210069542E+03  0.12508295985E+03 0.  0.
        -24    2    1    2    0    0 -0.56125353937E+02  0.97355739928E+01  0.13280698536E+04  0.13316362592E+04  0.78998442461E+02 0.  0.
        -13    1    3    3    0    0 -0.36186665020E+02 -0.27826389631E+01 -0.10200939349E+03  0.10827342317E+03  0.00000000000E+00 0.  1.
         14    1    3    3    0    0  0.37568118136E+02  0.33266009662E+02 -0.15224156578E+03  0.16029811369E+03  0.00000000000E+00 0. -1.
         13    1    5    5    0    0 -0.20782194360E+02  0.25992315627E+02  0.10818759054E+04  0.10823876269E+04  0.00000000000E+00 0. -1.
        -14    1    5    5    0    0 -0.35343159577E+02 -0.16256741634E+02  0.24619394820E+03  0.24924863230E+03  0.00000000000E+00 0.  1.
          5    1    4    4  501    0  0.22382430052E+01 -0.17271415663E+01 -0.22871227788E+02  0.23421319567E+02  0.41800000000E+01 0.  1.
         -5    1    4    4    0  501  0.52505657816E+02 -0.38491803125E+02  0.16634417316E+03  0.17867937585E+03  0.41800000000E+01 0.  1.
</event>
<event>
11    1  0.8328696E-009  0.1503392E+03  0.7561462E-02  0.1096533E+00
         22   -1    0    0    0    0  0.00000000000E+00  0.00000000000E+00  0.41869581910E+03  0.41869581910E+03  0.00000000000E+00 0.  1.
         22   -1    0    0    0    0 -0.00000000000E+00 -0.00000000000E+00 -0.22533347263E+04  0.22533347263E+04  0.00000000000E+00 0. -1.
         24    2    1    2    0    0 -0.77273357648E+02  0.40207122990E+02 -0.20900779081E+04  0.20933160796E+04  0.77193023008E+02 0.  0.
         25    2    1    2    0    0  0.44671824657E+01 -0.35245694921E+02 -0.12679359618E+03  0.18162076010E+03  0.12508904723E+03 0.  0.
        -24    2    1    2    0    0  0.72806175182E+02 -0.49614280694E+01  0.38223259698E+03  0.39709370575E+03  0.79096763753E+02 0.  0.
        -13    1    3    3    0    0 -0.38793636620E+00 -0.17461432985E+02 -0.52463953834E+03  0.52493018329E+03  0.00000000000E+00 0.  1.
         14    1    3    3    0    0 -0.76885421282E+02  0.57668555975E+02 -0.15654383697E+04  0.15683858963E+04  0.00000000000E+00 0. -1.
         13    1    5    5    0    0 -0.16875836897E+02 -0.11567239607E+01  0.43605054671E+02  0.46771066635E+02  0.00000000000E+00 0. -1.
        -14    1    5    5    0    0  0.89682012079E+02 -0.38047041087E+01  0.33862754231E+03  0.35032263912E+03  0.00000000000E+00 0.  1.
          5    1    4    4  501    0  0.76354786858E+01  0.18856796473E+02 -0.12554391991E+03  0.12725025554E+03  0.41800000000E+01 0. -1.
         -5    1    4    4    0  501 -0.31682962201E+01 -0.54102491394E+02 -0.12496762732E+01  0.54370504566E+02  0.41800000000E+01 0. -1.
</event>
<event>
11    1  0.8328696E-009  0.1398701E+03  0.7561462E-02  0.1107703E+00
         22   -1    0    0    0    0  0.00000000000E+00  0.00000000000E+00  0.40891115365E+03  0.40891115365E+03  0.00000000000E+00 0. -1.
         22   -1    0    0    0    0 -0.00000000000E+00 -0.00000000000E+00 -0.24637844249E+04  0.24637844249E+04  0.00000000000E+00 0.  1.
         24    2    1    2    0    0  0.25756877867E+02  0.28334965594E+02 -0.20678684924E+04  0.20697789878E+04  0.80241320059E+02 0.  0.
         25    2    1    2    0    0 -0.80049156815E+02  0.25316620117E+01 -0.37472178234E+03  0.40308502144E+03  0.12508734360E+03 0.  0.
        -24    2    1    2    0    0  0.54292278948E+02 -0.30866627605E+02  0.38771700352E+03  0.39983156927E+03  0.75102654509E+02 0.  0.
        -11    1    3    3    0    0  0.47497848603E+02  0.28025221076E+02 -0.18514059454E+04  0.18522271548E+04  0.00000000000E+00 0.  1.
         12    1    3    3    0    0 -0.21740970736E+02  0.30974451787E+00 -0.21646254708E+03  0.21755183299E+03  0.00000000000E+00 0. -1.
         11    1    5    5    0    0  0.22621670558E+02 -0.46768412398E+02  0.31119557799E+03  0.31550231717E+03  0.00000000000E+00 0. -1.
        -12    1    5    5    0    0  0.31670608389E+02  0.15901784793E+02  0.76521425530E+02  0.84329252104E+02  0.00000000000E+00 0.  1.
          5    1    4    4  501    0 -0.58444139131E+02  0.44363664839E+02 -0.32975495083E+03  0.33784560401E+03  0.41800000000E+01 0. -1.
         -5    1    4    4    0  501 -0.21605017684E+02 -0.41832002827E+02 -0.44966831511E+02  0.65239417423E+02  0.41800000000E+01 0. -1.
</event>
<event>
11    1  0.8328696E-009  0.1924462E+03  0.7561462E-02  0.1059998E+00
         22   -1    0    0    0    0  0.00000000000E+00  0.00000000000E+00  0.70430798077E+03  0.70430798077E+03  0.00000000000E+00 0. -1.
         22   -1    0    0    0    0 -0.00000000000E+00 -0.00000000000E+00 -0.27457476096E+03  0.27457476096E+03  0.00000000000E+00 0. -1.
         24    2    1    2    0    0  0.96399534902E+02  0.93050171296E+02 -0.15673790741E+03  0.22138644917E+03  0.80585256405E+02 0.  0.
         25    2    1    2    0    0 -0.15355711901E+03 -0.18690932819E+03  0.17408953627E+03  0.32321718931E+03  0.12508916446E+03 0.  0.
        -24    2    1    2    0    0  0.57157584105E+02  0.93859156889E+02  0.41238159095E+03  0.43427910324E+03  0.80394229929E+02 0.  0.
        -13    1    3    3    0    0  0.30451013098E+02  0.67540478058E+01 -0.61042427436E+00  0.31197018740E+02  0.00000000000E+00 0.  1.
         14    1    3    3    0    0  0.65948521804E+02  0.86296123490E+02 -0.15612748314E+03  0.19018943043E+03  0.00000000000E+00 0. -1.
         13    1    5    5    0    0  0.56383820400E+02  0.18469583791E+02  0.15089730496E+03  0.16214270682E+03  0.00000000000E+00 0. -1.
        -14    1    5    5    0    0  0.77376370501E+00  0.75389573098E+02  0.26148428598E+03  0.27213639642E+03  0.00000000000E+00 0.  1.
          5    1    4    4  501    0  0.26462291930E+01 -0.56892971307E+02  0.24344532258E+01  0.57159528301E+02  0.41800000000E+01 0. -1.
         -5    1    4    4    0  501 -0.15620334820E+03 -0.13001635688E+03  0.17165508305E+03  0.26605766101E+03  0.41800000000E+01 0. -1.
</event>
<event>
11    1  0.8328696E-009  0.1511904E+03  0.7561462E-02  0.1095669E+00
         22   -1    0    0    0    0  0.00000000000E+00  0.00000000000E+00  0.28691501898E+03  0.28691501898E+03  0.00000000000E+00 0.  1.
         22   -1    0    0    0    0 -0.00000000000E+00 -0.00000000000E+00 -0.28563011675E+03  0.28563011675E+03  0.00000000000E+00 0.  1.
        -24    2    1    2    0    0  0.52041319721E+02 -0.64423323971E+02 -0.20261739476E+03  0.23386832492E+03  0.82352420194E+02 0.  0.
         25    2    1    2    0    0 -0.84875927877E+02  0.60616251636E+02  0.65280436089E+02  0.17546776979E+03  0.12509656192E+03 0.  0.
         24    2    1    2    0    0  0.32834608156E+02  0.38070723359E+01  0.13862186090E+03  0.16320904102E+03  0.79552281296E+02 0.  0.
        -11    1    5    5    0    0  0.14773530650E+01  0.75526629338E+01  0.13033191217E+03  0.13055892394E+03  0.00000000000E+00 0.  1.
         12    1    5    5    0    0  0.31357255091E+02 -0.37455905978E+01  0.82899487297E+01  0.32650117085E+02  0.00000000000E+00 0. -1.
         11    1    3    3    0    0  0.60420259704E+02 -0.54270447799E+02 -0.93028615884E+02  0.12349175139E+03  0.00000000000E+00 0. -1.
        -12    1    3    3    0    0 -0.83789399826E+01 -0.10152876172E+02 -0.10958877887E+03  0.11037657353E+03  0.00000000000E+00 0.  1.
          5    1    4    4  501    0 -0.62508383931E+02  0.88486430627E+02  0.81860327249E+02  0.13585187538E+03  0.41800000000E+01 0. -1.
         -5    1    4    4    0  501 -0.22367543946E+02 -0.27870178991E+02 -0.16579891160E+02  0.39615894412E+02  0.41800000000E+01 0. -1.
</event>
<event>
11    1  0.8328696E-009  0.1612835E+03  0.7561462E-02  0.1085876E+00
         22   -1    0    0    0    0  0.00000000000E+00  0.00000000000E+00  0.57880055632E+03  0.57880055632E+03  0.00000000000E+00 0.  1.
         22   -1    0    0    0    0 -0.00000000000E+00 -0.00000000000E+00 -0.21803349612E+03  0.21803349612E+03  0.00000000000E+00 0. -1.
         24    2    1    2    0    0  0.88573477333E+02  0.38835452432E+02 -0.94977081296E+02  0.15865118329E+03  0.82438454220E+02 0.  0.
         25    2    1    2    0    0 -0.88611156731E+02 -0.80927675104E+02 -0.70327823614E+00  0.17334740181E+03  0.12509037301E+03 0.  0.
        -24    2    1    2    0    0  0.37679398084E-01  0.42092222671E+02  0.45644741974E+03  0.46483546735E+03  0.77175177938E+02 0.  0.
        -13    1    3    3    0    0  0.53489715316E+01 -0.18791199039E+02 -0.37395619585E+02  0.42191859665E+02  0.00000000000E+00 0.  1.
         14    1    3    3    0    0  0.83224505801E+02  0.57626651471E+02 -0.57581461710E+02  0.11645932362E+03  0.00000000000E+00 0. -1.
         11    1    5    5    0    0 -0.29289461445E+01  0.59667914824E+02  0.22809298251E+03  0.23578644460E+03  0.00000000000E+00 0. -1.
        -12    1    5    5    0    0  0.29666255425E+01 -0.17575692153E+02  0.22835443723E+03  0.22904902275E+03  0.00000000000E+00 0.  1.
          5    1    4    4  501    0 -0.12317935558E+02  0.22251327614E+02 -0.32106790122E+02  0.41172460322E+02  0.41800000000E+01 0.  1.
         -5    1    4    4    0  501 -0.76293221172E+02 -0.10317900272E+03  0.31403511886E+02  0.13217494149E+03  0.41800000000E+01 0.  1.
</event>
<event>
11    1  0.1080955E-008  0.2169395E+03  0.7561462E-02  0.1043152E+00
         22   -1    0    0    0    0  0.00000000000E+00  0.00000000000E+00  0.25466956282E+03  0.25466956282E+03  0.00000000000E+00 0.  1.
         22   -1    0    0    0    0 -0.00000000000E+00 -0.00000000000E+00 -0.23455186074E+04  0.23455186074E+04  0.00000000000E+00 0.  1.
         24    2    1    2    0    0  0.56169173044E+02 -0.73266116724E+02 -0.19746004869E+04  0.19784001781E+04  0.80605718194E+02 0.  0.
         25    2    1    2    0    0  0.12242111560E+03  0.20369312940E+02 -0.29985982642E+03  0.34780170450E+03  0.12509305217E+03 0.  0.
        -24    2    1    2    0    0 -0.17859028864E+03  0.52896803784E+02  0.18361126874E+03  0.27398628767E+03  0.81626128020E+02 0.  0.
        -13    1    3    3    0    0  0.59509430015E+02 -0.82507124993E+02 -0.19321943250E+04  0.19348704627E+04  0.00000000000E+00 0.  1.
         14    1    3    3    0    0 -0.33402569714E+01  0.92410082684E+01 -0.42406161956E+02  0.43529715394E+02  0.00000000000E+00 0. -1.
         11    1    5    5    0    0 -0.34893562757E+02 -0.14653037971E+02  0.10911957064E+02  0.39387092437E+02  0.00000000000E+00 0. -1.
        -12    1    5    5    0    0 -0.14369672589E+03  0.67549841755E+02  0.17269931167E+03  0.23459919523E+03  0.00000000000E+00 0.  1.
          5    1    4    4  501    0  0.11331628223E+03  0.39342106705E+02 -0.30319597210E+03  0.32608840991E+03  0.41800000000E+01 0.  1.
         -5    1    4    4    0  501  0.91048333697E+01 -0.18972793764E+02  0.33361456878E+01  0.21713294590E+02  0.41800000000E+01 0.  1.
</event>
<event>
11    1  0.8328696E-009  0.6198097E+03  0.7561462E-02  0.9159611E-01
         22   -1    0    0    0    0  0.00000000000E+00  0.00000000000E+00  0.15109024369E+04  0.15109024369E+04  0.00000000000E+00 0.  1.
         22   -1    0    0    0    0 -0.00000000000E+00 -0.00000000000E+00 -0.69961444771E+03  0.69961444771E+03  0.00000000000E+00 0.  1.
         24    2    1    2    0    0  0.71266956006E+02 -0.51039379769E+03 -0.54221843126E+02  0.52438629254E+03  0.80375169055E+02 0.  0.
         25    2    1    2    0    0 -0.43660716326E+03  0.82526691462E+03  0.44763935777E+03  0.10429386337E+04  0.12509477847E+03 0.  0.
        -24    2    1    2    0    0  0.36534020725E+03 -0.31487311694E+03  0.41787047455E+03  0.64319195841E+03  0.80384171641E+02 0.  0.
        -13    1    3    3    0    0  0.40427840875E+02 -0.43749443616E+03 -0.66244559163E+02  0.44432435631E+03  0.00000000000E+00 0.  1.
         14    1    3    3    0    0  0.30839115131E+02 -0.72899361526E+02  0.12022716038E+02  0.80061936236E+02  0.00000000000E+00 0. -1.
         13    1    5    5    0    0  0.20214606600E+03 -0.16746271333E+03  0.17465288803E+03  0.31529418588E+03  0.00000000000E+00 0. -1.
        -14    1    5    5    0    0  0.16319414125E+03 -0.14741040361E+03  0.24321758652E+03  0.32789777252E+03  0.00000000000E+00 0.  1.
          5    1    4    4  501    0 -0.40267457458E+03  0.72119038619E+03  0.35337749571E+03  0.89841833965E+03  0.41800000000E+01 0. -1.
         -5    1    4    4    0  501 -0.33932588676E+02  0.10407652844E+03  0.94261862057E+02  0.14452029402E+03  0.41800000000E+01 0. -1.
</event>
<event>
11    1  0.8328696E-009  0.2328218E+03  0.7561462E-02  0.1033470E+00
         22   -1    0    0    0    0  0.00000000000E+00  0.00000000000E+00  0.13187645199E+04  0.13187645199E+04  0.00000000000E+00 0. -1.
         22   -1    0    0    0    0 -0.00000000000E+00 -0.00000000000E+00 -0.57844105794E+03  0.57844105794E+03  0.00000000000E+00 0. -1.
        -24    2    1    2    0    0  0.16713163162E+03  0.10134651550E+03 -0.52734082111E+03  0.56818869474E+03  0.80907062366E+02 0.  0.
         25    2    1    2    0    0 -0.21188073777E+03 -0.81142023378E+02  0.58394630466E+03  0.63884191364E+03  0.12509288112E+03 0.  0.
         24    2    1    2    0    0  0.44749106158E+02 -0.20204492121E+02  0.68371797837E+03  0.69017496941E+03  0.80377300634E+02 0.  0.
        -11    1    5    5    0    0  0.18327178574E+02 -0.46459962870E+01  0.28267514552E+02  0.34007692291E+02  0.00000000000E+00 0.  1.
         12    1    5    5    0    0  0.26421927583E+02 -0.15558495834E+02  0.65545046382E+03  0.65616727712E+03  0.00000000000E+00 0. -1.
         13    1    3    3    0    0  0.17433583030E+03  0.10329543068E+03 -0.49252974837E+03  0.53258659461E+03  0.00000000000E+00 0. -1.
        -14    1    3    3    0    0 -0.72041986868E+01 -0.19489151829E+01 -0.34811072734E+02  0.35602100134E+02  0.00000000000E+00 0.  1.
          5    1    4    4  501    0 -0.19429210744E+03 -0.28109060205E+02  0.50668372118E+03  0.54340170039E+03  0.41800000000E+01 0. -1.
         -5    1    4    4    0  501 -0.17588630333E+02 -0.53032963173E+02  0.77262583473E+02  0.95440213248E+02  0.41800000000E+01 0. -1.
</event>
<event>
11    1  0.8328696E-009  0.1791705E+03  0.7561462E-02  0.1070316E+00
         22   -1    0    0    0    0  0.00000000000E+00  0.00000000000E+00  0.14220109569E+04  0.14220109569E+04  0.00000000000E+00 0. -1.
         22   -1    0    0    0    0 -0.00000000000E+00 -0.00000000000E+00 -0.92195355969E+02  0.92195355969E+02  0.00000000000E+00 0.  1.
         24    2    1    2    0    0  0.42487463357E+02  0.11020308225E+03  0.28824605681E+02  0.14602898979E+03  0.80893164641E+02 0.  0.
         25    2    1    2    0    0 -0.14957891383E+03 -0.13885063064E+03  0.48505761517E+03  0.54090789856E+03  0.12508843111E+03 0.  0.
        -24    2    1    2    0    0  0.10709145047E+03  0.28647548392E+02  0.81593338012E+03  0.82726942456E+03  0.79612556995E+02 0.  0.
        -13    1    3    3    0    0  0.39609163904E+01  0.15391160120E+01 -0.20276567601E+02  0.20717068577E+02  0.00000000000E+00 0.  1.
         14    1    3    3    0    0  0.38526546967E+02  0.10866396624E+03  0.49101173282E+02  0.12531192121E+03  0.00000000000E+00 0. -1.
         13    1    5    5    0    0  0.11357761682E+03  0.14355275487E+02  0.77536262184E+03  0.78376855278E+03  0.00000000000E+00 0. -1.
        -14    1    5    5    0    0 -0.64861663494E+01  0.14292272905E+02  0.40570758277E+02  0.43500871783E+02  0.00000000000E+00 0.  1.
          5    1    4    4  501    0  0.82426307250E+01 -0.56777047555E+02  0.80424485083E+02  0.98879443219E+02  0.41800000000E+01 0.  1.
         -5    1    4    4    0  501 -0.15782154456E+03 -0.82073583087E+02  0.40463313009E+03  0.44202845534E+03  0.41800000000E+01 0.  1.
</event>
<event>
11    1  0.8328696E-009  0.1477794E+03  0.7561462E-02  0.1099170E+00
         22   -1    0    0    0    0  0.00000000000E+00  0.00000000000E+00  0.11550197788E+03  0.11550197788E+03  0.00000000000E+00 0.  1.
         22   -1    0    0    0    0 -0.00000000000E+00 -0.00000000000E+00 -0.80254901674E+03  0.80254901674E+03  0.00000000000E+00 0.  1.
         24    2    1    2    0    0  0.16075287242E+02  0.76223337425E+02 -0.61715285612E+03  0.62636126851E+03  0.73364697518E+02 0.  0.
         25    2    1    2    0    0 -0.86072278462E+01 -0.84821309173E+02 -0.12270254600E+03  0.19486447837E+03  0.12509001269E+03 0.  0.
        -24    2    1    2    0    0 -0.74680593954E+01  0.85979717485E+01  0.52808363259E+02  0.96825247739E+02  0.80353645470E+02 0.  0.
        -11    1    3    3    0    0  0.39286016697E+02  0.73709297558E+02 -0.49497673237E+03  0.50197451852E+03  0.00000000000E+00 0.  1.
         12    1    3    3    0    0 -0.23210729456E+02  0.25140398664E+01 -0.12217612374E+03  0.12438674998E+03  0.00000000000E+00 0. -1.
         11    1    5    5    0    0 -0.38686379670E+01  0.19968499171E+02 -0.16690026788E+02  0.26310916234E+02  0.00000000000E+00 0. -1.
        -12    1    5    5    0    0 -0.35994214283E+01 -0.11370527423E+02  0.69498390047E+02  0.70514331505E+02  0.00000000000E+00 0.  1.
          5    1    4    4  501    0  0.29905477450E+02 -0.10247703379E+03 -0.72850287080E+02  0.12930783721E+03  0.41800000000E+01 0.  1.
         -5    1    4    4    0  501 -0.38512705296E+02  0.17655724620E+02 -0.49852258920E+02  0.65556641163E+02  0.41800000000E+01 0.  1.
</event>
<event>
11    1  0.8328696E-009  0.1364788E+03  0.7561462E-02  0.1111555E+00
         22   -1    0    0    0    0  0.00000000000E+00  0.00000000000E+00  0.11023812096E+04  0.11023812096E+04  0.00000000000E+00 0.  1.
         22   -1    0    0    0    0 -0.00000000000E+00 -0.00000000000E+00 -0.85265873581E+02  0.85265873581E+02  0.00000000000E+00 0. -1.
        -24    2    1    2    0    0 -0.29084197225E+02  0.12999657219E+02 -0.24799156083E+02  0.88068079024E+02  0.78269449880E+02 0.  0.
         25    2    1    2    0    0 -0.21908243583E+02  0.13719379944E+02  0.12999395440E+03  0.18224600779E+03  0.12508791569E+03 0.  0.
         24    2    1    2    0    0  0.50992440808E+02 -0.26719037163E+02  0.91192053768E+03  0.91733299634E+03  0.81158013591E+02 0.  0.
        -13    1    5    5    0    0  0.60451253658E+02  0.81189766117E+01  0.66440643639E+03  0.66720025821E+03  0.00000000000E+00 0.  1.
         14    1    5    5    0    0 -0.94588128497E+01 -0.34838013774E+02  0.24751410129E+03  0.25013273813E+03  0.00000000000E+00 0. -1.
         11    1    3    3    0    0 -0.42595454988E+01  0.43266532995E+02 -0.22253737236E+02  0.48840202971E+02  0.00000000000E+00 0. -1.
        -12    1    3    3    0    0 -0.24824651726E+02 -0.30266875776E+02 -0.25454188469E+01  0.39227876053E+02  0.00000000000E+00 0.  1.
          5    1    4    4  501    0  0.90496935626E+01  0.61764328915E+02  0.98950965531E+02  0.11707047134E+03  0.41800000000E+01 0. -1.
         -5    1    4    4    0  501 -0.30957937146E+02 -0.48044948971E+02  0.31042988865E+02  0.65175536451E+02  0.41800000000E+01 0. -1.
</event>
<event>
11    1  0.8328696E-009  0.1688777E+03  0.7561462E-02  0.1079013E+00
         22   -1    0    0    0    0  0.00000000000E+00  0.00000000000E+00  0.38736307600E+04  0.38736307600E+04  0.00000000000E+00 0. -1.
         22   -1    0    0    0    0 -0.00000000000E+00 -0.00000000000E+00 -0.29143231645E+03  0.29143231645E+03  0.00000000000E+00 0. -1.
         24    2    1    2    0    0 -0.55007476085E+02  0.10590117977E+03 -0.24883245249E+03  0.28760496753E+03  0.80982378540E+02 0.  0.
         25    2    1    2    0    0  0.37591370908E+02 -0.38011037398E+02  0.18295166063E+03  0.22798346322E+03  0.12508876545E+03 0.  0.
        -24    2    1    2    0    0  0.17416105177E+02 -0.67890142367E+02  0.36480792354E+04  0.36494746457E+04  0.72599515538E+02 0.  0.
        -13    1    3    3    0    0 -0.16210148357E+02 -0.87223981826E+01 -0.64699429797E+02  0.67267119426E+02  0.00000000000E+00 0.  1.
         14    1    3    3    0    0 -0.38797327728E+02  0.11462357795E+03 -0.18413302269E+03  0.22033784810E+03  0.00000000000E+00 0. -1.
         13    1    5    5    0    0  0.32257916235E+02 -0.71442363732E+02  0.34132807393E+04  0.34141807201E+04  0.00000000000E+00 0. -1.
        -14    1    5    5    0    0 -0.14841811057E+02  0.35522213643E+01  0.23479849614E+03  0.23529392560E+03  0.00000000000E+00 0.  1.
          5    1    4    4  501    0  0.34133425017E+02 -0.93735325817E+01  0.19367436630E+03  0.19692685540E+03  0.41800000000E+01 0. -1.
         -5    1    4    4    0  501  0.34579458911E+01 -0.28637504817E+02 -0.10722705673E+02  0.31056607813E+02  0.41800000000E+01 0. -1.
</event>
<event>
11    1  0.8328696E-009  0.2168604E+03  0.7561462E-02  0.1043202E+00
         22   -1    0    0    0    0  0.00000000000E+00  0.00000000000E+00  0.64344235571E+03  0.64344235571E+03  0.00000000000E+00 0. -1.
         22   -1    0    0    0    0 -0.00000000000E+00 -0.00000000000E+00 -0.63987718671E+03  0.63987718671E+03  0.00000000000E+00 0.  1.
        -24    2    1    2    0    0  0.52354176644E+02 -0.22886099624E+02 -0.50119501060E+03  0.51059544216E+03  0.79035014636E+02 0.  0.
         25    2    1    2    0    0  0.95097930312E+02 -0.88033693686E+02 -0.46413505219E+02  0.18599839229E+03  0.12509053079E+03 0.  0.
         24    2    1    2    0    0 -0.14745210696E+03  0.11091979331E+03  0.55117368481E+03  0.58672570797E+03  0.80058111208E+02 0.  0.
        -13    1    5    5    0    0 -0.52029843712E+02  0.86391388560E+02  0.31746289518E+03  0.33309648222E+03  0.00000000000E+00 0.  1.
         14    1    5    5    0    0 -0.95422263244E+02  0.24528404750E+02  0.23371078963E+03  0.25362922575E+03  0.00000000000E+00 0. -1.
         11    1    3    3    0    0  0.43846597845E+02 -0.37643047273E+02 -0.18217579351E+03  0.19112180119E+03  0.00000000000E+00 0. -1.
        -12    1    3    3    0    0  0.85075787995E+01  0.14756947650E+02 -0.31901921709E+03  0.31947364097E+03  0.00000000000E+00 0.  1.
          5    1    4    4  501    0  0.11010046206E+03 -0.24778146735E+02 -0.15842805643E+02  0.11403742890E+03  0.41800000000E+01 0.  1.
         -5    1    4    4    0  501 -0.15002531744E+02 -0.63255546951E+02 -0.30570699575E+02  0.71960963385E+02  0.41800000000E+01 0.  1.
</event>
<event>
11    1  0.8328696E-009  0.1444712E+03  0.7561462E-02  0.1102666E+00
         22   -1    0    0    0    0  0.00000000000E+00  0.00000000000E+00  0.27437857838E+03  0.27437857838E+03  0.00000000000E+00 0. -1.
         22   -1    0    0    0    0 -0.00000000000E+00 -0.00000000000E+00 -0.94133975959E+03  0.94133975959E+03  0.00000000000E+00 0.  1.
        -24    2    1    2    0    0  0.26401469792E+01  0.34256541736E+02 -0.85620229891E+03  0.86066398627E+03  0.80496208395E+02 0.  0.
         25    2    1    2    0    0 -0.13694949471E+02 -0.99302933767E+02  0.27281132285E+02  0.16260866675E+03  0.12509474020E+03 0.  0.
         24    2    1    2    0    0  0.11054802492E+02  0.65046392031E+02  0.16195998541E+03  0.19244568495E+03  0.80318509752E+02 0.  0.
        -13    1    5    5    0    0  0.20269061415E+02  0.16437883960E+01  0.23672665725E+01  0.20472929491E+02  0.00000000000E+00 0.  1.
         14    1    5    5    0    0 -0.92142589234E+01  0.63402603635E+02  0.15959271884E+03  0.17197275546E+03  0.00000000000E+00 0. -1.
         11    1    3    3    0    0  0.86616781872E+00 -0.18530117986E+02 -0.62207952952E+02  0.64914905297E+02  0.00000000000E+00 0. -1.
        -12    1    3    3    0    0  0.17739791605E+01  0.52786659723E+02 -0.79399434596E+03  0.79574908097E+03  0.00000000000E+00 0.  1.
          5    1    4    4  501    0 -0.65886096350E+02 -0.45237239169E+02  0.34193664001E+02  0.87029101786E+02  0.41800000000E+01 0. -1.
         -5    1    4    4    0  501  0.52191146879E+02 -0.54065694598E+02 -0.69125317160E+01  0.75579564961E+02  0.41800000000E+01 0. -1.
</event>
<event>
11    1  0.8328696E-009  0.1991936E+03  0.7561462E-02  0.1055095E+00
         22   -1    0    0    0    0  0.00000000000E+00  0.00000000000E+00  0.11235232073E+04  0.11235232073E+04  0.00000000000E+00 0. -1.
         22   -1    0    0    0    0 -0.00000000000E+00 -0.00000000000E+00 -0.47491676628E+03  0.47491676628E+03  0.00000000000E+00 0. -1.
        -24    2    1    2    0    0 -0.91335450669E+02  0.12456237778E+03 -0.42546107409E+03  0.46146606168E+03  0.89865733213E+02 0.  0.
         25    2    1    2    0    0  0.11564083201E+03 -0.12196040022E+03  0.35076926598E+03  0.40857496979E+03  0.12508911516E+03 0.  0.
         24    2    1    2    0    0 -0.24305381345E+02 -0.26019775622E+01  0.72329824915E+03  0.72839894212E+03  0.82505392556E+02 0.  0.
        -13    1    5    5    0    0 -0.43658432639E+02 -0.10302411845E+02  0.66464732474E+03  0.66615933883E+03  0.00000000000E+00 0.  1.
         14    1    5    5    0    0  0.19353051294E+02  0.77004342833E+01  0.58650924412E+02  0.62239603284E+02  0.00000000000E+00 0. -1.
         11    1    3    3    0    0  0.18063265331E+01  0.38214788514E+02 -0.19119964832E+03  0.19498958534E+03  0.00000000000E+00 0. -1.
        -12    1    3    3    0    0 -0.93141777202E+02  0.86347589269E+02 -0.23426142578E+03  0.26647647634E+03  0.00000000000E+00 0.  1.
          5    1    4    4  501    0  0.13484403348E+03 -0.70952628132E+02  0.28365301241E+03  0.32201505035E+03  0.41800000000E+01 0. -1.
         -5    1    4    4    0  501 -0.19203201465E+02 -0.51007772089E+02  0.67116253567E+02  0.86559919436E+02  0.41800000000E+01 0. -1.
</event>
<event>
11    1  0.8328696E-009  0.1940162E+03  0.7561462E-02  0.1058838E+00
         22   -1    0    0    0    0  0.00000000000E+00  0.00000000000E+00  0.15076186052E+04  0.15076186052E+04  0.00000000000E+00 0. -1.
         22   -1    0    0    0    0 -0.00000000000E+00 -0.00000000000E+00 -0.87711874064E+03  0.87711874064E+03  0.00000000000E+00 0.  1.
         24    2    1    2    0    0 -0.18276756570E+02 -0.42029436040E+02 -0.85005591185E+03  0.85521495433E+03  0.81835515019E+02 0.  0.
         25    2    1    2    0    0  0.14276624412E+03  0.99894418967E+02  0.66668476482E+03  0.70034053395E+03  0.12508873829E+03 0.  0.
        -24    2    1    2    0    0 -0.12448948755E+03 -0.57864982927E+02  0.81387101154E+03  0.82918185752E+03  0.79438911449E+02 0.  0.
        -13    1    3    3    0    0  0.11914595949E+02 -0.57939308081E+02 -0.49460001263E+03  0.49812457630E+03  0.00000000000E+00 0.  1.
         14    1    3    3    0    0 -0.30191352519E+02  0.15909872041E+02 -0.35545589922E+03  0.35709037803E+03  0.00000000000E+00 0. -1.
         11    1    5    5    0    0 -0.21525384126E+02 -0.73079398023E+01  0.37104225892E+03  0.37173795347E+03  0.00000000000E+00 0. -1.
        -12    1    5    5    0    0 -0.10296410342E+03 -0.50557043125E+02  0.44282875263E+03  0.45744390405E+03  0.00000000000E+00 0.  1.
          5    1    4    4  501    0  0.35103867988E+02 -0.27212207522E+02  0.19658511922E+03  0.20158364835E+03  0.41800000000E+01 0. -1.
         -5    1    4    4    0  501  0.10766237613E+03  0.12710662649E+03  0.47009964560E+03  0.49875688560E+03  0.41800000000E+01 0. -1.
</event>
<event>
11    1  0.8328696E-009  0.1345562E+03  0.7561462E-02  0.1113794E+00
         22   -1    0    0    0    0  0.00000000000E+00  0.00000000000E+00  0.81595610742E+03  0.81595610742E+03  0.00000000000E+00 0. -1.
         22   -1    0    0    0    0 -0.00000000000E+00 -0.00000000000E+00 -0.55719683377E+03  0.55719683377E+03  0.00000000000E+00 0.  1.
         24    2    1    2    0    0 -0.50618303965E+02  0.94387004393E+00 -0.52435552498E+03  0.53279407912E+03  0.79735253080E+02 0.  0.
         25    2    1    2    0    0  0.10942610636E+02 -0.14627137687E+01  0.12940162430E+03  0.18031727880E+03  0.12509060877E+03 0.  0.
        -24    2    1    2    0    0  0.39675693329E+02  0.51884372481E+00  0.65371317432E+03  0.66004158327E+03  0.82094747262E+02 0.  0.
        -13    1    3    3    0    0 -0.52217398165E+02  0.57137459832E+01 -0.52508915987E+03  0.52771008080E+03  0.00000000000E+00 0.  1.
         14    1    3    3    0    0  0.15990942005E+01 -0.47698759392E+01  0.73363489489E+00  0.50839983180E+01  0.00000000000E+00 0. -1.
         13    1    5    5    0    0  0.39891187289E+02 -0.23593469595E+02  0.59159122945E+03  0.59340386028E+03  0.00000000000E+00 0. -1.
        -14    1    5    5    0    0 -0.21549395989E+00  0.24112313320E+02  0.62121944868E+02  0.66637722992E+02  0.00000000000E+00 0.  1.
          5    1    4    4  501    0 -0.38792829287E+02 -0.37626270974E+02  0.95918158417E+02  0.11017434087E+03  0.41800000000E+01 0. -1.
         -5    1    4    4    0  501  0.49735439923E+02  0.36163557205E+02  0.33483465885E+02  0.70142937932E+02  0.41800000000E+01 0. -1.
</event>
<event>
11    1  0.8328696E-009  0.1968595E+03  0.7561462E-02  0.1056767E+00
         22   -1    0    0    0    0  0.00000000000E+00  0.00000000000E+00  0.86871079242E+03  0.86871079242E+03  0.00000000000E+00 0.  1.
         22   -1    0    0    0    0 -0.00000000000E+00 -0.00000000000E+00 -0.32023046603E+04  0.32023046603E+04  0.00000000000E+00 0.  1.
         24    2    1    2    0    0 -0.79009137080E+01 -0.15190904365E+03 -0.29363184825E+04  0.29413499365E+04  0.80214938769E+02 0.  0.
         25    2    1    2    0    0  0.47845881807E+02  0.14775921808E+03 -0.22294476264E+03  0.29912219849E+03  0.12509079704E+03 0.  0.
        -24    2    1    2    0    0 -0.39944968099E+02  0.41498255661E+01  0.82566937718E+03  0.83054331779E+03  0.80370770767E+02 0.  0.
        -13    1    3    3    0    0 -0.34785848718E+02 -0.13385291410E+03 -0.22243116135E+04  0.22286069218E+04  0.00000000000E+00 0.  1.
         14    1    3    3    0    0  0.26884935010E+02 -0.18056129547E+02 -0.71200686894E+03  0.71274301467E+03  0.00000000000E+00 0. -1.
         11    1    5    5    0    0  0.19002638200E+02 -0.17465774795E+02  0.30821450938E+03  0.30929328693E+03  0.00000000000E+00 0. -1.
        -12    1    5    5    0    0 -0.58947606299E+02  0.21615600361E+02  0.51745486780E+03  0.52125003086E+03  0.00000000000E+00 0.  1.
          5    1    4    4  501    0  0.59650412627E+02  0.92187825907E+02 -0.57236851986E+02  0.12389631390E+03  0.41800000000E+01 0.  1.
         -5    1    4    4    0  501 -0.11804530820E+02  0.55571392178E+02 -0.16570791065E+03  0.17522588459E+03  0.41800000000E+01 0.  1.
</event>
<event>
11    1  0.8328696E-009  0.1979225E+03  0.7561462E-02  0.1056003E+00
         22   -1    0    0    0    0  0.00000000000E+00  0.00000000000E+00  0.25729129318E+04  0.25729129318E+04  0.00000000000E+00 0. -1.
         22   -1    0    0    0    0 -0.00000000000E+00 -0.00000000000E+00 -0.11695633717E+04  0.11695633717E+04  0.00000000000E+00 0. -1.
         24    2    1    2    0    0  0.14650266351E+01  0.44462617692E+02 -0.11486476727E+04  0.11523239391E+04  0.80497912465E+02 0.  0.
         25    2    1    2    0    0  0.80192678038E+02 -0.16522339584E+03  0.80234806303E+03  0.83255015442E+03  0.12509080393E+03 0.  0.
        -24    2    1    2    0    0 -0.81657704673E+02  0.12076077815E+03  0.17496491698E+04  0.17576022101E+04  0.81499480655E+02 0.  0.
        -11    1    3    3    0    0 -0.17684081517E+02  0.40306682712E+02 -0.27858988261E+03  0.28204552488E+03  0.00000000000E+00 0.  1.
         12    1    3    3    0    0  0.19149108153E+02  0.41559349804E+01 -0.87005779006E+03  0.87027841417E+03  0.00000000000E+00 0. -1.
         13    1    5    5    0    0 -0.76976774677E+02  0.11501488826E+03  0.17396990901E+04  0.17451953393E+04  0.00000000000E+00 0. -1.
        -14    1    5    5    0    0 -0.46809299959E+01  0.57458898925E+01  0.99500796798E+01  0.12406870754E+02  0.00000000000E+00 0.  1.
          5    1    4    4  501    0  0.10937628844E+03 -0.92093229715E+02  0.49565111395E+03  0.51587967065E+03  0.41800000000E+01 0.  1.
         -5    1    4    4    0  501 -0.29183610399E+02 -0.73130166126E+02  0.30669694908E+03  0.31667048376E+03  0.41800000000E+01 0.  1.
</event>
<event>
11    1  0.8328696E-009  0.1657991E+03  0.7561462E-02  0.1081746E+00
         22   -1    0    0    0    0  0.00000000000E+00  0.00000000000E+00  0.90437528001E+03  0.90437528001E+03  0.00000000000E+00 0.  1.
         22   -1    0    0    0    0 -0.00000000000E+00 -0.00000000000E+00 -0.58948620186E+03  0.58948620186E+03  0.00000000000E+00 0.  1.
         24    2    1    2    0    0  0.89582952353E+02 -0.62438597075E+02 -0.51999140757E+03  0.53766489013E+03  0.82272634429E+02 0.  0.
         25    2    1    2    0    0 -0.10214426974E+03  0.34591528879E+02  0.58779145357E+02  0.17530604995E+03  0.12508875852E+03 0.  0.
        -24    2    1    2    0    0  0.12561317390E+02  0.27847068197E+02  0.77610134036E+03  0.78089054179E+03  0.80768198239E+02 0.  0.
        -13    1    3    3    0    0  0.84882018555E+02 -0.77123642451E+02 -0.49643868417E+03  0.50951386678E+03  0.00000000000E+00 0.  1.
         14    1    3    3    0    0  0.47009337975E+01  0.14685045375E+02 -0.23552723401E+02  0.28151023354E+02  0.00000000000E+00 0. -1.
         13    1    5    5    0    0 -0.14358097435E+02  0.82477583599E+01  0.31871886486E+02  0.35916536973E+02  0.00000000000E+00 0. -1.
        -14    1    5    5    0    0  0.26919414825E+02  0.19599309837E+02  0.74422945387E+03  0.74497400482E+03  0.00000000000E+00 0.  1.
          5    1    4    4  501    0 -0.25449157862E+01  0.29993271649E+02 -0.29291320214E+02  0.42208136425E+02  0.41800000000E+01 0. -1.
         -5    1    4    4    0  501 -0.99599353957E+02  0.45982572298E+01  0.88070465571E+02  0.13309791352E+03  0.41800000000E+01 0. -1.
</event>
<event>
11    1  0.8328696E-009  0.1610668E+03  0.7561462E-02  0.1086078E+00
         22   -1    0    0    0    0  0.00000000000E+00  0.00000000000E+00  0.20620774129E+04  0.20620774129E+04  0.00000000000E+00 0. -1.
         22   -1    0    0    0    0 -0.00000000000E+00 -0.00000000000E+00 -0.23108409346E+03  0.23108409346E+03  0.00000000000E+00 0. -1.
        -24    2    1    2    0    0 -0.12881559887E+03 -0.12390269932E+02 -0.98452031739E+02  0.18211724695E+03  0.82017752832E+02 0.  0.
         25    2    1    2    0    0  0.59616896692E+02  0.31245252867E+02 -0.32689549750E+02  0.14576359623E+03  0.12509188274E+03 0.  0.
         24    2    1    2    0    0  0.69198702181E+02 -0.18854982935E+02  0.19621349010E+04  0.19652806632E+04  0.84916104919E+02 0.  0.
        -13    1    5    5    0    0 -0.12443725492E+02  0.17701513618E+02  0.40860774872E+03  0.40918025637E+03  0.00000000000E+00 0.  1.
         14    1    5    5    0    0  0.81642427673E+02 -0.36556496553E+02  0.15535271523E+04  0.15561004069E+04  0.00000000000E+00 0. -1.
         13    1    3    3    0    0 -0.96169969044E+02 -0.11199791228E+02 -0.11084713863E+03  0.14717739776E+03  0.00000000000E+00 0. -1.
        -14    1    3    3    0    0 -0.32645629828E+02 -0.11904787038E+01  0.12395106887E+02  0.34939849186E+02  0.00000000000E+00 0.  1.
          5    1    4    4  501    0  0.85276172843E+02  0.44273642530E+01 -0.55565924209E+02  0.10196406986E+03  0.41800000000E+01 0.  1.
         -5    1    4    4    0  501 -0.25659276151E+02  0.26817888614E+02  0.22876374459E+02  0.43799526375E+02  0.41800000000E+01 0.  1.
</event>
<event>
11    1  0.8328696E-009  0.1984259E+03  0.7561462E-02  0.1055642E+00
         22   -1    0    0    0    0  0.00000000000E+00  0.00000000000E+00  0.40238223982E+03  0.40238223982E+03  0.00000000000E+00 0. -1.
         22   -1    0    0    0    0 -0.00000000000E+00 -0.00000000000E+00 -0.48898591317E+03  0.48898591317E+03  0.00000000000E+00 0. -1.
        -24    2    1    2    0    0 -0.37705754016E+02 -0.14803210713E+03 -0.31840561812E+03  0.36268964232E+03  0.82622093709E+02 0.  0.
         25    2    1    2    0    0  0.38463826846E+02  0.15336448263E+03 -0.71727421787E+02  0.21399202404E+03  0.12509049847E+03 0.  0.
         24    2    1    2    0    0 -0.75807283008E+00 -0.53323755058E+01  0.30352936655E+03  0.31468648664E+03  0.82876411655E+02 0.  0.
        -13    1    5    5    0    0 -0.22017260110E+02  0.75935579316E+01  0.21928944485E+02  0.31989067993E+02  0.00000000000E+00 0.  1.
         14    1    5    5    0    0  0.21259187280E+02 -0.12925933437E+02  0.28160042207E+03  0.28269741864E+03  0.00000000000E+00 0. -1.
         13    1    3    3    0    0 -0.50018903720E+02 -0.10904730304E+03 -0.28722268842E+03  0.31127171052E+03  0.00000000000E+00 0. -1.
        -14    1    3    3    0    0  0.12313149704E+02 -0.38984804087E+02 -0.31182929700E+02  0.51417931794E+02  0.00000000000E+00 0.  1.
          5    1    4    4  501    0 -0.36917182047E+02  0.13638727880E+02 -0.30344370990E+02  0.49871299154E+02  0.41800000000E+01 0. -1.
         -5    1    4    4    0  501  0.75381008893E+02  0.13972575475E+03 -0.41383050797E+02  0.16412072488E+03  0.41800000000E+01 0. -1.
</event>
<event>
11    1  0.8328696E-009  0.1330656E+03  0.7561462E-02  0.1115559E+00
         22   -1    0    0    0    0  0.00000000000E+00  0.00000000000E+00  0.27446255440E+03  0.27446255440E+03  0.00000000000E+00 0.  1.
         22   -1    0    0    0    0 -0.00000000000E+00 -0.00000000000E+00 -0.31401949884E+03  0.31401949884E+03  0.00000000000E+00 0.  1.
         24    2    1    2    0    0  0.27609911705E+02 -0.35789795886E+02 -0.25800196863E+03  0.27454287117E+03  0.82252997402E+02 0.  0.
         25    2    1    2    0    0 -0.73887677740E+01  0.55340458755E+02  0.12610312096E+03  0.18618849164E+03  0.12508795720E+03 0.  0.
        -24    2    1    2    0    0 -0.20221143931E+02 -0.19550662870E+02  0.92341903231E+02  0.12775069043E+03  0.83678484292E+02 0.  0.
        -11    1    3    3    0    0  0.51745565562E+02 -0.31854367207E+02 -0.22735477514E+03  0.23533486364E+03  0.00000000000E+00 0.  1.
         12    1    3    3    0    0 -0.24135653857E+02 -0.39354286780E+01 -0.30647193490E+02  0.39208007534E+02  0.00000000000E+00 0. -1.
         13    1    5    5    0    0 -0.30785131634E+02  0.34629808365E+01 -0.10395890450E+01  0.30996730657E+02  0.00000000000E+00 0. -1.
        -14    1    5    5    0    0  0.10563987703E+02 -0.23013643706E+02  0.93381492276E+02  0.96753959777E+02  0.00000000000E+00 0.  1.
          5    1    4    4  501    0  0.47846966599E+02  0.39765509537E+02  0.19994486414E+02  0.65481904740E+02  0.41800000000E+01 0. -1.
         -5    1    4    4    0  501 -0.55235734373E+02  0.15574949219E+02  0.10610863455E+03  0.12070658690E+03  0.41800000000E+01 0. -1.
</event>
<event>
11    1  0.8328696E-009  0.1413473E+03  0.7561462E-02  0.1106063E+00
         22   -1    0    0    0    0  0.00000000000E+00  0.00000000000E+00  0.35571411180E+03  0.35571411180E+03  0.00000000000E+00 0.  1.
         22   -1    0    0    0    0 -0.00000000000E+00 -0.00000000000E+00 -0.10420792685E+04  0.10420792685E+04  0.00000000000E+00 0. -1.
        -24    2    1    2    0    0 -0.66488691151E+02 -0.58230795732E+01 -0.92723238523E+03  0.93306272405E+03  0.79946835336E+02 0.  0.
         25    2    1    2    0    0  0.52072128015E+02  0.28252409541E+01 -0.63433320801E+02  0.14963441512E+03  0.12508870253E+03 0.  0.
         24    2    1    2    0    0  0.14416563136E+02  0.29978386191E+01  0.30430054935E+03  0.31509624112E+03  0.80436263615E+02 0.  0.
        -13    1    5    5    0    0 -0.30799917160E+02  0.47171561067E+01  0.18293904361E+03  0.18557365152E+03  0.00000000000E+00 0.  1.
         14    1    5    5    0    0  0.45216480297E+02 -0.17193174876E+01  0.12136150573E+03  0.12952258960E+03  0.00000000000E+00 0. -1.
         11    1    3    3    0    0 -0.41641532723E+02 -0.31061224312E+02 -0.77606750365E+03  0.77780433730E+03  0.00000000000E+00 0. -1.
        -12    1    3    3    0    0 -0.24847158428E+02  0.25238144739E+02 -0.15116488158E+03  0.15525838674E+03  0.00000000000E+00 0.  1.
          5    1    4    4  501    0  0.80890659974E+02 -0.34437498530E+02 -0.37198035214E+02  0.95553160073E+02  0.41800000000E+01 0. -1.
         -5    1    4    4    0  501 -0.28818531959E+02  0.37262739484E+02 -0.26235285587E+02  0.54081255052E+02  0.41800000000E+01 0. -1.
</event>
<event>
11    1  0.8328696E-009  0.1842846E+03  0.7561462E-02  0.1066229E+00
         22   -1    0    0    0    0  0.00000000000E+00  0.00000000000E+00  0.52006258887E+03  0.52006258887E+03  0.00000000000E+00 0.  1.
         22   -1    0    0    0    0 -0.00000000000E+00 -0.00000000000E+00 -0.12487556812E+04  0.12487556812E+04  0.00000000000E+00 0.  1.
        -24    2    1    2    0    0 -0.76119357935E+02 -0.11103826971E+03 -0.11296787694E+04  0.11406499893E+04  0.82368817523E+02 0.  0.
         25    2    1    2    0    0  0.11692332844E+03  0.97366292903E+02 -0.19594624286E+02  0.19794468467E+03  0.12508752600E+03 0.  0.
         24    2    1    2    0    0 -0.40803970506E+02  0.13671976803E+02  0.42058030140E+03  0.43022359603E+03  0.79703611540E+02 0.  0.
        -13    1    5    5    0    0 -0.26256303580E+01 -0.93634589881E+01  0.32063961500E+03  0.32078704931E+03  0.00000000000E+00 0.  1.
         14    1    5    5    0    0 -0.38178340148E+02  0.23035435791E+02  0.99940686406E+02  0.10943654672E+03  0.00000000000E+00 0. -1.
         13    1    3    3    0    0  0.87131497579E+01 -0.40642774173E+02 -0.18796665734E+03  0.19250770982E+03  0.00000000000E+00 0. -1.
        -14    1    3    3    0    0 -0.84832507693E+02 -0.70395495532E+02 -0.94171211209E+03  0.94814227952E+03  0.00000000000E+00 0.  1.
          5    1    4    4  501    0 -0.17543326138E+02  0.46195069429E+02  0.10995846740E+02  0.50795017247E+02  0.41800000000E+01 0.  1.
         -5    1    4    4    0  501  0.13446665458E+03  0.51171223473E+02 -0.30590471026E+02  0.14714966742E+03  0.41800000000E+01 0.  1.
</event>
<event>
11    1  0.8328696E-009  0.1272479E+03  0.7561462E-02  0.1122697E+00
         22   -1    0    0    0    0  0.00000000000E+00  0.00000000000E+00  0.70587296649E+03  0.70587296649E+03  0.00000000000E+00 0.  1.
         22   -1    0    0    0    0 -0.00000000000E+00 -0.00000000000E+00 -0.17301840451E+03  0.17301840451E+03  0.00000000000E+00 0. -1.
         24    2    1    2    0    0 -0.22690589413E+02  0.60725594577E+01 -0.14086204550E+03  0.16675269388E+03  0.86096493714E+02 0.  0.
         25    2    1    2    0    0  0.23024485217E+02  0.59495683099E+01  0.24828181548E+03  0.27902594468E+03  0.12508434604E+03 0.  0.
        -24    2    1    2    0    0 -0.33389580427E+00 -0.12022127768E+02  0.42543479199E+03  0.43311273244E+03  0.80294668066E+02 0.  0.
        -11    1    3    3    0    0 -0.13419509005E+02 -0.25039071184E+01  0.90054809438E+01  0.16353943250E+02  0.00000000000E+00 0.  1.
         12    1    3    3    0    0 -0.92710804075E+01  0.85764665761E+01 -0.14986752644E+03  0.15039875063E+03  0.00000000000E+00 0. -1.
         11    1    5    5    0    0  0.30765064601E+02  0.19310036422E+02  0.22107644045E+03  0.22404053033E+03  0.00000000000E+00 0. -1.
        -12    1    5    5    0    0 -0.31098960405E+02 -0.31332164190E+02  0.20435835154E+03  0.20907220211E+03  0.00000000000E+00 0.  1.
          5    1    4    4  501    0 -0.12592823803E+02 -0.20574258908E+02  0.22921211087E+03  0.23051582052E+03  0.41800000000E+01 0. -1.
         -5    1    4    4    0  501  0.35617309020E+02  0.26523827218E+02  0.19069704610E+02  0.48510124161E+02  0.41800000000E+01 0. -1.
</event>
<event>
11    1  0.8328696E-009  0.1599767E+03  0.7561462E-02  0.1087099E+00
         22   -1    0    0    0    0  0.00000000000E+00  0.00000000000E+00  0.91292170262E+03  0.91292170262E+03  0.00000000000E+00 0. -1.
         22   -1    0    0    0    0 -0.00000000000E+00 -0.00000000000E+00 -0.36793264293E+03  0.36793264293E+03  0.00000000000E+00 0.  1.
        -24    2    1    2    0    0 -0.13959756371E+02  0.50589189337E+02 -0.31558333235E+03  0.32966074029E+03  0.79556414939E+02 0.  0.
         25    2    1    2    0    0 -0.61048491557E+02  0.23407644328E+02  0.86027826896E+02  0.16529765845E+03  0.12509073808E+03 0.  0.
         24    2    1    2    0    0  0.75008247927E+02 -0.73996833665E+02  0.77454456514E+03  0.78589594681E+03  0.81310437067E+02 0.  0.
        -11    1    5    5    0    0 -0.15276705052E+02 -0.22802996257E+01  0.53295402126E+02  0.55488533693E+02  0.00000000000E+00 0.  1.
         12    1    5    5    0    0  0.90284952979E+02 -0.71716534040E+02  0.72124916302E+03  0.73040741312E+03  0.00000000000E+00 0. -1.
         13    1    3    3    0    0 -0.21639495883E+02 -0.13802171931E+02 -0.49136451240E+02  0.55436076453E+02  0.00000000000E+00 0. -1.
        -14    1    3    3    0    0  0.76797395123E+01  0.64391361268E+02 -0.26644688111E+03  0.27422466384E+03  0.00000000000E+00 0.  1.
          5    1    4    4  501    0 -0.88899702062E+02  0.46781134317E+02  0.44522402202E+02  0.10996066684E+03  0.41800000000E+01 0.  1.
         -5    1    4    4    0  501  0.27851210506E+02 -0.23373489989E+02  0.41505424694E+02  0.55336991605E+02  0.41800000000E+01 0.  1.
</event>
<event>
11    1  0.8905124E-009  0.1725057E+03  0.7561462E-02  0.1075871E+00
         22   -1    0    0    0    0  0.00000000000E+00  0.00000000000E+00  0.14334542873E+04  0.14334542873E+04  0.00000000000E+00 0.  1.
         22   -1    0    0    0    0 -0.00000000000E+00 -0.00000000000E+00 -0.63105145743E+03  0.63105145743E+03  0.00000000000E+00 0. -1.
        -24    2    1    2    0    0 -0.87422869695E+02 -0.10084825355E+03 -0.50191874322E+03  0.52604279435E+03  0.83579114040E+02 0.  0.
         25    2    1    2    0    0 -0.51456114419E+01  0.80194548736E+02 -0.65851153428E+02  0.16261053383E+03  0.12509263903E+03 0.  0.
         24    2    1    2    0    0  0.92568481137E+02  0.20653704812E+02  0.13701727266E+04  0.13758524166E+04  0.81246983993E+02 0.  0.
        -11    1    5    5    0    0  0.71091403678E+02  0.13030160101E+02  0.48212859655E+03  0.48751590370E+03  0.00000000000E+00 0.  1.
         12    1    5    5    0    0  0.21477077459E+02  0.76235447111E+01  0.88804413001E+03  0.88833651289E+03  0.00000000000E+00 0. -1.
         11    1    3    3    0    0 -0.42152430981E+02 -0.35302532918E+02 -0.35205885110E+03  0.35632643869E+03  0.00000000000E+00 0. -1.
        -12    1    3    3    0    0 -0.45270438714E+02 -0.65545720630E+02 -0.14985989212E+03  0.16971635566E+03  0.00000000000E+00 0.  1.
          5    1    4    4  501    0  0.12287704616E+02  0.27449416405E+01 -0.80661640563E+02  0.81745305967E+02  0.41800000000E+01 0.  1.
         -5    1    4    4    0  501 -0.17433316058E+02  0.77449607096E+02  0.14810487134E+02  0.80865227862E+02  0.41800000000E+01 0.  1.
</event>
<event>
11    1  0.8328696E-009  0.1279459E+03  0.7561462E-02  0.1121819E+00
         22   -1    0    0    0    0  0.00000000000E+00  0.00000000000E+00  0.15168339623E+04  0.15168339623E+04  0.00000000000E+00 0. -1.
         22   -1    0    0    0    0 -0.00000000000E+00 -0.00000000000E+00 -0.60231450040E+03  0.60231450040E+03  0.00000000000E+00 0.  1.
        -24    2    1    2    0    0  0.19775086335E+01  0.26663365032E+02 -0.58790820233E+03  0.59404419435E+03  0.80855456830E+02 0.  0.
         25    2    1    2    0    0  0.12780372498E+02 -0.45030319917E+02  0.44897170909E+03  0.46841843347E+03  0.12509662514E+03 0.  0.
         24    2    1    2    0    0 -0.14757881132E+02  0.18366954885E+02  0.10534559552E+04  0.10566858349E+04  0.79122462569E+02 0.  0.
        -11    1    5    5    0    0 -0.43764779483E+02  0.11387760242E+02  0.39981554202E+03  0.40236488993E+03  0.00000000000E+00 0.  1.
         12    1    5    5    0    0  0.29006898352E+02  0.69791946424E+01  0.65364041315E+03  0.65432094496E+03  0.00000000000E+00 0. -1.
         11    1    3    3    0    0 -0.36495882656E+02  0.18630839596E+02 -0.39850137707E+03  0.40060255262E+03  0.00000000000E+00 0. -1.
        -12    1    3    3    0    0  0.38473391290E+02  0.80325254366E+01 -0.18940682526E+03  0.19344164174E+03  0.00000000000E+00 0.  1.
          5    1    4    4  501    0 -0.13421065976E+02  0.18962864267E+02  0.12942223531E+02  0.26920044262E+02  0.41800000000E+01 0.  1.
         -5    1    4    4    0  501  0.26201438474E+02 -0.63993184184E+02  0.43602948556E+03  0.44149838921E+03  0.41800000000E+01 0.  1.
</event>
<event>
11    1  0.8328696E-009  0.1504170E+03  0.7561462E-02  0.1096453E+00
         22   -1    0    0    0    0  0.00000000000E+00  0.00000000000E+00  0.11804082602E+04  0.11804082602E+04  0.00000000000E+00 0. -1.
         22   -1    0    0    0    0 -0.00000000000E+00 -0.00000000000E+00 -0.10115192036E+04  0.10115192036E+04  0.00000000000E+00 0. -1.
        -24    2    1    2    0    0 -0.79883427503E+02 -0.22884793066E+02 -0.92493816499E+03  0.93119538066E+03  0.68623262570E+02 0.  0.
         25    2    1    2    0    0  0.74998109658E+02  0.82652902216E+02  0.52962628462E+01  0.16772551487E+03  0.12509028436E+03 0.  0.
         24    2    1    2    0    0  0.48853178444E+01 -0.59768109149E+02  0.10885309587E+04  0.10930065684E+04  0.78534178072E+02 0.  0.
        -13    1    5    5    0    0  0.17171190467E+02 -0.37875771991E+02  0.20793230944E+03  0.21205015726E+03  0.00000000000E+00 0.  1.
         14    1    5    5    0    0 -0.12285872622E+02 -0.21892337158E+02  0.88059864930E+03  0.88095641109E+03  0.00000000000E+00 0. -1.
         11    1    3    3    0    0 -0.61816877739E+02 -0.41078100589E+02 -0.81191907895E+03  0.81530443853E+03  0.00000000000E+00 0. -1.
        -12    1    3    3    0    0 -0.18066549764E+02  0.18193307523E+02 -0.11301908604E+03  0.11589094213E+03  0.00000000000E+00 0.  1.
          5    1    4    4  501    0  0.93514956399E+02  0.10314788210E+03 -0.72119098155E-02  0.13929108049E+03  0.41800000000E+01 0.  1.
         -5    1    4    4    0  501 -0.18516846741E+02 -0.20494979887E+02  0.53034747560E+01  0.28434434376E+02  0.41800000000E+01 0.  1.
</event>
<event>
11    1  0.8328696E-009  0.1276422E+03  0.7561462E-02  0.1122200E+00
         22   -1    0    0    0    0  0.00000000000E+00  0.00000000000E+00  0.18813089151E+03  0.18813089151E+03  0.00000000000E+00 0.  1.
         22   -1    0    0    0    0 -0.00000000000E+00 -0.00000000000E+00 -0.12812414196E+04  0.12812414196E+04  0.00000000000E+00 0. -1.
         24    2    1    2    0    0 -0.10736547601E+02  0.21577234517E+02 -0.11747826423E+04  0.11788830008E+04  0.95236665893E+02 0.  0.
         25    2    1    2    0    0 -0.18445014098E+00 -0.68428300608E+02 -0.29288673142E+02  0.14556236510E+03  0.12509240350E+03 0.  0.
        -24    2    1    2    0    0  0.10920997742E+02  0.46851066091E+02  0.11096078736E+03  0.14492694516E+03  0.79857576442E+02 0.  0.
        -11    1    3    3    0    0 -0.10000564686E+02 -0.14726805909E+01 -0.11259392046E+02  0.15131225707E+02  0.00000000000E+00 0.  1.
         12    1    3    3    0    0 -0.73598291556E+00  0.23049915108E+02 -0.11635232502E+04  0.11637517751E+04  0.00000000000E+00 0. -1.
         13    1    5    5    0    0  0.66656895540E-01 -0.21939988614E+02  0.39242030984E+02  0.44958920575E+02  0.00000000000E+00 0. -1.
        -14    1    5    5    0    0  0.10854340847E+02  0.68791054704E+02  0.71718756381E+02  0.99968024585E+02  0.00000000000E+00 0.  1.
          5    1    4    4  501    0  0.32751538096E+02  0.58687925700E+01 -0.51274564785E+02  0.61267114897E+02  0.41800000000E+01 0. -1.
         -5    1    4    4    0  501 -0.32935988237E+02 -0.74297093178E+02  0.21985891643E+02  0.84295250205E+02  0.41800000000E+01 0. -1.
</event>
<event>
11    1  0.8328696E-009  0.1828432E+03  0.7561462E-02  0.1067366E+00
         22   -1    0    0    0    0  0.00000000000E+00  0.00000000000E+00  0.23658290275E+03  0.23658290275E+03  0.00000000000E+00 0. -1.
         22   -1    0    0    0    0 -0.00000000000E+00 -0.00000000000E+00 -0.80292004799E+03  0.80292004799E+03  0.00000000000E+00 0.  1.
        -24    2    1    2    0    0 -0.12127796509E+03  0.29910523797E+02 -0.58700219800E+03  0.60555855809E+03  0.80787391181E+02 0.  0.
         25    2    1    2    0    0  0.20849731104E+03 -0.10394502717E+03 -0.63826241988E+02  0.27202348374E+03  0.12508912483E+03 0.  0.
         24    2    1    2    0    0 -0.87219345951E+02  0.74034503376E+02  0.84491294743E+02  0.16192090891E+03  0.77403358169E+02 0.  0.
        -13    1    5    5    0    0 -0.34352459941E+02 -0.12638868335E+02  0.22129261700E+02  0.42773084062E+02  0.00000000000E+00 0.  1.
         14    1    5    5    0    0 -0.52866886010E+02  0.86673371711E+02  0.62362033043E+02  0.11914782485E+03  0.00000000000E+00 0. -1.
         11    1    3    3    0    0 -0.18473743790E+02  0.11461823335E+01 -0.15414022756E+02  0.24087030557E+02  0.00000000000E+00 0. -1.
        -12    1    3    3    0    0 -0.10280422130E+03  0.28764341464E+02 -0.57158817524E+03  0.58147152753E+03  0.00000000000E+00 0.  1.
          5    1    4    4  501    0  0.22109098639E+02 -0.49566577114E+02  0.23249751435E+02  0.59191901061E+02  0.41800000000E+01 0. -1.
         -5    1    4    4    0  501  0.18638821240E+03 -0.54378450060E+02 -0.87075993423E+02  0.21283158267E+03  0.41800000000E+01 0. -1.
</event>
<event>
11    1  0.8328696E-009  0.1536883E+03  0.7561462E-02  0.1093169E+00
         22   -1    0    0    0    0  0.00000000000E+00  0.00000000000E+00  0.44865789030E+03  0.44865789030E+03  0.00000000000E+00 0.  1.
         22   -1    0    0    0    0 -0.00000000000E+00 -0.00000000000E+00 -0.15113063196E+04  0.15113063196E+04  0.00000000000E+00 0.  1.
         24    2    1    2    0    0 -0.87619771557E+02 -0.10287955551E+02 -0.13990452669E+04  0.14041372643E+04  0.80565077011E+02 0.  0.
         25    2    1    2    0    0  0.11735174475E+03  0.81957050949E+02 -0.11390135748E+02  0.19043549325E+03  0.12509017427E+03 0.  0.
        -24    2    1    2    0    0 -0.29731973194E+02 -0.71669095399E+02  0.34778697336E+03  0.36539145239E+03  0.80837399611E+02 0.  0.
        -13    1    3    3    0    0 -0.46667467964E+02  0.76551552186E+01 -0.11589492516E+04  0.11599137130E+04  0.00000000000E+00 0.  1.
         14    1    3    3    0    0 -0.40952303593E+02 -0.17943110769E+02 -0.24009601535E+03  0.24422355124E+03  0.00000000000E+00 0. -1.
         13    1    5    5    0    0  0.23349225513E+02 -0.37259137195E+02  0.19746562588E+03  0.20230200948E+03  0.00000000000E+00 0. -1.
        -14    1    5    5    0    0 -0.53081198707E+02 -0.34409958203E+02  0.15032134748E+03  0.16308944291E+03  0.00000000000E+00 0.  1.
          5    1    4    4  501    0  0.72773023276E+02 -0.18271031803E+02 -0.26377292525E+02  0.79642811859E+02  0.41800000000E+01 0. -1.
         -5    1    4    4    0  501  0.44578721475E+02  0.10022808275E+03  0.14987156776E+02  0.11079268139E+03  0.41800000000E+01 0. -1.
</event>
<event>
11    1  0.8328696E-009  0.1431101E+03  0.7561462E-02  0.1104134E+00
         22   -1    0    0    0    0  0.00000000000E+00  0.00000000000E+00  0.12213564250E+04  0.12213564250E+04  0.00000000000E+00 0. -1.
         22   -1    0    0    0    0 -0.00000000000E+00 -0.00000000000E+00 -0.20603084891E+03  0.20603084891E+03  0.00000000000E+00 0. -1.
        -24    2    1    2    0    0  0.72907690850E+02 -0.42537503435E+01 -0.15400588956E+03  0.18904490077E+03  0.81771234012E+02 0.  0.
         25    2    1    2    0    0 -0.42872063731E+02 -0.19710865915E+01  0.10200703239E+03  0.16701053512E+03  0.12508071455E+03 0.  0.
         24    2    1    2    0    0 -0.30035627119E+02  0.62248369350E+01  0.10673244333E+04  0.10713318380E+04  0.87347431740E+02 0.  0.
        -13    1    5    5    0    0 -0.24634446245E+02 -0.86535151816E+01  0.85918306694E+02  0.89798077329E+02  0.00000000000E+00 0.  1.
         14    1    5    5    0    0 -0.54011808739E+01  0.14878352117E+02  0.98140612656E+03  0.98153376068E+03  0.00000000000E+00 0. -1.
         11    1    3    3    0    0  0.84599535607E+02 -0.17906398215E+02 -0.14527053017E+03  0.16905989311E+03  0.00000000000E+00 0. -1.
        -12    1    3    3    0    0 -0.11691844757E+02  0.13652647871E+02 -0.87353593940E+01  0.19985007667E+02  0.00000000000E+00 0.  1.
          5    1    4    4  501    0  0.29598674823E+01 -0.34560032100E+02 -0.14302084074E+02  0.37751538288E+02  0.41800000000E+01 0. -1.
         -5    1    4    4    0  501 -0.45831931213E+02  0.32588945509E+02  0.11630911647E+03  0.12925899683E+03  0.41800000000E+01 0. -1.
</event>
<event>
11    1  0.8328696E-009  0.1489775E+03  0.7561462E-02  0.1097928E+00
         22   -1    0    0    0    0  0.00000000000E+00  0.00000000000E+00  0.10701710489E+04  0.10701710489E+04  0.00000000000E+00 0. -1.
         22   -1    0    0    0    0 -0.00000000000E+00 -0.00000000000E+00 -0.17488321060E+03  0.17488321060E+03  0.00000000000E+00 0. -1.
         24    2    1    2    0    0 -0.12740253868E+02  0.75081683147E+02 -0.73285197128E+02  0.13317613214E+03  0.81028321224E+02 0.  0.
         25    2    1    2    0    0  0.37300557143E+02 -0.89466833687E+02  0.20008594642E+02  0.15950887465E+03  0.12508833415E+03 0.  0.
        -24    2    1    2    0    0 -0.24560303274E+02  0.14385150540E+02  0.94856444078E+03  0.95236925270E+03  0.80140839245E+02 0.  0.
        -13    1    3    3    0    0  0.27984135567E+02  0.41836220274E+02 -0.10729675323E+02  0.51463648363E+02  0.00000000000E+00 0.  1.
         14    1    3    3    0    0 -0.40724389435E+02  0.33245462873E+02 -0.62555521805E+02  0.81712483776E+02  0.00000000000E+00 0. -1.
         13    1    5    5    0    0 -0.45516966425E+02  0.10650601551E+01  0.31034607851E+03  0.31366800448E+03  0.00000000000E+00 0. -1.
        -14    1    5    5    0    0  0.20956663151E+02  0.13320090385E+02  0.63821836227E+03  0.63870124822E+03  0.00000000000E+00 0.  1.
          5    1    4    4  501    0  0.19505054937E+02 -0.79799895383E+02 -0.43266561098E+02  0.92940508824E+02  0.41800000000E+01 0. -1.
         -5    1    4    4    0  501  0.17795502206E+02 -0.96669383036E+01  0.63275155740E+02  0.66568365827E+02  0.41800000000E+01 0. -1.
</event>
<event>
11    1  0.8328696E-009  0.1503330E+03  0.7561462E-02  0.1096539E+00
         22   -1    0    0    0    0  0.00000000000E+00  0.00000000000E+00  0.30663165872E+03  0.30663165872E+03  0.00000000000E+00 0. -1.
         22   -1    0    0    0    0 -0.00000000000E+00 -0.00000000000E+00 -0.12631217363E+03  0.12631217363E+03  0.00000000000E+00 0.  1.
         24    2    1    2    0    0  0.25976390301E+02 -0.10389233933E+02  0.61254878783E+01  0.84965778025E+02  0.79993454725E+02 0.  0.
         25    2    1    2    0    0 -0.97661588674E+02  0.38938036181E+02  0.31207004069E+02  0.16635996800E+03  0.12509118788E+03 0.  0.
        -24    2    1    2    0    0  0.71685198373E+02 -0.28548802248E+02  0.14298699315E+03  0.18161808633E+03  0.81154465659E+02 0.  0.
        -11    1    3    3    0    0 -0.46248923744E+00 -0.27235609013E+02 -0.27698008966E+02  0.38848062954E+02  0.00000000000E+00 0.  1.
         12    1    3    3    0    0  0.26438879539E+02  0.16846375080E+02  0.33823496844E+02  0.46117715071E+02  0.00000000000E+00 0. -1.
         11    1    5    5    0    0  0.26778958687E+01 -0.28525919744E+02  0.90474120108E+02  0.94902400564E+02  0.00000000000E+00 0. -1.
        -12    1    5    5    0    0  0.69007302504E+02 -0.22882504050E-01  0.52512873038E+02  0.86715685762E+02  0.00000000000E+00 0.  1.
          5    1    4    4  501    0  0.10184926355E+02  0.30234083146E+02 -0.28262129723E+02  0.42825843658E+02  0.41800000000E+01 0.  1.
         -5    1    4    4    0  501 -0.10784651503E+03  0.87039530345E+01  0.59469133792E+02  0.12353412434E+03  0.41800000000E+01 0.  1.
</event>
<event>
11    1  0.8328696E-009  0.2099158E+03  0.7561462E-02  0.1047725E+00
         22   -1    0    0    0    0  0.00000000000E+00  0.00000000000E+00  0.99477108981E+02  0.99477108981E+02  0.00000000000E+00 0. -1.
         22   -1    0    0    0    0 -0.00000000000E+00 -0.00000000000E+00 -0.89903911235E+03  0.89903911235E+03  0.00000000000E+00 0.  1.
         24    2    1    2    0    0  0.21735357064E+02 -0.15260628636E+02 -0.37420207526E+03  0.38413803003E+03  0.82640912708E+02 0.  0.
         25    2    1    2    0    0  0.10730851065E+03  0.12619572035E+03 -0.35350099766E+03  0.40993937720E+03  0.12508741478E+03 0.  0.
        -24    2    1    2    0    0 -0.12904386772E+03 -0.11093509172E+03 -0.71858930452E+02  0.20443881411E+03  0.87593427030E+02 0.  0.
        -13    1    3    3    0    0 -0.23108515241E+02  0.11799077352E+01 -0.25000470426E+03  0.25107319214E+03  0.00000000000E+00 0.  1.
         14    1    3    3    0    0  0.44843872305E+02 -0.16440536371E+02 -0.12419737100E+03  0.13306483789E+03  0.00000000000E+00 0. -1.
         13    1    5    5    0    0 -0.80345621216E+02 -0.61145696080E+02  0.45285078973E+01  0.10106790975E+03  0.00000000000E+00 0. -1.
        -14    1    5    5    0    0 -0.48698246501E+02 -0.49789395636E+02 -0.76387438349E+02  0.10337090436E+03  0.00000000000E+00 0.  1.
          5    1    4    4  501    0  0.97581628737E+02  0.53085647534E+02 -0.11368422204E+03  0.15900262571E+03  0.41800000000E+01 0. -1.
         -5    1    4    4    0  501  0.97268819158E+01  0.73110072818E+02 -0.23981677562E+03  0.25093675149E+03  0.41800000000E+01 0. -1.
</event>
<event>
11    1  0.8328696E-009  0.1354768E+03  0.7561462E-02  0.1112717E+00
         22   -1    0    0    0    0  0.00000000000E+00  0.00000000000E+00  0.13719943259E+04  0.13719943259E+04  0.00000000000E+00 0. -1.
         22   -1    0    0    0    0 -0.00000000000E+00 -0.00000000000E+00 -0.26911449082E+03  0.26911449082E+03  0.00000000000E+00 0. -1.
         24    2    1    2    0    0  0.40702398745E+02  0.33292016593E+02 -0.25041716847E+03  0.26802875061E+03  0.79784768328E+02 0.  0.
         25    2    1    2    0    0 -0.14317727591E+02 -0.88853603976E+01  0.54920519387E+03  0.56352256323E+03  0.12508951733E+03 0.  0.
        -24    2    1    2    0    0 -0.26384671154E+02 -0.24406656195E+02  0.80409180966E+03  0.80955750285E+03  0.86763335153E+02 0.  0.
        -13    1    3    3    0    0  0.26105300472E+02  0.38579093983E+02 -0.55340847030E+02  0.72335624385E+02  0.00000000000E+00 0.  1.
         14    1    3    3    0    0  0.14597098273E+02 -0.52870773897E+01 -0.19507632144E+03  0.19569312622E+03  0.00000000000E+00 0. -1.
         11    1    5    5    0    0  0.98834548490E+00 -0.84662438195E+00  0.68747493774E+03  0.68747616949E+03  0.00000000000E+00 0. -1.
        -12    1    5    5    0    0 -0.27373016639E+02 -0.23560031813E+02  0.11661687192E+03  0.12208133336E+03  0.00000000000E+00 0.  1.
          5    1    4    4  501    0 -0.65015925158E+02 -0.28302216074E+02  0.28031976587E+03  0.28917940711E+03  0.41800000000E+01 0.  1.
         -5    1    4    4    0  501  0.50698197566E+02  0.19416855677E+02  0.26888542800E+03  0.27434315612E+03  0.41800000000E+01 0.  1.
</event>
<event>
11    1  0.8328696E-009  0.1488192E+03  0.7561462E-02  0.1098091E+00
         22   -1    0    0    0    0  0.00000000000E+00  0.00000000000E+00  0.19429264467E+04  0.19429264467E+04  0.00000000000E+00 0. -1.
         22   -1    0    0    0    0 -0.00000000000E+00 -0.00000000000E+00 -0.15071782604E+03  0.15071782604E+03  0.00000000000E+00 0.  1.
        -24    2    1    2    0    0 -0.21883488315E+02 -0.77121297576E+02 -0.11296799019E+03  0.16373952857E+03  0.87305697451E+02 0.  0.
         25    2    1    2    0    0 -0.37950141928E+02  0.10665663432E+03  0.69285931258E+03  0.71310416097E+03  0.12509063291E+03 0.  0.
         24    2    1    2    0    0  0.59833630243E+02 -0.29535336748E+02  0.12123172983E+04  0.12168005832E+04  0.80237324128E+02 0.  0.
        -11    1    5    5    0    0 -0.11478036874E+02  0.46251713252E+01  0.49212723735E+03  0.49228280011E+03  0.00000000000E+00 0.  1.
         12    1    5    5    0    0  0.71311667117E+02 -0.34160508073E+02  0.72019006092E+03  0.72451778310E+03  0.00000000000E+00 0. -1.
         13    1    3    3    0    0  0.26304591079E+02 -0.17519866043E+01 -0.12374183208E+02  0.29122523568E+02  0.00000000000E+00 0. -1.
        -14    1    3    3    0    0 -0.48188079394E+02 -0.75369310971E+02 -0.10059380698E+03  0.13461700500E+03  0.00000000000E+00 0.  1.
          5    1    4    4  501    0 -0.36136878713E+02  0.11447302628E+03  0.34836325765E+03  0.36848932065E+03  0.41800000000E+01 0. -1.
         -5    1    4    4    0  501 -0.18132632149E+01 -0.78163919611E+01  0.34449605493E+03  0.34461484032E+03  0.41800000000E+01 0. -1.
</event>
<event>
11    1  0.8328696E-009  0.1504687E+03  0.7561462E-02  0.1096401E+00
         22   -1    0    0    0    0  0.00000000000E+00  0.00000000000E+00  0.14250744572E+04  0.14250744572E+04  0.00000000000E+00 0. -1.
         22   -1    0    0    0    0 -0.00000000000E+00 -0.00000000000E+00 -0.34089699670E+03  0.34089699670E+03  0.00000000000E+00 0. -1.
         24    2    1    2    0    0 -0.42400252036E+02  0.18028033302E+02 -0.31770306365E+03  0.33081687585E+03  0.79886027188E+02 0.  0.
         25    2    1    2    0    0  0.69849760969E+02 -0.89132212691E+02  0.53603123666E+03  0.56196242166E+03  0.12509490892E+03 0.  0.
        -24    2    1    2    0    0 -0.27449508932E+02  0.71104179389E+02  0.86584928746E+03  0.87319215635E+03  0.83428253362E+02 0.  0.
        -13    1    3    3    0    0  0.15305268938E+02 -0.17511408926E+02 -0.10637581130E+03  0.10888853902E+03  0.00000000000E+00 0.  1.
         14    1    3    3    0    0 -0.57705520975E+02  0.35539442228E+02 -0.21132725235E+03  0.22192833683E+03  0.00000000000E+00 0. -1.
         13    1    5    5    0    0 -0.44659551202E+01  0.58615044513E+02  0.80256462964E+03  0.80471464069E+03  0.00000000000E+00 0. -1.
        -14    1    5    5    0    0 -0.22983553812E+02  0.12489134876E+02  0.63284657819E+02  0.68477515660E+02  0.00000000000E+00 0.  1.
          5    1    4    4  501    0 -0.26641666868E+02 -0.34032056300E+02  0.66327726756E+02  0.79276724240E+02  0.41800000000E+01 0. -1.
         -5    1    4    4    0  501  0.96491427837E+02 -0.55100156391E+02  0.46970350990E+03  0.48268569742E+03  0.41800000000E+01 0. -1.
</event>
<event>
11    1  0.8328696E-009  0.1491561E+03  0.7561462E-02  0.1097744E+00
         22   -1    0    0    0    0  0.00000000000E+00  0.00000000000E+00  0.27484632199E+03  0.27484632199E+03  0.00000000000E+00 0.  1.
         22   -1    0    0    0    0 -0.00000000000E+00 -0.00000000000E+00 -0.27906108235E+04  0.27906108235E+04  0.00000000000E+00 0.  1.
        -24    2    1    2    0    0 -0.60449298075E+02  0.55347064245E+02 -0.27118736832E+04  0.27143151334E+04  0.80810609576E+02 0.  0.
         25    2    1    2    0    0  0.32456272235E+02 -0.28915897294E+02 -0.42099236820E+01  0.13249417624E+03  0.12508974600E+03 0.  0.
         24    2    1    2    0    0  0.27993025840E+02 -0.26431166951E+02  0.20031910532E+03  0.21864783591E+03  0.78720493582E+02 0.  0.
        -13    1    5    5    0    0 -0.65665282213E+01 -0.40369226522E+02  0.15324750496E+03  0.15861144826E+03  0.00000000000E+00 0.  1.
         14    1    5    5    0    0  0.34559554061E+02  0.13938059571E+02  0.47071600359E+02  0.60036387648E+02  0.00000000000E+00 0. -1.
         13    1    3    3    0    0 -0.45508883958E+02 -0.51481708279E+01 -0.71237086583E+03  0.71384158794E+03  0.00000000000E+00 0. -1.
        -14    1    3    3    0    0 -0.14940414118E+02  0.60495235073E+02 -0.19995028173E+04  0.20004735454E+04  0.00000000000E+00 0.  1.
          5    1    4    4  501    0 -0.38574357373E+02  0.67879651881E+01  0.26164355110E+02  0.47287454958E+02  0.41800000000E+01 0. -1.
         -5    1    4    4    0  501  0.71030629608E+02 -0.35703862482E+02 -0.30374278792E+02  0.85206721277E+02  0.41800000000E+01 0. -1.
</event>
<event>
11    1  0.8328696E-009  0.1978458E+03  0.7561462E-02  0.1056058E+00
         22   -1    0    0    0    0  0.00000000000E+00  0.00000000000E+00  0.72188317914E+03  0.72188317914E+03  0.00000000000E+00 0.  1.
         22   -1    0    0    0    0 -0.00000000000E+00 -0.00000000000E+00 -0.76013768919E+03  0.76013768919E+03  0.00000000000E+00 0. -1.
        -24    2    1    2    0    0 -0.14848349657E+03  0.25671255283E+02 -0.56970586171E+03  0.59627175937E+03  0.90933382531E+02 0.  0.
         25    2    1    2    0    0  0.15713755898E+03 -0.59419831866E+02 -0.11244835585E+03  0.23772719848E+03  0.12508660721E+03 0.  0.
         24    2    1    2    0    0 -0.86540624101E+01  0.33748576583E+02  0.64389970751E+03  0.64802191047E+03  0.64122569326E+02 0.  0.
        -13    1    5    5    0    0  0.21802602144E+02  0.34715422794E+02  0.30251517195E+03  0.30528010630E+03  0.00000000000E+00 0.  1.
         14    1    5    5    0    0 -0.30456664555E+02 -0.96684621105E+00  0.34138453556E+03  0.34274180417E+03  0.00000000000E+00 0. -1.
         13    1    3    3    0    0 -0.30461566324E+02  0.46373631170E+02 -0.15657025461E+03  0.16611040100E+03  0.00000000000E+00 0. -1.
        -14    1    3    3    0    0 -0.11802193025E+03 -0.20702375888E+02 -0.41313560710E+03  0.43016135838E+03  0.00000000000E+00 0.  1.
          5    1    4    4  501    0  0.16517471551E+03 -0.70438562487E+02 -0.12491559019E+03  0.21878220860E+03  0.41800000000E+01 0. -1.
         -5    1    4    4    0  501 -0.80371565242E+01  0.11018730622E+02  0.12467234342E+02  0.18944989882E+02  0.41800000000E+01 0. -1.
</event>
<event>
11    1  0.8328696E-009  0.1550993E+03  0.7561462E-02  0.1091779E+00
         22   -1    0    0    0    0  0.00000000000E+00  0.00000000000E+00  0.98849850930E+03  0.98849850930E+03  0.00000000000E+00 0. -1.
         22   -1    0    0    0    0 -0.00000000000E+00 -0.00000000000E+00 -0.41970002006E+03  0.41970002006E+03  0.00000000000E+00 0. -1.
         24    2    1    2    0    0  0.46568284200E+02  0.93495341622E+02 -0.32677194147E+03  0.35245286027E+03  0.80827798358E+02 0.  0.
         25    2    1    2    0    0  0.16772409889E+02 -0.44476804655E+02 -0.17901982349E+02  0.13501045209E+03  0.12509133189E+03 0.  0.
        -24    2    1    2    0    0 -0.63340694089E+02 -0.49018536967E+02  0.91347241306E+03  0.92073521700E+03  0.83106136415E+02 0.  0.
        -11    1    3    3    0    0 -0.21309281986E+02  0.36358534067E+02 -0.84059382755E+02  0.94031953757E+02  0.00000000000E+00 0.  1.
         12    1    3    3    0    0  0.67877566186E+02  0.57136807555E+02 -0.24271255871E+03  0.25842090652E+03  0.00000000000E+00 0. -1.
         13    1    5    5    0    0 -0.45432838123E+01  0.10843593960E+02  0.42111460640E+03  0.42127869241E+03  0.00000000000E+00 0. -1.
        -14    1    5    5    0    0 -0.58797410277E+02 -0.59862130927E+02  0.49235780666E+03  0.49945652459E+03  0.00000000000E+00 0.  1.
          5    1    4    4  501    0  0.31190403669E+01  0.25923948504E+02 -0.49821175934E+02  0.56403913785E+02  0.41800000000E+01 0. -1.
         -5    1    4    4    0  501  0.13653369522E+02 -0.70400753159E+02  0.31919193584E+02  0.78606538301E+02  0.41800000000E+01 0. -1.
</event>
<event>
11    1  0.8328696E-009  0.1390474E+03  0.7561462E-02  0.1108627E+00
         22   -1    0    0    0    0  0.00000000000E+00  0.00000000000E+00  0.19851731978E+03  0.19851731978E+03  0.00000000000E+00 0. -1.
         22   -1    0    0    0    0 -0.00000000000E+00 -0.00000000000E+00 -0.63749311289E+03  0.63749311289E+03  0.00000000000E+00 0. -1.
        -24    2    1    2    0    0  0.30281143369E+02 -0.10308124899E+02 -0.48535637869E+03  0.49294964477E+03  0.80033323420E+02 0.  0.
         25    2    1    2    0    0  0.33212189127E+02  0.17135864228E+02 -0.99959029329E+02  0.16442563808E+03  0.12508915047E+03 0.  0.
         24    2    1    2    0    0 -0.63493332496E+02 -0.68277393290E+01  0.14633961491E+03  0.17863514982E+03  0.80107506276E+02 0.  0.
        -13    1    5    5    0    0  0.13544119360E+02  0.12981311819E+02  0.11274442772E+02  0.21887683422E+02  0.00000000000E+00 0.  1.
         14    1    5    5    0    0 -0.77037451856E+02 -0.19809051148E+02  0.13506517214E+03  0.15674746640E+03  0.00000000000E+00 0. -1.
         11    1    3    3    0    0  0.34781637521E+02 -0.23622249938E+02 -0.11700030616E+03  0.12432555909E+03  0.00000000000E+00 0. -1.
        -12    1    3    3    0    0 -0.45004941525E+01  0.13314125039E+02 -0.36835607253E+03  0.36862408568E+03  0.00000000000E+00 0.  1.
          5    1    4    4  501    0 -0.74127011578E+01 -0.43068017854E+02 -0.41063587848E+01  0.44092367625E+02  0.41800000000E+01 0.  1.
         -5    1    4    4    0  501  0.40624890285E+02  0.60203882082E+02 -0.95852670544E+02  0.12033327046E+03  0.41800000000E+01 0.  1.
</event>
<event>
11    1  0.8328696E-009  0.1280308E+03  0.7561462E-02  0.1121712E+00
         22   -1    0    0    0    0  0.00000000000E+00  0.00000000000E+00  0.15458783646E+04  0.15458783646E+04  0.00000000000E+00 0.  1.
         22   -1    0    0    0    0 -0.00000000000E+00 -0.00000000000E+00 -0.32184827946E+03  0.32184827946E+03  0.00000000000E+00 0.  1.
         24    2    1    2    0    0 -0.24177446371E+02  0.14319279666E+02 -0.29823618972E+03  0.31173300759E+03  0.86273127203E+02 0.  0.
         25    2    1    2    0    0  0.54276078564E+01  0.18056016577E+02  0.24481920524E+03  0.27557157008E+03  0.12509104013E+03 0.  0.
        -24    2    1    2    0    0  0.18749838514E+02 -0.32375296243E+02  0.12774470696E+04  0.12804220664E+04  0.78803148287E+02 0.  0.
        -11    1    3    3    0    0 -0.21412326660E+02  0.38159246910E+01 -0.29994989789E+03  0.30073741081E+03  0.00000000000E+00 0.  1.
         12    1    3    3    0    0 -0.27651197105E+01  0.10503354975E+02  0.17137081756E+01  0.10995596775E+02  0.00000000000E+00 0. -1.
         11    1    5    5    0    0 -0.15325351582E+02  0.13668030314E+02  0.66113575888E+03  0.66145458886E+03  0.00000000000E+00 0. -1.
        -12    1    5    5    0    0  0.34075190096E+02 -0.46043326557E+02  0.61631131072E+03  0.61896747751E+03  0.00000000000E+00 0.  1.
          5    1    4    4  501    0  0.23311063971E+01  0.72072540061E+02  0.13843838160E+03  0.15614910499E+03  0.41800000000E+01 0. -1.
         -5    1    4    4    0  501  0.30965014593E+01 -0.54016523484E+02  0.10638082364E+03  0.11942246509E+03  0.41800000000E+01 0. -1.
</event>
<event>
11    1  0.8328696E-009  0.1921532E+03  0.7561462E-02  0.1060215E+00
         22   -1    0    0    0    0  0.00000000000E+00  0.00000000000E+00  0.10544167986E+04  0.10544167986E+04  0.00000000000E+00 0.  1.
         22   -1    0    0    0    0 -0.00000000000E+00 -0.00000000000E+00 -0.19303474918E+03  0.19303474918E+03  0.00000000000E+00 0. -1.
         24    2    1    2    0    0 -0.14019479306E+03 -0.45571297431E+02 -0.10776196678E+03  0.19922370717E+03  0.79662543675E+02 0.  0.
         25    2    1    2    0    0  0.12352417584E+03  0.65002176380E+02  0.19843109729E+03  0.27295494743E+03  0.12508396380E+03 0.  0.
        -24    2    1    2    0    0  0.16670617213E+02 -0.19430878949E+02  0.77071291896E+03  0.77527289323E+03  0.79963660443E+02 0.  0.
        -11    1    3    3    0    0 -0.85779345775E+02  0.26230424775E+01 -0.25672831894E+02  0.89577177958E+02  0.00000000000E+00 0.  1.
         12    1    3    3    0    0 -0.54415447281E+02 -0.48194339909E+02 -0.82089134887E+02  0.10964652921E+03  0.00000000000E+00 0. -1.
         13    1    5    5    0    0  0.16844379107E+02 -0.33486718263E+02  0.15751104627E+03  0.16190992281E+03  0.00000000000E+00 0. -1.
        -14    1    5    5    0    0 -0.17376189400E+00  0.14055839314E+02  0.61320187269E+03  0.61336297042E+03  0.00000000000E+00 0.  1.
          5    1    4    4  501    0  0.14229660194E+03  0.78947968744E+02  0.16355912174E+03  0.23075996923E+03  0.41800000000E+01 0.  1.
         -5    1    4    4    0  501 -0.18772426100E+02 -0.13945792363E+02  0.34871975547E+02  0.42194978195E+02  0.41800000000E+01 0.  1.
</event>
<event>
11    1  0.8328696E-009  0.1968373E+03  0.7561462E-02  0.1056783E+00
         22   -1    0    0    0    0  0.00000000000E+00  0.00000000000E+00  0.35585841407E+03  0.35585841407E+03  0.00000000000E+00 0. -1.
         22   -1    0    0    0    0 -0.00000000000E+00 -0.00000000000E+00 -0.19121350182E+04  0.19121350182E+04  0.00000000000E+00 0.  1.
         24    2    1    2    0    0 -0.50218293225E+02  0.14037058352E+03 -0.16469669169E+04  0.16556447231E+04  0.80210013386E+02 0.  0.
         25    2    1    2    0    0  0.78997026289E+02 -0.16804336935E+03 -0.20491921701E+03  0.30350843512E+03  0.12508549295E+03 0.  0.
        -24    2    1    2    0    0 -0.28778733064E+02  0.27672785824E+02  0.29560952979E+03  0.30884027399E+03  0.80020760939E+02 0.  0.
        -11    1    3    3    0    0 -0.56512722005E+02  0.78324157294E+02 -0.12587972335E+04  0.12624970639E+04  0.00000000000E+00 0.  1.
         12    1    3    3    0    0  0.62944287801E+01  0.62046426230E+02 -0.38816968339E+03  0.39314765921E+03  0.00000000000E+00 0. -1.
         13    1    5    5    0    0 -0.32332204702E+01  0.31130595934E+02  0.27227875996E+03  0.27407168924E+03  0.00000000000E+00 0. -1.
        -14    1    5    5    0    0 -0.25545512593E+02 -0.34578101096E+01  0.23330769832E+02  0.34768584748E+02  0.00000000000E+00 0.  1.
          5    1    4    4  501    0  0.33858147679E+02 -0.20196778291E+02  0.79139281275E+01  0.40427548479E+02  0.41800000000E+01 0. -1.
         -5    1    4    4    0  501  0.45138878610E+02 -0.14784659106E+03 -0.21283314513E+03  0.26308088664E+03  0.41800000000E+01 0. -1.
</event>
<event>
11    1  0.8328696E-009  0.2015712E+03  0.7561462E-02  0.1053418E+00
         22   -1    0    0    0    0  0.00000000000E+00  0.00000000000E+00  0.58784435477E+03  0.58784435477E+03  0.00000000000E+00 0.  1.
         22   -1    0    0    0    0 -0.00000000000E+00 -0.00000000000E+00 -0.46774480312E+03  0.46774480312E+03  0.00000000000E+00 0. -1.
        -24    2    1    2    0    0  0.59990815752E+02 -0.64504891276E+01 -0.31778023206E+03  0.33326924010E+03  0.80272060697E+02 0.  0.
         25    2    1    2    0    0 -0.17602954276E+03  0.10505311279E+03 -0.11304153233E+02  0.24041110412E+03  0.12508860330E+03 0.  0.
         24    2    1    2    0    0  0.11603872701E+03 -0.98602623660E+02  0.44918393694E+03  0.48190881366E+03  0.85337166134E+02 0.  0.
        -11    1    5    5    0    0  0.61468695450E+02 -0.13442711135E+01  0.13007571927E+03  0.14387459932E+03  0.00000000000E+00 0.  1.
         12    1    5    5    0    0  0.54570031556E+02 -0.97258352546E+02  0.31910821766E+03  0.33803421434E+03  0.00000000000E+00 0. -1.
         13    1    3    3    0    0  0.43444452028E+02  0.13968940348E+02 -0.29493986464E+03  0.29844945211E+03  0.00000000000E+00 0. -1.
        -14    1    3    3    0    0  0.16546363724E+02 -0.20419429475E+02 -0.22840367412E+02  0.34819787996E+02  0.00000000000E+00 0.  1.
          5    1    4    4  501    0 -0.21196099094E+02  0.80402796210E+02 -0.62859676613E+01  0.83491736385E+02  0.41800000000E+01 0.  1.
         -5    1    4    4    0  501 -0.15483344366E+03  0.24650316578E+02 -0.50181855716E+01  0.15691936774E+03  0.41800000000E+01 0.  1.
</event>
<event>
11    1  0.8328696E-009  0.1730502E+03  0.7561462E-02  0.1075407E+00
         22   -1    0    0    0    0  0.00000000000E+00  0.00000000000E+00  0.10147525287E+04  0.10147525287E+04  0.00000000000E+00 0.  1.
         22   -1    0    0    0    0 -0.00000000000E+00 -0.00000000000E+00 -0.10180289353E+04  0.10180289353E+04  0.00000000000E+00 0. -1.
         24    2    1    2    0    0 -0.73582081074E+02  0.27523271426E+02 -0.83594912862E+03  0.84333601547E+03  0.78948313556E+02 0.  0.
         25    2    1    2    0    0  0.17970078134E+03 -0.77212355147E+02 -0.95003491333E+02  0.25085620342E+03  0.12509617430E+03 0.  0.
        -24    2    1    2    0    0 -0.10611870027E+03  0.49689083720E+02  0.92767621339E+03  0.93858924517E+03  0.81464290818E+02 0.  0.
        -13    1    3    3    0    0 -0.69075390694E+02  0.46260659923E+01 -0.34746108403E+03  0.35429086215E+03  0.00000000000E+00 0.  1.
         14    1    3    3    0    0 -0.45066903800E+01  0.22897205434E+02 -0.48848804460E+03  0.48904515332E+03  0.00000000000E+00 0. -1.
         11    1    5    5    0    0 -0.28287321373E+01 -0.86090636787E+01  0.27974799942E+03  0.27989473178E+03  0.00000000000E+00 0. -1.
        -12    1    5    5    0    0 -0.10328996813E+03  0.58298147399E+02  0.64792821397E+03  0.65869451339E+03  0.00000000000E+00 0.  1.
          5    1    4    4  501    0  0.14591448428E+03 -0.19305794136E+02 -0.17480322233E+02  0.14827941353E+03  0.41800000000E+01 0.  1.
         -5    1    4    4    0  501  0.33786297062E+02 -0.57906561011E+02 -0.77523169101E+02  0.10257678989E+03  0.41800000000E+01 0.  1.
</event>
<event>
11    1  0.8328696E-009  0.1416557E+03  0.7561462E-02  0.1105724E+00
         22   -1    0    0    0    0  0.00000000000E+00  0.00000000000E+00  0.26770529913E+03  0.26770529913E+03  0.00000000000E+00 0. -1.
         22   -1    0    0    0    0 -0.00000000000E+00 -0.00000000000E+00 -0.53586546204E+03  0.53586546204E+03  0.00000000000E+00 0.  1.
        -24    2    1    2    0    0  0.62745985774E+02  0.58311887946E+02 -0.26893538010E+03  0.29341254989E+03  0.80170759987E+02 0.  0.
         25    2    1    2    0    0 -0.11946660583E+02 -0.41419954457E+02 -0.22688318442E+03  0.26264244027E+03  0.12508691671E+03 0.  0.
         24    2    1    2    0    0 -0.50799325191E+02 -0.16891933489E+02  0.22765840162E+03  0.24751577101E+03  0.81054304107E+02 0.  0.
        -13    1    5    5    0    0 -0.18677403533E+02  0.25399293965E+01  0.22278138244E+01  0.18980511018E+02  0.00000000000E+00 0.  1.
         14    1    5    5    0    0 -0.32121921658E+02 -0.19431862886E+02  0.22543058779E+03  0.22853525999E+03  0.00000000000E+00 0. -1.
         13    1    3    3    0    0 -0.97499466003E+01  0.30800913251E+02 -0.38381828758E+02  0.50168939541E+02  0.00000000000E+00 0. -1.
        -14    1    3    3    0    0  0.72495932374E+02  0.27510974695E+02 -0.23055355134E+03  0.24324361035E+03  0.00000000000E+00 0.  1.
          5    1    4    4  501    0  0.53657849610E+02 -0.78834237435E+00 -0.11087737824E+03  0.12325198463E+03  0.41800000000E+01 0. -1.
         -5    1    4    4    0  501 -0.65604510193E+02 -0.40631612083E+02 -0.11600580618E+03  0.13939045565E+03  0.41800000000E+01 0. -1.
</event>
<event>
11    1  0.8328696E-009  0.1479340E+03  0.7561462E-02  0.1099009E+00
         22   -1    0    0    0    0  0.00000000000E+00  0.00000000000E+00  0.21786287501E+03  0.21786287501E+03  0.00000000000E+00 0. -1.
         22   -1    0    0    0    0 -0.00000000000E+00 -0.00000000000E+00 -0.29720605152E+03  0.29720605152E+03  0.00000000000E+00 0. -1.
        -24    2    1    2    0    0 -0.34705416372E+02  0.73031995469E+02 -0.20415256765E+03  0.23382854711E+03  0.80370269845E+02 0.  0.
         25    2    1    2    0    0  0.77540382348E+02 -0.32537602659E+02  0.58942410352E+02  0.16183784981E+03  0.12508427324E+03 0.  0.
         24    2    1    2    0    0 -0.42834965977E+02 -0.40494392810E+02  0.65866980786E+02  0.11940252962E+03  0.80273748895E+02 0.  0.
        -11    1    5    5    0    0  0.16766022334E+02 -0.33251922721E+02  0.13117677274E+02  0.39482443270E+02  0.00000000000E+00 0.  1.
         12    1    5    5    0    0 -0.59600988310E+02 -0.72424700890E+01  0.52749303512E+02  0.79920086346E+02  0.00000000000E+00 0. -1.
         13    1    3    3    0    0  0.12068142246E+02  0.65527155702E+02 -0.12046640977E+03  0.13766482512E+03  0.00000000000E+00 0. -1.
        -14    1    3    3    0    0 -0.46773558617E+02  0.75048397673E+01 -0.83686157877E+02  0.96163721985E+02  0.00000000000E+00 0.  1.
          5    1    4    4  501    0  0.94785827615E+02 -0.30925458065E+02 -0.48996118729E+00  0.99792031421E+02  0.41800000000E+01 0.  1.
         -5    1    4    4    0  501 -0.17245445266E+02 -0.16121445942E+01  0.59432371539E+02  0.62045818388E+02  0.41800000000E+01 0.  1.
</event>
<event>
11    1  0.8328696E-009  0.1865968E+03  0.7561462E-02  0.1064428E+00
         22   -1    0    0    0    0  0.00000000000E+00  0.00000000000E+00  0.67534782537E+03  0.67534782537E+03  0.00000000000E+00 0. -1.
         22   -1    0    0    0    0 -0.00000000000E+00 -0.00000000000E+00 -0.31125961795E+03  0.31125961795E+03  0.00000000000E+00 0. -1.
        -24    2    1    2    0    0 -0.12669422148E+03  0.60203352426E+02 -0.25859088547E+03  0.30616846602E+03  0.84817534385E+02 0.  0.
         25    2    1    2    0    0  0.84326239439E+02 -0.83591071860E+02  0.31954129539E+03  0.36311647073E+03  0.12509416415E+03 0.  0.
         24    2    1    2    0    0  0.42367982039E+02  0.23387719434E+02  0.30313779751E+03  0.31732250657E+03  0.80368013381E+02 0.  0.
        -13    1    5    5    0    0  0.43759654908E+01 -0.28872990216E+02  0.94031647369E+02  0.98461918247E+02  0.00000000000E+00 0.  1.
         14    1    5    5    0    0  0.37992016548E+02  0.52260709650E+02  0.20910615014E+03  0.21886058832E+03  0.00000000000E+00 0. -1.
         13    1    3    3    0    0 -0.17539391551E+02  0.51247161688E+02 -0.93377732857E+02  0.10795046471E+03  0.00000000000E+00 0. -1.
        -14    1    3    3    0    0 -0.10915482993E+03  0.89561907383E+01 -0.16521315261E+03  0.19821800131E+03  0.00000000000E+00 0.  1.
          5    1    4    4  501    0  0.66725418786E+02 -0.91499977569E+02  0.12962305654E+03  0.17217472693E+03  0.41800000000E+01 0. -1.
         -5    1    4    4    0  501  0.17600820653E+02  0.79089057086E+01  0.18991823885E+03  0.19094174380E+03  0.41800000000E+01 0. -1.
</event>
<event>
11    1  0.8328696E-009  0.1413726E+03  0.7561462E-02  0.1106035E+00
         22   -1    0    0    0    0  0.00000000000E+00  0.00000000000E+00  0.73701533102E+03  0.73701533102E+03  0.00000000000E+00 0. -1.
         22   -1    0    0    0    0 -0.00000000000E+00 -0.00000000000E+00 -0.14084278039E+03  0.14084278039E+03  0.00000000000E+00 0.  1.
        -24    2    1    2    0    0  0.15642280403E+02 -0.58161547260E+02 -0.79361114829E+02  0.12847271860E+03  0.81114772778E+02 0.  0.
         25    2    1    2    0    0 -0.11018674737E+02  0.11982036015E+03  0.19753298644E+03  0.26295165759E+03  0.12508382628E+03 0.  0.
         24    2    1    2    0    0 -0.46236056658E+01 -0.61658812890E+02  0.47800067902E+03  0.48643373521E+03  0.65650153689E+02 0.  0.
        -11    1    5    5    0    0 -0.25803761877E+02 -0.14475943733E+01  0.16237575456E+03  0.16441963182E+03  0.00000000000E+00 0.  1.
         12    1    5    5    0    0  0.21180156211E+02 -0.60211218517E+02  0.31562492445E+03  0.32201410340E+03  0.00000000000E+00 0. -1.
         13    1    3    3    0    0  0.41732824286E+02 -0.55429387296E+01 -0.29188442090E+02  0.51228097215E+02  0.00000000000E+00 0. -1.
        -14    1    3    3    0    0 -0.26090543883E+02 -0.52618608531E+02 -0.50172672739E+02  0.77244621389E+02  0.00000000000E+00 0.  1.
          5    1    4    4  501    0 -0.20318560142E+02  0.13490743030E+03  0.20238160070E+03  0.24410785186E+03  0.41800000000E+01 0.  1.
         -5    1    4    4    0  501  0.92998854042E+01 -0.15087070147E+02 -0.48486142622E+01  0.18843805731E+02  0.41800000000E+01 0.  1.
</event>
<event>
11    1  0.8328696E-009  0.1654966E+03  0.7561462E-02  0.1082019E+00
         22   -1    0    0    0    0  0.00000000000E+00  0.00000000000E+00  0.11406448668E+03  0.11406448668E+03  0.00000000000E+00 0. -1.
         22   -1    0    0    0    0 -0.00000000000E+00 -0.00000000000E+00 -0.16726698716E+04  0.16726698716E+04  0.00000000000E+00 0. -1.
        -24    2    1    2    0    0  0.65090340763E+02 -0.70819847566E+02 -0.10052588196E+04  0.10130069271E+04  0.79909554143E+02 0.  0.
         25    2    1    2    0    0 -0.10625704255E+03  0.11762419810E+03 -0.62057309893E+03  0.65260352969E+03  0.12511748389E+03 0.  0.
         24    2    1    2    0    0  0.41166701787E+02 -0.46804350535E+02  0.67226533577E+02  0.12112390145E+03  0.79159636942E+02 0.  0.
        -13    1    5    5    0    0  0.21322511008E+02 -0.38060477369E+02 -0.66502645555E+01  0.44130209969E+02  0.00000000000E+00 0.  1.
         14    1    5    5    0    0  0.19844190779E+02 -0.87438731658E+01  0.73876798133E+02  0.76993691481E+02  0.00000000000E+00 0. -1.
         11    1    3    3    0    0  0.75059466374E+02 -0.35014237477E+02 -0.81148144156E+03  0.81569727860E+03  0.00000000000E+00 0. -1.
        -12    1    3    3    0    0 -0.99691256114E+01 -0.35805610089E+02 -0.19377737802E+03  0.19730964855E+03  0.00000000000E+00 0.  1.
          5    1    4    4  501    0 -0.39851839850E+02  0.12837928400E+03 -0.40623426873E+03  0.42791723872E+03  0.41800000000E+01 0. -1.
         -5    1    4    4    0  501 -0.66405202700E+02 -0.10755085903E+02 -0.21433883021E+03  0.22468629098E+03  0.41800000000E+01 0. -1.
</event>
<event>
11    1  0.8328696E-009  0.1602037E+03  0.7561462E-02  0.1086886E+00
         22   -1    0    0    0    0  0.00000000000E+00  0.00000000000E+00  0.80312309195E+03  0.80312309195E+03  0.00000000000E+00 0.  1.
         22   -1    0    0    0    0 -0.00000000000E+00 -0.00000000000E+00 -0.40201840119E+04  0.40201840119E+04  0.00000000000E+00 0. -1.
        -24    2    1    2    0    0  0.47169444037E+02 -0.85336325305E+02 -0.34967980869E+04  0.34992602152E+04  0.87851853968E+02 0.  0.
         25    2    1    2    0    0 -0.71558958948E+02  0.11369355411E+03 -0.50322063842E+03  0.53565389668E+03  0.12508867749E+03 0.  0.
         24    2    1    2    0    0  0.24389514911E+02 -0.28357228810E+02  0.78295780546E+03  0.78839299189E+03  0.84508009433E+02 0.  0.
        -13    1    5    5    0    0  0.20318804960E+02 -0.18831771501E+02  0.77456673991E+03  0.77506201302E+03  0.00000000000E+00 0.  1.
         14    1    5    5    0    0  0.40707099510E+01 -0.95254573083E+01  0.83910655539E+01  0.13330978868E+02  0.00000000000E+00 0. -1.
         13    1    3    3    0    0  0.24620686077E+02 -0.10070326647E+03 -0.28579568439E+04  0.28598364722E+04  0.00000000000E+00 0. -1.
        -14    1    3    3    0    0  0.22548757959E+02  0.15366941163E+02 -0.63884124304E+03  0.63942374305E+03  0.00000000000E+00 0.  1.
          5    1    4    4  501    0 -0.26591803385E+02 -0.14318359143E+02 -0.21400952469E+03  0.21617050787E+03  0.41800000000E+01 0.  1.
         -5    1    4    4    0  501 -0.44967155562E+02  0.12801191326E+03 -0.28921111374E+03  0.31948338881E+03  0.41800000000E+01 0.  1.
</event>
<event>
11    1  0.8328696E-009  0.1414996E+03  0.7561462E-02  0.1105895E+00
         22   -1    0    0    0    0  0.00000000000E+00  0.00000000000E+00  0.78377325681E+03  0.78377325681E+03  0.00000000000E+00 0.  1.
         22   -1    0    0    0    0 -0.00000000000E+00 -0.00000000000E+00 -0.43136416628E+03  0.43136416628E+03  0.00000000000E+00 0.  1.
         24    2    1    2    0    0  0.24448895593E+02  0.43052980151E+02 -0.25535523957E+03  0.27262010174E+03  0.81634024183E+02 0.  0.
         25    2    1    2    0    0 -0.26285663956E+02  0.24007120328E+02 -0.13779424706E+03  0.18947835745E+03  0.12509002943E+03 0.  0.
        -24    2    1    2    0    0  0.18367683632E+01 -0.67060100478E+02  0.74555857716E+03  0.75303896389E+03  0.81912504322E+02 0.  0.
        -13    1    3    3    0    0  0.40022218109E+02  0.26829766227E+02 -0.24138240989E+03  0.24614443341E+03  0.00000000000E+00 0.  1.
         14    1    3    3    0    0 -0.15573322516E+02  0.16223213924E+02 -0.13972829682E+02  0.26475668330E+02  0.00000000000E+00 0. -1.
         11    1    5    5    0    0 -0.25877966981E+02 -0.27183351578E+01  0.88208703602E+02  0.91966482548E+02  0.00000000000E+00 0. -1.
        -12    1    5    5    0    0  0.27714735345E+02 -0.64341765320E+02  0.65734987356E+03  0.66107248134E+03  0.00000000000E+00 0.  1.
          5    1    4    4  501    0 -0.30218147892E+02  0.72105451106E+02 -0.10502252423E+03  0.13099441033E+03  0.41800000000E+01 0.  1.
         -5    1    4    4    0  501  0.39324839359E+01 -0.48098330778E+02 -0.32771722828E+02  0.58483947120E+02  0.41800000000E+01 0.  1.
</event>
<event>
11    1  0.8328696E-009  0.2111364E+03  0.7561462E-02  0.1046916E+00
         22   -1    0    0    0    0  0.00000000000E+00  0.00000000000E+00  0.14678762848E+03  0.14678762848E+03  0.00000000000E+00 0. -1.
         22   -1    0    0    0    0 -0.00000000000E+00 -0.00000000000E+00 -0.17241402237E+04  0.17241402237E+04  0.00000000000E+00 0.  1.
         24    2    1    2    0    0 -0.16495189314E+03 -0.19295333655E+02 -0.14137719241E+04  0.14259334933E+04  0.83389670406E+02 0.  0.
         25    2    1    2    0    0  0.20268700255E+03  0.18660812660E+02 -0.23128936450E+03  0.33252563962E+03  0.12509310108E+03 0.  0.
        -24    2    1    2    0    0 -0.37735109411E+02  0.63452099433E+00  0.67708693354E+02  0.11246871925E+03  0.81488677462E+02 0.  0.
        -11    1    3    3    0    0 -0.96351665000E+02 -0.31907188348E+02 -0.10910078628E+04  0.10957188821E+04  0.00000000000E+00 0.  1.
         12    1    3    3    0    0 -0.68600228142E+02  0.12611854694E+02 -0.32276406126E+03  0.33021461115E+03  0.00000000000E+00 0. -1.
         13    1    5    5    0    0 -0.44392317097E+02  0.98242052035E+01  0.17067788532E+01  0.45498416667E+02  0.00000000000E+00 0. -1.
        -14    1    5    5    0    0  0.66572076863E+01 -0.91896842092E+01  0.66001914501E+02  0.66970302582E+02  0.00000000000E+00 0.  1.
          5    1    4    4  501    0  0.56205261418E+02  0.57252203295E+02 -0.12042509654E+03  0.14476367801E+03  0.41800000000E+01 0.  1.
         -5    1    4    4    0  501  0.14648174113E+03 -0.38591390635E+02 -0.11086426796E+03  0.18776196161E+03  0.41800000000E+01 0.  1.
</event>
<event>
11    1  0.8328696E-009  0.1363828E+03  0.7561462E-02  0.1111666E+00
         22   -1    0    0    0    0  0.00000000000E+00  0.00000000000E+00  0.84159257823E+03  0.84159257823E+03  0.00000000000E+00 0.  1.
         22   -1    0    0    0    0 -0.00000000000E+00 -0.00000000000E+00 -0.17702380176E+03  0.17702380176E+03  0.00000000000E+00 0. -1.
         24    2    1    2    0    0 -0.22418228181E+02  0.27353562831E+02 -0.10093541633E+03  0.13367120927E+03  0.80182539027E+02 0.  0.
         25    2    1    2    0    0 -0.25877938459E+02  0.13363183918E+01  0.15928751452E+02  0.12873751417E+03  0.12509264162E+03 0.  0.
        -24    2    1    2    0    0  0.48296166640E+02 -0.28689881223E+02  0.74957544135E+03  0.75620765654E+03  0.82650157515E+02 0.  0.
        -11    1    3    3    0    0  0.12246305602E+02 -0.30633938123E+01  0.82944902901E+01  0.15104798964E+02  0.00000000000E+00 0.  1.
         12    1    3    3    0    0 -0.34664533783E+02  0.30416956644E+02 -0.10922990662E+03  0.11856641031E+03  0.00000000000E+00 0. -1.
         13    1    5    5    0    0  0.82262137078E+01 -0.37459601092E+02  0.13718803217E+03  0.14244805536E+03  0.00000000000E+00 0. -1.
        -14    1    5    5    0    0  0.40069952932E+02  0.87697198691E+01  0.61238740918E+03  0.61375960118E+03  0.00000000000E+00 0.  1.
          5    1    4    4  501    0 -0.45848650722E+01 -0.14717914447E+02  0.68126341457E+02  0.69973629273E+02  0.41800000000E+01 0.  1.
         -5    1    4    4    0  501 -0.21293073387E+02  0.16054232839E+02 -0.52197590005E+02  0.58763884901E+02  0.41800000000E+01 0.  1.
</event>
<event>
11    1  0.8328696E-009  0.1528978E+03  0.7561462E-02  0.1093954E+00
         22   -1    0    0    0    0  0.00000000000E+00  0.00000000000E+00  0.27127553104E+03  0.27127553104E+03  0.00000000000E+00 0. -1.
         22   -1    0    0    0    0 -0.00000000000E+00 -0.00000000000E+00 -0.21813586132E+03  0.21813586132E+03  0.00000000000E+00 0.  1.
         24    2    1    2    0    0  0.52966481692E+02  0.44246241939E+02 -0.88453627398E+02  0.13766957892E+03  0.79785278419E+02 0.  0.
         25    2    1    2    0    0 -0.12960737653E+03 -0.25971033784E+02  0.15311161820E+02  0.18263087157E+03  0.12508811664E+03 0.  0.
        -24    2    1    2    0    0  0.76640894843E+02 -0.18275208155E+02  0.12628213530E+03  0.16911094187E+03  0.80271557665E+02 0.  0.
        -11    1    3    3    0    0  0.44571242712E+02  0.38776956245E+02 -0.10374549470E+03  0.11938750221E+03  0.00000000000E+00 0.  1.
         12    1    3    3    0    0  0.83952389802E+01  0.54692856942E+01  0.15291867301E+02  0.18282076717E+02  0.00000000000E+00 0. -1.
         13    1    5    5    0    0  0.91525485452E+02 -0.20051201985E+02  0.12138647198E+03  0.15334158199E+03  0.00000000000E+00 0. -1.
        -14    1    5    5    0    0 -0.14884590609E+02  0.17759938305E+01  0.48956633198E+01  0.15769359880E+02  0.00000000000E+00 0.  1.
          5    1    4    4  501    0 -0.13189164096E+02 -0.12281832263E+02 -0.46500755533E+02  0.50045880135E+02  0.41800000000E+01 0.  1.
         -5    1    4    4    0  501 -0.11641821244E+03 -0.13689201521E+02  0.61811917353E+02  0.13258499143E+03  0.41800000000E+01 0.  1.
</event>
<event>
11    1  0.8328696E-009  0.3187020E+03  0.7561462E-02  0.9925727E-01
         22   -1    0    0    0    0  0.00000000000E+00  0.00000000000E+00  0.58009942982E+03  0.58009942982E+03  0.00000000000E+00 0. -1.
         22   -1    0    0    0    0 -0.00000000000E+00 -0.00000000000E+00 -0.25128018174E+04  0.25128018174E+04  0.00000000000E+00 0. -1.
         24    2    1    2    0    0  0.20406808162E+03  0.21031867876E+03 -0.23244019782E+04  0.23441904046E+04  0.80662063554E+02 0.  0.
         25    2    1    2    0    0 -0.21981766413E+03 -0.19637975593E+03 -0.27769768358E+02  0.32142154430E+03  0.12512327961E+03 0.  0.
        -24    2    1    2    0    0  0.15749582514E+02 -0.13938922833E+02  0.41946935895E+03  0.42728929829E+03  0.78608259198E+02 0.  0.
        -13    1    3    3    0    0  0.10150014069E+03  0.10595637219E+03 -0.14746453552E+04  0.14819271085E+04  0.00000000000E+00 0.  1.
         14    1    3    3    0    0  0.10256794092E+03  0.10436230658E+03 -0.84975662295E+03  0.86226329609E+03  0.00000000000E+00 0. -1.
         13    1    5    5    0    0  0.16848662125E+02  0.15663508105E+02  0.36111130808E+03  0.36184333588E+03  0.00000000000E+00 0. -1.
        -14    1    5    5    0    0 -0.10990796115E+01 -0.29602430938E+02  0.58358050871E+02  0.65445962403E+02  0.00000000000E+00 0.  1.
          5    1    4    4  501    0 -0.97012659981E+02 -0.14262462447E+03  0.30453849941E+02  0.17520887272E+03  0.41800000000E+01 0.  1.
         -5    1    4    4    0  501 -0.12280500415E+03 -0.53755131459E+02 -0.58223618299E+02  0.14621267158E+03  0.41800000000E+01 0.  1.
</event>
<event>
11    1  0.8328696E-009  0.1389437E+03  0.7561462E-02  0.1108744E+00
         22   -1    0    0    0    0  0.00000000000E+00  0.00000000000E+00  0.72174410026E+03  0.72174410026E+03  0.00000000000E+00 0. -1.
         22   -1    0    0    0    0 -0.00000000000E+00 -0.00000000000E+00 -0.10398534032E+04  0.10398534032E+04  0.00000000000E+00 0. -1.
        -24    2    1    2    0    0  0.19157562007E+02 -0.16471988004E+02 -0.97466377907E+03  0.97827528832E+03  0.80091940530E+02 0.  0.
         25    2    1    2    0    0  0.34577433409E+02 -0.14546270419E+02  0.12367554775E+02  0.13117494405E+03  0.12508683644E+03 0.  0.
         24    2    1    2    0    0 -0.53734995416E+02  0.31018258423E+02  0.64418692134E+03  0.65214727109E+03  0.80434392374E+02 0.  0.
        -11    1    5    5    0    0 -0.25173331150E+02 -0.32602355187E+01  0.48047770166E+02  0.54340720963E+02  0.00000000000E+00 0.  1.
         12    1    5    5    0    0 -0.28561664266E+02  0.34278493942E+02  0.59613915118E+03  0.59780655013E+03  0.00000000000E+00 0. -1.
         11    1    3    3    0    0 -0.21011851566E+02 -0.34139966444E+02 -0.47335978125E+03  0.47505422608E+03  0.00000000000E+00 0. -1.
        -12    1    3    3    0    0  0.40169413573E+02  0.17667978440E+02 -0.50130399782E+03  0.50322106224E+03  0.00000000000E+00 0.  1.
          5    1    4    4  501    0  0.44891886968E+01  0.59441652282E+01 -0.54371672492E+02  0.55038505476E+02  0.41800000000E+01 0. -1.
         -5    1    4    4    0  501  0.30088244712E+02 -0.20490435647E+02  0.66739227267E+02  0.76136438576E+02  0.41800000000E+01 0. -1.
</event>
<event>
11    1  0.8328696E-009  0.1352279E+03  0.7561462E-02  0.1113007E+00
         22   -1    0    0    0    0  0.00000000000E+00  0.00000000000E+00  0.48037745614E+03  0.48037745614E+03  0.00000000000E+00 0. -1.
         22   -1    0    0    0    0 -0.00000000000E+00 -0.00000000000E+00 -0.16729992857E+03  0.16729992857E+03  0.00000000000E+00 0.  1.
         24    2    1    2    0    0  0.20339413968E+02 -0.13355732275E+02 -0.12201168421E+03  0.14819500459E+03  0.80516091301E+02 0.  0.
         25    2    1    2    0    0  0.35251414435E+02 -0.53354019388E+00  0.15295221933E+03  0.20070243231E+03  0.12507652879E+03 0.  0.
        -24    2    1    2    0    0 -0.55590828403E+02  0.13889272468E+02  0.28213699245E+03  0.29877994780E+03  0.79905710717E+02 0.  0.
        -13    1    3    3    0    0  0.61915087690E+01 -0.46995084449E+02 -0.63611892821E+02  0.79330609801E+02  0.00000000000E+00 0.  1.
         14    1    3    3    0    0  0.14147905199E+02  0.33639352174E+02 -0.58399791385E+02  0.68864394791E+02  0.00000000000E+00 0. -1.
         11    1    5    5    0    0 -0.51315371601E+02  0.37068857455E+02  0.12742944210E+03  0.14228714021E+03  0.00000000000E+00 0. -1.
        -12    1    5    5    0    0 -0.42754568020E+01 -0.23179584987E+02  0.15470755035E+03  0.15649280759E+03  0.00000000000E+00 0.  1.
          5    1    4    4  501    0 -0.65437165773E+01 -0.53038005984E+02  0.10571866126E+03  0.11853167527E+03  0.41800000000E+01 0. -1.
         -5    1    4    4    0  501  0.41795131012E+02  0.52504465790E+02  0.47233558070E+02  0.82170757038E+02  0.41800000000E+01 0. -1.
</event>
<event>
11    1  0.8328696E-009  0.1459007E+03  0.7561462E-02  0.1101143E+00
         22   -1    0    0    0    0  0.00000000000E+00  0.00000000000E+00  0.32057573950E+03  0.32057573950E+03  0.00000000000E+00 0.  1.
         22   -1    0    0    0    0 -0.00000000000E+00 -0.00000000000E+00 -0.10718479837E+04  0.10718479837E+04  0.00000000000E+00 0.  1.
         24    2    1    2    0    0  0.31578614159E+02  0.73051557917E+02 -0.97756150476E+03  0.98472665864E+03  0.87899702311E+02 0.  0.
         25    2    1    2    0    0  0.27112622120E+02 -0.21269418683E+02 -0.27263625192E+02  0.13257931843E+03  0.12508592234E+03 0.  0.
        -24    2    1    2    0    0 -0.58691236279E+02 -0.51782139233E+02  0.25355288576E+03  0.27511774612E+03  0.72626835215E+02 0.  0.
        -13    1    3    3    0    0 -0.12508922640E+02  0.39058413570E+02 -0.72237151003E+03  0.72353481694E+03  0.00000000000E+00 0.  1.
         14    1    3    3    0    0  0.44087536799E+02  0.33993144346E+02 -0.25518999473E+03  0.26119184171E+03  0.00000000000E+00 0. -1.
         11    1    5    5    0    0 -0.46292573976E+02 -0.85107270274E+00  0.67730914049E+02  0.82043911706E+02  0.00000000000E+00 0. -1.
        -12    1    5    5    0    0 -0.12398662303E+02 -0.50931066531E+02  0.18582197171E+03  0.19307383442E+03  0.00000000000E+00 0.  1.
          5    1    4    4  501    0  0.32916389075E+02  0.30960240563E+02 -0.56364556058E+02  0.72363393681E+02  0.41800000000E+01 0.  1.
         -5    1    4    4    0  501 -0.58037669552E+01 -0.52229659246E+02  0.29100930866E+02  0.60215924747E+02  0.41800000000E+01 0.  1.
</event>
<event>
11    1  0.8328696E-009  0.1588680E+03  0.7561462E-02  0.1088147E+00
         22   -1    0    0    0    0  0.00000000000E+00  0.00000000000E+00  0.43526279342E+03  0.43526279342E+03  0.00000000000E+00 0. -1.
         22   -1    0    0    0    0 -0.00000000000E+00 -0.00000000000E+00 -0.20811802667E+04  0.20811802667E+04  0.00000000000E+00 0. -1.
         24    2    1    2    0    0 -0.60331952966E+02 -0.76575240196E+02 -0.20048104832E+04  0.20086774869E+04  0.77565846944E+02 0.  0.
         25    2    1    2    0    0  0.48300284333E+02  0.12323117573E+03  0.55845931192E+02  0.19048457832E+03  0.12508703533E+03 0.  0.
        -24    2    1    2    0    0  0.12031668632E+02 -0.46655935537E+02  0.30304707880E+03  0.31728099489E+03  0.80673170133E+02 0.  0.
        -11    1    3    3    0    0  0.87894167163E+01 -0.12236733674E+02 -0.71893281639E+02  0.73454989225E+02  0.00000000000E+00 0.  1.
         12    1    3    3    0    0 -0.69121369682E+02 -0.64338506522E+02 -0.19329172016E+04  0.19352224977E+04  0.00000000000E+00 0. -1.
         11    1    5    5    0    0  0.16382136695E+02  0.87368936258E+01  0.19407349159E+03  0.19495955440E+03  0.00000000000E+00 0. -1.
        -12    1    5    5    0    0 -0.43504680625E+01 -0.55392829163E+02  0.10897358720E+03  0.12232144049E+03  0.00000000000E+00 0.  1.
          5    1    4    4  501    0 -0.33258064079E+02  0.85777497105E+02  0.24086073240E+02  0.95191854483E+02  0.41800000000E+01 0. -1.
         -5    1    4    4    0  501  0.81558348412E+02  0.37453678628E+02  0.31759857952E+02  0.95292723834E+02  0.41800000000E+01 0. -1.
</event>
<event>
11    1  0.8328696E-009  0.1346945E+03  0.7561462E-02  0.1113632E+00
         22   -1    0    0    0    0  0.00000000000E+00  0.00000000000E+00  0.13676392157E+04  0.13676392157E+04  0.00000000000E+00 0. -1.
         22   -1    0    0    0    0 -0.00000000000E+00 -0.00000000000E+00 -0.64079027950E+03  0.64079027950E+03  0.00000000000E+00 0. -1.
        -24    2    1    2    0    0  0.13191818622E+02 -0.48366732944E+02 -0.60534705871E+03  0.61251013057E+03  0.78805035484E+02 0.  0.
         25    2    1    2    0    0  0.64884793380E+01 -0.69180419012E+00  0.10078698357E+03  0.16077634084E+03  0.12509371191E+03 0.  0.
         24    2    1    2    0    0 -0.19680297960E+02  0.49058537134E+02  0.12314090114E+04  0.12351430238E+04  0.80100448243E+02 0.  0.
        -11    1    5    5    0    0  0.10408010372E+02 -0.16256713595E+02  0.45545301445E+03  0.45586188235E+03  0.00000000000E+00 0.  1.
         12    1    5    5    0    0 -0.30088308333E+02  0.65315250729E+02  0.77595599692E+03  0.77928114146E+03  0.00000000000E+00 0. -1.
         11    1    3    3    0    0 -0.33224970105E+02 -0.16502824178E+02 -0.23888883602E+03  0.24175218266E+03  0.00000000000E+00 0. -1.
        -12    1    3    3    0    0  0.46416788727E+02 -0.31863908767E+02 -0.36645822269E+03  0.37075794791E+03  0.00000000000E+00 0.  1.
          5    1    4    4  501    0  0.39904092833E+02  0.55926112502E+01 -0.12522366838E+02  0.42401603704E+02  0.41800000000E+01 0.  1.
         -5    1    4    4    0  501 -0.33415613495E+02 -0.62844154404E+01  0.11330935041E+03  0.11837473714E+03  0.41800000000E+01 0.  1.
</event>
<event>
11    1  0.8328696E-009  0.1634716E+03  0.7561462E-02  0.1083857E+00
         22   -1    0    0    0    0  0.00000000000E+00  0.00000000000E+00  0.15154922694E+04  0.15154922694E+04  0.00000000000E+00 0.  1.
         22   -1    0    0    0    0 -0.00000000000E+00 -0.00000000000E+00 -0.80196603726E+03  0.80196603726E+03  0.00000000000E+00 0. -1.
        -24    2    1    2    0    0  0.10458710590E+03 -0.17232795593E+02 -0.75787420839E+03  0.76979328232E+03  0.83504190266E+02 0.  0.
         25    2    1    2    0    0 -0.42463689951E+02  0.10691493152E+03  0.17427915841E+03  0.24342292943E+03  0.12509008742E+03 0.  0.
         24    2    1    2    0    0 -0.62123415949E+02 -0.89682135932E+02  0.12971212821E+04  0.13042420949E+04  0.81373320397E+02 0.  0.
        -11    1    5    5    0    0 -0.24477790456E+02 -0.90070492828E+02  0.10655877263E+04  0.10696677326E+04  0.00000000000E+00 0.  1.
         12    1    5    5    0    0 -0.37645625493E+02  0.38835689544E+00  0.23153355587E+03  0.23457436227E+03  0.00000000000E+00 0. -1.
         11    1    3    3    0    0  0.97216941595E+02 -0.35081326708E+02 -0.46798920739E+03  0.47926582546E+03  0.00000000000E+00 0. -1.
        -12    1    3    3    0    0  0.73701643053E+01  0.17848531116E+02 -0.28988500100E+03  0.29052745686E+03  0.00000000000E+00 0.  1.
          5    1    4    4  501    0  0.17969413408E+02 -0.10017698515E+02 -0.44067624614E+01  0.21451015294E+02  0.41800000000E+01 0.  1.
         -5    1    4    4    0  501 -0.60433103359E+02  0.11693263004E+03  0.17868592087E+03  0.22197191414E+03  0.41800000000E+01 0.  1.
</event>
<event>
11    1  0.1099962E-008  0.1683745E+03  0.7561462E-02  0.1079455E+00
         22   -1    0    0    0    0  0.00000000000E+00  0.00000000000E+00  0.10528436050E+04  0.10528436050E+04  0.00000000000E+00 0.  1.
         22   -1    0    0    0    0 -0.00000000000E+00 -0.00000000000E+00 -0.29827170791E+04  0.29827170791E+04  0.00000000000E+00 0. -1.
        -24    2    1    2    0    0 -0.51657931911E+02  0.66552612534E+02 -0.24376174304E+04  0.24404129477E+04  0.80863009767E+02 0.  0.
         25    2    1    2    0    0  0.98944743087E+02 -0.16811116773E+03 -0.51432441950E+03  0.56411760871E+03  0.12509053146E+03 0.  0.
         24    2    1    2    0    0 -0.47286811176E+02  0.10155855519E+03  0.10220683758E+04  0.10310301276E+04  0.76479909791E+02 0.  0.
        -11    1    5    5    0    0  0.57513946554E+01  0.76878077426E+02  0.56692682606E+03  0.57214451272E+03  0.00000000000E+00 0.  1.
         12    1    5    5    0    0 -0.53038205831E+02  0.24680477766E+02  0.45514154973E+03  0.45888561489E+03  0.00000000000E+00 0. -1.
         11    1    3    3    0    0 -0.49821850275E+02  0.84774602265E+02 -0.20950792023E+04  0.20973854710E+04  0.00000000000E+00 0. -1.
        -12    1    3    3    0    0 -0.18360816362E+01 -0.18221989732E+02 -0.34253822809E+03  0.34302747676E+03  0.00000000000E+00 0.  1.
          5    1    4    4  501    0 -0.23893164985E+02 -0.56045597504E+02 -0.94172605203E+02  0.11224056443E+03  0.41800000000E+01 0.  1.
         -5    1    4    4    0  501  0.12283790807E+03 -0.11206557022E+03 -0.42015181430E+03  0.45187704428E+03  0.41800000000E+01 0.  1.
</event>
<event>
11    1  0.8328696E-009  0.1705472E+03  0.7561462E-02  0.1077556E+00
         22   -1    0    0    0    0  0.00000000000E+00  0.00000000000E+00  0.25013836629E+03  0.25013836629E+03  0.00000000000E+00 0.  1.
         22   -1    0    0    0    0 -0.00000000000E+00 -0.00000000000E+00 -0.41047482402E+03  0.41047482402E+03  0.00000000000E+00 0. -1.
        -24    2    1    2    0    0  0.28017925863E+02  0.10889940789E+03 -0.30328206928E+03  0.33333769028E+03  0.80560021143E+02 0.  0.
         25    2    1    2    0    0 -0.46679529882E+02 -0.13649205127E+03  0.45175433453E+02  0.19620734320E+03  0.12508974045E+03 0.  0.
         24    2    1    2    0    0  0.18661604019E+02  0.27592643378E+02  0.97770178099E+02  0.13106815683E+03  0.80686086639E+02 0.  0.
        -13    1    5    5    0    0  0.18065012265E+01  0.54518623720E+02  0.70938598902E+02  0.89486471566E+02  0.00000000000E+00 0.  1.
         14    1    5    5    0    0  0.16855102792E+02 -0.26925980342E+02  0.26831579197E+02  0.41581685268E+02  0.00000000000E+00 0. -1.
         13    1    3    3    0    0  0.31866614379E+02  0.11628701592E+03 -0.23097606217E+03  0.26055343498E+03  0.00000000000E+00 0. -1.
        -14    1    3    3    0    0 -0.38486885154E+01 -0.73876080293E+01 -0.72306007112E+02  0.72784255304E+02  0.00000000000E+00 0.  1.
          5    1    4    4  501    0  0.18288546832E+02 -0.44501125102E+01 -0.26255332164E+02  0.32574365897E+02  0.41800000000E+01 0.  1.
         -5    1    4    4    0  501 -0.64968076714E+02 -0.13204193876E+03  0.71430765617E+02  0.16363297730E+03  0.41800000000E+01 0.  1.
</event>
<event>
11    1  0.8328696E-009  0.1398138E+03  0.7561462E-02  0.1107767E+00
         22   -1    0    0    0    0  0.00000000000E+00  0.00000000000E+00  0.57028374608E+03  0.57028374608E+03  0.00000000000E+00 0. -1.
         22   -1    0    0    0    0 -0.00000000000E+00 -0.00000000000E+00 -0.12662056152E+04  0.12662056152E+04  0.00000000000E+00 0.  1.
        -24    2    1    2    0    0  0.48725066042E+02 -0.37945519260E+02 -0.12134964956E+04  0.12189275420E+04  0.96936129630E+02 0.  0.
         25    2    1    2    0    0 -0.61037606150E+02  0.85048803041E+02  0.10407924251E+03  0.19349143730E+03  0.12509020475E+03 0.  0.
         24    2    1    2    0    0  0.12312540108E+02 -0.47103283782E+02  0.41349538397E+03  0.42407038202E+03  0.80541531835E+02 0.  0.
        -11    1    5    5    0    0 -0.20190365892E+02 -0.55951519917E+02  0.23403710636E+03  0.24147792986E+03  0.00000000000E+00 0.  1.
         12    1    5    5    0    0  0.32502906000E+02  0.88482361353E+01  0.17945827761E+03  0.18259245216E+03  0.00000000000E+00 0. -1.
         13    1    3    3    0    0 -0.27164187652E+02 -0.40325149906E+01 -0.46941891353E+03  0.47022151232E+03  0.00000000000E+00 0. -1.
        -14    1    3    3    0    0  0.75889253694E+02 -0.33913004269E+02 -0.74407758207E+03  0.74870602964E+03  0.00000000000E+00 0.  1.
          5    1    4    4  501    0  0.11808558451E+02  0.66063949463E+02  0.96638186643E+02  0.11772977104E+03  0.41800000000E+01 0.  1.
         -5    1    4    4    0  501 -0.72846164602E+02  0.18984853579E+02  0.74410558716E+01  0.75761666264E+02  0.41800000000E+01 0.  1.
</event>
<event>
11    1  0.8328696E-009  0.1425472E+03  0.7561462E-02  0.1104747E+00
         22   -1    0    0    0    0  0.00000000000E+00  0.00000000000E+00  0.15379011818E+03  0.15379011818E+03  0.00000000000E+00 0. -1.
         22   -1    0    0    0    0 -0.00000000000E+00 -0.00000000000E+00 -0.19548697667E+04  0.19548697667E+04  0.00000000000E+00 0.  1.
         24    2    1    2    0    0  0.50357790777E+02  0.47662612082E+02 -0.18556065769E+04  0.18586014625E+04  0.79473243133E+02 0.  0.
         25    2    1    2    0    0  0.57329638242E+01 -0.45155009966E+02 -0.95778898081E+01  0.13346484439E+03  0.12509710994E+03 0.  0.
        -24    2    1    2    0    0 -0.56090754602E+02 -0.25076021156E+01  0.64104818188E+02  0.11659357803E+03  0.79574957760E+02 0.  0.
        -13    1    3    3    0    0  0.24024735325E+02  0.51518533057E+02 -0.16825889676E+04  0.16835489245E+04  0.00000000000E+00 0.  1.
         14    1    3    3    0    0  0.26333055452E+02 -0.38559209753E+01 -0.17301760931E+03  0.17505253802E+03  0.00000000000E+00 0. -1.
         13    1    5    5    0    0 -0.67891351142E+01  0.26490489867E+02  0.51068322460E+02  0.57929370512E+02  0.00000000000E+00 0. -1.
        -14    1    5    5    0    0 -0.49301619487E+02 -0.28998091983E+02  0.13036495728E+02  0.58664207517E+02  0.00000000000E+00 0.  1.
          5    1    4    4  501    0  0.57294515266E+02  0.64667712368E+01  0.78338467255E+01  0.58337999317E+02  0.41800000000E+01 0.  1.
         -5    1    4    4    0  501 -0.51561551442E+02 -0.51621781203E+02 -0.17411736534E+02  0.75126845074E+02  0.41800000000E+01 0.  1.
</event>
<event>
11    1  0.8328696E-009  0.1686856E+03  0.7561462E-02  0.1079181E+00
         22   -1    0    0    0    0  0.00000000000E+00  0.00000000000E+00  0.23381499845E+04  0.23381499845E+04  0.00000000000E+00 0.  1.
         22   -1    0    0    0    0 -0.00000000000E+00 -0.00000000000E+00 -0.17713419306E+04  0.17713419306E+04  0.00000000000E+00 0. -1.
        -24    2    1    2    0    0  0.81943896309E+02  0.77500737080E+02 -0.17342546295E+04  0.17397729445E+04  0.80309475438E+02 0.  0.
         25    2    1    2    0    0 -0.12520030907E+03 -0.92191385315E+02  0.26584351412E+03  0.33240792822E+03  0.12509151781E+03 0.  0.
         24    2    1    2    0    0  0.43256412766E+02  0.14690648234E+02  0.20352191693E+04  0.20373110424E+04  0.80201522524E+02 0.  0.
        -13    1    5    5    0    0  0.64451286291E+02  0.94211224762E+01  0.17685246829E+04  0.17697237863E+04  0.00000000000E+00 0.  1.
         14    1    5    5    0    0 -0.21194873525E+02  0.52695257581E+01  0.26669448637E+03  0.26758725609E+03  0.00000000000E+00 0. -1.
         13    1    3    3    0    0  0.52224262913E+02  0.51185822017E+02 -0.15270705911E+04  0.15288204448E+04  0.00000000000E+00 0. -1.
        -14    1    3    3    0    0  0.29719633395E+02  0.26314915063E+02 -0.20718403838E+03  0.21095249969E+03  0.00000000000E+00 0.  1.
          5    1    4    4  501    0 -0.96187713348E+02 -0.79782583142E+02  0.27256323352E+03  0.29987585004E+03  0.41800000000E+01 0.  1.
         -5    1    4    4    0  501 -0.29012595726E+02 -0.12408802173E+02 -0.67197193993E+01  0.32532078183E+02  0.41800000000E+01 0.  1.
</event>
<event>
11    1  0.8328696E-009  0.1562167E+03  0.7561462E-02  0.1090691E+00
         22   -1    0    0    0    0  0.00000000000E+00  0.00000000000E+00  0.63727554921E+03  0.63727554921E+03  0.00000000000E+00 0.  1.
         22   -1    0    0    0    0 -0.00000000000E+00 -0.00000000000E+00 -0.45359952644E+03  0.45359952644E+03  0.00000000000E+00 0. -1.
        -24    2    1    2    0    0 -0.20012860076E+02 -0.94879580257E+02 -0.41831782707E+03  0.43693018223E+03  0.80718835359E+02 0.  0.
         25    2    1    2    0    0 -0.17157340879E+01  0.89561527736E+01  0.21604681772E+03  0.24981712478E+03  0.12509681040E+03 0.  0.
         24    2    1    2    0    0  0.21728594164E+02  0.85923427484E+02  0.38594703212E+03  0.40412776863E+03  0.80679455765E+02 0.  0.
        -11    1    5    5    0    0  0.20493948813E+02  0.46361515281E+02  0.33879032570E+03  0.34256134754E+03  0.00000000000E+00 0.  1.
         12    1    5    5    0    0  0.12346453514E+01  0.39561912202E+02  0.47156706417E+02  0.61566421094E+02  0.00000000000E+00 0. -1.
         13    1    3    3    0    0 -0.18002230599E+02 -0.93074142182E+02 -0.42191337055E+03  0.43243238605E+03  0.00000000000E+00 0. -1.
        -14    1    3    3    0    0 -0.20106294775E+01 -0.18054380751E+01  0.35955434863E+01  0.44977961826E+01  0.00000000000E+00 0.  1.
          5    1    4    4  501    0 -0.26091432618E+02 -0.35577998889E+02  0.18483803236E+03  0.19007663578E+03  0.41800000000E+01 0. -1.
         -5    1    4    4    0  501  0.24375698530E+02  0.44534151663E+02  0.31208785359E+02  0.59740489007E+02  0.41800000000E+01 0. -1.
</event>
<event>
11    1  0.8328696E-009  0.1723596E+03  0.7561462E-02  0.1075996E+00
         22   -1    0    0    0    0  0.00000000000E+00  0.00000000000E+00  0.87479003927E+03  0.87479003927E+03  0.00000000000E+00 0.  1.
         22   -1    0    0    0    0 -0.00000000000E+00 -0.00000000000E+00 -0.15474840623E+04  0.15474840623E+04  0.00000000000E+00 0. -1.
        -24    2    1    2    0    0 -0.37638306051E+02 -0.36997536116E+02 -0.13895682465E+04  0.13930977905E+04  0.83881359338E+02 0.  0.
         25    2    1    2    0    0  0.13599141977E+03  0.99517813852E+02 -0.76573169348E+02  0.22339951167E+03  0.12508569073E+03 0.  0.
         24    2    1    2    0    0 -0.98353113720E+02 -0.62520277736E+02  0.79344739282E+03  0.80577679939E+03  0.78328571840E+02 0.  0.
        -13    1    5    5    0    0 -0.10270457712E+03 -0.68560472575E+02  0.78439929073E+03  0.79405983141E+03  0.00000000000E+00 0.  1.
         14    1    5    5    0    0  0.43514633957E+01  0.60401948394E+01  0.90481020902E+01  0.11716967987E+02  0.00000000000E+00 0. -1.
         11    1    3    3    0    0  0.16915088501E+02 -0.38484489667E+02 -0.76309021099E+03  0.76424724159E+03  0.00000000000E+00 0. -1.
        -12    1    3    3    0    0 -0.54553394552E+02  0.14869535513E+01 -0.62647803554E+03  0.62885054894E+03  0.00000000000E+00 0.  1.
          5    1    4    4  501    0  0.60306980706E+02  0.11502527145E+03 -0.30943613264E+02  0.13357666187E+03  0.41800000000E+01 0. -1.
         -5    1    4    4    0  501  0.75684439066E+02 -0.15507457603E+02 -0.45629556084E+02  0.89822849801E+02  0.41800000000E+01 0. -1.
</event>
<event>
11    1  0.8328696E-009  0.1312890E+03  0.7561462E-02  0.1117695E+00
         22   -1    0    0    0    0  0.00000000000E+00  0.00000000000E+00  0.15222096698E+04  0.15222096698E+04  0.00000000000E+00 0. -1.
         22   -1    0    0    0    0 -0.00000000000E+00 -0.00000000000E+00 -0.30227696361E+03  0.30227696361E+03  0.00000000000E+00 0. -1.
        -24    2    1    2    0    0  0.18936300417E+02  0.20443907122E+02 -0.23609015960E+03  0.25179984257E+03  0.82994339848E+02 0.  0.
         25    2    1    2    0    0 -0.37614186224E+02 -0.54897717841E+02  0.31427310185E+02  0.14513074735E+03  0.12508665625E+03 0.  0.
         24    2    1    2    0    0  0.18677885807E+02  0.34453810719E+02  0.14245955556E+04  0.14275560435E+04  0.83113366864E+02 0.  0.
        -13    1    5    5    0    0  0.15351076624E+01  0.95859534124E+01  0.16554760832E+02  0.19191330453E+02  0.00000000000E+00 0.  1.
         14    1    5    5    0    0  0.17142778145E+02  0.24867857307E+02  0.14080407948E+04  0.14083647130E+04  0.00000000000E+00 0. -1.
         13    1    3    3    0    0  0.16394123142E+02  0.28681174284E+02 -0.24005048095E+03  0.24231304223E+03  0.00000000000E+00 0. -1.
        -14    1    3    3    0    0  0.25421772742E+01 -0.82372671625E+01  0.39603213444E+01  0.94868003432E+01  0.00000000000E+00 0.  1.
          5    1    4    4  501    0 -0.45770682365E+02 -0.54149905744E+01 -0.37654449091E+02  0.59662445671E+02  0.41800000000E+01 0. -1.
         -5    1    4    4    0  501  0.81564961408E+01 -0.49482727266E+02  0.69081759275E+02  0.85468301677E+02  0.41800000000E+01 0. -1.
</event>
<event>
11    1  0.8328696E-009  0.1353715E+03  0.7561462E-02  0.1112840E+00
         22   -1    0    0    0    0  0.00000000000E+00  0.00000000000E+00  0.56828380425E+03  0.56828380425E+03  0.00000000000E+00 0.  1.
         22   -1    0    0    0    0 -0.00000000000E+00 -0.00000000000E+00 -0.29950672261E+03  0.29950672261E+03  0.00000000000E+00 0.  1.
         24    2    1    2    0    0  0.25973254441E+02  0.46946582357E+02 -0.23788223499E+03  0.25578145945E+03  0.77185528011E+02 0.  0.
         25    2    1    2    0    0 -0.46318172737E+02  0.41036483405E+01  0.46368932784E+02  0.14127874816E+03  0.12508954273E+03 0.  0.
        -24    2    1    2    0    0  0.20344918297E+02 -0.51050230698E+02  0.46029038384E+03  0.47073031924E+03  0.81852026488E+02 0.  0.
        -11    1    3    3    0    0  0.24758571028E+02 -0.10941948987E+02 -0.13534778935E+03  0.13802803037E+03  0.00000000000E+00 0.  1.
         12    1    3    3    0    0  0.12146834125E+01  0.57888531344E+02 -0.10253444564E+03  0.11775342908E+03  0.00000000000E+00 0. -1.
         13    1    5    5    0    0  0.20539996095E+02  0.19262566114E+02  0.14221204670E+03  0.14497311516E+03  0.00000000000E+00 0. -1.
        -14    1    5    5    0    0 -0.19507779814E+00 -0.70312796812E+02  0.31807833715E+03  0.32575720408E+03  0.00000000000E+00 0.  1.
          5    1    4    4  501    0 -0.77711249641E+02  0.38374759398E+02  0.31266904744E+02  0.92232056314E+02  0.41800000000E+01 0. -1.
         -5    1    4    4    0  501  0.31393076904E+02 -0.34271111057E+02  0.15102028040E+02  0.49046691851E+02  0.41800000000E+01 0. -1.
</event>
<event>
11    1  0.8328696E-009  0.1535560E+03  0.7561462E-02  0.1093300E+00
         22   -1    0    0    0    0  0.00000000000E+00  0.00000000000E+00  0.22510063738E+04  0.22510063738E+04  0.00000000000E+00 0.  1.
         22   -1    0    0    0    0 -0.00000000000E+00 -0.00000000000E+00 -0.12504141191E+03  0.12504141191E+03  0.00000000000E+00 0.  1.
        -24    2    1    2    0    0  0.73710871931E+02 -0.48854877501E+02 -0.85183477910E+02  0.14943362242E+03  0.85170951066E+02 0.  0.
         25    2    1    2    0    0 -0.11031370110E+03  0.45716912969E+02  0.14324096994E+04  0.14428112026E+04  0.12508984939E+03 0.  0.
         24    2    1    2    0    0  0.36602829169E+02  0.31379645313E+01  0.77873874035E+03  0.78380296070E+03  0.81015069948E+02 0.  0.
        -13    1    5    5    0    0  0.22342275298E+02  0.29127725289E+02  0.67262564094E+03  0.67362664325E+03  0.00000000000E+00 0.  1.
         14    1    5    5    0    0  0.14260553871E+02 -0.25989760757E+02  0.10611309941E+03  0.11017631745E+03  0.00000000000E+00 0. -1.
         11    1    3    3    0    0 -0.31275107528E+01 -0.43803304758E+02 -0.18816744826E+02  0.47776361489E+02  0.00000000000E+00 0. -1.
        -12    1    3    3    0    0  0.76838382684E+02 -0.50515727423E+01 -0.66366733084E+02  0.10165726094E+03  0.00000000000E+00 0.  1.
          5    1    4    4  501    0 -0.68319769759E+02 -0.21863818829E+02  0.10351209595E+04  0.10376119172E+04  0.41800000000E+01 0. -1.
         -5    1    4    4    0  501 -0.41993931341E+02  0.67580731799E+02  0.39728873990E+03  0.40519928533E+03  0.41800000000E+01 0. -1.
</event>
<event>
11    1  0.8328696E-009  0.1364755E+03  0.7561462E-02  0.1111559E+00
         22   -1    0    0    0    0  0.00000000000E+00  0.00000000000E+00  0.26650492281E+04  0.26650492281E+04  0.00000000000E+00 0.  1.
         22   -1    0    0    0    0 -0.00000000000E+00 -0.00000000000E+00 -0.24760070502E+03  0.24760070502E+03  0.00000000000E+00 0.  1.
        -24    2    1    2    0    0  0.14099133980E+02 -0.53959472054E+02 -0.18295678324E+03  0.20616223055E+03  0.76936795923E+02 0.  0.
         25    2    1    2    0    0 -0.37814268292E+02  0.36364922418E+02  0.35546314471E+02  0.14022345321E+03  0.12508696930E+03 0.  0.
         24    2    1    2    0    0  0.23715134312E+02  0.17594549637E+02  0.25648589918E+04  0.25662642493E+04  0.79615160106E+02 0.  0.
        -11    1    5    5    0    0  0.36021057741E+02  0.23594165681E+02  0.24744426357E+04  0.24748172778E+04  0.00000000000E+00 0.  1.
         12    1    5    5    0    0 -0.12305923429E+02 -0.59996160440E+01  0.90416356151E+02  0.91446971539E+02  0.00000000000E+00 0. -1.
         11    1    3    3    0    0 -0.40575659097E+01  0.35950215628E+01  0.58316585281E+01  0.79621769848E+01  0.00000000000E+00 0. -1.
        -12    1    3    3    0    0  0.18156699890E+02 -0.57554493617E+02 -0.18878844177E+03  0.19820005356E+03  0.00000000000E+00 0.  1.
          5    1    4    4  501    0 -0.24119409372E+02  0.67275025771E+02  0.63855451389E+02  0.95930527326E+02  0.41800000000E+01 0.  1.
         -5    1    4    4    0  501 -0.13694858921E+02 -0.30910103354E+02 -0.28309136917E+02  0.44292925882E+02  0.41800000000E+01 0.  1.
</event>
<event>
11    1  0.8328696E-009  0.1368149E+03  0.7561462E-02  0.1111168E+00
         22   -1    0    0    0    0  0.00000000000E+00  0.00000000000E+00  0.11123146066E+04  0.11123146066E+04  0.00000000000E+00 0.  1.
         22   -1    0    0    0    0 -0.00000000000E+00 -0.00000000000E+00 -0.31835925835E+03  0.31835925835E+03  0.00000000000E+00 0. -1.
         24    2    1    2    0    0 -0.21884637096E+02 -0.43455223261E+02 -0.28031688713E+03  0.29598181760E+03  0.81611184127E+02 0.  0.
         25    2    1    2    0    0 -0.24482928044E+02  0.72827284171E+02  0.16775495719E+03  0.22290575899E+03  0.12506808003E+03 0.  0.
        -24    2    1    2    0    0  0.46367565140E+02 -0.29372060909E+02  0.90651727817E+03  0.91178628834E+03  0.81043142432E+02 0.  0.
        -11    1    3    3    0    0 -0.24328026416E+02  0.10753654804E+02 -0.31088303220E+02  0.40914258616E+02  0.00000000000E+00 0.  1.
         12    1    3    3    0    0  0.24433893201E+01 -0.54208878065E+02 -0.24922858391E+03  0.25506755899E+03  0.00000000000E+00 0. -1.
         13    1    5    5    0    0 -0.25626521224E+01  0.92648802438E+01  0.13377258586E+02  0.16472894072E+02  0.00000000000E+00 0. -1.
        -14    1    5    5    0    0  0.48930217262E+02 -0.38636941153E+02  0.89314001958E+03  0.89531339427E+03  0.00000000000E+00 0.  1.
          5    1    4    4  501    0 -0.58292605090E+02 -0.75467559048E+01  0.58188198013E+02  0.82814975221E+02  0.41800000000E+01 0.  1.
         -5    1    4    4    0  501  0.33809677046E+02  0.80374040075E+02  0.10956675918E+03  0.14009078377E+03  0.41800000000E+01 0.  1.
</event>
<event>
11    1  0.8328696E-009  0.1623347E+03  0.7561462E-02  0.1084902E+00
         22   -1    0    0    0    0  0.00000000000E+00  0.00000000000E+00  0.57638303813E+03  0.57638303813E+03  0.00000000000E+00 0. -1.
         22   -1    0    0    0    0 -0.00000000000E+00 -0.00000000000E+00 -0.48580955952E+03  0.48580955952E+03  0.00000000000E+00 0. -1.
         24    2    1    2    0    0  0.76358041997E+02 -0.51416909843E+02 -0.32625646653E+03  0.34908733444E+03  0.83333282185E+02 0.  0.
         25    2    1    2    0    0 -0.87540241493E+02  0.15072374066E+03 -0.57138506771E+02  0.22202399466E+03  0.12509558494E+03 0.  0.
        -24    2    1    2    0    0  0.11182199496E+02 -0.99306830816E+02  0.47396845191E+03  0.49108126855E+03  0.80794991674E+02 0.  0.
        -13    1    3    3    0    0  0.71037012821E+02 -0.29139596665E+02 -0.12618602791E+03  0.14771014496E+03  0.00000000000E+00 0.  1.
         14    1    3    3    0    0  0.53210291763E+01 -0.22277313178E+02 -0.20007043863E+03  0.20137718949E+03  0.00000000000E+00 0. -1.
         11    1    5    5    0    0 -0.33353180030E+02 -0.36416301525E+02  0.14394555251E+03  0.15218049718E+03  0.00000000000E+00 0. -1.
        -12    1    5    5    0    0  0.44535379527E+02 -0.62890529292E+02  0.33002289940E+03  0.33890077137E+03  0.00000000000E+00 0.  1.
          5    1    4    4  501    0  0.20577290391E+02  0.64414251376E+02  0.94967939906E+01  0.68412587704E+02  0.41800000000E+01 0. -1.
         -5    1    4    4    0  501 -0.10811753188E+03  0.86309489283E+02 -0.66635300762E+02  0.15361140696E+03  0.41800000000E+01 0. -1.
</event>
<event>
11    1  0.8328696E-009  0.2372238E+03  0.7561462E-02  0.1030934E+00
         22   -1    0    0    0    0  0.00000000000E+00  0.00000000000E+00  0.24550063691E+03  0.24550063691E+03  0.00000000000E+00 0.  1.
         22   -1    0    0    0    0 -0.00000000000E+00 -0.00000000000E+00 -0.11271985979E+04  0.11271985979E+04  0.00000000000E+00 0.  1.
         24    2    1    2    0    0 -0.95630228605E+02 -0.18657626549E+03 -0.78733206674E+03  0.81882723214E+03  0.81427325268E+02 0.  0.
         25    2    1    2    0    0  0.82386267237E+02  0.16192821183E+03 -0.27576015038E+03  0.35312803274E+03  0.12508998425E+03 0.  0.
        -24    2    1    2    0    0  0.13243961367E+02  0.24648053668E+02  0.18139425608E+03  0.20074396998E+03  0.81310124102E+02 0.  0.
        -11    1    3    3    0    0  0.12743844781E+02 -0.34961284875E+02 -0.16751785266E+03  0.17160107220E+03  0.00000000000E+00 0.  1.
         12    1    3    3    0    0 -0.10837407339E+03 -0.15161498062E+03 -0.61981421408E+03  0.64722615993E+03  0.00000000000E+00 0. -1.
         13    1    5    5    0    0  0.18624383686E+02  0.40823992588E+02  0.45928371008E+02  0.64209666733E+02  0.00000000000E+00 0. -1.
        -14    1    5    5    0    0 -0.53804223190E+01 -0.16175938920E+02  0.13546588507E+03  0.13653430325E+03  0.00000000000E+00 0.  1.
          5    1    4    4  501    0 -0.25444049710E+02  0.62543039319E+02 -0.50973077014E+02  0.84703945676E+02  0.41800000000E+01 0. -1.
         -5    1    4    4    0  501  0.10783031695E+03  0.99385172508E+02 -0.22478707336E+03  0.26842408707E+03  0.41800000000E+01 0. -1.
</event>
<event>
11    1  0.8328696E-009  0.1947628E+03  0.7561462E-02  0.1058290E+00
         22   -1    0    0    0    0  0.00000000000E+00  0.00000000000E+00  0.19751020706E+03  0.19751020706E+03  0.00000000000E+00 0. -1.
         22   -1    0    0    0    0 -0.00000000000E+00 -0.00000000000E+00 -0.56688172734E+03  0.56688172734E+03  0.00000000000E+00 0.  1.
         24    2    1    2    0    0 -0.50585553213E+01  0.97885980662E+01 -0.34982168646E+03  0.35935629512E+03  0.81488213192E+02 0.  0.
         25    2    1    2    0    0 -0.13919465772E+03  0.35755342107E+02 -0.10004297228E+03  0.21519510995E+03  0.12508693704E+03 0.  0.
        -24    2    1    2    0    0  0.14425321304E+03 -0.45543940173E+02  0.80493138457E+02  0.18984052934E+03  0.81713164692E+02 0.  0.
        -13    1    3    3    0    0 -0.11672378152E+02  0.39233275439E+02 -0.28414232529E+03  0.28707552201E+03  0.00000000000E+00 0.  1.
         14    1    3    3    0    0  0.66138228309E+01 -0.29444677373E+02 -0.65679361164E+02  0.72280773107E+02  0.00000000000E+00 0. -1.
         13    1    5    5    0    0  0.96618628523E+02  0.80291631443E+01  0.27763165828E+02  0.10084850130E+03  0.00000000000E+00 0. -1.
        -14    1    5    5    0    0  0.47634584515E+02 -0.53573103317E+02  0.52729972628E+02  0.88992028038E+02  0.00000000000E+00 0.  1.
          5    1    4    4  501    0 -0.10398091776E+03  0.26304151932E+02 -0.12945353272E+03  0.16816548160E+03  0.41800000000E+01 0. -1.
         -5    1    4    4    0  501 -0.35213739957E+02  0.94511901747E+01  0.29410560442E+02  0.47029628352E+02  0.41800000000E+01 0. -1.
</event>
<event>
11    1  0.8328696E-009  0.1385523E+03  0.7561462E-02  0.1109186E+00
         22   -1    0    0    0    0  0.00000000000E+00  0.00000000000E+00  0.32562463708E+03  0.32562463708E+03  0.00000000000E+00 0.  1.
         22   -1    0    0    0    0 -0.00000000000E+00 -0.00000000000E+00 -0.31364017091E+03  0.31364017091E+03  0.00000000000E+00 0.  1.
         24    2    1    2    0    0 -0.53964585974E+02 -0.25816948321E+02 -0.22072061874E+03  0.24228748764E+03  0.80043386813E+02 0.  0.
         25    2    1    2    0    0  0.51682256527E+02  0.26865723587E+02 -0.13024985226E+02  0.13859492111E+03  0.12508428828E+03 0.  0.
        -24    2    1    2    0    0  0.22823294468E+01 -0.10487752666E+01  0.24573007013E+03  0.25838239923E+03  0.79824106063E+02 0.  0.
        -11    1    3    3    0    0 -0.56080003806E+02 -0.25619314596E+02 -0.22722697707E+03  0.23544301904E+03  0.00000000000E+00 0.  1.
         12    1    3    3    0    0  0.21154178321E+01 -0.19763372437E+00  0.65063583318E+01  0.68444686014E+01  0.00000000000E+00 0. -1.
         11    1    5    5    0    0  0.35341916324E+02  0.19335343468E+02  0.14260778246E+03  0.14818868436E+03  0.00000000000E+00 0. -1.
        -12    1    5    5    0    0 -0.33059586877E+02 -0.20384118734E+02  0.10312228768E+03  0.11019371487E+03  0.00000000000E+00 0.  1.
          5    1    4    4  501    0  0.42145549794E+02 -0.46732574837E+02  0.35186819774E+00  0.63069621289E+02  0.41800000000E+01 0.  1.
         -5    1    4    4    0  501  0.95367067336E+01  0.73598298424E+02 -0.13376853424E+02  0.75525299826E+02  0.41800000000E+01 0.  1.
</event>
<event>
11    1  0.8328696E-009  0.3439534E+03  0.7561462E-02  0.9831337E-01
         22   -1    0    0    0    0  0.00000000000E+00  0.00000000000E+00  0.14671535215E+04  0.14671535215E+04  0.00000000000E+00 0. -1.
         22   -1    0    0    0    0 -0.00000000000E+00 -0.00000000000E+00 -0.29730537108E+03  0.29730537108E+03  0.00000000000E+00 0.  1.
        -24    2    1    2    0    0 -0.83453915606E+02 -0.14042313937E+02 -0.16648006996E+03  0.20325441217E+03  0.80218450265E+02 0.  0.
         25    2    1    2    0    0  0.28013990640E+03  0.24837219445E+03  0.35716171152E+03  0.53233366419E+03  0.12509007842E+03 0.  0.
         24    2    1    2    0    0 -0.19668599079E+03 -0.23432988051E+03  0.97916650890E+03  0.10288708163E+04  0.78817716972E+02 0.  0.
        -11    1    5    5    0    0 -0.12912360106E+03 -0.96216005777E+02  0.45713745156E+03  0.48467006689E+03  0.00000000000E+00 0.  1.
         12    1    5    5    0    0 -0.67562389729E+02 -0.13811387473E+03  0.52202905734E+03  0.54420074936E+03  0.00000000000E+00 0. -1.
         13    1    3    3    0    0 -0.42054905490E+02  0.29740742847E+02 -0.10614901460E+03  0.11798618631E+03  0.00000000000E+00 0. -1.
        -14    1    3    3    0    0 -0.41399010115E+02 -0.43783056784E+02 -0.60331055366E+02  0.85268225861E+02  0.00000000000E+00 0.  1.
          5    1    4    4  501    0  0.36290519010E+02  0.17239033485E+02  0.10417774526E+03  0.11173477997E+03  0.41800000000E+01 0.  1.
         -5    1    4    4    0  501  0.24384938739E+03  0.23113316096E+03  0.25298396625E+03  0.42059888422E+03  0.41800000000E+01 0.  1.
</event>
<event>
11    1  0.8328696E-009  0.1303149E+03  0.7561462E-02  0.1118883E+00
         22   -1    0    0    0    0  0.00000000000E+00  0.00000000000E+00  0.11883997664E+04  0.11883997664E+04  0.00000000000E+00 0.  1.
         22   -1    0    0    0    0 -0.00000000000E+00 -0.00000000000E+00 -0.16109996665E+03  0.16109996665E+03  0.00000000000E+00 0. -1.
         24    2    1    2    0    0  0.67870340695E+01 -0.38080253471E+02 -0.10761819189E+03  0.14009994138E+03  0.80932989646E+02 0.  0.
         25    2    1    2    0    0  0.22762740034E+02  0.24081322453E+02  0.82237876187E+02  0.15332650570E+03  0.12509155305E+03 0.  0.
        -24    2    1    2    0    0 -0.29549774103E+02  0.13998931018E+02  0.10526801154E+04  0.10560732859E+04  0.78014105598E+02 0.  0.
        -11    1    3    3    0    0 -0.10768400955E+02  0.10746907684E+02 -0.79777951638E+02  0.81215614579E+02  0.00000000000E+00 0.  1.
         12    1    3    3    0    0  0.17555435025E+02 -0.48827161154E+02 -0.27840240247E+02  0.58884326797E+02  0.00000000000E+00 0. -1.
         13    1    5    5    0    0 -0.52661768948E+01  0.24138165209E+02  0.99205140458E+02  0.10223523625E+03  0.00000000000E+00 0. -1.
        -14    1    5    5    0    0 -0.24283597208E+02 -0.10139234191E+02  0.95347497495E+03  0.95383804969E+03  0.00000000000E+00 0.  1.
          5    1    4    4  501    0  0.71105459517E+02  0.34892096065E+02  0.44797399414E+02  0.91091844504E+02  0.41800000000E+01 0. -1.
         -5    1    4    4    0  501 -0.48342719483E+02 -0.10810773612E+02  0.37440476773E+02  0.62234661195E+02  0.41800000000E+01 0. -1.
</event>
<event>
11    1  0.8328696E-009  0.1934845E+03  0.7561462E-02  0.1059229E+00
         22   -1    0    0    0    0  0.00000000000E+00  0.00000000000E+00  0.53509539665E+03  0.53509539665E+03  0.00000000000E+00 0. -1.
         22   -1    0    0    0    0 -0.00000000000E+00 -0.00000000000E+00 -0.31302541577E+03  0.31302541577E+03  0.00000000000E+00 0.  1.
        -24    2    1    2    0    0 -0.44822579782E+02 -0.67017444311E+01 -0.19086011230E+03  0.21183962986E+03  0.79965425495E+02 0.  0.
         25    2    1    2    0    0 -0.80671347283E+02 -0.82045302831E+02 -0.18547639705E+02  0.17097320384E+03  0.12509405863E+03 0.  0.
         24    2    1    2    0    0  0.12549392707E+03  0.88747047262E+02  0.43147773288E+03  0.46530797872E+03  0.81937274517E+02 0.  0.
        -11    1    5    5    0    0 -0.48941101027E+01  0.66413772021E+01  0.12807894256E+01  0.83486901003E+01  0.00000000000E+00 0.  1.
         12    1    5    5    0    0  0.13038803717E+03  0.82105670060E+02  0.43019694346E+03  0.45695928862E+03  0.00000000000E+00 0. -1.
         13    1    3    3    0    0 -0.54158909516E+02 -0.10705678859E+02 -0.63781692341E+02  0.84355813776E+02  0.00000000000E+00 0. -1.
        -14    1    3    3    0    0  0.93363297343E+01  0.40039344277E+01 -0.12707841996E+03  0.12748381608E+03  0.00000000000E+00 0.  1.
          5    1    4    4  501    0 -0.29380434445E+02 -0.10111433966E+03 -0.39058982762E+02  0.11238503525E+03  0.41800000000E+01 0. -1.
         -5    1    4    4    0  501 -0.51290912838E+02  0.19069036827E+02  0.20511343057E+02  0.58588168595E+02  0.41800000000E+01 0. -1.
</event>
<event>
11    1  0.8328696E-009  0.1506214E+03  0.7561462E-02  0.1096245E+00
         22   -1    0    0    0    0  0.00000000000E+00  0.00000000000E+00  0.77154350020E+03  0.77154350020E+03  0.00000000000E+00 0.  1.
         22   -1    0    0    0    0 -0.00000000000E+00 -0.00000000000E+00 -0.32216999102E+03  0.32216999102E+03  0.00000000000E+00 0. -1.
        -24    2    1    2    0    0 -0.77135849243E+02 -0.18179517253E+02 -0.20124198699E+03  0.23060670432E+03  0.80004254040E+02 0.  0.
         25    2    1    2    0    0  0.95024781929E+02  0.49905463016E+02 -0.37727010573E+02  0.16908796031E+03  0.12508855493E+03 0.  0.
         24    2    1    2    0    0 -0.17888932686E+02 -0.31725945763E+02  0.68834250674E+03  0.69401882658E+03  0.80747603756E+02 0.  0.
        -13    1    5    5    0    0  0.15758036277E+02  0.48552679585E+01  0.46153074073E+03  0.46182519850E+03  0.00000000000E+00 0.  1.
         14    1    5    5    0    0 -0.33646968963E+02 -0.36581213722E+02  0.22681176601E+03  0.23219362808E+03  0.00000000000E+00 0. -1.
         13    1    3    3    0    0 -0.87708597075E+02 -0.83645013923E+01 -0.19662001672E+03  0.21545810233E+03  0.00000000000E+00 0. -1.
        -14    1    3    3    0    0  0.10572747832E+02 -0.98150158605E+01 -0.46219702660E+01  0.15148601989E+02  0.00000000000E+00 0.  1.
          5    1    4    4  501    0  0.18142620462E+02  0.20401100945E+02  0.44670601865E+02  0.52519469419E+02  0.41800000000E+01 0. -1.
         -5    1    4    4    0  501  0.76882161468E+02  0.29504362071E+02 -0.82397612439E+02  0.11656849089E+03  0.41800000000E+01 0. -1.
</event>
<event>
11    1  0.8328696E-009  0.1937278E+03  0.7561462E-02  0.1059050E+00
         22   -1    0    0    0    0  0.00000000000E+00  0.00000000000E+00  0.57408895447E+03  0.57408895447E+03  0.00000000000E+00 0. -1.
         22   -1    0    0    0    0 -0.00000000000E+00 -0.00000000000E+00 -0.13379281559E+03  0.13379281559E+03  0.00000000000E+00 0. -1.
         24    2    1    2    0    0  0.60155839354E+01 -0.29953863016E+01  0.50650485879E+01  0.81991325915E+02  0.81558342424E+02 0.  0.
         25    2    1    2    0    0  0.13766502820E+03 -0.37032589104E+02  0.38352870755E+02  0.19350241785E+03  0.12509664414E+03 0.  0.
        -24    2    1    2    0    0 -0.14368061213E+03  0.40027975406E+02  0.39687821954E+03  0.43238802629E+03  0.84857097635E+02 0.  0.
        -13    1    3    3    0    0 -0.27662339976E+02 -0.18256455861E+02  0.23545453907E+02  0.40655769987E+02  0.00000000000E+00 0.  1.
         14    1    3    3    0    0  0.33677923912E+02  0.15261069560E+02 -0.18480405319E+02  0.41335555928E+02  0.00000000000E+00 0. -1.
         13    1    5    5    0    0 -0.50684670632E+02  0.57348437115E+02  0.19351830456E+03  0.20810361187E+03  0.00000000000E+00 0. -1.
        -14    1    5    5    0    0 -0.92995941500E+02 -0.17320461710E+02  0.20335991498E+03  0.22428441442E+03  0.00000000000E+00 0.  1.
          5    1    4    4  501    0  0.70633552134E+02  0.43709552902E+02  0.28929089659E+02  0.88056733590E+02  0.41800000000E+01 0. -1.
         -5    1    4    4    0  501  0.67031476062E+02 -0.80742142006E+02  0.94237810960E+01  0.10544568426E+03  0.41800000000E+01 0. -1.
</event>
<event>
11    1  0.8328696E-009  0.1968681E+03  0.7561462E-02  0.1056761E+00
         22   -1    0    0    0    0  0.00000000000E+00  0.00000000000E+00  0.25751625058E+03  0.25751625058E+03  0.00000000000E+00 0.  1.
         22   -1    0    0    0    0 -0.00000000000E+00 -0.00000000000E+00 -0.59717380727E+03  0.59717380727E+03  0.00000000000E+00 0.  1.
        -24    2    1    2    0    0 -0.94882204183E+02  0.12245283882E+03 -0.44617388001E+03  0.47932419042E+03  0.81750950510E+02 0.  0.
         25    2    1    2    0    0  0.77469488927E+02 -0.11662324144E+03 -0.53684224756E+02  0.19526865297E+03  0.12508136826E+03 0.  0.
         24    2    1    2    0    0  0.17412715256E+02 -0.58295973843E+01  0.16020054808E+03  0.18009721446E+03  0.80209751247E+02 0.  0.
        -11    1    5    5    0    0  0.18470486780E+02 -0.35997367422E+02  0.13449523700E+03  0.14044905880E+03  0.00000000000E+00 0.  1.
         12    1    5    5    0    0 -0.10577715238E+01  0.30167770038E+02  0.25705311078E+02  0.39648155661E+02  0.00000000000E+00 0. -1.
         11    1    3    3    0    0 -0.41647036583E+02  0.52019801105E+02 -0.87736617621E+02  0.11017372388E+03  0.00000000000E+00 0. -1.
        -12    1    3    3    0    0 -0.53235167600E+02  0.70433037717E+02 -0.35843726239E+03  0.36915046654E+03  0.00000000000E+00 0.  1.
          5    1    4    4  501    0  0.10086093564E+03 -0.42729243198E+02 -0.24351976715E+02  0.11229072861E+03  0.41800000000E+01 0.  1.
         -5    1    4    4    0  501 -0.23391446712E+02 -0.73893998239E+02 -0.29332248040E+02  0.82977924354E+02  0.41800000000E+01 0.  1.
</event>
<event>
11    1  0.8328696E-009  0.1591871E+03  0.7561462E-02  0.1087844E+00
         22   -1    0    0    0    0  0.00000000000E+00  0.00000000000E+00  0.49265018008E+03  0.49265018008E+03  0.00000000000E+00 0. -1.
         22   -1    0    0    0    0 -0.00000000000E+00 -0.00000000000E+00 -0.82641846607E+03  0.82641846607E+03  0.00000000000E+00 0. -1.
        -24    2    1    2    0    0 -0.34611880152E+02  0.43919346807E+02 -0.70854536510E+03  0.71524555966E+03  0.80079865989E+02 0.  0.
         25    2    1    2    0    0  0.59427721537E+01 -0.13528432350E+03 -0.24095758564E+02  0.18591737419E+03  0.12508996650E+03 0.  0.
         24    2    1    2    0    0  0.28669107999E+02  0.91364976694E+02  0.39887283767E+03  0.41790571231E+03  0.79850904994E+02 0.  0.
        -11    1    5    5    0    0 -0.17889037293E+02  0.68001948542E+02  0.26736595104E+03  0.27645765397E+03  0.00000000000E+00 0.  1.
         12    1    5    5    0    0  0.46558145292E+02  0.23363028153E+02  0.13150688663E+03  0.14144805834E+03  0.00000000000E+00 0. -1.
         11    1    3    3    0    0  0.18075339493E+02  0.39595006340E+02 -0.37831441410E+03  0.38081002920E+03  0.00000000000E+00 0. -1.
        -12    1    3    3    0    0 -0.52687219645E+02  0.43243404665E+01 -0.33023095100E+03  0.33443553046E+03  0.00000000000E+00 0.  1.
          5    1    4    4  501    0 -0.12512362525E-01 -0.13114971960E+03  0.27147580451E+02  0.13399519630E+03  0.41800000000E+01 0. -1.
         -5    1    4    4    0  501  0.59552845163E+01 -0.41346038996E+01 -0.51243339015E+02  0.51922177887E+02  0.41800000000E+01 0. -1.
</event>
<event>
11    1  0.8328696E-009  0.1483086E+03  0.7561462E-02  0.1098620E+00
         22   -1    0    0    0    0  0.00000000000E+00  0.00000000000E+00  0.99649606406E+02  0.99649606406E+02  0.00000000000E+00 0. -1.
         22   -1    0    0    0    0 -0.00000000000E+00 -0.00000000000E+00 -0.71878949788E+03  0.71878949788E+03  0.00000000000E+00 0. -1.
        -24    2    1    2    0    0 -0.12465661815E+02  0.71830420268E+02 -0.46548288448E+03  0.47723640659E+03  0.75929375274E+02 0.  0.
         25    2    1    2    0    0  0.20441806399E+02 -0.11953467282E+03 -0.17400105997E+03  0.24623255200E+03  0.12509074842E+03 0.  0.
         24    2    1    2    0    0 -0.79761445839E+01  0.47704252551E+02  0.20344052972E+02  0.94970145701E+02  0.79158912886E+02 0.  0.
        -13    1    5    5    0    0 -0.40975089291E+01 -0.38212154330E+00 -0.27038720895E+02  0.27350100986E+02  0.00000000000E+00 0.  1.
         14    1    5    5    0    0 -0.38786356548E+01  0.48086374095E+02  0.47382773866E+02  0.67620044716E+02  0.00000000000E+00 0. -1.
         11    1    3    3    0    0 -0.43408665631E+02  0.43333373117E+02 -0.23067952041E+03  0.23869464723E+03  0.00000000000E+00 0. -1.
        -12    1    3    3    0    0  0.30943003816E+02  0.28497047150E+02 -0.23480336406E+03  0.23854175936E+03  0.00000000000E+00 0.  1.
          5    1    4    4  501    0  0.26327424165E+01 -0.88120203044E+02 -0.23402424684E+02  0.91308528617E+02  0.41800000000E+01 0.  1.
         -5    1    4    4    0  501  0.17809063982E+02 -0.31414469775E+02 -0.15059863529E+03  0.15492402338E+03  0.41800000000E+01 0.  1.
</event>
<event>
11    1  0.8328696E-009  0.1413729E+03  0.7561462E-02  0.1106035E+00
         22   -1    0    0    0    0  0.00000000000E+00  0.00000000000E+00  0.82681988592E+03  0.82681988592E+03  0.00000000000E+00 0.  1.
         22   -1    0    0    0    0 -0.00000000000E+00 -0.00000000000E+00 -0.20497823258E+03  0.20497823258E+03  0.00000000000E+00 0. -1.
         24    2    1    2    0    0  0.19833721856E+02  0.47734068361E+02 -0.14261437496E+03  0.17047066057E+03  0.77778328374E+02 0.  0.
         25    2    1    2    0    0 -0.62322620614E+02 -0.92794371125E+02  0.11360883728E+03  0.20260280253E+03  0.12508406506E+03 0.  0.
        -24    2    1    2    0    0  0.42488898759E+02  0.45060302764E+02  0.65084719102E+03  0.65872465539E+03  0.80500733905E+02 0.  0.
        -13    1    3    3    0    0  0.17391811803E+01 -0.21558728236E+02 -0.37183366223E+02  0.43016348497E+02  0.00000000000E+00 0.  1.
         14    1    3    3    0    0  0.18094540676E+02  0.69292796597E+02 -0.10543100874E+03  0.12745431207E+03  0.00000000000E+00 0. -1.
         13    1    5    5    0    0  0.22842643277E+02 -0.12118822830E+02  0.68009987092E+02  0.72759951642E+02  0.00000000000E+00 0. -1.
        -14    1    5    5    0    0  0.19646255482E+02  0.57179125594E+02  0.58283720393E+03  0.58596470375E+03  0.00000000000E+00 0.  1.
          5    1    4    4  501    0 -0.18789483573E+02  0.29431046454E+02  0.10143149509E+02  0.36600369810E+02  0.41800000000E+01 0.  1.
         -5    1    4    4    0  501 -0.43533137042E+02 -0.12222541758E+03  0.10346568778E+03  0.16600243272E+03  0.41800000000E+01 0.  1.
</event>
<event>
11    1  0.8328696E-009  0.1411811E+03  0.7561462E-02  0.1106247E+00
         22   -1    0    0    0    0  0.00000000000E+00  0.00000000000E+00  0.68595652938E+03  0.68595652938E+03  0.00000000000E+00 0.  1.
         22   -1    0    0    0    0 -0.00000000000E+00 -0.00000000000E+00 -0.25674093324E+03  0.25674093324E+03  0.00000000000E+00 0. -1.
        -24    2    1    2    0    0  0.48460546648E+02  0.31005968058E+02 -0.17204869011E+03  0.19747684761E+03  0.78016401723E+02 0.  0.
         25    2    1    2    0    0 -0.73698434492E+02 -0.88036214285E+02  0.39590957665E+02  0.17434448574E+03  0.12508685585E+03 0.  0.
         24    2    1    2    0    0  0.25237887844E+02  0.57030246227E+02  0.56167332859E+03  0.57087612927E+03  0.80828379634E+02 0.  0.
        -11    1    5    5    0    0  0.25908453687E+02 -0.76221952847E+00  0.36413358308E+03  0.36505492090E+03  0.00000000000E+00 0.  1.
         12    1    5    5    0    0 -0.67056584258E+00  0.57792465755E+02  0.19753974551E+03  0.20582120837E+03  0.00000000000E+00 0. -1.
         11    1    3    3    0    0  0.29859623698E+02  0.39890775154E+02 -0.16954011242E+03  0.17671083948E+03  0.00000000000E+00 0. -1.
        -12    1    3    3    0    0  0.18600922950E+02 -0.88848070959E+01 -0.25085776876E+01  0.20766008132E+02  0.00000000000E+00 0.  1.
          5    1    4    4  501    0 -0.60119900203E+02  0.11215948501E+02  0.41561973877E+02  0.74061258251E+02  0.41800000000E+01 0. -1.
         -5    1    4    4    0  501 -0.13578534289E+02 -0.99252162786E+02 -0.19710162119E+01  0.10028322749E+03  0.41800000000E+01 0. -1.
</event>
<event>
11    1  0.8328696E-009  0.4435282E+03  0.7561462E-02  0.9529394E-01
         22   -1    0    0    0    0  0.00000000000E+00  0.00000000000E+00  0.71853915929E+03  0.71853915929E+03  0.00000000000E+00 0.  1.
         22   -1    0    0    0    0 -0.00000000000E+00 -0.00000000000E+00 -0.12919231229E+04  0.12919231229E+04  0.00000000000E+00 0.  1.
        -24    2    1    2    0    0  0.32050788186E+03 -0.64149268544E+02 -0.89133442116E+03  0.95238222932E+03  0.75593844899E+02 0.  0.
         25    2    1    2    0    0  0.11356840603E+03  0.18050257311E+03 -0.23520168717E+03  0.34124205394E+03  0.12508934399E+03 0.  0.
         24    2    1    2    0    0 -0.43407628789E+03 -0.11635330457E+03  0.55315214468E+03  0.71683799897E+03  0.76935729107E+02 0.  0.
        -11    1    5    5    0    0 -0.27781361988E+03 -0.49520938337E+02  0.38879662734E+03  0.48041185263E+03  0.00000000000E+00 0.  1.
         12    1    5    5    0    0 -0.15626266801E+03 -0.66832366234E+02  0.16435551734E+03  0.23642614633E+03  0.00000000000E+00 0. -1.
         11    1    3    3    0    0  0.15327693254E+03 -0.11365935857E+02 -0.51003487431E+03  0.53268994318E+03  0.00000000000E+00 0. -1.
        -12    1    3    3    0    0  0.16723094932E+03 -0.52783332687E+02 -0.38129954685E+03  0.41969228614E+03  0.00000000000E+00 0.  1.
          5    1    4    4  501    0 -0.22552464518E+02  0.44105058086E+02 -0.78114341132E+02  0.92591535764E+02  0.41800000000E+01 0. -1.
         -5    1    4    4    0  501  0.13612087054E+03  0.13639751503E+03 -0.15708734603E+03  0.24865051817E+03  0.41800000000E+01 0. -1.
</event>
<event>
11    1  0.8328696E-009  0.3035948E+03  0.7561462E-02  0.9986812E-01
         22   -1    0    0    0    0  0.00000000000E+00  0.00000000000E+00  0.10465925605E+04  0.10465925605E+04  0.00000000000E+00 0.  1.
         22   -1    0    0    0    0 -0.00000000000E+00 -0.00000000000E+00 -0.34888589484E+03  0.34888589484E+03  0.00000000000E+00 0.  1.
         24    2    1    2    0    0  0.22803259572E+02 -0.84767983717E+02 -0.23733777602E+03  0.26569435161E+03  0.80985608853E+02 0.  0.
         25    2    1    2    0    0  0.47884854274E+02 -0.21171229727E+03  0.17122621379E+03  0.30345087198E+03  0.12509580061E+03 0.  0.
        -24    2    1    2    0    0 -0.70688113847E+02  0.29648028099E+03  0.76381822792E+03  0.82633323178E+03  0.80690508639E+02 0.  0.
        -13    1    3    3    0    0 -0.87285023527E+01 -0.73953011838E+02 -0.10186913185E+03  0.12618460578E+03  0.00000000000E+00 0.  1.
         14    1    3    3    0    0  0.31531761925E+02 -0.10814971879E+02 -0.13546864418E+03  0.13950974583E+03  0.00000000000E+00 0. -1.
         13    1    5    5    0    0 -0.39976447440E+02  0.64286294869E+02  0.12752417805E+03  0.14830124762E+03  0.00000000000E+00 0. -1.
        -14    1    5    5    0    0 -0.30711666407E+02  0.23219398612E+03  0.63629404987E+03  0.67803198416E+03  0.00000000000E+00 0.  1.
          5    1    4    4  501    0  0.13908377196E+02  0.14353849141E+02  0.57623518342E+01  0.21216810318E+02  0.41800000000E+01 0. -1.
         -5    1    4    4    0  501  0.33976477078E+02 -0.22606614641E+03  0.16546386196E+03  0.28223406166E+03  0.41800000000E+01 0. -1.
</event>
<event>
11    1  0.8328696E-009  0.1743526E+03  0.7561462E-02  0.1074305E+00
         22   -1    0    0    0    0  0.00000000000E+00  0.00000000000E+00  0.18705213028E+03  0.18705213028E+03  0.00000000000E+00 0. -1.
         22   -1    0    0    0    0 -0.00000000000E+00 -0.00000000000E+00 -0.72147412450E+03  0.72147412450E+03  0.00000000000E+00 0. -1.
         24    2    1    2    0    0  0.47349551574E+02  0.11770175873E+03 -0.22765916820E+03  0.27402256197E+03  0.84640318773E+02 0.  0.
         25    2    1    2    0    0 -0.27045370206E+02 -0.11512844364E+03 -0.44305816671E+03  0.47532617512E+03  0.12509365727E+03 0.  0.
        -24    2    1    2    0    0 -0.20304181368E+02 -0.25733150925E+01  0.13629534069E+03  0.15917751769E+03  0.79637808310E+02 0.  0.
        -13    1    3    3    0    0 -0.23310748321E+02  0.15771155442E+02 -0.49530064847E+02  0.56967952877E+02  0.00000000000E+00 0.  1.
         14    1    3    3    0    0  0.70660299895E+02  0.10193060329E+03 -0.17812910335E+03  0.21705460909E+03  0.00000000000E+00 0. -1.
         13    1    5    5    0    0  0.18164497244E+02  0.20858762623E+02  0.91747220821E+02  0.95825828808E+02  0.00000000000E+00 0. -1.
        -14    1    5    5    0    0 -0.38468678612E+02 -0.23432077716E+02  0.44548119867E+02  0.63351688879E+02  0.00000000000E+00 0.  1.
          5    1    4    4  501    0  0.63560012751E+01 -0.91014187418E+02 -0.41589178800E+03  0.42580210520E+03  0.41800000000E+01 0.  1.
         -5    1    4    4    0  501 -0.33401371481E+02 -0.24114256224E+02 -0.27166378701E+02  0.49524069923E+02  0.41800000000E+01 0.  1.
</event>
<event>
11    1  0.8328696E-009  0.1386319E+03  0.7561462E-02  0.1109096E+00
         22   -1    0    0    0    0  0.00000000000E+00  0.00000000000E+00  0.47467662509E+03  0.47467662509E+03  0.00000000000E+00 0.  1.
         22   -1    0    0    0    0 -0.00000000000E+00 -0.00000000000E+00 -0.42461502948E+03  0.42461502948E+03  0.00000000000E+00 0.  1.
         24    2    1    2    0    0 -0.25225273442E+01 -0.61933349868E+02 -0.38228189105E+03  0.39610676564E+03  0.83180662339E+02 0.  0.
         25    2    1    2    0    0 -0.21145895442E+02  0.14796413321E+02  0.11531904857E+03  0.17207230119E+03  0.12507722068E+03 0.  0.
        -24    2    1    2    0    0  0.23668422786E+02  0.47136936547E+02  0.31702443808E+03  0.33111258773E+03  0.79680401537E+02 0.  0.
        -13    1    3    3    0    0  0.12783351351E+02 -0.78453255720E+02 -0.32443882351E+03  0.33403424616E+03  0.00000000000E+00 0.  1.
         14    1    3    3    0    0 -0.15305878695E+02  0.16519905852E+02 -0.57843067545E+02  0.62072519483E+02  0.00000000000E+00 0. -1.
         11    1    5    5    0    0 -0.22994368873E+02  0.41986638079E+02  0.13947801216E+03  0.14746435045E+03  0.00000000000E+00 0. -1.
        -12    1    5    5    0    0  0.46662791659E+02  0.51502984680E+01  0.17754642592E+03  0.18364823728E+03  0.00000000000E+00 0.  1.
          5    1    4    4  501    0 -0.68070615856E+02  0.20123337013E+02  0.99086519415E+02  0.12195969894E+03  0.41800000000E+01 0. -1.
         -5    1    4    4    0  501  0.46924720414E+02 -0.53269236923E+01  0.16232529160E+02  0.50112602256E+02  0.41800000000E+01 0. -1.
</event>
<event>
11    1  0.8328696E-009  0.2622280E+03  0.7561462E-02  0.1017580E+00
         22   -1    0    0    0    0  0.00000000000E+00  0.00000000000E+00  0.43610697585E+03  0.43610697585E+03  0.00000000000E+00 0.  1.
         22   -1    0    0    0    0 -0.00000000000E+00 -0.00000000000E+00 -0.55254203387E+03  0.55254203387E+03  0.00000000000E+00 0. -1.
         24    2    1    2    0    0 -0.15629777283E+03 -0.16541528538E+03 -0.41985624729E+03  0.48466023308E+03  0.82613937708E+02 0.  0.
         25    2    1    2    0    0  0.12800625127E+03  0.22859222187E+03  0.19808805358E+03  0.35146274622E+03  0.12508869150E+03 0.  0.
        -24    2    1    2    0    0  0.28291521562E+02 -0.63176936490E+02  0.10533313569E+03  0.15252603042E+03  0.85891704977E+02 0.  0.
        -13    1    3    3    0    0 -0.14114680734E+03 -0.95140297038E+02 -0.29563986251E+03  0.34114077101E+03  0.00000000000E+00 0.  1.
         14    1    3    3    0    0 -0.15150965495E+02 -0.70274988347E+02 -0.12421638479E+03  0.14351946207E+03  0.00000000000E+00 0. -1.
         11    1    5    5    0    0  0.50561578636E+02 -0.99482282028E+01  0.60394315485E+02  0.79390892560E+02  0.00000000000E+00 0. -1.
        -12    1    5    5    0    0 -0.22270057074E+02 -0.53228708287E+02  0.44938820204E+02  0.73135137857E+02  0.00000000000E+00 0.  1.
          5    1    4    4  501    0  0.13904019139E+02  0.10384820087E+03  0.21651537404E+02  0.10707022016E+03  0.41800000000E+01 0.  1.
         -5    1    4    4    0  501  0.11410223213E+03  0.12474402100E+03  0.17643651618E+03  0.24439252606E+03  0.41800000000E+01 0.  1.
</event>
<event>
11    1  0.8328696E-009  0.1394731E+03  0.7561462E-02  0.1108148E+00
         22   -1    0    0    0    0  0.00000000000E+00  0.00000000000E+00  0.26871529349E+03  0.26871529349E+03  0.00000000000E+00 0.  1.
         22   -1    0    0    0    0 -0.00000000000E+00 -0.00000000000E+00 -0.36088284664E+03  0.36088284664E+03  0.00000000000E+00 0.  1.
         24    2    1    2    0    0  0.11734980268E+01  0.55787057404E+01 -0.15749802976E+03  0.17677332075E+03  0.80066712792E+02 0.  0.
         25    2    1    2    0    0 -0.49688115949E+02 -0.43271311745E+02 -0.15523040512E+03  0.20996491467E+03  0.12508985344E+03 0.  0.
        -24    2    1    2    0    0  0.48514617922E+02  0.37692606005E+02  0.22056088172E+03  0.24285990471E+03  0.80990308498E+02 0.  0.
        -11    1    3    3    0    0 -0.32790186780E+02  0.19873239424E+02 -0.11105325840E+03  0.11748603404E+03  0.00000000000E+00 0.  1.
         12    1    3    3    0    0  0.33963684806E+02 -0.14294533683E+02 -0.46444771358E+02  0.59287286709E+02  0.00000000000E+00 0. -1.
         13    1    5    5    0    0 -0.19767647601E+02  0.27681793868E+01  0.20549195765E+02  0.28647725135E+02  0.00000000000E+00 0. -1.
        -14    1    5    5    0    0  0.68282265523E+02  0.34924426618E+02  0.20001168595E+03  0.21421217957E+03  0.00000000000E+00 0.  1.
          5    1    4    4  501    0  0.29289917935E+02  0.16658684181E+02 -0.75106496886E+02  0.82424931458E+02  0.41800000000E+01 0. -1.
         -5    1    4    4    0  501 -0.78978033884E+02 -0.59929995926E+02 -0.80123908232E+02  0.12753998321E+03  0.41800000000E+01 0. -1.
</event>
<event>
11    1  0.8328696E-009  0.2651324E+03  0.7561462E-02  0.1016133E+00
         22   -1    0    0    0    0  0.00000000000E+00  0.00000000000E+00  0.36608530425E+04  0.36608530425E+04  0.00000000000E+00 0. -1.
         22   -1    0    0    0    0 -0.00000000000E+00 -0.00000000000E+00 -0.18369611885E+04  0.18369611885E+04  0.00000000000E+00 0.  1.
         24    2    1    2    0    0 -0.12007172920E+02  0.24457838663E+02 -0.17943907484E+04  0.17963023456E+04  0.78240659798E+02 0.  0.
         25    2    1    2    0    0 -0.16103481301E+03  0.13703504008E+03  0.37283764781E+03  0.44650393285E+03  0.12508811780E+03 0.  0.
        -24    2    1    2    0    0  0.17304198593E+03 -0.16149287875E+03  0.32454449546E+04  0.32550079526E+04  0.78360321115E+02 0.  0.
        -11    1    3    3    0    0 -0.78647317900E+01 -0.18578177951E+02 -0.12612717660E+04  0.12614331018E+04  0.00000000000E+00 0.  1.
         12    1    3    3    0    0 -0.41424411296E+01  0.43036016613E+02 -0.53311898242E+03  0.53486924380E+03  0.00000000000E+00 0. -1.
         13    1    5    5    0    0  0.94548867766E+02 -0.85243171139E+02  0.22425472280E+04  0.22461575983E+04  0.00000000000E+00 0. -1.
        -14    1    5    5    0    0  0.78493118161E+02 -0.76249707608E+02  0.10028977265E+04  0.10088503543E+04  0.00000000000E+00 0.  1.
          5    1    4    4  501    0 -0.12011936424E+03  0.14987931259E+03  0.34594777759E+03  0.39571430000E+03  0.41800000000E+01 0.  1.
         -5    1    4    4    0  501 -0.40915448770E+02 -0.12844272505E+02  0.26889870215E+02  0.50789632844E+02  0.41800000000E+01 0.  1.
</event>
<event>
11    1  0.8328696E-009  0.1422441E+03  0.7561462E-02  0.1105078E+00
         22   -1    0    0    0    0  0.00000000000E+00  0.00000000000E+00  0.67858763826E+03  0.67858763826E+03  0.00000000000E+00 0.  1.
         22   -1    0    0    0    0 -0.00000000000E+00 -0.00000000000E+00 -0.42104189368E+03  0.42104189368E+03  0.00000000000E+00 0.  1.
         24    2    1    2    0    0 -0.65670412745E+02 -0.20267243777E+02 -0.37821654986E+03  0.39271652945E+03  0.80343945853E+02 0.  0.
         25    2    1    2    0    0  0.57428044420E+02 -0.38511380096E+02  0.13825075933E+03  0.19884995338E+03  0.12508766854E+03 0.  0.
        -24    2    1    2    0    0  0.82423683246E+01  0.58778623874E+02  0.49751153512E+03  0.50806304910E+03  0.84187119136E+02 0.  0.
        -13    1    3    3    0    0 -0.17495159461E+02 -0.37916441843E+02 -0.26687907660E+03  0.27012622733E+03  0.00000000000E+00 0.  1.
         14    1    3    3    0    0 -0.48175253284E+02  0.17649198066E+02 -0.11133747327E+03  0.12259030213E+03  0.00000000000E+00 0. -1.
         13    1    5    5    0    0  0.27797342540E+02  0.17685951232E+01  0.56934341109E+02  0.63382484793E+02  0.00000000000E+00 0. -1.
        -14    1    5    5    0    0 -0.19554974215E+02  0.57010028751E+02  0.44057719401E+03  0.44468056431E+03  0.00000000000E+00 0.  1.
          5    1    4    4  501    0  0.37376872233E+02 -0.15945538165E+02 -0.14302933139E+02  0.43282063972E+02  0.41800000000E+01 0. -1.
         -5    1    4    4    0  501  0.20051172188E+02 -0.22565841931E+02  0.15255369247E+03  0.15556788941E+03  0.41800000000E+01 0. -1.
</event>
<event>
11    1  0.8328696E-009  0.1454530E+03  0.7561462E-02  0.1101618E+00
         22   -1    0    0    0    0  0.00000000000E+00  0.00000000000E+00  0.22194673099E+03  0.22194673099E+03  0.00000000000E+00 0.  1.
         22   -1    0    0    0    0 -0.00000000000E+00 -0.00000000000E+00 -0.10105556478E+04  0.10105556478E+04  0.00000000000E+00 0. -1.
        -24    2    1    2    0    0  0.23640050034E+02  0.43853828365E+02 -0.67801147652E+03  0.68449529092E+03  0.79700883112E+02 0.  0.
         25    2    1    2    0    0 -0.71110635866E+02  0.14274306724E+02 -0.29779894429E+03  0.33104806158E+03  0.12509248375E+03 0.  0.
         24    2    1    2    0    0  0.47470585832E+02 -0.58128135089E+02  0.18720150403E+03  0.21695902626E+03  0.79965488530E+02 0.  0.
        -11    1    5    5    0    0  0.14320341693E+02 -0.90884277795E+00  0.12613112866E+03  0.12694471158E+03  0.00000000000E+00 0.  1.
         12    1    5    5    0    0  0.33150244140E+02 -0.57219292311E+02  0.61070375372E+02  0.90014314679E+02  0.00000000000E+00 0. -1.
         11    1    3    3    0    0 -0.18027958394E+02 -0.80871952211E+01 -0.66622873709E+02  0.69491131173E+02  0.00000000000E+00 0. -1.
        -12    1    3    3    0    0  0.41668008428E+02  0.51941023586E+02 -0.61138860281E+03  0.61500415974E+03  0.00000000000E+00 0.  1.
          5    1    4    4  501    0 -0.34627221514E+02 -0.48067530189E+02 -0.68780844195E+02  0.90872486795E+02  0.41800000000E+01 0. -1.
         -5    1    4    4    0  501 -0.36483414353E+02  0.62341836913E+02 -0.22901810009E+03  0.24017557479E+03  0.41800000000E+01 0. -1.
</event>
<event>
11    1  0.8328696E-009  0.1510002E+03  0.7561462E-02  0.1095861E+00
         22   -1    0    0    0    0  0.00000000000E+00  0.00000000000E+00  0.47605212444E+02  0.47605212444E+02  0.00000000000E+00 0. -1.
         22   -1    0    0    0    0 -0.00000000000E+00 -0.00000000000E+00 -0.91146576405E+03  0.91146576405E+03  0.00000000000E+00 0.  1.
        -24    2    1    2    0    0 -0.14994179810E+02  0.36713639094E+02 -0.47480199988E+03  0.48332927791E+03  0.81225212048E+02 0.  0.
         25    2    1    2    0    0  0.82724444722E+02 -0.65945340005E+02 -0.25206017947E+03  0.30062112205E+03  0.12508638347E+03 0.  0.
         24    2    1    2    0    0 -0.67730264911E+02  0.29231700911E+02 -0.13699837227E+03  0.17512057653E+03  0.80354098831E+02 0.  0.
        -13    1    5    5    0    0  0.17300690990E+02  0.11769303012E+01 -0.37193350945E+02  0.41037110378E+02  0.00000000000E+00 0.  1.
         14    1    5    5    0    0 -0.85030955901E+02  0.28054770610E+02 -0.99805021321E+02  0.13408346616E+03  0.00000000000E+00 0. -1.
         11    1    3    3    0    0  0.23030820835E+02 -0.12528087486E+02 -0.19078479134E+03  0.19257779802E+03  0.00000000000E+00 0. -1.
        -12    1    3    3    0    0 -0.38025000646E+02  0.49241726580E+02 -0.28401720854E+03  0.29075147989E+03  0.00000000000E+00 0.  1.
          5    1    4    4  501    0  0.36827122548E+02 -0.29951167981E+02 -0.23489000828E+03  0.23967498369E+03  0.41800000000E+01 0. -1.
         -5    1    4    4    0  501  0.45897322174E+02 -0.35994172025E+02 -0.17170171185E+02  0.60946138360E+02  0.41800000000E+01 0. -1.
</event>
<event>
11    1  0.8328696E-009  0.1657283E+03  0.7561462E-02  0.1081810E+00
         22   -1    0    0    0    0  0.00000000000E+00  0.00000000000E+00  0.24156942129E+03  0.24156942129E+03  0.00000000000E+00 0. -1.
         22   -1    0    0    0    0 -0.00000000000E+00 -0.00000000000E+00 -0.90289632875E+03  0.90289632875E+03  0.00000000000E+00 0. -1.
         24    2    1    2    0    0 -0.77110567206E+01 -0.40762453997E+02 -0.68824137107E+03  0.69418041089E+03  0.80555694781E+02 0.  0.
         25    2    1    2    0    0  0.50237397518E+02  0.13595220021E+03 -0.13967033294E+03  0.23698367466E+03  0.12508662317E+03 0.  0.
        -24    2    1    2    0    0 -0.42526340797E+02 -0.95189746216E+02  0.16658479656E+03  0.21330166449E+03  0.82930863882E+02 0.  0.
        -11    1    3    3    0    0  0.29994146643E+02 -0.25558616314E+02 -0.17741341652E+03  0.18173720605E+03  0.00000000000E+00 0.  1.
         12    1    3    3    0    0 -0.37705203363E+02 -0.15203837683E+02 -0.51082795455E+03  0.51244320484E+03  0.00000000000E+00 0. -1.
         11    1    5    5    0    0  0.23031340717E+02 -0.85871747811E+01  0.29309313567E+02  0.38252033772E+02  0.00000000000E+00 0. -1.
        -12    1    5    5    0    0 -0.65557681514E+02 -0.86602571435E+02  0.13727548299E+03  0.17504963072E+03  0.00000000000E+00 0.  1.
          5    1    4    4  501    0  0.79634118633E+02  0.61594152329E+02 -0.38273231602E+02  0.10778564426E+03  0.41800000000E+01 0.  1.
         -5    1    4    4    0  501 -0.29396721115E+02  0.74358047885E+02 -0.10139710134E+03  0.12919803040E+03  0.41800000000E+01 0.  1.
</event>
<event>
11    1  0.8328696E-009  0.1339825E+03  0.7561462E-02  0.1114470E+00
         22   -1    0    0    0    0  0.00000000000E+00  0.00000000000E+00  0.26971573827E+03  0.26971573827E+03  0.00000000000E+00 0. -1.
         22   -1    0    0    0    0 -0.00000000000E+00 -0.00000000000E+00 -0.12963554754E+04  0.12963554754E+04  0.00000000000E+00 0. -1.
        -24    2    1    2    0    0  0.94535497268E+01 -0.40062931919E+02 -0.10272149570E+04  0.10335236097E+04  0.10633003180E+03 0.  0.
         25    2    1    2    0    0 -0.24858511960E+02  0.10062821960E+03 -0.22952873662E+03  0.28120893097E+03  0.12510410757E+03 0.  0.
         24    2    1    2    0    0  0.15404962233E+02 -0.60565287677E+02  0.23010395658E+03  0.25133867297E+03  0.79484783211E+02 0.  0.
        -11    1    5    5    0    0  0.11917029110E+02  0.13266455268E+02  0.13200253108E+02  0.22186957888E+02  0.00000000000E+00 0.  1.
         12    1    5    5    0    0  0.34879331227E+01 -0.73831742945E+02  0.21690370347E+03  0.22915171508E+03  0.00000000000E+00 0. -1.
         11    1    3    3    0    0 -0.13587579338E+02 -0.46927011225E+02 -0.97289698226E+03  0.97412283866E+03  0.00000000000E+00 0. -1.
        -12    1    3    3    0    0  0.23041129065E+02  0.68640793064E+01 -0.54317974785E+02  0.59400771022E+02  0.00000000000E+00 0.  1.
          5    1    4    4  501    0 -0.51961754446E+02  0.43342948135E+02 -0.34436876431E+02  0.76039502474E+02  0.41800000000E+01 0.  1.
         -5    1    4    4    0  501  0.27103242486E+02  0.57285271462E+02 -0.19509186019E+03  0.20516942850E+03  0.41800000000E+01 0.  1.
</event>
<event>
11    1  0.8328696E-009  0.1379144E+03  0.7561462E-02  0.1109910E+00
         22   -1    0    0    0    0  0.00000000000E+00  0.00000000000E+00  0.16434766258E+03  0.16434766258E+03  0.00000000000E+00 0. -1.
         22   -1    0    0    0    0 -0.00000000000E+00 -0.00000000000E+00 -0.86249736557E+03  0.86249736557E+03  0.00000000000E+00 0.  1.
        -24    2    1    2    0    0 -0.48069826102E+02  0.30456965136E+02 -0.72041898512E+03  0.72700684268E+03  0.79354270641E+02 0.  0.
         25    2    1    2    0    0  0.71776402758E+02 -0.24254569127E+02 -0.76637555985E+02  0.16510861889E+03  0.12508958760E+03 0.  0.
         24    2    1    2    0    0 -0.23706576656E+02 -0.62023960090E+01  0.98906838114E+02  0.13472956659E+03  0.88142055768E+02 0.  0.
        -13    1    5    5    0    0 -0.22263389898E+02  0.14194230805E+02 -0.66358183089E+01  0.27224415559E+02  0.00000000000E+00 0.  1.
         14    1    5    5    0    0 -0.14431867576E+01 -0.20396626814E+02  0.10554265642E+03  0.10750515103E+03  0.00000000000E+00 0. -1.
         11    1    3    3    0    0 -0.43856124088E+02  0.23649769369E+02 -0.18689765887E+03  0.19342545361E+03  0.00000000000E+00 0. -1.
        -12    1    3    3    0    0 -0.42137020138E+01  0.68071957671E+01 -0.53352132625E+03  0.53358138907E+03  0.00000000000E+00 0.  1.
          5    1    4    4  501    0  0.67105433061E+02  0.41109674707E+02 -0.54485650305E+02  0.95808679095E+02  0.41800000000E+01 0. -1.
         -5    1    4    4    0  501  0.46709696966E+01 -0.65364243834E+02 -0.22151905680E+02  0.69299939792E+02  0.41800000000E+01 0. -1.
</event>
<event>
11    1  0.8328696E-009  0.1291030E+03  0.7561462E-02  0.1120376E+00
         22   -1    0    0    0    0  0.00000000000E+00  0.00000000000E+00  0.23726604579E+03  0.23726604579E+03  0.00000000000E+00 0.  1.
         22   -1    0    0    0    0 -0.00000000000E+00 -0.00000000000E+00 -0.24978512813E+03  0.24978512813E+03  0.00000000000E+00 0.  1.
        -24    2    1    2    0    0  0.17293892275E+02  0.39016925736E+01 -0.10697442884E+03  0.13418765611E+03  0.79047433308E+02 0.  0.
         25    2    1    2    0    0 -0.59240639531E+01  0.26694840668E+02 -0.85379750037E+02  0.15389811390E+03  0.12508884320E+03 0.  0.
         24    2    1    2    0    0 -0.11369828322E+02 -0.30596533242E+02  0.17983509654E+03  0.19896540391E+03  0.78620284669E+02 0.  0.
        -13    1    5    5    0    0 -0.43789480744E+01 -0.47838224553E+02  0.17233573273E+03  0.17890577321E+03  0.00000000000E+00 0.  1.
         14    1    5    5    0    0 -0.69908802474E+01  0.17241691311E+02  0.74993638121E+01  0.20059630692E+02  0.00000000000E+00 0. -1.
         13    1    3    3    0    0 -0.20446669736E+01  0.97151141756E+01  0.10814376854E+02  0.14680424150E+02  0.00000000000E+00 0. -1.
        -14    1    3    3    0    0  0.19338559249E+02 -0.58134216020E+01 -0.11778880570E+03  0.11950723196E+03  0.00000000000E+00 0.  1.
          5    1    4    4  501    0 -0.11522941487E+02  0.52780109997E+02  0.97101644932E+01  0.55047959874E+02  0.41800000000E+01 0.  1.
         -5    1    4    4    0  501  0.55988775340E+01 -0.26085269329E+02 -0.95089914530E+02  0.98850154026E+02  0.41800000000E+01 0.  1.
</event>
<event>
11    1  0.8328696E-009  0.1671177E+03  0.7561462E-02  0.1080567E+00
         22   -1    0    0    0    0  0.00000000000E+00  0.00000000000E+00  0.11241780836E+04  0.11241780836E+04  0.00000000000E+00 0.  1.
         22   -1    0    0    0    0 -0.00000000000E+00 -0.00000000000E+00 -0.77665629170E+03  0.77665629170E+03  0.00000000000E+00 0. -1.
         24    2    1    2    0    0  0.10247575300E+03 -0.41471234526E+02 -0.71854471832E+03  0.73143281551E+03  0.80413357898E+02 0.  0.
         25    2    1    2    0    0 -0.13044809271E+03 -0.11084683507E+02  0.11913183477E+03  0.21675690564E+03  0.12510630274E+03 0.  0.
        -24    2    1    2    0    0  0.27972339705E+02  0.52555918034E+02  0.94693467547E+03  0.95264465418E+03  0.85451630890E+02 0.  0.
        -13    1    3    3    0    0  0.61633551235E+02  0.77526034844E+01 -0.21348206828E+03  0.22233621157E+03  0.00000000000E+00 0.  1.
         14    1    3    3    0    0  0.40842201767E+02 -0.49223838011E+02 -0.50506265004E+03  0.50909660394E+03  0.00000000000E+00 0. -1.
         11    1    5    5    0    0  0.27373179449E+02  0.30275877278E+02  0.15161761439E+03  0.15701535177E+03  0.00000000000E+00 0. -1.
        -12    1    5    5    0    0  0.59916025517E+00  0.22280040756E+02  0.79531706108E+03  0.79562930241E+03  0.00000000000E+00 0.  1.
          5    1    4    4  501    0 -0.51338066202E+02  0.35820186015E+02 -0.41688071388E+01  0.62877135117E+02  0.41800000000E+01 0.  1.
         -5    1    4    4    0  501 -0.79110026505E+02 -0.46904869523E+02  0.12330064191E+03  0.15387977052E+03  0.41800000000E+01 0.  1.
</event>
<event>
11    1  0.8328696E-009  0.1605812E+03  0.7561462E-02  0.1086532E+00
         22   -1    0    0    0    0  0.00000000000E+00  0.00000000000E+00  0.63033769665E+03  0.63033769665E+03  0.00000000000E+00 0. -1.
         22   -1    0    0    0    0 -0.00000000000E+00 -0.00000000000E+00 -0.24944555761E+04  0.24944555761E+04  0.00000000000E+00 0. -1.
         24    2    1    2    0    0 -0.97597950350E+02 -0.26115510235E+02 -0.24409857763E+04  0.24443935597E+04  0.80255437020E+02 0.  0.
         25    2    1    2    0    0  0.58640700998E+02  0.70022097097E+02  0.81665162801E+02  0.17509692306E+03  0.12509159745E+03 0.  0.
        -24    2    1    2    0    0  0.38957249352E+02 -0.43906586862E+02  0.49520273405E+03  0.50530278992E+03  0.81607022038E+02 0.  0.
        -13    1    3    3    0    0 -0.60665069953E+01 -0.31922635179E+02 -0.38724604195E+03  0.38860694043E+03  0.00000000000E+00 0.  1.
         14    1    3    3    0    0 -0.91531443354E+02  0.58071249441E+01 -0.20537397343E+04  0.20557866193E+04  0.00000000000E+00 0. -1.
         13    1    5    5    0    0  0.14204013263E+02 -0.65879318546E+02  0.32599911659E+03  0.33289226879E+03  0.00000000000E+00 0. -1.
        -14    1    5    5    0    0  0.24753236088E+02  0.21972731684E+02  0.16920361745E+03  0.17241052112E+03  0.00000000000E+00 0.  1.
          5    1    4    4  501    0  0.25437761964E+02  0.94603915418E+02  0.18928615132E+02  0.99863634107E+02  0.41800000000E+01 0.  1.
         -5    1    4    4    0  501  0.33202939035E+02 -0.24581818321E+02  0.62736547669E+02  0.75233288948E+02  0.41800000000E+01 0.  1.
</event>
<event>
11    1  0.8328696E-009  0.1911738E+03  0.7561462E-02  0.1060947E+00
         22   -1    0    0    0    0  0.00000000000E+00  0.00000000000E+00  0.19012902917E+03  0.19012902917E+03  0.00000000000E+00 0. -1.
         22   -1    0    0    0    0 -0.00000000000E+00 -0.00000000000E+00 -0.57215710446E+03  0.57215710446E+03  0.00000000000E+00 0.  1.
         24    2    1    2    0    0  0.14451211413E+03 -0.59406549295E+02 -0.30850437422E+03  0.35442119912E+03  0.77630845940E+02 0.  0.
         25    2    1    2    0    0 -0.59066205440E+02  0.13858209752E+03 -0.14937068384E+03  0.24627764046E+03  0.12508901079E+03 0.  0.
        -24    2    1    2    0    0 -0.85445908693E+02 -0.79175548227E+02  0.75846982767E+02  0.16158729406E+03  0.82388822400E+02 0.  0.
        -13    1    3    3    0    0  0.13180786724E+03 -0.39887719876E+02 -0.29914716737E+03  0.32932259535E+03  0.00000000000E+00 0.  1.
         14    1    3    3    0    0  0.12704246896E+02 -0.19518829420E+02 -0.93572068503E+01  0.25098603769E+02  0.00000000000E+00 0. -1.
         11    1    5    5    0    0 -0.21975422674E+02  0.33071508884E+01  0.49452257749E+02  0.54216069990E+02  0.00000000000E+00 0. -1.
        -12    1    5    5    0    0 -0.63470486019E+02 -0.82482699115E+02  0.26394725017E+02  0.10737122407E+03  0.00000000000E+00 0.  1.
          5    1    4    4  501    0  0.17558701603E+01  0.35281099439E+02  0.18391654584E+02  0.40044530413E+02  0.41800000000E+01 0. -1.
         -5    1    4    4    0  501 -0.60822075601E+02  0.10330099808E+03 -0.16776233842E+03  0.20623311004E+03  0.41800000000E+01 0. -1.
</event>
<event>
11    1  0.8328696E-009  0.1519209E+03  0.7561462E-02  0.1094932E+00
         22   -1    0    0    0    0  0.00000000000E+00  0.00000000000E+00  0.27089141099E+03  0.27089141099E+03  0.00000000000E+00 0.  1.
         22   -1    0    0    0    0 -0.00000000000E+00 -0.00000000000E+00 -0.84964969864E+03  0.84964969864E+03  0.00000000000E+00 0. -1.
         24    2    1    2    0    0 -0.77302446786E+02 -0.26502468627E+02 -0.52531859844E+03  0.53779651727E+03  0.81162891740E+02 0.  0.
         25    2    1    2    0    0  0.10130170206E+03  0.15650236805E+02 -0.29041835399E+03  0.33241102573E+03  0.12508918793E+03 0.  0.
        -24    2    1    2    0    0 -0.23999255277E+02  0.10852231822E+02  0.23697866478E+03  0.25033356664E+03  0.76251372678E+02 0.  0.
        -13    1    3    3    0    0 -0.31768441759E+02  0.18918172902E+02 -0.83484564552E+02  0.91306098790E+02  0.00000000000E+00 0.  1.
         14    1    3    3    0    0 -0.45534005027E+02 -0.45420641530E+02 -0.44183403389E+03  0.44649041848E+03  0.00000000000E+00 0. -1.
         11    1    5    5    0    0 -0.42941979066E+02 -0.14006264782E+02  0.98359285804E+02  0.10823464382E+03  0.00000000000E+00 0. -1.
        -12    1    5    5    0    0  0.18942723789E+02  0.24858496604E+02  0.13861937898E+03  0.14209892282E+03  0.00000000000E+00 0.  1.
          5    1    4    4  501    0  0.70214423402E+02  0.47386498222E+02 -0.27061234955E+03  0.28359136375E+03  0.41800000000E+01 0.  1.
         -5    1    4    4    0  501  0.31087278660E+02 -0.31736261417E+02 -0.19806004443E+02  0.48819661973E+02  0.41800000000E+01 0.  1.
</event>
<event>
11    1  0.8328696E-009  0.1359733E+03  0.7561462E-02  0.1112140E+00
         22   -1    0    0    0    0  0.00000000000E+00  0.00000000000E+00  0.26533155465E+03  0.26533155465E+03  0.00000000000E+00 0.  1.
         22   -1    0    0    0    0 -0.00000000000E+00 -0.00000000000E+00 -0.77429078111E+03  0.77429078111E+03  0.00000000000E+00 0.  1.
         24    2    1    2    0    0  0.53669995470E+02 -0.17316500923E+02 -0.65082431008E+03  0.65809102223E+03  0.79568720817E+02 0.  0.
         25    2    1    2    0    0 -0.14452507064E+02  0.25020576814E+02 -0.73652830093E+02  0.14800815250E+03  0.12508704810E+03 0.  0.
        -24    2    1    2    0    0 -0.39217488407E+02 -0.77040758909E+01  0.21551791370E+03  0.23352316103E+03  0.80546455079E+02 0.  0.
        -13    1    3    3    0    0  0.34472523471E+02 -0.40827251558E+00 -0.60186123213E+03  0.60284779531E+03  0.00000000000E+00 0.  1.
         14    1    3    3    0    0  0.19197471999E+02 -0.16908228408E+02 -0.48963077945E+02  0.55243226923E+02  0.00000000000E+00 0. -1.
         11    1    5    5    0    0 -0.88960369487E+00  0.82690876344E+01 -0.46128470395E+01  0.95103923604E+01  0.00000000000E+00 0. -1.
        -12    1    5    5    0    0 -0.38327884712E+02 -0.15973163525E+02  0.22013076074E+03  0.22401276867E+03  0.00000000000E+00 0.  1.
          5    1    4    4  501    0 -0.37272070727E+02  0.44912231536E+02 -0.94405405481E+02  0.11106830683E+03  0.41800000000E+01 0. -1.
         -5    1    4    4    0  501  0.22819563663E+02 -0.19891654722E+02  0.20752575387E+02  0.36939845676E+02  0.41800000000E+01 0. -1.
</event>
<event>
11    1  0.8328696E-009  0.1799892E+03  0.7561462E-02  0.1069652E+00
         22   -1    0    0    0    0  0.00000000000E+00  0.00000000000E+00  0.14685650408E+04  0.14685650408E+04  0.00000000000E+00 0.  1.
         22   -1    0    0    0    0 -0.00000000000E+00 -0.00000000000E+00 -0.18983248467E+03  0.18983248467E+03  0.00000000000E+00 0.  1.
        -24    2    1    2    0    0 -0.23725455107E+02 -0.35152243555E+02 -0.96907168300E+02  0.13302023423E+03  0.80652377524E+02 0.  0.
         25    2    1    2    0    0 -0.82247559011E+02 -0.43534027895E+02  0.16714109742E+02  0.15680134558E+03  0.12508967969E+03 0.  0.
         24    2    1    2    0    0  0.10597301412E+03  0.78686271449E+02  0.13589256147E+04  0.13685759457E+04  0.94337075150E+02 0.  0.
        -11    1    5    5    0    0  0.78945477861E+02  0.27982563038E+02  0.44291209190E+03  0.45076216951E+03  0.00000000000E+00 0.  1.
         12    1    5    5    0    0  0.27027536257E+02  0.50703708411E+02  0.91601352278E+03  0.91781377614E+03  0.00000000000E+00 0. -1.
         13    1    3    3    0    0 -0.53684249124E+02 -0.19222865000E+02 -0.64642106243E+02  0.86198138277E+02  0.00000000000E+00 0. -1.
        -14    1    3    3    0    0  0.29958794017E+02 -0.15929378555E+02 -0.32265062057E+02  0.46822095956E+02  0.00000000000E+00 0.  1.
          5    1    4    4  501    0 -0.19101580292E+02  0.40916671166E+01 -0.49619481675E+02  0.53489975427E+02  0.41800000000E+01 0.  1.
         -5    1    4    4    0  501 -0.63145978718E+02 -0.47625695011E+02  0.66333591417E+02  0.10331137016E+03  0.41800000000E+01 0.  1.
</event>
<event>
11    1  0.8328696E-009  0.1417390E+03  0.7561462E-02  0.1105632E+00
         22   -1    0    0    0    0  0.00000000000E+00  0.00000000000E+00  0.13155781596E+03  0.13155781596E+03  0.00000000000E+00 0. -1.
         22   -1    0    0    0    0 -0.00000000000E+00 -0.00000000000E+00 -0.15501882979E+04  0.15501882979E+04  0.00000000000E+00 0.  1.
        -24    2    1    2    0    0  0.65051571468E+02 -0.12264294463E+02 -0.11103822378E+04  0.11152445165E+04  0.80246481752E+02 0.  0.
         25    2    1    2    0    0 -0.58913671161E+02  0.50507364664E+02 -0.40857685020E+03  0.43428623614E+03  0.12509067849E+03 0.  0.
         24    2    1    2    0    0 -0.61379003066E+01 -0.38243070201E+02  0.10032860604E+03  0.13221536118E+03  0.76908167990E+02 0.  0.
        -13    1    5    5    0    0  0.41161502939E+01  0.10775136254E+00 -0.12207175693E+02  0.12882912791E+02  0.00000000000E+00 0.  1.
         14    1    5    5    0    0 -0.10254050600E+02 -0.38350821563E+02  0.11253578173E+03  0.11933244839E+03  0.00000000000E+00 0. -1.
         11    1    3    3    0    0  0.20046092487E+02 -0.22372696449E+01 -0.50777547090E+02  0.54637079789E+02  0.00000000000E+00 0. -1.
        -12    1    3    3    0    0  0.45005478981E+02 -0.10027024818E+02 -0.10596046907E+04  0.10606074367E+04  0.00000000000E+00 0.  1.
          5    1    4    4  501    0 -0.41226399873E+02 -0.32254871686E+02 -0.23920648290E+03  0.24490244314E+03  0.41800000000E+01 0. -1.
         -5    1    4    4    0  501 -0.17687271288E+02  0.82762236350E+02 -0.16937036730E+03  0.18938379300E+03  0.41800000000E+01 0. -1.
</event>
<event>
11    1  0.8328696E-009  0.1727222E+03  0.7561462E-02  0.1075687E+00
         22   -1    0    0    0    0  0.00000000000E+00  0.00000000000E+00  0.44257264877E+03  0.44257264877E+03  0.00000000000E+00 0. -1.
         22   -1    0    0    0    0 -0.00000000000E+00 -0.00000000000E+00 -0.26549460725E+04  0.26549460725E+04  0.00000000000E+00 0.  1.
         24    2    1    2    0    0 -0.10327593274E+03  0.61603215735E+02 -0.22901078913E+04  0.22947241168E+04  0.81876396333E+02 0.  0.
         25    2    1    2    0    0  0.10450643263E+03 -0.37856026798E+02 -0.33803841846E+03  0.37718989103E+03  0.12509024069E+03 0.  0.
        -24    2    1    2    0    0 -0.12304998912E+01 -0.23747188937E+02  0.41577288604E+03  0.42560471337E+03  0.87788587920E+02 0.  0.
        -13    1    3    3    0    0 -0.68309321233E+01  0.32160502619E+02 -0.10530307707E+04  0.10535439069E+04  0.00000000000E+00 0.  1.
         14    1    3    3    0    0 -0.96445000617E+02  0.29442713116E+02 -0.12370771205E+04  0.12411802100E+04  0.00000000000E+00 0. -1.
         11    1    5    5    0    0 -0.76744975006E+01  0.31158341944E+02  0.99798645439E+02  0.10483086290E+03  0.00000000000E+00 0. -1.
        -12    1    5    5    0    0  0.64439976094E+01 -0.54905530880E+02  0.31597424060E+03  0.32077385047E+03  0.00000000000E+00 0.  1.
          5    1    4    4  501    0 -0.21667879264E+02 -0.21231365051E+02 -0.12762659757E+03  0.13124895680E+03  0.41800000000E+01 0. -1.
         -5    1    4    4    0  501  0.12617431190E+03 -0.16624661748E+02 -0.21041182089E+03  0.24594093424E+03  0.41800000000E+01 0. -1.
</event>
<event>
11    1  0.8328696E-009  0.1463546E+03  0.7561462E-02  0.1100663E+00
         22   -1    0    0    0    0  0.00000000000E+00  0.00000000000E+00  0.11647712872E+03  0.11647712872E+03  0.00000000000E+00 0. -1.
         22   -1    0    0    0    0 -0.00000000000E+00 -0.00000000000E+00 -0.24880834111E+04  0.24880834111E+04  0.00000000000E+00 0. -1.
        -24    2    1    2    0    0 -0.73583586740E+01 -0.43119578344E+02 -0.21590958980E+04  0.21610864622E+04  0.81768924853E+02 0.  0.
         25    2    1    2    0    0  0.74426712943E+02  0.45948142191E+01 -0.27797723591E+03  0.31381417884E+03  0.12509015642E+03 0.  0.
         24    2    1    2    0    0 -0.67068354269E+02  0.38524764125E+02  0.65466851539E+02  0.12965989874E+03  0.80891650347E+02 0.  0.
        -13    1    5    5    0    0 -0.23837645527E+02  0.36239843265E+01 -0.17510453523E+02  0.29799036717E+02  0.00000000000E+00 0.  1.
         14    1    5    5    0    0 -0.43230708743E+02  0.34900779799E+02  0.82977305062E+02  0.99860862025E+02  0.00000000000E+00 0. -1.
         13    1    3    3    0    0 -0.19124025951E+02 -0.37629400069E+02 -0.21061126632E+04  0.21065356038E+04  0.00000000000E+00 0. -1.
        -14    1    3    3    0    0  0.11765667277E+02 -0.54901782756E+01 -0.52983234755E+02  0.54550858372E+02  0.00000000000E+00 0.  1.
          5    1    4    4  501    0  0.69088961183E+02 -0.16454461294E+02 -0.55476601443E+02  0.90217290812E+02  0.41800000000E+01 0. -1.
         -5    1    4    4    0  501  0.53377517602E+01  0.21049275513E+02 -0.22250063447E+03  0.22359688802E+03  0.41800000000E+01 0. -1.
</event>
<event>
11    1  0.8328696E-009  0.1546908E+04  0.7561462E-02  0.8283305E-01
         22   -1    0    0    0    0  0.00000000000E+00  0.00000000000E+00  0.14329750895E+04  0.14329750895E+04  0.00000000000E+00 0.  1.
         22   -1    0    0    0    0 -0.00000000000E+00 -0.00000000000E+00 -0.41747494056E+03  0.41747494056E+03  0.00000000000E+00 0.  1.
         24    2    1    2    0    0  0.63981525736E+03  0.73435969304E+02  0.19525941621E+03  0.67773969851E+03  0.80302267615E+02 0.  0.
         25    2    1    2    0    0 -0.69676830472E+03 -0.12759588218E+03  0.75437202511E+03  0.10423480747E+04  0.12508228071E+03 0.  0.
        -24    2    1    2    0    0  0.56953047362E+02  0.54159912871E+02  0.65868707636E+02  0.13036225686E+03  0.80490282651E+02 0.  0.
        -11    1    3    3    0    0  0.50676778222E+03  0.39647016440E+02  0.18163921001E+03  0.53979465875E+03  0.00000000000E+00 0.  1.
         12    1    3    3    0    0  0.13304747514E+03  0.33788952864E+02  0.13620206202E+02  0.13794503976E+03  0.00000000000E+00 0. -1.
         13    1    5    5    0    0  0.40214229112E+02 -0.10987596365E+02  0.41492829098E+02  0.58818078543E+02  0.00000000000E+00 0. -1.
        -14    1    5    5    0    0  0.16738818250E+02  0.65147509237E+02  0.24375878538E+02  0.71544178314E+02  0.00000000000E+00 0.  1.
          5    1    4    4  501    0 -0.44373278964E+03 -0.19701628184E+02  0.46900569830E+03  0.64596498372E+03  0.41800000000E+01 0. -1.
         -5    1    4    4    0  501 -0.25303551508E+03 -0.10789425399E+03  0.28536632681E+03  0.39638309098E+03  0.41800000000E+01 0. -1.
</event>
<event>
11    1  0.8328696E-009  0.1306593E+03  0.7561462E-02  0.1118462E+00
         22   -1    0    0    0    0  0.00000000000E+00  0.00000000000E+00  0.21881962675E+03  0.21881962675E+03  0.00000000000E+00 0.  1.
         22   -1    0    0    0    0 -0.00000000000E+00 -0.00000000000E+00 -0.38564938118E+03  0.38564938118E+03  0.00000000000E+00 0.  1.
         24    2    1    2    0    0 -0.33363900799E+02 -0.28535195852E+01 -0.25424276569E+03  0.26886308295E+03  0.80787876689E+02 0.  0.
         25    2    1    2    0    0  0.60528284323E+02  0.20650071292E+02 -0.69598910366E+02  0.15680592193E+03  0.12511590699E+03 0.  0.
        -24    2    1    2    0    0 -0.27164383524E+02 -0.17796551707E+02  0.15701192162E+03  0.17880000305E+03  0.79133283613E+02 0.  0.
        -13    1    3    3    0    0 -0.19312160697E+02 -0.41676258204E+02 -0.12408733998E+03  0.13231605341E+03  0.00000000000E+00 0.  1.
         14    1    3    3    0    0 -0.14051740102E+02  0.38822738619E+02 -0.13015542571E+03  0.13654702954E+03  0.00000000000E+00 0. -1.
         13    1    5    5    0    0  0.17688959706E+02 -0.25607108393E+02  0.27546012446E+02  0.41562075230E+02  0.00000000000E+00 0. -1.
        -14    1    5    5    0    0 -0.44853343230E+02  0.78105566859E+01  0.12946590917E+03  0.13723792782E+03  0.00000000000E+00 0.  1.
          5    1    4    4  501    0 -0.26712953630E+02  0.41531902583E+02 -0.34518376551E+02  0.60394300588E+02  0.41800000000E+01 0. -1.
         -5    1    4    4    0  501  0.87241237953E+02 -0.20881831291E+02 -0.35080533815E+02  0.96411621345E+02  0.41800000000E+01 0. -1.
</event>
<event>
11    1  0.8328696E-009  0.1443487E+03  0.7561462E-02  0.1102797E+00
         22   -1    0    0    0    0  0.00000000000E+00  0.00000000000E+00  0.12527364823E+04  0.12527364823E+04  0.00000000000E+00 0.  1.
         22   -1    0    0    0    0 -0.00000000000E+00 -0.00000000000E+00 -0.86871994101E+03  0.86871994101E+03  0.00000000000E+00 0.  1.
        -24    2    1    2    0    0 -0.16712248223E+02  0.24630191639E+02 -0.82764676186E+03  0.83205506668E+03  0.80190560438E+02 0.  0.
         25    2    1    2    0    0  0.27708118543E+02  0.48002124605E+02  0.92600566140E+02  0.16521156732E+03  0.12509217933E+03 0.  0.
         24    2    1    2    0    0 -0.10995870320E+02 -0.72632316244E+02  0.11190627370E+04  0.11241897893E+04  0.78133926513E+02 0.  0.
        -13    1    5    5    0    0  0.20628367655E+02 -0.61409521002E+02  0.92346603010E+03  0.92573547387E+03  0.00000000000E+00 0.  1.
         14    1    5    5    0    0 -0.31624237974E+02 -0.11222795242E+02  0.19559670688E+03  0.19845431541E+03  0.00000000000E+00 0. -1.
         13    1    3    3    0    0  0.18766572924E+02  0.31136919151E+02 -0.19364948837E+03  0.19703252610E+03  0.00000000000E+00 0. -1.
        -14    1    3    3    0    0 -0.35478821148E+02 -0.65067275125E+01 -0.63399727349E+03  0.63502254058E+03  0.00000000000E+00 0.  1.
          5    1    4    4  501    0  0.76862328779E+02  0.27826182310E+02  0.43253219336E+02  0.92576602823E+02  0.41800000000E+01 0. -1.
         -5    1    4    4    0  501 -0.49154210236E+02  0.20175942295E+02  0.49347346804E+02  0.72634964501E+02  0.41800000000E+01 0. -1.
</event>
<event>
11    1  0.8328696E-009  0.2169143E+03  0.7561462E-02  0.1043168E+00
         22   -1    0    0    0    0  0.00000000000E+00  0.00000000000E+00  0.40727484923E+03  0.40727484923E+03  0.00000000000E+00 0. -1.
         22   -1    0    0    0    0 -0.00000000000E+00 -0.00000000000E+00 -0.74615741755E+03  0.74615741755E+03  0.00000000000E+00 0.  1.
        -24    2    1    2    0    0  0.50991985796E+02  0.10717800998E+03 -0.59553842143E+03  0.61278283235E+03  0.82155217671E+02 0.  0.
         25    2    1    2    0    0 -0.37940027743E+02 -0.25712196215E+03  0.90599530057E+02  0.30233506131E+03  0.12508823016E+03 0.  0.
         24    2    1    2    0    0 -0.13051958053E+02  0.14994395217E+03  0.16605632305E+03  0.23831437311E+03  0.81027745914E+02 0.  0.
        -11    1    5    5    0    0  0.66922554011E+01  0.22189519871E+02 -0.51928074361E+01  0.23751343615E+02  0.00000000000E+00 0.  1.
         12    1    5    5    0    0 -0.19744213454E+02  0.12775443230E+03  0.17124913048E+03  0.21456302950E+03  0.00000000000E+00 0. -1.
         13    1    3    3    0    0 -0.14657571629E+01 -0.12248025184E+02 -0.30847241977E+02  0.33222204963E+02  0.00000000000E+00 0. -1.
        -14    1    3    3    0    0  0.52457742959E+02  0.11942603516E+03 -0.56469117945E+03  0.57956062739E+03  0.00000000000E+00 0.  1.
          5    1    4    4  501    0 -0.57292360533E+02 -0.15215214789E+03  0.57085091499E+00  0.16263606289E+03  0.41800000000E+01 0. -1.
         -5    1    4    4    0  501  0.19352332790E+02 -0.10496981426E+03  0.90028679142E+02  0.13969899842E+03  0.41800000000E+01 0. -1.
</event>
<event>
11    1  0.8328696E-009  0.1647192E+03  0.7561462E-02  0.1082721E+00
         22   -1    0    0    0    0  0.00000000000E+00  0.00000000000E+00  0.23954390222E+03  0.23954390222E+03  0.00000000000E+00 0.  1.
         22   -1    0    0    0    0 -0.00000000000E+00 -0.00000000000E+00 -0.27173688634E+04  0.27173688634E+04  0.00000000000E+00 0.  1.
         24    2    1    2    0    0 -0.19535677775E+02  0.14819257438E+02 -0.24958400239E+04  0.24972680105E+04  0.80801228195E+02 0.  0.
         25    2    1    2    0    0  0.11295857970E+03 -0.62132156393E+02 -0.15779035965E+03  0.23909374905E+03  0.12509187683E+03 0.  0.
        -24    2    1    2    0    0 -0.93422901926E+02  0.47312898955E+02  0.17580542240E+03  0.22055100601E+03  0.82273025312E+02 0.  0.
        -13    1    3    3    0    0 -0.78620183946E+01 -0.28468707149E+02 -0.16303597190E+04  0.16306272082E+04  0.00000000000E+00 0.  1.
         14    1    3    3    0    0 -0.11673659380E+02  0.43287964587E+02 -0.86548030486E+03  0.86664080235E+03  0.00000000000E+00 0. -1.
         11    1    5    5    0    0 -0.31488210195E+02  0.14666200916E+02  0.39235311040E+01  0.34957101237E+02  0.00000000000E+00 0. -1.
        -12    1    5    5    0    0 -0.61934691731E+02  0.32646698039E+02  0.17188189129E+03  0.18559390477E+03  0.00000000000E+00 0.  1.
          5    1    4    4  501    0 -0.17597717305E+02  0.64531884551E+01 -0.57699807042E+02  0.60811704698E+02  0.41800000000E+01 0. -1.
         -5    1    4    4    0  501  0.13055629701E+03 -0.68585344848E+02 -0.10009055261E+03  0.17828204435E+03  0.41800000000E+01 0. -1.
</event>
<event>
11    1  0.8328696E-009  0.1620314E+03  0.7561462E-02  0.1085182E+00
         22   -1    0    0    0    0  0.00000000000E+00  0.00000000000E+00  0.14778909110E+03  0.14778909110E+03  0.00000000000E+00 0.  1.
         22   -1    0    0    0    0 -0.00000000000E+00 -0.00000000000E+00 -0.15283591734E+04  0.15283591734E+04  0.00000000000E+00 0. -1.
        -24    2    1    2    0    0  0.31661938623E+02 -0.57254672821E+02 -0.92820593394E+03  0.93397089819E+03  0.80341813109E+02 0.  0.
         25    2    1    2    0    0 -0.26531375788E+02 -0.48731420320E+02 -0.55711774190E+03  0.57367798433E+03  0.12509031193E+03 0.  0.
         24    2    1    2    0    0 -0.51305628347E+01  0.10598609314E+03  0.10475359350E+03  0.16849938202E+03  0.78481537801E+02 0.  0.
        -11    1    5    5    0    0 -0.66729292526E+01  0.11724780677E+03  0.10438979860E+03  0.15712672029E+03  0.00000000000E+00 0.  1.
         12    1    5    5    0    0  0.15423664179E+01 -0.11261713633E+02  0.36379490713E+00  0.11372661732E+02  0.00000000000E+00 0. -1.
         11    1    3    3    0    0 -0.60091802325E+01 -0.64777556898E+02 -0.55972931873E+03  0.56349725143E+03  0.00000000000E+00 0. -1.
        -12    1    3    3    0    0  0.37671118856E+02  0.75228840772E+01 -0.36847661521E+03  0.37047364676E+03  0.00000000000E+00 0.  1.
          5    1    4    4  501    0  0.48770878180E+02 -0.33945479451E+02 -0.22115677998E+03  0.22903861653E+03  0.41800000000E+01 0. -1.
         -5    1    4    4    0  501 -0.75302253969E+02 -0.14785940869E+02 -0.33596096192E+03  0.34463936780E+03  0.41800000000E+01 0. -1.
</event>
<event>
11    1  0.8328696E-009  0.1355529E+03  0.7561462E-02  0.1112628E+00
         22   -1    0    0    0    0  0.00000000000E+00  0.00000000000E+00  0.77195272173E+03  0.77195272173E+03  0.00000000000E+00 0. -1.
         22   -1    0    0    0    0 -0.00000000000E+00 -0.00000000000E+00 -0.28405841888E+03  0.28405841888E+03  0.00000000000E+00 0. -1.
        -24    2    1    2    0    0 -0.22096744558E+01  0.51405877405E+02 -0.20006506792E+03  0.22224271260E+03  0.81965511091E+02 0.  0.
         25    2    1    2    0    0 -0.15726911999E+02 -0.57143631848E+02 -0.24115566263E+01  0.13844544718E+03  0.12509434766E+03 0.  0.
         24    2    1    2    0    0  0.17936586454E+02  0.57377544431E+01  0.69037092739E+03  0.69532298084E+03  0.80668378746E+02 0.  0.
        -11    1    5    5    0    0  0.26052120306E+02  0.17771362489E+02  0.10179427907E+03  0.10656739440E+03  0.00000000000E+00 0.  1.
         12    1    5    5    0    0 -0.81155338516E+01 -0.12033608046E+02  0.58857664832E+03  0.58875558644E+03  0.00000000000E+00 0. -1.
         11    1    3    3    0    0 -0.14356026024E+02  0.71700275612E+02 -0.15053774704E+03  0.16735781514E+03  0.00000000000E+00 0. -1.
        -12    1    3    3    0    0  0.12146351568E+02 -0.20294398207E+02 -0.49527320881E+02  0.54884897456E+02  0.00000000000E+00 0.  1.
          5    1    4    4  501    0 -0.49564769187E+02  0.19793360530E+02 -0.78970454868E+01  0.54113576791E+02  0.41800000000E+01 0. -1.
         -5    1    4    4    0  501  0.33837857189E+02 -0.76936992377E+02  0.54854888605E+01  0.84331870388E+02  0.41800000000E+01 0. -1.
</event>
<event>
11    1  0.8328696E-009  0.1497524E+03  0.7561462E-02  0.1097132E+00
         22   -1    0    0    0    0  0.00000000000E+00  0.00000000000E+00  0.27100665136E+03  0.27100665136E+03  0.00000000000E+00 0. -1.
         22   -1    0    0    0    0 -0.00000000000E+00 -0.00000000000E+00 -0.19273886782E+03  0.19273886782E+03  0.00000000000E+00 0. -1.
        -24    2    1    2    0    0  0.82464095439E+02  0.26035306521E+02 -0.85292562424E+02  0.14336569277E+03  0.76162565856E+02 0.  0.
         25    2    1    2    0    0 -0.70987929391E+02 -0.11734640560E+02  0.85441989252E+01  0.14455948341E+03  0.12508977976E+03 0.  0.
         24    2    1    2    0    0 -0.11476166048E+02 -0.14300665960E+02  0.15501614704E+03  0.17582034300E+03  0.80910912352E+02 0.  0.
        -11    1    5    5    0    0 -0.21254581938E+02  0.29250426543E+02  0.49924275574E+02  0.61642339329E+02  0.00000000000E+00 0.  1.
         12    1    5    5    0    0  0.97784158902E+01 -0.43551092504E+02  0.10509187146E+03  0.11417800367E+03  0.00000000000E+00 0. -1.
         11    1    3    3    0    0  0.47508443049E+02  0.83774766749E+01 -0.91764239101E+02  0.10367212670E+03  0.00000000000E+00 0. -1.
        -12    1    3    3    0    0  0.34955652390E+02  0.17657829846E+02  0.64716766765E+01  0.39693566077E+02  0.00000000000E+00 0.  1.
          5    1    4    4  501    0  0.31971681030E+02  0.17257259643E+02  0.83565599314E+01  0.37514075920E+02  0.41800000000E+01 0. -1.
         -5    1    4    4    0  501 -0.10295961042E+03 -0.28991900203E+02  0.18763899387E+00  0.10704540749E+03  0.41800000000E+01 0. -1.
</event>
<event>
11    1  0.8328696E-009  0.1445381E+03  0.7561462E-02  0.1102594E+00
         22   -1    0    0    0    0  0.00000000000E+00  0.00000000000E+00  0.24818678183E+03  0.24818678183E+03  0.00000000000E+00 0. -1.
         22   -1    0    0    0    0 -0.00000000000E+00 -0.00000000000E+00 -0.33064020792E+04  0.33064020792E+04  0.00000000000E+00 0. -1.
        -24    2    1    2    0    0 -0.32826796995E+02 -0.56454118099E+02 -0.27909229976E+04  0.27928263040E+04  0.79767914458E+02 0.  0.
         25    2    1    2    0    0  0.97084091629E+02  0.87000640698E+02 -0.48628595026E+03  0.51876434021E+03  0.12509189789E+03 0.  0.
         24    2    1    2    0    0 -0.64257294634E+02 -0.30546522599E+02  0.21899365044E+03  0.24299821680E+03  0.77639065438E+02 0.  0.
        -11    1    5    5    0    0 -0.32651323437E+01  0.18879459831E+02  0.89813820260E+02  0.91834728738E+02  0.00000000000E+00 0.  1.
         12    1    5    5    0    0 -0.60992162290E+02 -0.49425982429E+02  0.12917983018E+03  0.15116348806E+03  0.00000000000E+00 0. -1.
         11    1    3    3    0    0 -0.74246883438E+01 -0.57909741981E+02 -0.25282167844E+04  0.25288908187E+04  0.00000000000E+00 0. -1.
        -12    1    3    3    0    0 -0.25402108651E+02  0.14556238827E+01 -0.26270621319E+03  0.26393548532E+03  0.00000000000E+00 0.  1.
          5    1    4    4  501    0 -0.10203363982E+02  0.62047996160E+02 -0.25324204863E+03  0.26096564919E+03  0.41800000000E+01 0. -1.
         -5    1    4    4    0  501  0.10728745561E+03  0.24952644538E+02 -0.23304390164E+03  0.25779869102E+03  0.41800000000E+01 0. -1.
</event>
<event>
11    1  0.8328696E-009  0.1634305E+03  0.7561462E-02  0.1083894E+00
         22   -1    0    0    0    0  0.00000000000E+00  0.00000000000E+00  0.10009949497E+03  0.10009949497E+03  0.00000000000E+00 0. -1.
         22   -1    0    0    0    0 -0.00000000000E+00 -0.00000000000E+00 -0.18084376687E+04  0.18084376687E+04  0.00000000000E+00 0. -1.
         24    2    1    2    0    0 -0.86654398353E+01 -0.54347566733E+02 -0.10120748532E+04  0.10167195181E+04  0.79964505890E+02 0.  0.
         25    2    1    2    0    0 -0.97053045613E+02  0.51931184850E+02 -0.73440361434E+03  0.75306883570E+03  0.12509141023E+03 0.  0.
        -24    2    1    2    0    0  0.10571848545E+03  0.24163818826E+01  0.38140293845E+02  0.13874880981E+03  0.81328427637E+02 0.  0.
        -11    1    3    3    0    0  0.12099782594E+01  0.15971031774E+01  0.86889255331E+00  0.21839780715E+01  0.00000000000E+00 0.  1.
         12    1    3    3    0    0 -0.98754180948E+01 -0.55944669910E+02 -0.10129437457E+04  0.10145355400E+04  0.00000000000E+00 0. -1.
         11    1    5    5    0    0  0.61741170040E+02 -0.13127338829E+02  0.60133835784E+02  0.87180142858E+02  0.00000000000E+00 0. -1.
        -12    1    5    5    0    0  0.43977315409E+02  0.15543720712E+02 -0.21993541939E+02  0.51568666951E+02  0.00000000000E+00 0.  1.
          5    1    4    4  501    0 -0.87039743261E+02  0.45406930067E+02 -0.73384617686E+03  0.74039542806E+03  0.41800000000E+01 0. -1.
         -5    1    4    4    0  501 -0.10013302352E+02  0.65242547830E+01 -0.55743748291E+00  0.12673407632E+02  0.41800000000E+01 0. -1.
</event>
<event>
11    1  0.8328696E-009  0.1774178E+03  0.7561462E-02  0.1071751E+00
         22   -1    0    0    0    0  0.00000000000E+00  0.00000000000E+00  0.47119848439E+03  0.47119848439E+03  0.00000000000E+00 0. -1.
         22   -1    0    0    0    0 -0.00000000000E+00 -0.00000000000E+00 -0.71177243834E+03  0.71177243834E+03  0.00000000000E+00 0.  1.
        -24    2    1    2    0    0  0.80651224705E+02 -0.24701708638E+02 -0.62567370636E+03  0.63660557425E+03  0.81757420942E+02 0.  0.
         25    2    1    2    0    0 -0.14155414113E+02  0.13517804123E+03  0.70787699812E+02  0.19781915590E+03  0.12509213171E+03 0.  0.
         24    2    1    2    0    0 -0.66495810592E+02 -0.11047633259E+03  0.31431205260E+03  0.34854619259E+03  0.77882405364E+02 0.  0.
        -13    1    5    5    0    0 -0.67370722945E+02 -0.36453936266E+02  0.15769656125E+03  0.17531659707E+03  0.00000000000E+00 0.  1.
         14    1    5    5    0    0  0.87491235278E+00 -0.74022396327E+02  0.15661549135E+03  0.17322959551E+03  0.00000000000E+00 0. -1.
         11    1    3    3    0    0 -0.56532025686E+01  0.98796171092E+01 -0.14668105780E+02  0.18566606063E+02  0.00000000000E+00 0. -1.
        -12    1    3    3    0    0  0.86304427273E+02 -0.34581325747E+02 -0.61100560058E+03  0.61803896819E+03  0.00000000000E+00 0.  1.
          5    1    4    4  501    0  0.44679352077E+02  0.10343881489E+03  0.21813032793E+02  0.11484386674E+03  0.41800000000E+01 0. -1.
         -5    1    4    4    0  501 -0.58834766190E+02  0.31739226345E+02  0.48974667019E+02  0.82975289160E+02  0.41800000000E+01 0. -1.
</event>
<event>
11    1  0.8328696E-009  0.1360901E+03  0.7561462E-02  0.1112005E+00
         22   -1    0    0    0    0  0.00000000000E+00  0.00000000000E+00  0.70904259669E+03  0.70904259669E+03  0.00000000000E+00 0. -1.
         22   -1    0    0    0    0 -0.00000000000E+00 -0.00000000000E+00 -0.12104611152E+03  0.12104611152E+03  0.00000000000E+00 0.  1.
        -24    2    1    2    0    0  0.24954279929E+02  0.37271234886E+02 -0.71838970868E+02  0.11561225626E+03  0.78698761263E+02 0.  0.
         25    2    1    2    0    0 -0.69941209229E+02 -0.50636235952E+02  0.23728382795E+03  0.28179289730E+03  0.12509124999E+03 0.  0.
         24    2    1    2    0    0  0.44986929301E+02  0.13365001066E+02  0.42255162809E+03  0.43268355465E+03  0.80391125187E+02 0.  0.
        -13    1    5    5    0    0  0.83523799278E+01 -0.31193914601E+02  0.10222624260E+03  0.10720553733E+03  0.00000000000E+00 0.  1.
         14    1    5    5    0    0  0.36634549373E+02  0.44558915667E+02  0.32032538549E+03  0.32547801733E+03  0.00000000000E+00 0. -1.
         11    1    3    3    0    0 -0.76554286655E+01  0.27752327809E+02  0.71195859519E+01  0.29656125691E+02  0.00000000000E+00 0. -1.
        -12    1    3    3    0    0  0.32609708594E+02  0.95189070771E+01 -0.78958556820E+02  0.85956130565E+02  0.00000000000E+00 0.  1.
          5    1    4    4  501    0 -0.26036205729E+02  0.37867361195E+02  0.11892270551E+03  0.12756137087E+03  0.41800000000E+01 0. -1.
         -5    1    4    4    0  501 -0.43905003501E+02 -0.88503597147E+02  0.11836112244E+03  0.15423152643E+03  0.41800000000E+01 0. -1.
</event>
<event>
11    1  0.8328696E-009  0.2454874E+03  0.7561462E-02  0.1026331E+00
         22   -1    0    0    0    0  0.00000000000E+00  0.00000000000E+00  0.50619813898E+03  0.50619813898E+03  0.00000000000E+00 0. -1.
         22   -1    0    0    0    0 -0.00000000000E+00 -0.00000000000E+00 -0.46669237654E+03  0.46669237654E+03  0.00000000000E+00 0. -1.
         24    2    1    2    0    0  0.20941997709E+03  0.39059901282E+02 -0.34234144424E+03  0.41119776660E+03  0.80644504583E+02 0.  0.
         25    2    1    2    0    0 -0.19615697869E+03 -0.51785582493E+02  0.83783440248E+02  0.25263765390E+03  0.12508721944E+03 0.  0.
        -24    2    1    2    0    0 -0.13262998404E+02  0.12725681211E+02  0.29806376643E+03  0.30905509502E+03  0.79593924452E+02 0.  0.
        -13    1    3    3    0    0 -0.27630037610E+00  0.16608966030E+02 -0.20044132930E+02  0.26032697889E+02  0.00000000000E+00 0.  1.
         14    1    3    3    0    0  0.20969627747E+03  0.22450935252E+02 -0.32229731131E+03  0.38516506871E+03  0.00000000000E+00 0. -1.
         13    1    5    5    0    0  0.67018561060E+01  0.29463276218E+02  0.26614052506E+03  0.26785029139E+03  0.00000000000E+00 0. -1.
        -14    1    5    5    0    0 -0.19964854511E+02 -0.16737595007E+02  0.31923241374E+02  0.41204803629E+02  0.00000000000E+00 0.  1.
          5    1    4    4  501    0 -0.94808910406E+02 -0.11044335843E+02 -0.24648038424E+02  0.98669676420E+02  0.41800000000E+01 0. -1.
         -5    1    4    4    0  501 -0.10134806828E+03 -0.40741246649E+02  0.10843147867E+03  0.15396797748E+03  0.41800000000E+01 0. -1.
</event>
<event>
11    1  0.8328696E-009  0.1320484E+03  0.7561462E-02  0.1116777E+00
         22   -1    0    0    0    0  0.00000000000E+00  0.00000000000E+00  0.22536679174E+03  0.22536679174E+03  0.00000000000E+00 0.  1.
         22   -1    0    0    0    0 -0.00000000000E+00 -0.00000000000E+00 -0.10309674007E+04  0.10309674007E+04  0.00000000000E+00 0. -1.
         24    2    1    2    0    0  0.28336222514E+02  0.38255557444E+02 -0.74138764736E+03  0.74676227012E+03  0.75708752732E+02 0.  0.
         25    2    1    2    0    0 -0.36427543494E+01 -0.18165466293E+01 -0.26245793168E+03  0.29076978516E+03  0.12508530113E+03 0.  0.
        -24    2    1    2    0    0 -0.24693468165E+02 -0.36439010815E+02  0.19824497007E+03  0.21880213716E+03  0.81460040437E+02 0.  0.
        -11    1    3    3    0    0  0.44147798164E+02  0.24139731298E+02 -0.25521259250E+03  0.26012539683E+03  0.00000000000E+00 0.  1.
         12    1    3    3    0    0 -0.15811575650E+02  0.14115826146E+02 -0.48617505486E+03  0.48663687329E+03  0.00000000000E+00 0. -1.
         11    1    5    5    0    0  0.15763373660E+02 -0.95036304405E+01  0.43571520227E+01  0.18915277277E+02  0.00000000000E+00 0. -1.
        -12    1    5    5    0    0 -0.40456841825E+02 -0.26935380374E+02  0.19388781805E+03  0.19988685988E+03  0.00000000000E+00 0.  1.
          5    1    4    4  501    0 -0.54351704888E+02 -0.20959875056E+02 -0.72018477555E+02  0.92723015999E+02  0.41800000000E+01 0. -1.
         -5    1    4    4    0  501  0.50708950539E+02  0.19143328426E+02 -0.19043945412E+03  0.19804676916E+03  0.41800000000E+01 0. -1.
</event>
<event>
11    1  0.8328696E-009  0.2738806E+03  0.7561462E-02  0.1011894E+00
         22   -1    0    0    0    0  0.00000000000E+00  0.00000000000E+00  0.37586611823E+03  0.37586611823E+03  0.00000000000E+00 0. -1.
         22   -1    0    0    0    0 -0.00000000000E+00 -0.00000000000E+00 -0.90380040297E+03  0.90380040297E+03  0.00000000000E+00 0.  1.
        -24    2    1    2    0    0  0.98253186301E+02 -0.14485923670E+03 -0.48467633510E+03  0.52133292060E+03  0.78987196559E+02 0.  0.
         25    2    1    2    0    0  0.54696566077E+02  0.32417251203E+03 -0.25248279605E+03  0.43298499931E+03  0.12509562516E+03 0.  0.
         24    2    1    2    0    0 -0.15294975238E+03 -0.17931327532E+03  0.20922484641E+03  0.32534860129E+03  0.80807168905E+02 0.  0.
        -11    1    5    5    0    0  0.24187005959E+01 -0.14404639564E+02 -0.29959639949E+01  0.14910384093E+02  0.00000000000E+00 0.  1.
         12    1    5    5    0    0 -0.15536845297E+03 -0.16490863576E+03  0.21222081041E+03  0.31043821720E+03  0.00000000000E+00 0. -1.
         11    1    3    3    0    0  0.23950692789E+02  0.88056438930E+00 -0.31825321729E+02  0.39840459107E+02  0.00000000000E+00 0. -1.
        -12    1    3    3    0    0  0.74302493512E+02 -0.14573980109E+03 -0.45285101337E+03  0.48149246150E+03  0.00000000000E+00 0.  1.
          5    1    4    4  501    0  0.49849243831E+02  0.15857305018E+03 -0.54904869707E+02  0.17510675736E+03  0.41800000000E+01 0. -1.
         -5    1    4    4    0  501  0.48473222463E+01  0.16559946184E+03 -0.19757792634E+03  0.25787824195E+03  0.41800000000E+01 0. -1.
</event>
<event>
11    1  0.8328696E-009  0.2145909E+03  0.7561462E-02  0.1044660E+00
         22   -1    0    0    0    0  0.00000000000E+00  0.00000000000E+00  0.94210954420E+03  0.94210954420E+03  0.00000000000E+00 0. -1.
         22   -1    0    0    0    0 -0.00000000000E+00 -0.00000000000E+00 -0.11034480672E+04  0.11034480672E+04  0.00000000000E+00 0. -1.
        -24    2    1    2    0    0 -0.10434113172E+03  0.13592986835E+03 -0.95630096766E+03  0.97471157455E+03  0.78658196888E+02 0.  0.
         25    2    1    2    0    0  0.10165627679E+03 -0.18815556113E+03 -0.21550648439E+02  0.24869321920E+03  0.12508946013E+03 0.  0.
         24    2    1    2    0    0  0.26848549281E+01  0.52225692785E+02  0.81651309308E+03  0.82215281765E+03  0.80665314514E+02 0.  0.
        -13    1    5    5    0    0  0.52632550886E+00 -0.20877204520E+02  0.11926281276E+03  0.12107746774E+03  0.00000000000E+00 0.  1.
         14    1    5    5    0    0  0.21585294193E+01  0.73102897305E+02  0.69725028033E+03  0.70107534991E+03  0.00000000000E+00 0. -1.
         11    1    3    3    0    0 -0.78966166272E+02  0.13941846792E+03 -0.75699582233E+03  0.77376730329E+03  0.00000000000E+00 0. -1.
        -12    1    3    3    0    0 -0.25374965443E+02 -0.34885995688E+01 -0.19930514533E+03  0.20094427126E+03  0.00000000000E+00 0.  1.
          5    1    4    4  501    0  0.87807899566E+02 -0.71776844843E+02 -0.55877063250E+02  0.12649846354E+03  0.41800000000E+01 0.  1.
         -5    1    4    4    0  501  0.13848377221E+02 -0.11637871629E+03  0.34326414811E+02  0.12219475566E+03  0.41800000000E+01 0.  1.
</event>
<event>
11    1  0.8328696E-009  0.1578694E+03  0.7561462E-02  0.1089099E+00
         22   -1    0    0    0    0  0.00000000000E+00  0.00000000000E+00  0.10216744875E+04  0.10216744875E+04  0.00000000000E+00 0.  1.
         22   -1    0    0    0    0 -0.00000000000E+00 -0.00000000000E+00 -0.16148998780E+04  0.16148998780E+04  0.00000000000E+00 0.  1.
        -24    2    1    2    0    0  0.95570039287E+02  0.11950754838E+02 -0.15850123340E+04  0.15899933988E+04  0.80860721569E+02 0.  0.
         25    2    1    2    0    0 -0.97741624439E+02  0.83590530973E+01  0.22599046662E+03  0.27630041988E+03  0.12508769767E+03 0.  0.
         24    2    1    2    0    0  0.21715851522E+01 -0.20309807935E+02  0.76579647690E+03  0.77028054688E+03  0.80440492223E+02 0.  0.
        -11    1    5    5    0    0 -0.12046571741E+02 -0.44982528547E+02  0.61889713885E+03  0.62064661140E+03  0.00000000000E+00 0.  1.
         12    1    5    5    0    0  0.14218156893E+02  0.24672720612E+02  0.14689933805E+03  0.14963393548E+03  0.00000000000E+00 0. -1.
         11    1    3    3    0    0  0.79098308443E+02 -0.22711289123E+02 -0.12677934652E+04  0.12704615758E+04  0.00000000000E+00 0. -1.
        -12    1    3    3    0    0  0.16471730844E+02  0.34662043961E+02 -0.31721886876E+03  0.31953182299E+03  0.00000000000E+00 0.  1.
          5    1    4    4  501    0 -0.33614346119E+02  0.48339443553E+02  0.17590384794E+03  0.18554315452E+03  0.41800000000E+01 0.  1.
         -5    1    4    4    0  501 -0.64127278321E+02 -0.39980390456E+02  0.50086618680E+02  0.90757265366E+02  0.41800000000E+01 0.  1.
</event>
<event>
11    1  0.8328696E-009  0.1276628E+03  0.7561462E-02  0.1122174E+00
         22   -1    0    0    0    0  0.00000000000E+00  0.00000000000E+00  0.64875540632E+02  0.64875540632E+02  0.00000000000E+00 0.  1.
         22   -1    0    0    0    0 -0.00000000000E+00 -0.00000000000E+00 -0.75884649359E+03  0.75884649359E+03  0.00000000000E+00 0. -1.
        -24    2    1    2    0    0  0.11277055636E+02  0.19904766581E+02 -0.55005911192E+03  0.55747568278E+03  0.87696856106E+02 0.  0.
         25    2    1    2    0    0 -0.41610854830E+02 -0.27254277618E+02 -0.13140117742E+03  0.18811954544E+03  0.12509370512E+03 0.  0.
         24    2    1    2    0    0  0.30333799194E+02  0.73495110360E+01 -0.12510663615E+02  0.78126806000E+02  0.70520397232E+02 0.  0.
        -11    1    5    5    0    0  0.18899915075E+02  0.39040239369E+02 -0.84879613779E+01  0.44197200909E+02  0.00000000000E+00 0.  1.
         12    1    5    5    0    0  0.11433884119E+02 -0.31690728333E+02 -0.40227022371E+01  0.33929605091E+02  0.00000000000E+00 0. -1.
         13    1    3    3    0    0 -0.12617903483E+02 -0.25300497599E+02 -0.34428562092E+03  0.34544451862E+03  0.00000000000E+00 0. -1.
        -14    1    3    3    0    0  0.23894959119E+02  0.45205264180E+02 -0.20577349099E+03  0.21203116416E+03  0.00000000000E+00 0.  1.
          5    1    4    4  501    0  0.80388302705E+01 -0.35169549384E+02 -0.13277326814E+03  0.13765076508E+03  0.41800000000E+01 0. -1.
         -5    1    4    4    0  501 -0.49649685101E+02  0.79152717662E+01  0.13720907145E+01  0.50468780356E+02  0.41800000000E+01 0. -1.
</event>
<event>
11    1  0.8328696E-009  0.1452570E+03  0.7561462E-02  0.1101826E+00
         22   -1    0    0    0    0  0.00000000000E+00  0.00000000000E+00  0.19499494612E+03  0.19499494612E+03  0.00000000000E+00 0. -1.
         22   -1    0    0    0    0 -0.00000000000E+00 -0.00000000000E+00 -0.42791031999E+03  0.42791031999E+03  0.00000000000E+00 0. -1.
         24    2    1    2    0    0 -0.67800213490E+02  0.18220345838E+02 -0.16761202804E+03  0.19880419051E+03  0.80625456689E+02 0.  0.
         25    2    1    2    0    0  0.52234618829E+02 -0.77274447000E+02 -0.20183436356E+03  0.25511541848E+03  0.12508785260E+03 0.  0.
        -24    2    1    2    0    0  0.15565594661E+02  0.59054101162E+02  0.13653101773E+03  0.16898565712E+03  0.78649595731E+02 0.  0.
        -13    1    3    3    0    0 -0.26380704055E+02  0.27386601331E+02 -0.15802160300E+02  0.41178583621E+02  0.00000000000E+00 0.  1.
         14    1    3    3    0    0 -0.41419509435E+02 -0.91662554927E+01 -0.15180986774E+03  0.15762560688E+03  0.00000000000E+00 0. -1.
         13    1    5    5    0    0 -0.67667660805E+01 -0.86408873131E+00  0.89123444890E+02  0.89384138423E+02  0.00000000000E+00 0. -1.
        -14    1    5    5    0    0  0.22332360742E+02  0.59918189893E+02  0.47407572843E+02  0.79601518699E+02  0.00000000000E+00 0.  1.
          5    1    4    4  501    0  0.16517432496E+02 -0.31676794207E+02 -0.19306298127E+03  0.19638490778E+03  0.41800000000E+01 0.  1.
         -5    1    4    4    0  501  0.35717186333E+02 -0.45597652794E+02 -0.87713822932E+01  0.58730510701E+02  0.41800000000E+01 0.  1.
</event>
<event>
11    1  0.8328696E-009  0.1494659E+03  0.7561462E-02  0.1097426E+00
         22   -1    0    0    0    0  0.00000000000E+00  0.00000000000E+00  0.19666318707E+02  0.19666318707E+02  0.00000000000E+00 0.  1.
         22   -1    0    0    0    0 -0.00000000000E+00 -0.00000000000E+00 -0.35485613293E+04  0.35485613293E+04  0.00000000000E+00 0. -1.
        -24    2    1    2    0    0  0.44980784965E+02 -0.64737940768E+02 -0.25476601822E+04  0.25501635124E+04  0.80915165466E+02 0.  0.
         25    2    1    2    0    0 -0.74208675111E+02  0.70680594379E+02 -0.81413738206E+03  0.83004184061E+03  0.12508839439E+03 0.  0.
         24    2    1    2    0    0  0.29227890146E+02 -0.59426536109E+01 -0.16709744637E+03  0.18802229504E+03  0.80877946028E+02 0.  0.
        -11    1    5    5    0    0 -0.22963694271E+02 -0.21193643355E+02 -0.71765178167E+02  0.78273511296E+02  0.00000000000E+00 0.  1.
         12    1    5    5    0    0  0.52191584417E+02  0.15250989744E+02 -0.95332268202E+02  0.10974878374E+03  0.00000000000E+00 0. -1.
         11    1    3    3    0    0  0.12593556687E+02 -0.72330605882E+02 -0.13094973477E+04  0.13115538944E+04  0.00000000000E+00 0. -1.
        -12    1    3    3    0    0  0.32387228278E+02  0.75926651135E+01 -0.12381628345E+04  0.12386096180E+04  0.00000000000E+00 0.  1.
          5    1    4    4  501    0 -0.88142331071E+02  0.95549354996E+02 -0.71781250190E+03  0.72950052094E+03  0.41800000000E+01 0. -1.
         -5    1    4    4    0  501  0.13933655961E+02 -0.24868760616E+02 -0.96324880165E+02  0.10054131967E+03  0.41800000000E+01 0. -1.
</event>
<event>
11    1  0.8328696E-009  0.2281326E+03  0.7561462E-02  0.1036239E+00
         22   -1    0    0    0    0  0.00000000000E+00  0.00000000000E+00  0.63871357416E+03  0.63871357416E+03  0.00000000000E+00 0.  1.
         22   -1    0    0    0    0 -0.00000000000E+00 -0.00000000000E+00 -0.22158711832E+03  0.22158711832E+03  0.00000000000E+00 0. -1.
         24    2    1    2    0    0 -0.39035666374E+02  0.18107204206E+03 -0.53335793649E+02  0.20848092857E+03  0.79427470229E+02 0.  0.
         25    2    1    2    0    0  0.63577062011E+02 -0.19316607447E+03  0.79291960101E+02  0.25157506295E+03  0.12509045615E+03 0.  0.
        -24    2    1    2    0    0 -0.24541395637E+02  0.12094032407E+02  0.39117028939E+03  0.40024470096E+03  0.80206481166E+02 0.  0.
        -11    1    3    3    0    0  0.18551633659E+02  0.12427460031E+02 -0.12745531241E+02  0.25710959548E+02  0.00000000000E+00 0.  1.
         12    1    3    3    0    0 -0.57587300033E+02  0.16864458203E+03 -0.40590262407E+02  0.18276996902E+03  0.00000000000E+00 0. -1.
         13    1    5    5    0    0 -0.36703891711E+02  0.20357312796E+02  0.96801397622E+02  0.10550879789E+03  0.00000000000E+00 0. -1.
        -14    1    5    5    0    0  0.12162496073E+02 -0.82632803891E+01  0.29436889177E+03  0.29473590307E+03  0.00000000000E+00 0.  1.
          5    1    4    4  501    0  0.12511475494E+02 -0.24821119070E+02 -0.32599734778E+02  0.43044628915E+02  0.41800000000E+01 0.  1.
         -5    1    4    4    0  501  0.51065586517E+02 -0.16834495540E+03  0.11189169488E+03  0.20853043403E+03  0.41800000000E+01 0.  1.
</event>
<event>
11    1  0.8328696E-009  0.1354474E+03  0.7561462E-02  0.1112751E+00
         22   -1    0    0    0    0  0.00000000000E+00  0.00000000000E+00  0.64093666135E+03  0.64093666135E+03  0.00000000000E+00 0.  1.
         22   -1    0    0    0    0 -0.00000000000E+00 -0.00000000000E+00 -0.26609543027E+03  0.26609543027E+03  0.00000000000E+00 0.  1.
        -24    2    1    2    0    0 -0.48366463263E+02 -0.14928170498E+02 -0.18542754911E+03  0.20843628264E+03  0.80623463755E+02 0.  0.
         25    2    1    2    0    0  0.65323652944E+02 -0.62296360514E+01  0.96747905874E+01  0.14155358543E+03  0.12505130137E+03 0.  0.
         24    2    1    2    0    0 -0.16957189681E+02  0.21157806549E+02  0.55059398960E+03  0.55704222355E+03  0.80044352534E+02 0.  0.
        -11    1    5    5    0    0  0.28200723182E+02  0.25744654912E+02  0.29329828100E+03  0.29577347698E+03  0.00000000000E+00 0.  1.
         12    1    5    5    0    0 -0.45157912863E+02 -0.45868483631E+01  0.25729570860E+03  0.26126874658E+03  0.00000000000E+00 0. -1.
         11    1    3    3    0    0 -0.55373891725E+02  0.78010176264E+01 -0.65279514813E+02  0.85956610071E+02  0.00000000000E+00 0. -1.
        -12    1    3    3    0    0  0.70074284613E+01 -0.22729188124E+02 -0.12014803430E+03  0.12247967257E+03  0.00000000000E+00 0.  1.
          5    1    4    4  501    0  0.59590762551E+02 -0.41908139045E+02  0.49067117847E+02  0.87934097786E+02  0.41800000000E+01 0. -1.
         -5    1    4    4    0  501  0.57328903939E+01  0.35678502994E+02 -0.39392327260E+02  0.53619487643E+02  0.41800000000E+01 0. -1.
</event>
<event>
11    1  0.8328696E-009  0.1865909E+04  0.7561462E-02  0.8124282E-01
         22   -1    0    0    0    0  0.00000000000E+00  0.00000000000E+00  0.12122992541E+04  0.12122992541E+04  0.00000000000E+00 0. -1.
         22   -1    0    0    0    0 -0.00000000000E+00 -0.00000000000E+00 -0.33130945906E+04  0.33130945906E+04  0.00000000000E+00 0. -1.
        -24    2    1    2    0    0 -0.75924749450E+02 -0.37596078181E+02 -0.32851188884E+03  0.34849694575E+03  0.79699607397E+02 0.  0.
         25    2    1    2    0    0 -0.14856893561E+04 -0.10389041151E+04 -0.12565035871E+04  0.22093082069E+04  0.12508743211E+03 0.  0.
         24    2    1    2    0    0  0.15616141055E+04  0.10765001933E+04 -0.51577986051E+03  0.19675886920E+04  0.88798174837E+02 0.  0.
        -11    1    5    5    0    0  0.11780656874E+04  0.79793551733E+03 -0.42460449027E+03  0.14848666023E+04  0.00000000000E+00 0.  1.
         12    1    5    5    0    0  0.38354841813E+03  0.27856467593E+03 -0.91175370236E+02  0.48272208968E+03  0.00000000000E+00 0. -1.
         11    1    3    3    0    0 -0.55517712941E+02 -0.61024987864E+02 -0.20139069476E+03  0.21763381523E+03  0.00000000000E+00 0. -1.
        -12    1    3    3    0    0 -0.20407036510E+02  0.23428909683E+02 -0.12712119408E+03  0.13086313053E+03  0.00000000000E+00 0.  1.
          5    1    4    4  501    0 -0.13497229505E+04 -0.98261121661E+03 -0.11406981934E+04  0.20220006644E+04  0.41800000000E+01 0. -1.
         -5    1    4    4    0  501 -0.13596640555E+03 -0.56292898463E+02 -0.11580539375E+03  0.18730754250E+03  0.41800000000E+01 0. -1.
</event>
<event>
11    1  0.8328696E-009  0.1444324E+03  0.7561462E-02  0.1102707E+00
         22   -1    0    0    0    0  0.00000000000E+00  0.00000000000E+00  0.16263961910E+04  0.16263961910E+04  0.00000000000E+00 0. -1.
         22   -1    0    0    0    0 -0.00000000000E+00 -0.00000000000E+00 -0.17861622282E+03  0.17861622282E+03  0.00000000000E+00 0.  1.
         24    2    1    2    0    0 -0.18990190297E+02 -0.67365085306E+02 -0.10428914134E+03  0.14955703086E+03  0.81193586155E+02 0.  0.
         25    2    1    2    0    0 -0.67837554067E+01  0.87624780146E+02  0.65646245507E+02  0.16637651160E+03  0.12509033787E+03 0.  0.
        -24    2    1    2    0    0  0.25773945703E+02 -0.20259694840E+02  0.14864228641E+04  0.14890788714E+04  0.82632940946E+02 0.  0.
        -13    1    3    3    0    0 -0.44083328198E+01 -0.84095396349E+02 -0.74686552076E+02  0.11255909624E+03  0.00000000000E+00 0.  1.
         14    1    3    3    0    0 -0.14581857477E+02  0.16730311043E+02 -0.29602589268E+02  0.36997934624E+02  0.00000000000E+00 0. -1.
         13    1    5    5    0    0 -0.73568069276E+01 -0.31785907756E+02  0.12099153294E+04  0.12103551425E+04  0.00000000000E+00 0. -1.
        -14    1    5    5    0    0  0.33130752631E+02  0.11526212916E+02  0.27650753466E+03  0.27872372895E+03  0.00000000000E+00 0.  1.
          5    1    4    4  501    0 -0.14323786561E+02 -0.30732131837E+02  0.13008840220E+02  0.36555944969E+02  0.41800000000E+01 0. -1.
         -5    1    4    4    0  501  0.75400311540E+01  0.11835691198E+03  0.52637405287E+02  0.12982056663E+03  0.41800000000E+01 0. -1.
</event>
<event>
11    1  0.8328696E-009  0.1332318E+03  0.7561462E-02  0.1115361E+00
         22   -1    0    0    0    0  0.00000000000E+00  0.00000000000E+00  0.13110597074E+04  0.13110597074E+04  0.00000000000E+00 0.  1.
         22   -1    0    0    0    0 -0.00000000000E+00 -0.00000000000E+00 -0.18195947333E+03  0.18195947333E+03  0.00000000000E+00 0. -1.
         24    2    1    2    0    0 -0.42338886390E+02  0.16116483427E+02 -0.13706361229E+03  0.16436583596E+03  0.78596258680E+02 0.  0.
         25    2    1    2    0    0  0.50624267466E+02 -0.13811162073E+02  0.12444333176E+03  0.18408313745E+03  0.12508754542E+03 0.  0.
        -24    2    1    2    0    0 -0.82853810765E+01 -0.23053213534E+01  0.11417205146E+04  0.11445702074E+04  0.80257485570E+02 0.  0.
        -13    1    3    3    0    0  0.10937453680E+02 -0.16178241751E+02 -0.80985887547E+01  0.21141204766E+02  0.00000000000E+00 0.  1.
         14    1    3    3    0    0 -0.53276340069E+02  0.32294725178E+02 -0.12896502353E+03  0.14322463119E+03  0.00000000000E+00 0. -1.
         13    1    5    5    0    0 -0.31741825855E+02  0.19737775500E+02  0.31286032235E+03  0.31508523385E+03  0.00000000000E+00 0. -1.
        -14    1    5    5    0    0  0.23456444778E+02 -0.22043096854E+02  0.82886019229E+03  0.82948497351E+03  0.00000000000E+00 0.  1.
          5    1    4    4  501    0  0.54859272531E+02 -0.16793295702E+02  0.14843167415E+03  0.15918853242E+03  0.41800000000E+01 0.  1.
         -5    1    4    4    0  501 -0.42350050649E+01  0.29821336290E+01 -0.23988342391E+02  0.24894605029E+02  0.41800000000E+01 0.  1.
</event>
<event>
11    1  0.8328696E-009  0.2253367E+03  0.7561462E-02  0.1037925E+00
         22   -1    0    0    0    0  0.00000000000E+00  0.00000000000E+00  0.15494506587E+04  0.15494506587E+04  0.00000000000E+00 0.  1.
         22   -1    0    0    0    0 -0.00000000000E+00 -0.00000000000E+00 -0.22706599117E+03  0.22706599117E+03  0.00000000000E+00 0.  1.
         24    2    1    2    0    0  0.38690326671E+01 -0.54541279848E+02 -0.16750927814E+03  0.19605584904E+03  0.85958228578E+02 0.  0.
         25    2    1    2    0    0  0.18409406260E+03  0.53147363682E+02  0.32711702067E+03  0.39921007509E+03  0.12509145730E+03 0.  0.
        -24    2    1    2    0    0 -0.18796309526E+03  0.13939161659E+01  0.11627769250E+04  0.11812507257E+04  0.89280633989E+02 0.  0.
        -11    1    3    3    0    0 -0.26803335852E+02  0.61932473132E+01 -0.83698545197E+02  0.88103470949E+02  0.00000000000E+00 0.  1.
         12    1    3    3    0    0  0.30672368519E+02 -0.60734527161E+02 -0.83810732938E+02  0.10795237809E+03  0.00000000000E+00 0. -1.
         11    1    5    5    0    0  0.49165649069E+01  0.77516439669E+01  0.16857774604E+02  0.19194925352E+02  0.00000000000E+00 0. -1.
        -12    1    5    5    0    0 -0.19287966017E+03 -0.63577278010E+01  0.11459191504E+04  0.11620558004E+04  0.00000000000E+00 0.  1.
          5    1    4    4  501    0  0.56558878536E+02 -0.41095910571E+02  0.93413549394E+02  0.11675334778E+03  0.41800000000E+01 0.  1.
         -5    1    4    4    0  501  0.12753518406E+03  0.94243274254E+02  0.23370347128E+03  0.28245672731E+03  0.41800000000E+01 0.  1.
</event>
<event>
11    1  0.8328696E-009  0.1460753E+03  0.7561462E-02  0.1100958E+00
         22   -1    0    0    0    0  0.00000000000E+00  0.00000000000E+00  0.82691436106E+02  0.82691436106E+02  0.00000000000E+00 0.  1.
         22   -1    0    0    0    0 -0.00000000000E+00 -0.00000000000E+00 -0.26193822958E+04  0.26193822958E+04  0.00000000000E+00 0.  1.
         24    2    1    2    0    0  0.75368810297E+02 -0.18763423675E+02 -0.22884811543E+04  0.22914581666E+04  0.87189519743E+02 0.  0.
         25    2    1    2    0    0 -0.51751497406E+02  0.98997490350E+01 -0.28826109425E+03  0.31861999073E+03  0.12509203621E+03 0.  0.
        -24    2    1    2    0    0 -0.23617312891E+02  0.88636746403E+01  0.40051388824E+02  0.91995574539E+02  0.78884281018E+02 0.  0.
        -11    1    3    3    0    0  0.30871815140E+02 -0.28827670575E+02 -0.18736380991E+04  0.18741141454E+04  0.00000000000E+00 0.  1.
         12    1    3    3    0    0  0.44496995157E+02  0.10064246900E+02 -0.41484305517E+03  0.41734402124E+03  0.00000000000E+00 0. -1.
         11    1    5    5    0    0 -0.22612614415E+02  0.26346412963E+02 -0.12267912177E+02  0.36823436502E+02  0.00000000000E+00 0. -1.
        -12    1    5    5    0    0 -0.10046984763E+01 -0.17482738323E+02  0.52319301001E+02  0.55172138037E+02  0.00000000000E+00 0.  1.
          5    1    4    4  501    0  0.39581149264E+02  0.16659333624E+02 -0.75735771478E+02  0.87164099578E+02  0.41800000000E+01 0. -1.
         -5    1    4    4    0  501 -0.91332646671E+02 -0.67595845889E+01 -0.21252532277E+03  0.23145589116E+03  0.41800000000E+01 0. -1.
</event>
<event>
11    1  0.8328696E-009  0.1445094E+03  0.7561462E-02  0.1102625E+00
         22   -1    0    0    0    0  0.00000000000E+00  0.00000000000E+00  0.23469584560E+04  0.23469584560E+04  0.00000000000E+00 0. -1.
         22   -1    0    0    0    0 -0.00000000000E+00 -0.00000000000E+00 -0.45597666811E+02  0.45597666811E+02  0.00000000000E+00 0.  1.
        -24    2    1    2    0    0  0.15395205747E+02  0.71431974422E+02  0.42934115042E+02  0.11060554089E+03  0.71068334097E+02 0.  0.
         25    2    1    2    0    0  0.12431560359E+02 -0.71354657723E+02  0.47406087264E+03  0.49560804054E+03  0.12509031942E+03 0.  0.
         24    2    1    2    0    0 -0.27826766106E+02 -0.77316699611E-01  0.17843658015E+04  0.17863425414E+04  0.79271852841E+02 0.  0.
        -13    1    5    5    0    0  0.48496717433E+01 -0.15970426790E+01  0.69406824899E+01  0.86164339934E+01  0.00000000000E+00 0.  1.
         14    1    5    5    0    0 -0.32676437849E+02  0.15197259794E+01  0.17774251191E+04  0.17777261074E+04  0.00000000000E+00 0. -1.
         13    1    3    3    0    0  0.28152940104E+02  0.20088372197E+01  0.25173656759E+02  0.37819789239E+02  0.00000000000E+00 0. -1.
        -14    1    3    3    0    0 -0.12757734357E+02  0.69423137203E+02  0.17760458282E+02  0.72785751651E+02  0.00000000000E+00 0.  1.
          5    1    4    4  501    0 -0.22958164483E+02 -0.61475999746E+01  0.35116418501E+03  0.35199236857E+03  0.41800000000E+01 0. -1.
         -5    1    4    4    0  501  0.35389724843E+02 -0.65207057748E+02  0.12289668763E+03  0.14361567197E+03  0.41800000000E+01 0. -1.
</event>
<event>
11    1  0.8328696E-009  0.1378124E+03  0.7561462E-02  0.1110026E+00
         22   -1    0    0    0    0  0.00000000000E+00  0.00000000000E+00  0.54099911200E+03  0.54099911200E+03  0.00000000000E+00 0. -1.
         22   -1    0    0    0    0 -0.00000000000E+00 -0.00000000000E+00 -0.13572309687E+03  0.13572309687E+03  0.00000000000E+00 0. -1.
        -24    2    1    2    0    0 -0.75143893899E+01 -0.53965924793E+02 -0.63523971368E+02  0.11591200403E+03  0.80196699762E+02 0.  0.
         25    2    1    2    0    0 -0.21965171328E+02  0.77270485638E+02  0.92933513536E+02  0.17531977301E+03  0.12508872118E+03 0.  0.
         24    2    1    2    0    0  0.29479560718E+02 -0.23304560845E+02  0.37586647296E+03  0.38549043184E+03  0.76909820500E+02 0.  0.
        -13    1    5    5    0    0 -0.18999377404E+02  0.45886621007E+01  0.35194699450E+02  0.40257906441E+02  0.00000000000E+00 0.  1.
         14    1    5    5    0    0  0.48478938122E+02 -0.27893222946E+02  0.34067177351E+03  0.34523252540E+03  0.00000000000E+00 0. -1.
         11    1    3    3    0    0 -0.98813055034E+01  0.19415515127E+02 -0.24430563537E+02  0.32733085110E+02  0.00000000000E+00 0. -1.
        -12    1    3    3    0    0  0.23669161135E+01 -0.73381439920E+02 -0.39093407831E+02  0.83178918919E+02  0.00000000000E+00 0.  1.
          5    1    4    4  501    0 -0.17619874280E+02  0.10936214631E+03  0.89527906818E+02  0.14248949966E+03  0.41800000000E+01 0. -1.
         -5    1    4    4    0  501 -0.43452970478E+01 -0.32091660669E+02  0.34056067181E+01  0.32830273347E+02  0.41800000000E+01 0. -1.
</event>
<event>
11    1  0.8328696E-009  0.2322519E+03  0.7561462E-02  0.1033803E+00
         22   -1    0    0    0    0  0.00000000000E+00  0.00000000000E+00  0.11430180823E+04  0.11430180823E+04  0.00000000000E+00 0.  1.
         22   -1    0    0    0    0 -0.00000000000E+00 -0.00000000000E+00 -0.88798459182E+03  0.88798459182E+03  0.00000000000E+00 0.  1.
        -24    2    1    2    0    0  0.10722593698E+03  0.22958169510E+02 -0.78950870165E+03  0.80105028115E+03  0.79580674981E+02 0.  0.
         25    2    1    2    0    0 -0.18549317108E+03 -0.19271190694E+03  0.18893740698E+03  0.35055658887E+03  0.12508789970E+03 0.  0.
         24    2    1    2    0    0  0.78267234093E+02  0.16975373743E+03  0.85560478516E+03  0.87939580410E+03  0.79594852676E+02 0.  0.
        -11    1    5    5    0    0  0.92012279979E+02  0.14555165684E+03  0.78126326028E+03  0.80001489133E+03  0.00000000000E+00 0.  1.
         12    1    5    5    0    0 -0.13745045886E+02  0.24202080596E+02  0.74341524873E+02  0.79380912769E+02  0.00000000000E+00 0. -1.
         11    1    3    3    0    0  0.24457534947E+02  0.19801562507E+02 -0.69492024351E+02  0.76285085972E+02  0.00000000000E+00 0. -1.
        -12    1    3    3    0    0  0.82768402036E+02  0.31566070031E+01 -0.72001667730E+03  0.72476519518E+03  0.00000000000E+00 0.  1.
          5    1    4    4  501    0 -0.14144562224E+03 -0.19285945965E+03  0.19123480372E+03  0.30625129842E+03  0.41800000000E+01 0.  1.
         -5    1    4    4    0  501 -0.44047548836E+02  0.14755270830E+00 -0.22973967461E+01  0.44305290452E+02  0.41800000000E+01 0.  1.
</event>
<event>
11    1  0.8328696E-009  0.1251297E+03  0.7561462E-02  0.1125402E+00
         22   -1    0    0    0    0  0.00000000000E+00  0.00000000000E+00  0.35629694776E+03  0.35629694776E+03  0.00000000000E+00 0. -1.
         22   -1    0    0    0    0 -0.00000000000E+00 -0.00000000000E+00 -0.95661687051E+03  0.95661687051E+03  0.00000000000E+00 0.  1.
         24    2    1    2    0    0  0.70346517614E+00  0.34091381511E+01 -0.89875109174E+03  0.90224152802E+03  0.79209424275E+02 0.  0.
         25    2    1    2    0    0  0.16510704978E+02  0.61813892451E+01  0.27600562349E+02  0.12930470365E+03  0.12508837833E+03 0.  0.
        -24    2    1    2    0    0 -0.17214170154E+02 -0.95905273963E+01  0.27083060664E+03  0.28136758660E+03  0.73689859699E+02 0.  0.
        -11    1    3    3    0    0 -0.32746350373E+02 -0.13487096879E+02 -0.26119337784E+03  0.26358339453E+03  0.00000000000E+00 0.  1.
         12    1    3    3    0    0  0.33449815549E+02  0.16896235030E+02 -0.63755771390E+03  0.63865813349E+03  0.00000000000E+00 0. -1.
         11    1    5    5    0    0 -0.23739879613E+00  0.98012482200E+01  0.24388009444E+03  0.24407708063E+03  0.00000000000E+00 0. -1.
        -12    1    5    5    0    0 -0.16976771358E+02 -0.19391775616E+02  0.26950512208E+02  0.37290505971E+02  0.00000000000E+00 0.  1.
          5    1    4    4  501    0  0.37586454835E+02 -0.50197323880E+02 -0.25771367507E+00  0.62849436976E+02  0.41800000000E+01 0.  1.
         -5    1    4    4    0  501 -0.21075749857E+02  0.56378713125E+02  0.27858276024E+02  0.66455266674E+02  0.41800000000E+01 0.  1.
</event>
<event>
11    1  0.8328696E-009  0.1379010E+03  0.7561462E-02  0.1109925E+00
         22   -1    0    0    0    0  0.00000000000E+00  0.00000000000E+00  0.54546296244E+03  0.54546296244E+03  0.00000000000E+00 0. -1.
         22   -1    0    0    0    0 -0.00000000000E+00 -0.00000000000E+00 -0.23043948834E+03  0.23043948834E+03  0.00000000000E+00 0.  1.
         24    2    1    2    0    0 -0.51529337640E+02 -0.29019871815E+02 -0.18766899910E+03  0.21216472057E+03  0.79352314598E+02 0.  0.
         25    2    1    2    0    0  0.34600466545E+02  0.25655544130E+02  0.14350325108E+03  0.19518534440E+03  0.12509490945E+03 0.  0.
        -24    2    1    2    0    0  0.16928871095E+02  0.33643276850E+01  0.35918922213E+03  0.36855238580E+03  0.80722106091E+02 0.  0.
        -13    1    3    3    0    0 -0.65955019789E+02 -0.29445637242E+02 -0.18340587287E+03  0.19711627125E+03  0.00000000000E+00 0.  1.
         14    1    3    3    0    0  0.14425682149E+02  0.42576542698E+00 -0.42631262337E+01  0.15048449321E+02  0.00000000000E+00 0. -1.
         13    1    5    5    0    0  0.13022489722E+02  0.32850253417E+02  0.30228610532E+03  0.30434456436E+03  0.00000000000E+00 0. -1.
        -14    1    5    5    0    0  0.39063813724E+01 -0.29485925732E+02  0.56903116809E+02  0.64207821441E+02  0.00000000000E+00 0.  1.
          5    1    4    4  501    0 -0.10798613386E+01  0.61784626525E+02  0.12755733398E+03  0.14179863197E+03  0.41800000000E+01 0. -1.
         -5    1    4    4    0  501  0.35680327884E+02 -0.36129082395E+02  0.15945917092E+02  0.53386712434E+02  0.41800000000E+01 0. -1.
</event>
<event>
11    1  0.8328696E-009  0.1637147E+03  0.7561462E-02  0.1083635E+00
         22   -1    0    0    0    0  0.00000000000E+00  0.00000000000E+00  0.22414857531E+02  0.22414857531E+02  0.00000000000E+00 0.  1.
         22   -1    0    0    0    0 -0.00000000000E+00 -0.00000000000E+00 -0.29378065376E+04  0.29378065376E+04  0.00000000000E+00 0. -1.
        -24    2    1    2    0    0  0.37835469839E+02  0.30091424222E+02 -0.18647953301E+04  0.18671000418E+04  0.79144970570E+02 0.  0.
         25    2    1    2    0    0  0.39908959389E+02 -0.10277421310E+03 -0.52591902873E+03  0.55171908280E+03  0.12509139709E+03 0.  0.
         24    2    1    2    0    0 -0.77744429228E+02  0.72682788877E+02 -0.52467732117E+03  0.54140227046E+03  0.80642067375E+02 0.  0.
        -13    1    5    5    0    0 -0.18690539236E+02 -0.11213364963E+02 -0.36104837939E+02  0.42173867896E+02  0.00000000000E+00 0.  1.
         14    1    5    5    0    0 -0.59053889992E+02  0.83896153841E+02 -0.48857248323E+03  0.49922840256E+03  0.00000000000E+00 0. -1.
         13    1    3    3    0    0 -0.21856245475E+02  0.78079049728E+01 -0.84343527637E+03  0.84375454030E+03  0.00000000000E+00 0. -1.
        -14    1    3    3    0    0  0.59691715315E+02  0.22283519249E+02 -0.10213600537E+04  0.10233455015E+04  0.00000000000E+00 0.  1.
          5    1    4    4  501    0  0.59148739455E+02 -0.78580159687E+02 -0.50417428453E+03  0.51369504227E+03  0.41800000000E+01 0. -1.
         -5    1    4    4    0  501 -0.19239780067E+02 -0.24194053412E+02 -0.21744744204E+02  0.38024040528E+02  0.41800000000E+01 0. -1.
</event>
<event>
11    1  0.8328696E-009  0.2226217E+03  0.7561462E-02  0.1039587E+00
         22   -1    0    0    0    0  0.00000000000E+00  0.00000000000E+00  0.66243997283E+03  0.66243997283E+03  0.00000000000E+00 0.  1.
         22   -1    0    0    0    0 -0.00000000000E+00 -0.00000000000E+00 -0.42949862288E+03  0.42949862288E+03  0.00000000000E+00 0.  1.
        -24    2    1    2    0    0 -0.15704388081E+03 -0.96767214103E+02 -0.32978266561E+03  0.38627962255E+03  0.80178962543E+02 0.  0.
         25    2    1    2    0    0  0.10024793774E+03  0.17807183160E+03  0.17276508315E+03  0.29538659090E+03  0.12508492275E+03 0.  0.
         24    2    1    2    0    0  0.56795943075E+02 -0.81304617492E+02  0.38995893241E+03  0.41027238226E+03  0.80120151644E+02 0.  0.
        -11    1    5    5    0    0 -0.18905046081E+02 -0.12877177829E+02  0.10853257923E+03  0.11091683024E+03  0.00000000000E+00 0.  1.
         12    1    5    5    0    0  0.75700989156E+02 -0.68427439663E+02  0.28142635318E+03  0.29935555202E+03  0.00000000000E+00 0. -1.
         13    1    3    3    0    0 -0.11296731933E+03 -0.44969229936E+02 -0.14416166016E+03  0.18859064435E+03  0.00000000000E+00 0. -1.
        -14    1    3    3    0    0 -0.44076561483E+02 -0.51797984167E+02 -0.18562100545E+03  0.19768897819E+03  0.00000000000E+00 0.  1.
          5    1    4    4  501    0  0.22078881365E+00  0.65714536448E+02 -0.55530337958E+00  0.65850055506E+02  0.41800000000E+01 0. -1.
         -5    1    4    4    0  501  0.10002714893E+03  0.11235729515E+03  0.17332038653E+03  0.22953653540E+03  0.41800000000E+01 0. -1.
</event>
<event>
11    1  0.8328696E-009  0.1835358E+03  0.7561462E-02  0.1066818E+00
         22   -1    0    0    0    0  0.00000000000E+00  0.00000000000E+00  0.66380527099E+03  0.66380527099E+03  0.00000000000E+00 0.  1.
         22   -1    0    0    0    0 -0.00000000000E+00 -0.00000000000E+00 -0.92829131024E+02  0.92829131024E+02  0.00000000000E+00 0.  1.
         24    2    1    2    0    0 -0.11103558454E+03 -0.40406442983E+02  0.16610834438E+03  0.21867183542E+03  0.79144221934E+02 0.  0.
         25    2    1    2    0    0  0.16741181541E+03 -0.56003479488E+02  0.23122760203E+03  0.31666931549E+03  0.12510054268E+03 0.  0.
        -24    2    1    2    0    0 -0.56376230873E+02  0.96409922470E+02  0.17364019356E+03  0.22129325110E+03  0.79665761822E+02 0.  0.
        -11    1    3    3    0    0 -0.26438957252E+02 -0.47143548951E+02  0.42615207482E+02  0.68830142939E+02  0.00000000000E+00 0.  1.
         12    1    3    3    0    0 -0.84596627287E+02  0.67371059684E+01  0.12349313690E+03  0.14984169248E+03  0.00000000000E+00 0. -1.
         11    1    5    5    0    0 -0.23504551046E+02 -0.51887984830E+01  0.10382980229E+02  0.26214382083E+02  0.00000000000E+00 0. -1.
        -12    1    5    5    0    0 -0.32871679828E+02  0.10159872095E+03  0.16325721333E+03  0.19507886902E+03  0.00000000000E+00 0.  1.
          5    1    4    4  501    0  0.18308537602E+03 -0.34913769188E+02  0.21834380536E+03  0.28710749891E+03  0.41800000000E+01 0.  1.
         -5    1    4    4    0  501 -0.15673560610E+02 -0.21089710300E+02  0.12883796665E+02  0.29561816576E+02  0.41800000000E+01 0.  1.
</event>
<event>
11    1  0.8328696E-009  0.1439328E+03  0.7561462E-02  0.1103245E+00
         22   -1    0    0    0    0  0.00000000000E+00  0.00000000000E+00  0.16862398761E+03  0.16862398761E+03  0.00000000000E+00 0.  1.
         22   -1    0    0    0    0 -0.00000000000E+00 -0.00000000000E+00 -0.10487927733E+04  0.10487927733E+04  0.00000000000E+00 0. -1.
        -24    2    1    2    0    0  0.26929393990E+02  0.83304162956E+01 -0.87191379046E+03  0.87569030713E+03  0.76192308691E+02 0.  0.
         25    2    1    2    0    0 -0.94479976470E+02 -0.14090289568E+02 -0.11303458101E+03  0.19377694559E+03  0.12509071079E+03 0.  0.
         24    2    1    2    0    0  0.67550582480E+02  0.57598732726E+01  0.10477958581E+03  0.14794950815E+03  0.79460921388E+02 0.  0.
        -11    1    5    5    0    0  0.19268445897E+02 -0.43860659580E+01  0.95781782287E+02  0.97799081795E+02  0.00000000000E+00 0.  1.
         12    1    5    5    0    0  0.48282136583E+02  0.10145939231E+02  0.89978035201E+01  0.50150426360E+02  0.00000000000E+00 0. -1.
         11    1    3    3    0    0  0.33454850113E+02  0.11008366435E+02 -0.86531444712E+03  0.86603089063E+03  0.00000000000E+00 0. -1.
        -12    1    3    3    0    0 -0.65254561223E+01 -0.26779501393E+01 -0.65993433389E+01  0.96594164967E+01  0.00000000000E+00 0.  1.
          5    1    4    4  501    0 -0.58398273319E+02  0.19278200754E+02  0.88673584788E+01  0.62274471474E+02  0.41800000000E+01 0. -1.
         -5    1    4    4    0  501 -0.36081703151E+02 -0.33368490322E+02 -0.12190193948E+03  0.13150247412E+03  0.41800000000E+01 0. -1.
</event>
<event>
11    1  0.8328696E-009  0.1671738E+03  0.7561462E-02  0.1080518E+00
         22   -1    0    0    0    0  0.00000000000E+00  0.00000000000E+00  0.75724539372E+03  0.75724539372E+03  0.00000000000E+00 0.  1.
         22   -1    0    0    0    0 -0.00000000000E+00 -0.00000000000E+00 -0.24261086122E+03  0.24261086122E+03  0.00000000000E+00 0. -1.
        -24    2    1    2    0    0 -0.64453676166E+02  0.81937309743E+02 -0.15574298562E+03  0.20404566446E+03  0.80689258999E+02 0.  0.
         25    2    1    2    0    0  0.69747794851E+02 -0.15195184256E+03  0.13291535052E+03  0.24752291623E+03  0.12508791431E+03 0.  0.
         24    2    1    2    0    0 -0.52941186856E+01  0.70014532821E+02  0.53746216760E+03  0.54828767425E+03  0.82605869275E+02 0.  0.
        -13    1    5    5    0    0 -0.31938148365E+02  0.70280859026E+02  0.45843726293E+03  0.46489156640E+03  0.00000000000E+00 0.  1.
         14    1    5    5    0    0  0.26644029679E+02 -0.26632620457E+00  0.79024904664E+02  0.83396107849E+02  0.00000000000E+00 0. -1.
         11    1    3    3    0    0 -0.53151298347E+02  0.92541377703E+02 -0.10021972470E+03  0.14640000110E+03  0.00000000000E+00 0. -1.
        -12    1    3    3    0    0 -0.11302377819E+02 -0.10604067960E+02 -0.55523260915E+02  0.57645663361E+02  0.00000000000E+00 0.  1.
          5    1    4    4  501    0  0.10060355261E+03 -0.80535001817E+02  0.66126717737E+02  0.14490402518E+03  0.41800000000E+01 0.  1.
         -5    1    4    4    0  501 -0.30855757761E+02 -0.71416840747E+02  0.66788632786E+02  0.10261889104E+03  0.41800000000E+01 0.  1.
</event>
<event>
11    1  0.8328696E-009  0.1464073E+03  0.7561462E-02  0.1100607E+00
         22   -1    0    0    0    0  0.00000000000E+00  0.00000000000E+00  0.47506070676E+02  0.47506070676E+02  0.00000000000E+00 0.  1.
         22   -1    0    0    0    0 -0.00000000000E+00 -0.00000000000E+00 -0.26539014615E+04  0.26539014615E+04  0.00000000000E+00 0. -1.
        -24    2    1    2    0    0  0.49434667899E+02  0.61170162014E+02 -0.22061563620E+04  0.22090877406E+04  0.82202049028E+02 0.  0.
         25    2    1    2    0    0 -0.14059559303E+01 -0.66775395849E+02 -0.38734072249E+03  0.41248275591E+03  0.12509299909E+03 0.  0.
         24    2    1    2    0    0 -0.48028711969E+02  0.56052338348E+01 -0.12898306301E+02  0.79837035656E+02  0.62204582927E+02 0.  0.
        -13    1    5    5    0    0 -0.33915760594E+02  0.27366894936E+02  0.10586264247E+02  0.44847460863E+02  0.00000000000E+00 0.  1.
         14    1    5    5    0    0 -0.14112951375E+02 -0.21761661101E+02 -0.23484570548E+02  0.34989574794E+02  0.00000000000E+00 0. -1.
         13    1    3    3    0    0  0.16249356724E+02  0.74793933240E+02 -0.16513875582E+04  0.16531603193E+04  0.00000000000E+00 0. -1.
        -14    1    3    3    0    0  0.33185311176E+02 -0.13623771226E+02 -0.55476880382E+03  0.55592742126E+03  0.00000000000E+00 0.  1.
          5    1    4    4  501    0 -0.58971312730E+02 -0.56026534623E+02 -0.25531088390E+03  0.26798826121E+03  0.41800000000E+01 0. -1.
         -5    1    4    4    0  501  0.57565356800E+02 -0.10748861226E+02 -0.13202983858E+03  0.14449449470E+03  0.41800000000E+01 0. -1.
</event>
<event>
11    1  0.8328696E-009  0.1918198E+03  0.7561462E-02  0.1060464E+00
         22   -1    0    0    0    0  0.00000000000E+00  0.00000000000E+00  0.25252576761E+03  0.25252576761E+03  0.00000000000E+00 0. -1.
         22   -1    0    0    0    0 -0.00000000000E+00 -0.00000000000E+00 -0.53492705697E+03  0.53492705697E+03  0.00000000000E+00 0.  1.
        -24    2    1    2    0    0  0.11168700122E+03  0.63303320371E+02 -0.26797433251E+03  0.30774257680E+03  0.80087165502E+02 0.  0.
         25    2    1    2    0    0 -0.16390084540E+03 -0.10660686251E+03 -0.17333018797E+03  0.28968869063E+03  0.12509065977E+03 0.  0.
         24    2    1    2    0    0  0.52213844175E+02  0.43303542142E+02  0.15890323112E+03  0.19002155715E+03  0.79097869975E+02 0.  0.
        -11    1    5    5    0    0  0.36987241699E+01  0.43593577745E+02  0.32127098325E+02  0.54279195166E+02  0.00000000000E+00 0.  1.
         12    1    5    5    0    0  0.48515120005E+02 -0.29003560286E+00  0.12677613279E+03  0.13574236198E+03  0.00000000000E+00 0. -1.
         11    1    3    3    0    0  0.76212805677E+02  0.33525316245E+02 -0.84950024853E+02  0.11894891887E+03  0.00000000000E+00 0. -1.
        -12    1    3    3    0    0  0.35474195544E+02  0.29778004126E+02 -0.18302430766E+03  0.18879365793E+03  0.00000000000E+00 0.  1.
          5    1    4    4  501    0 -0.76452741769E+01 -0.32276461854E+02 -0.93086220914E+02  0.98907720281E+02  0.41800000000E+01 0. -1.
         -5    1    4    4    0  501 -0.15625557122E+03 -0.74330400659E+02 -0.80243967057E+02  0.19078097035E+03  0.41800000000E+01 0. -1.
</event>
<event>
11    1  0.8328696E-009  0.1313443E+03  0.7561462E-02  0.1117628E+00
         22   -1    0    0    0    0  0.00000000000E+00  0.00000000000E+00  0.24349512100E+03  0.24349512100E+03  0.00000000000E+00 0.  1.
         22   -1    0    0    0    0 -0.00000000000E+00 -0.00000000000E+00 -0.81906604782E+03  0.81906604782E+03  0.00000000000E+00 0.  1.
        -24    2    1    2    0    0  0.42180918146E+02  0.72197096589E+01 -0.57380752510E+03  0.58092277262E+03  0.79905180209E+02 0.  0.
         25    2    1    2    0    0 -0.20554666656E+02 -0.27968039245E+02 -0.21564183434E+03  0.25170020558E+03  0.12508751829E+03 0.  0.
         24    2    1    2    0    0 -0.21626251490E+02  0.20748329586E+02  0.21387843262E+03  0.22993819063E+03  0.78926545805E+02 0.  0.
        -11    1    5    5    0    0 -0.34634018954E+02  0.30847739459E+02  0.20693034807E+03  0.21206429980E+03  0.00000000000E+00 0.  1.
         12    1    5    5    0    0  0.13007767464E+02 -0.10099409873E+02  0.69480845538E+01  0.17873890823E+02  0.00000000000E+00 0. -1.
         13    1    3    3    0    0  0.12377236084E+02 -0.20786520780E+02 -0.50250792112E+02  0.55771117320E+02  0.00000000000E+00 0. -1.
        -14    1    3    3    0    0  0.29803682062E+02  0.28006230439E+02 -0.52355673299E+03  0.52515165530E+03  0.00000000000E+00 0.  1.
          5    1    4    4  501    0 -0.52816033617E+02  0.28588346207E+02 -0.71431039921E+02  0.93416769426E+02  0.41800000000E+01 0.  1.
         -5    1    4    4    0  501  0.32261366961E+02 -0.56556385452E+02 -0.14421079442E+03  0.15828343616E+03  0.41800000000E+01 0.  1.
</event>
<event>
11    1  0.8328696E-009  0.1454578E+03  0.7561462E-02  0.1101612E+00
         22   -1    0    0    0    0  0.00000000000E+00  0.00000000000E+00  0.15707361063E+03  0.15707361063E+03  0.00000000000E+00 0. -1.
         22   -1    0    0    0    0 -0.00000000000E+00 -0.00000000000E+00 -0.53838914478E+03  0.53838914478E+03  0.00000000000E+00 0.  1.
        -24    2    1    2    0    0  0.78938324210E+02  0.25114618225E+02 -0.25610014825E+03  0.28037447276E+03  0.78489209191E+02 0.  0.
         25    2    1    2    0    0 -0.63071579667E+02  0.21963523009E+01 -0.23623529142E+03  0.27465861495E+03  0.12508954284E+03 0.  0.
         24    2    1    2    0    0 -0.15866744543E+02 -0.27310970525E+02  0.11101990552E+03  0.14042966770E+03  0.79983932480E+02 0.  0.
        -11    1    5    5    0    0 -0.63983765033E+01 -0.11277121845E+02 -0.10996217813E+02  0.17000867777E+02  0.00000000000E+00 0.  1.
         12    1    5    5    0    0 -0.94683680398E+01 -0.16033848680E+02  0.12201612334E+03  0.12342879992E+03  0.00000000000E+00 0. -1.
         13    1    3    3    0    0 -0.78224816114E+01  0.25538987217E+02 -0.73697551057E+02  0.78388520323E+02  0.00000000000E+00 0. -1.
        -14    1    3    3    0    0  0.86760805822E+02 -0.42436899229E+00 -0.18240259720E+03  0.20198595243E+03  0.00000000000E+00 0.  1.
          5    1    4    4  501    0 -0.94539217018E+00 -0.86467149679E+00 -0.20478730690E+03  0.20483396909E+03  0.41800000000E+01 0. -1.
         -5    1    4    4    0  501 -0.62126187497E+02  0.30610237977E+01 -0.31447984514E+02  0.69824645861E+02  0.41800000000E+01 0. -1.
</event>
<event>
11    1  0.8328696E-009  0.3241726E+03  0.7561462E-02  0.9904499E-01
         22   -1    0    0    0    0  0.00000000000E+00  0.00000000000E+00  0.23461144998E+04  0.23461144998E+04  0.00000000000E+00 0.  1.
         22   -1    0    0    0    0 -0.00000000000E+00 -0.00000000000E+00 -0.48346752050E+03  0.48346752050E+03  0.00000000000E+00 0.  1.
         24    2    1    2    0    0  0.14369488793E+03  0.22996571069E+03 -0.26409472173E+03  0.38677611079E+03  0.79481374695E+02 0.  0.
         25    2    1    2    0    0 -0.23666201547E+03 -0.45814563258E+03  0.32448354223E+03  0.62196751277E+03  0.12509071722E+03 0.  0.
        -24    2    1    2    0    0  0.92967127543E+02  0.22817992190E+03  0.18022581588E+04  0.18208383967E+04  0.81295956507E+02 0.  0.
        -13    1    3    3    0    0  0.83166443704E+02  0.10667625475E+03 -0.80203098891E+02  0.15725462715E+03  0.00000000000E+00 0.  1.
         14    1    3    3    0    0  0.60528444228E+02  0.12328945593E+03 -0.18389162284E+03  0.22952148364E+03  0.00000000000E+00 0. -1.
         11    1    5    5    0    0  0.36113441563E+02  0.19189795205E+02  0.21305010181E+03  0.21693956482E+03  0.00000000000E+00 0. -1.
        -12    1    5    5    0    0  0.56853685980E+02  0.20899012669E+03  0.15892080570E+04  0.16038988319E+04  0.00000000000E+00 0.  1.
          5    1    4    4  501    0 -0.34628466035E+02 -0.81896052833E+01  0.34778607476E+02  0.49932196353E+02  0.41800000000E+01 0.  1.
         -5    1    4    4    0  501 -0.20203354944E+03 -0.44995602730E+03  0.28970493476E+03  0.57203531641E+03  0.41800000000E+01 0.  1.
</event>
<event>
11    1  0.8328696E-009  0.1669278E+03  0.7561462E-02  0.1080737E+00
         22   -1    0    0    0    0  0.00000000000E+00  0.00000000000E+00  0.19636848887E+03  0.19636848887E+03  0.00000000000E+00 0. -1.
         22   -1    0    0    0    0 -0.00000000000E+00 -0.00000000000E+00 -0.11052493741E+04  0.11052493741E+04  0.00000000000E+00 0. -1.
        -24    2    1    2    0    0  0.80261984374E+02 -0.10013699384E+03 -0.74175227050E+03  0.75685802456E+03  0.78538110933E+02 0.  0.
         25    2    1    2    0    0 -0.73466886018E+02  0.31184845138E+02 -0.32353024860E+03  0.35593448760E+03  0.12509060637E+03 0.  0.
         24    2    1    2    0    0 -0.67950983566E+01  0.68952148703E+02  0.15640163386E+03  0.18882535083E+03  0.79956049607E+02 0.  0.
        -11    1    5    5    0    0  0.32265876004E+02  0.11711054856E+02  0.34905616862E+02  0.48955465973E+02  0.00000000000E+00 0.  1.
         12    1    5    5    0    0 -0.39060974361E+02  0.57241093847E+02  0.12149601700E+03  0.13986988485E+03  0.00000000000E+00 0. -1.
         13    1    3    3    0    0  0.47471870891E+02 -0.22434794089E+02 -0.45325455061E+03  0.45628564097E+03  0.00000000000E+00 0. -1.
        -14    1    3    3    0    0  0.32790113484E+02 -0.77702199752E+02 -0.28849771990E+03  0.30057238358E+03  0.00000000000E+00 0.  1.
          5    1    4    4  501    0 -0.37346969756E+02 -0.28642409397E+02 -0.34394454522E+02  0.58443431349E+02  0.41800000000E+01 0. -1.
         -5    1    4    4    0  501 -0.36119916262E+02  0.59827254535E+02 -0.28913579407E+03  0.29749105625E+03  0.41800000000E+01 0. -1.
</event>
<event>
11    1  0.8328696E-009  0.1504886E+03  0.7561462E-02  0.1096381E+00
         22   -1    0    0    0    0  0.00000000000E+00  0.00000000000E+00  0.35263738174E+03  0.35263738174E+03  0.00000000000E+00 0.  1.
         22   -1    0    0    0    0 -0.00000000000E+00 -0.00000000000E+00 -0.16186393918E+04  0.16186393918E+04  0.00000000000E+00 0. -1.
         24    2    1    2    0    0  0.25618186685E+02 -0.34174956266E+01 -0.15658837287E+04  0.15684598744E+04  0.86061345016E+02 0.  0.
         25    2    1    2    0    0 -0.86514353708E+02  0.47595714605E+02  0.16196171434E+03  0.22721390356E+03  0.12507787820E+03 0.  0.
        -24    2    1    2    0    0  0.60896167023E+02 -0.44178218978E+02  0.13792000426E+03  0.17560299558E+03  0.78450151639E+02 0.  0.
        -11    1    3    3    0    0  0.28471338092E+00 -0.36738999960E+02 -0.36445119625E+03  0.36629838879E+03  0.00000000000E+00 0.  1.
         12    1    3    3    0    0  0.25333473304E+02  0.33321504333E+02 -0.12014325324E+04  0.12021614856E+04  0.00000000000E+00 0. -1.
         11    1    5    5    0    0 -0.11575998741E+02  0.11538473486E+02  0.30056939932E+02  0.34213444073E+02  0.00000000000E+00 0. -1.
        -12    1    5    5    0    0  0.72472165764E+02 -0.55716692464E+02  0.10786306433E+03  0.14138955151E+03  0.00000000000E+00 0.  1.
          5    1    4    4  501    0 -0.84075100829E+02  0.72626787563E+02  0.69069734897E+02  0.13088687302E+03  0.41800000000E+01 0.  1.
         -5    1    4    4    0  501 -0.24392528792E+01 -0.25031072958E+02  0.92891979441E+02  0.96327030540E+02  0.41800000000E+01 0.  1.
</event>
<event>
11    1  0.1087262E-008  0.1904288E+03  0.7561462E-02  0.1061506E+00
         22   -1    0    0    0    0  0.00000000000E+00  0.00000000000E+00  0.56466500861E+03  0.56466500861E+03  0.00000000000E+00 0.  1.
         22   -1    0    0    0    0 -0.00000000000E+00 -0.00000000000E+00 -0.38635512770E+03  0.38635512770E+03  0.00000000000E+00 0.  1.
        -24    2    1    2    0    0  0.12656500119E+02 -0.49706147470E+02 -0.19544466237E+03  0.21750276911E+03  0.80485715681E+02 0.  0.
         25    2    1    2    0    0 -0.63367162328E+01  0.18937417253E+03 -0.88473685250E+02  0.24367478103E+03  0.12508826778E+03 0.  0.
         24    2    1    2    0    0 -0.63197838863E+01 -0.13966802506E+03  0.46222822854E+03  0.48984258617E+03  0.82120198921E+02 0.  0.
        -11    1    5    5    0    0  0.93057108899E+01 -0.14300485558E+03  0.38105182315E+03  0.40710867947E+03  0.00000000000E+00 0.  1.
         12    1    5    5    0    0 -0.15625494776E+02  0.33368305231E+01  0.81176405391E+02  0.82733906696E+02  0.00000000000E+00 0. -1.
         11    1    3    3    0    0 -0.10048859117E+02  0.19469163527E+02 -0.57317297652E+02  0.61362044524E+02  0.00000000000E+00 0. -1.
        -12    1    3    3    0    0  0.22705359236E+02 -0.69175310997E+02 -0.13812736472E+03  0.15614072459E+03  0.00000000000E+00 0.  1.
          5    1    4    4  501    0 -0.28262165828E+01 -0.12726287041E+02 -0.30376186078E+02  0.33318627863E+02  0.41800000000E+01 0.  1.
         -5    1    4    4    0  501 -0.35104996500E+01  0.20210045957E+03 -0.58097499172E+02  0.21035615317E+03  0.41800000000E+01 0.  1.
</event>
<event>
11    1  0.8328696E-009  0.1395597E+03  0.7561462E-02  0.1108051E+00
         22   -1    0    0    0    0  0.00000000000E+00  0.00000000000E+00  0.63442369193E+03  0.63442369193E+03  0.00000000000E+00 0.  1.
         22   -1    0    0    0    0 -0.00000000000E+00 -0.00000000000E+00 -0.18821196234E+03  0.18821196234E+03  0.00000000000E+00 0. -1.
        -24    2    1    2    0    0 -0.16100357399E+02  0.58485586885E+02 -0.14880154088E+03  0.17984242713E+03  0.80756514589E+02 0.  0.
         25    2    1    2    0    0  0.10407856289E+02 -0.91264060997E+02  0.35177295604E+03  0.38448573738E+03  0.12509043668E+03 0.  0.
         24    2    1    2    0    0  0.56925011104E+01  0.32778474112E+02  0.24324031443E+03  0.25830748975E+03  0.80312363708E+02 0.  0.
        -11    1    5    5    0    0 -0.13640850096E+02  0.32696648713E+02  0.23437634787E+03  0.23703884928E+03  0.00000000000E+00 0.  1.
         12    1    5    5    0    0  0.19333351206E+02  0.81825398543E-01  0.88639665596E+01  0.21268640470E+02  0.00000000000E+00 0. -1.
         13    1    3    3    0    0  0.14954467105E+02 -0.70147116814E+01 -0.73446805819E+02  0.75281309443E+02  0.00000000000E+00 0. -1.
        -14    1    3    3    0    0 -0.31054824505E+02  0.65500298566E+02 -0.75354735056E+02  0.10456111769E+03  0.00000000000E+00 0.  1.
          5    1    4    4  501    0  0.31592617495E+02  0.18616772971E+02  0.46790779375E+02  0.59594690624E+02  0.41800000000E+01 0.  1.
         -5    1    4    4    0  501 -0.21184761206E+02 -0.10988083397E+03  0.30498217667E+03  0.32489104676E+03  0.41800000000E+01 0.  1.
</event>
<event>
11    1  0.8328696E-009  0.1538890E+03  0.7561462E-02  0.1092970E+00
         22   -1    0    0    0    0  0.00000000000E+00  0.00000000000E+00  0.16571298419E+04  0.16571298419E+04  0.00000000000E+00 0.  1.
         22   -1    0    0    0    0 -0.00000000000E+00 -0.00000000000E+00 -0.89547660631E+02  0.89547660631E+02  0.00000000000E+00 0.  1.
        -24    2    1    2    0    0  0.46972131163E+02  0.72622108032E+01 -0.43910785250E+02  0.10346962296E+03  0.80738373786E+02 0.  0.
         25    2    1    2    0    0  0.19629989859E+01  0.74706652667E+02  0.40740908316E+03  0.43268600397E+03  0.12510027845E+03 0.  0.
         24    2    1    2    0    0 -0.48935130149E+02 -0.81968863471E+02  0.12040838834E+04  0.12105218756E+04  0.80197703351E+02 0.  0.
        -13    1    5    5    0    0 -0.38733055046E+02 -0.20888690978E+02  0.84440660418E+03  0.84555254133E+03  0.00000000000E+00 0.  1.
         14    1    5    5    0    0 -0.10202075103E+02 -0.61080172493E+02  0.35967727920E+03  0.36496933431E+03  0.00000000000E+00 0. -1.
         13    1    3    3    0    0  0.36646085129E+02  0.32839866313E+02  0.27294891619E+01  0.49283288099E+02  0.00000000000E+00 0. -1.
        -14    1    3    3    0    0  0.10326046035E+02 -0.25577655510E+02 -0.46640274412E+02  0.54186334857E+02  0.00000000000E+00 0.  1.
          5    1    4    4  501    0  0.54022106099E+02  0.75714654171E+02  0.27568953329E+03  0.29098674879E+03  0.41800000000E+01 0. -1.
         -5    1    4    4    0  501 -0.52059107113E+02 -0.10080015033E+01  0.13171954987E+03  0.14169925518E+03  0.41800000000E+01 0. -1.
</event>
<event>
11    1  0.8647319E-009  0.1398105E+03  0.7561462E-02  0.1107770E+00
         22   -1    0    0    0    0  0.00000000000E+00  0.00000000000E+00  0.25717527292E+04  0.25717527292E+04  0.00000000000E+00 0.  1.
         22   -1    0    0    0    0 -0.00000000000E+00 -0.00000000000E+00 -0.11504972412E+04  0.11504972412E+04  0.00000000000E+00 0.  1.
         24    2    1    2    0    0 -0.51826198181E+01 -0.63164885697E+01 -0.94129510961E+03  0.94477578824E+03  0.80610477468E+02 0.  0.
         25    2    1    2    0    0 -0.12531085452E+02  0.66168620839E+02 -0.18199929297E+03  0.23088342113E+03  0.12509235397E+03 0.  0.
        -24    2    1    2    0    0  0.17713705270E+02 -0.59852132270E+02  0.25445498906E+04  0.25465907610E+04  0.80587252557E+02 0.  0.
        -13    1    3    3    0    0 -0.13219748913E+02 -0.30980475650E+01 -0.93190395022E+03  0.93200286056E+03  0.00000000000E+00 0.  1.
         14    1    3    3    0    0  0.80371290949E+01 -0.32184410047E+01 -0.93911593923E+01  0.12772927672E+02  0.00000000000E+00 0. -1.
         13    1    5    5    0    0  0.37814021349E+02 -0.12308015261E+02  0.57940774403E+03  0.58077079927E+03  0.00000000000E+00 0. -1.
        -14    1    5    5    0    0 -0.20100316080E+02 -0.47544117009E+02  0.19651421465E+04  0.19658199617E+04  0.00000000000E+00 0.  1.
          5    1    4    4  501    0  0.50034681752E+01 -0.71296590983E+01  0.16163847072E+02  0.18831067012E+02  0.41800000000E+01 0.  1.
         -5    1    4    4    0  501 -0.17534553627E+02  0.73298279938E+02 -0.19816314005E+03  0.21205235412E+03  0.41800000000E+01 0.  1.
</event>
<event>
11    1  0.8328696E-009  0.1522266E+03  0.7561462E-02  0.1094625E+00
         22   -1    0    0    0    0  0.00000000000E+00  0.00000000000E+00  0.21395291307E+04  0.21395291307E+04  0.00000000000E+00 0.  1.
         22   -1    0    0    0    0 -0.00000000000E+00 -0.00000000000E+00 -0.49315328292E+02  0.49315328292E+02  0.00000000000E+00 0.  1.
         24    2    1    2    0    0 -0.27962255793E+02 -0.76360509671E+02  0.65892665845E+02  0.13105487399E+03  0.78871549988E+02 0.  0.
         25    2    1    2    0    0  0.27280012186E+02  0.10885070641E+03  0.43818527741E+03  0.46930536996E+03  0.12509403496E+03 0.  0.
        -24    2    1    2    0    0  0.68224360762E+00 -0.32490196736E+02  0.15861358592E+04  0.15884842151E+04  0.79994121173E+02 0.  0.
        -13    1    3    3    0    0 -0.31752411699E+02 -0.80639310184E+02  0.25612256569E+02  0.90370911704E+02  0.00000000000E+00 0.  1.
         14    1    3    3    0    0  0.37901559063E+01  0.42788005132E+01  0.40280409276E+02  0.40683962283E+02  0.00000000000E+00 0. -1.
         11    1    5    5    0    0  0.33623913821E+02 -0.20753304702E+02  0.42787524921E+03  0.42969581813E+03  0.00000000000E+00 0. -1.
        -12    1    5    5    0    0 -0.32941670213E+02 -0.11736892034E+02  0.11582606100E+04  0.11587883969E+04  0.00000000000E+00 0.  1.
          5    1    4    4  501    0 -0.34788941498E+02  0.12349823430E+02  0.21637134102E+03  0.21953773754E+03  0.41800000000E+01 0.  1.
         -5    1    4    4    0  501  0.62068953683E+02  0.96500882977E+02  0.22181393639E+03  0.24976763241E+03  0.41800000000E+01 0.  1.
</event>
<event>
11    1  0.8328696E-009  0.1587816E+03  0.7561462E-02  0.1088229E+00
         22   -1    0    0    0    0  0.00000000000E+00  0.00000000000E+00  0.21008944412E+03  0.21008944412E+03  0.00000000000E+00 0.  1.
         22   -1    0    0    0    0 -0.00000000000E+00 -0.00000000000E+00 -0.14140408502E+04  0.14140408502E+04  0.00000000000E+00 0. -1.
         24    2    1    2    0    0  0.19293628290E+02 -0.88882422745E+02 -0.98992487129E+03  0.99725187865E+03  0.79295204802E+02 0.  0.
         25    2    1    2    0    0 -0.68052432347E+02  0.12686277177E+03 -0.38444079538E+03  0.42914788130E+03  0.12509149635E+03 0.  0.
        -24    2    1    2    0    0  0.48758804057E+02 -0.37980349023E+02  0.17041426060E+03  0.19773053437E+03  0.78970982795E+02 0.  0.
        -13    1    3    3    0    0  0.15321255284E+02  0.62140045811E+01 -0.33923841924E+03  0.33964107497E+03  0.00000000000E+00 0.  1.
         14    1    3    3    0    0  0.39723730059E+01 -0.95096427326E+02 -0.65068645205E+03  0.65761080368E+03  0.00000000000E+00 0. -1.
         13    1    5    5    0    0  0.23707564803E+02 -0.55992412084E+02  0.70190914976E+02  0.92865296990E+02  0.00000000000E+00 0. -1.
        -14    1    5    5    0    0  0.25051239254E+02  0.18012063061E+02  0.10022334562E+03  0.10486523738E+03  0.00000000000E+00 0.  1.
          5    1    4    4  501    0 -0.89776398957E+01  0.13094770581E+03 -0.26841279626E+03  0.29881566437E+03  0.41800000000E+01 0. -1.
         -5    1    4    4    0  501 -0.59074792451E+02 -0.40849340451E+01 -0.11602799912E+03  0.13033221693E+03  0.41800000000E+01 0. -1.
</event>
<event>
11    1  0.8328696E-009  0.1573752E+03  0.7561462E-02  0.1089572E+00
         22   -1    0    0    0    0  0.00000000000E+00  0.00000000000E+00  0.13092054074E+03  0.13092054074E+03  0.00000000000E+00 0.  1.
         22   -1    0    0    0    0 -0.00000000000E+00 -0.00000000000E+00 -0.14425156266E+04  0.14425156266E+04  0.00000000000E+00 0. -1.
        -24    2    1    2    0    0  0.58915691505E+02 -0.70885922919E+02 -0.11566744039E+04  0.11632141582E+04  0.81704519243E+02 0.  0.
         25    2    1    2    0    0 -0.51135452704E+02  0.12324809099E+03 -0.22713085638E+03  0.29161891340E+03  0.12509291857E+03 0.  0.
         24    2    1    2    0    0 -0.77802388006E+01 -0.52362168069E+02  0.72210174468E+02  0.11860309568E+03  0.77782107503E+02 0.  0.
        -13    1    5    5    0    0 -0.13597564541E+02 -0.40913350145E+02  0.88153072695E+02  0.98131341615E+02  0.00000000000E+00 0.  1.
         14    1    5    5    0    0  0.58173257405E+01 -0.11448817924E+02 -0.15942898227E+02  0.20471754065E+02  0.00000000000E+00 0. -1.
         13    1    3    3    0    0  0.56642772899E+02 -0.51828231658E+02 -0.11112817983E+04  0.11139307899E+04  0.00000000000E+00 0. -1.
        -14    1    3    3    0    0  0.22729186055E+01 -0.19057691262E+02 -0.45392605562E+02  0.49283368340E+02  0.00000000000E+00 0.  1.
          5    1    4    4  501    0  0.14371364378E+01  0.87924877584E+02 -0.20713768603E+03  0.22506963996E+03  0.41800000000E+01 0.  1.
         -5    1    4    4    0  501 -0.52572589142E+02  0.35323213404E+02 -0.19993170352E+02  0.66549273437E+02  0.41800000000E+01 0.  1.
</event>
<event>
11    1  0.8328696E-009  0.3501075E+03  0.7561462E-02  0.9809646E-01
         22   -1    0    0    0    0  0.00000000000E+00  0.00000000000E+00  0.10549424483E+04  0.10549424483E+04  0.00000000000E+00 0. -1.
         22   -1    0    0    0    0 -0.00000000000E+00 -0.00000000000E+00 -0.64713456721E+03  0.64713456721E+03  0.00000000000E+00 0. -1.
        -24    2    1    2    0    0  0.51877689224E+02  0.24568023838E+02 -0.11855574656E+03  0.15379866212E+03  0.79395724020E+02 0.  0.
         25    2    1    2    0    0  0.27370915774E+03 -0.76471208101E+02 -0.43174136368E+03  0.53180153935E+03  0.12509086076E+03 0.  0.
         24    2    1    2    0    0 -0.32558684696E+03  0.51903184263E+02  0.95810499131E+03  0.10164768140E+04  0.80988910350E+02 0.  0.
        -13    1    5    5    0    0 -0.20876644060E+02 -0.16959709664E+02  0.66830277565E+02  0.72039933498E+02  0.00000000000E+00 0.  1.
         14    1    5    5    0    0 -0.30471020290E+03  0.68862893927E+02  0.89127471375E+03  0.94443688052E+03  0.00000000000E+00 0. -1.
         11    1    3    3    0    0  0.67144033227E+02  0.70381700614E+01 -0.58250232746E+02  0.89168080897E+02  0.00000000000E+00 0. -1.
        -12    1    3    3    0    0 -0.15266344004E+02  0.17529853776E+02 -0.60305513816E+02  0.64630581224E+02  0.00000000000E+00 0.  1.
          5    1    4    4  501    0  0.14559444000E+03 -0.10369076903E+03 -0.26623633437E+03  0.32070044384E+03  0.41800000000E+01 0.  1.
         -5    1    4    4    0  501  0.12811471774E+03  0.27219560929E+02 -0.16550502931E+03  0.21110109551E+03  0.41800000000E+01 0.  1.
</event>
<event>
11    1  0.8328696E-009  0.1495286E+03  0.7561462E-02  0.1097361E+00
         22   -1    0    0    0    0  0.00000000000E+00  0.00000000000E+00  0.10838196637E+04  0.10838196637E+04  0.00000000000E+00 0.  1.
         22   -1    0    0    0    0 -0.00000000000E+00 -0.00000000000E+00 -0.95029063881E+02  0.95029063881E+02  0.00000000000E+00 0.  1.
        -24    2    1    2    0    0 -0.36093090173E+01  0.20548790613E+02 -0.55472827469E+02  0.10030847546E+03  0.80927595748E+02 0.  0.
         25    2    1    2    0    0  0.82315832781E+02 -0.31604744110E+02  0.50363664387E+03  0.52637728474E+03  0.12509364756E+03 0.  0.
         24    2    1    2    0    0 -0.78706523764E+02  0.11055953497E+02  0.54062678338E+03  0.55216296736E+03  0.79307456259E+02 0.  0.
        -13    1    5    5    0    0 -0.81145963029E+02 -0.97867710761E+01  0.49786594299E+03  0.50453042069E+03  0.00000000000E+00 0.  1.
         14    1    5    5    0    0  0.24394392655E+01  0.20842724573E+02  0.42760840387E+02  0.47632546669E+02  0.00000000000E+00 0. -1.
         11    1    3    3    0    0 -0.10725933537E+02  0.45422313518E+02 -0.96084494687E+01  0.47650335956E+02  0.00000000000E+00 0. -1.
        -12    1    3    3    0    0  0.71166245196E+01 -0.24873522904E+02 -0.45864378000E+02  0.52658139500E+02  0.00000000000E+00 0.  1.
          5    1    4    4  501    0  0.23199587011E+01  0.42260746636E+02  0.17731340057E+03  0.18234271945E+03  0.41800000000E+01 0.  1.
         -5    1    4    4    0  501  0.79995874080E+02 -0.73865490746E+02  0.32632324330E+03  0.34403456529E+03  0.41800000000E+01 0.  1.
</event>
<event>
11    1  0.8328696E-009  0.1654797E+03  0.7561462E-02  0.1082034E+00
         22   -1    0    0    0    0  0.00000000000E+00  0.00000000000E+00  0.93643370517E+03  0.93643370517E+03  0.00000000000E+00 0. -1.
         22   -1    0    0    0    0 -0.00000000000E+00 -0.00000000000E+00 -0.33233103014E+03  0.33233103014E+03  0.00000000000E+00 0.  1.
        -24    2    1    2    0    0 -0.91347872599E+02  0.42747301086E+02 -0.22396010812E+03  0.25822380452E+03  0.79684613395E+02 0.  0.
         25    2    1    2    0    0  0.14969296861E+03 -0.55537455195E+02  0.28488155384E+02  0.20482241945E+03  0.12509298434E+03 0.  0.
         24    2    1    2    0    0 -0.58345096008E+02  0.12790154109E+02  0.79957462777E+03  0.80571851134E+03  0.79341010024E+02 0.  0.
        -13    1    5    5    0    0  0.10423638188E+02 -0.47608849143E+01  0.38079178645E+03  0.38096417533E+03  0.00000000000E+00 0.  1.
         14    1    5    5    0    0 -0.68768734196E+02  0.17551039023E+02  0.41878284132E+03  0.42475433601E+03  0.00000000000E+00 0. -1.
         11    1    3    3    0    0 -0.12738890178E+02  0.33604758175E+02 -0.13245492102E+03  0.13724381661E+03  0.00000000000E+00 0. -1.
        -12    1    3    3    0    0 -0.78608982421E+02  0.91425429107E+01 -0.91505187103E+02  0.12097998791E+03  0.00000000000E+00 0.  1.
          5    1    4    4  501    0 -0.21653311902E+00  0.21502470977E+02  0.28848968714E+02  0.36223452908E+02  0.41800000000E+01 0. -1.
         -5    1    4    4    0  501  0.14990950173E+03 -0.77039926171E+02 -0.36081333005E+00  0.16859896654E+03  0.41800000000E+01 0. -1.
</event>
<event>
11    1  0.8328696E-009  0.1604450E+03  0.7561462E-02  0.1086660E+00
         22   -1    0    0    0    0  0.00000000000E+00  0.00000000000E+00  0.91826413342E+03  0.91826413342E+03  0.00000000000E+00 0.  1.
         22   -1    0    0    0    0 -0.00000000000E+00 -0.00000000000E+00 -0.53440318366E+03  0.53440318366E+03  0.00000000000E+00 0.  1.
         24    2    1    2    0    0  0.81062447577E+02 -0.14909263351E+02 -0.43809276146E+03  0.45354541640E+03  0.83574939758E+02 0.  0.
         25    2    1    2    0    0 -0.17550134384E+03  0.30695730284E+02  0.58372370733E+02  0.22538389546E+03  0.12509043577E+03 0.  0.
        -24    2    1    2    0    0  0.94438896263E+02 -0.15786466933E+02  0.76358134050E+03  0.77373800521E+03  0.80287729407E+02 0.  0.
        -11    1    3    3    0    0 -0.47636066487E+01  0.99231895986E+01 -0.18166321867E+03  0.18199639188E+03  0.00000000000E+00 0.  1.
         12    1    3    3    0    0  0.85826054225E+02 -0.24832452950E+02 -0.25642954279E+03  0.27154902452E+03  0.00000000000E+00 0. -1.
         13    1    5    5    0    0  0.44404907290E+02  0.31539549327E+02  0.40002225313E+03  0.40371319270E+03  0.00000000000E+00 0. -1.
        -14    1    5    5    0    0  0.50033988974E+02 -0.47326016259E+02  0.36355908737E+03  0.37002481251E+03  0.00000000000E+00 0.  1.
          5    1    4    4  501    0 -0.76498220135E+02  0.14536575366E+02  0.90976154411E+02  0.11982246358E+03  0.41800000000E+01 0.  1.
         -5    1    4    4    0  501 -0.99003123705E+02  0.16159154918E+02 -0.32603783678E+02  0.10556143188E+03  0.41800000000E+01 0.  1.
</event>
<event>
11    1  0.8328696E-009  0.1348734E+03  0.7561462E-02  0.1113422E+00
         22   -1    0    0    0    0  0.00000000000E+00  0.00000000000E+00  0.68733310527E+03  0.68733310527E+03  0.00000000000E+00 0.  1.
         22   -1    0    0    0    0 -0.00000000000E+00 -0.00000000000E+00 -0.21142164991E+03  0.21142164991E+03  0.00000000000E+00 0. -1.
         24    2    1    2    0    0 -0.46983716905E+02 -0.94712623834E+01 -0.13213409134E+03  0.16185492590E+03  0.80252255272E+02 0.  0.
         25    2    1    2    0    0  0.59385026739E+02  0.27659018156E+02  0.19778746001E+02  0.14258764565E+03  0.12509370573E+03 0.  0.
        -24    2    1    2    0    0 -0.12401309833E+02 -0.18187755773E+02  0.58826680070E+03  0.59431218364E+03  0.81636731109E+02 0.  0.
        -13    1    3    3    0    0 -0.12793799077E+02  0.28114190887E+02 -0.15340648784E+02  0.34488034580E+02  0.00000000000E+00 0.  1.
         14    1    3    3    0    0 -0.34189917828E+02 -0.37585453270E+02 -0.11679344256E+03  0.12736689132E+03  0.00000000000E+00 0. -1.
         13    1    5    5    0    0 -0.20622604270E+02  0.11322179311E+02  0.50567991875E+03  0.50622688963E+03  0.00000000000E+00 0. -1.
        -14    1    5    5    0    0  0.82212944366E+01 -0.29509935084E+02  0.82586881950E+02  0.88085294012E+02  0.00000000000E+00 0.  1.
          5    1    4    4  501    0  0.34272148572E+02 -0.46037687078E+02 -0.11312497142E+02  0.58647197639E+02  0.41800000000E+01 0.  1.
         -5    1    4    4    0  501  0.25112878167E+02  0.73696705235E+02  0.31091243144E+02  0.83940448012E+02  0.41800000000E+01 0.  1.
</event>
<event>
11    1  0.8328696E-009  0.1425957E+03  0.7561462E-02  0.1104694E+00
         22   -1    0    0    0    0  0.00000000000E+00  0.00000000000E+00  0.29770287230E+04  0.29770287230E+04  0.00000000000E+00 0.  1.
         22   -1    0    0    0    0 -0.00000000000E+00 -0.00000000000E+00 -0.91593484759E+03  0.91593484759E+03  0.00000000000E+00 0.  1.
        -24    2    1    2    0    0  0.13781088706E+02 -0.12029576962E+02 -0.83000871079E+03  0.83393229536E+03  0.78701868687E+02 0.  0.
         25    2    1    2    0    0 -0.24003190287E+02 -0.55770303921E+02 -0.24779789753E+02  0.14123760856E+03  0.12509014409E+03 0.  0.
         24    2    1    2    0    0  0.10222101581E+02  0.67799880883E+02  0.29158823759E+04  0.29177936666E+04  0.80302775118E+02 0.  0.
        -13    1    5    5    0    0 -0.27418257600E+02  0.43171871535E+02  0.21381709949E+04  0.21387825450E+04  0.00000000000E+00 0.  1.
         14    1    5    5    0    0  0.37640359181E+02  0.24628009348E+02  0.77771138102E+03  0.77901112165E+03  0.00000000000E+00 0. -1.
         13    1    3    3    0    0 -0.10655110677E+02  0.11713000613E+02 -0.37686166113E+02  0.40877535190E+02  0.00000000000E+00 0. -1.
        -14    1    3    3    0    0  0.24436199383E+02 -0.23742577575E+02 -0.79232254468E+03  0.79305476017E+03  0.00000000000E+00 0.  1.
          5    1    4    4  501    0 -0.52361794118E+02 -0.83797536868E+02 -0.15802486811E+02  0.10015475854E+03  0.41800000000E+01 0. -1.
         -5    1    4    4    0  501  0.28358603832E+02  0.28027232947E+02 -0.89773029425E+01  0.41082850024E+02  0.41800000000E+01 0. -1.
</event>
<event>
11    1  0.8328696E-009  0.2893737E+03  0.7561462E-02  0.1004792E+00
         22   -1    0    0    0    0  0.00000000000E+00  0.00000000000E+00  0.12640772657E+04  0.12640772657E+04  0.00000000000E+00 0.  1.
         22   -1    0    0    0    0 -0.00000000000E+00 -0.00000000000E+00 -0.13582889446E+03  0.13582889446E+03  0.00000000000E+00 0. -1.
        -24    2    1    2    0    0 -0.25449543774E+03 -0.24795506385E+03  0.50874749040E+03  0.62563497411E+03  0.79658460489E+02 0.  0.
         25    2    1    2    0    0  0.84797765346E+02  0.20291659657E+03  0.24107564154E+03  0.34947199820E+03  0.12508959354E+03 0.  0.
         24    2    1    2    0    0  0.16969767239E+03  0.45038467287E+02  0.37842523934E+03  0.42479918788E+03  0.80143151316E+02 0.  0.
        -13    1    5    5    0    0  0.17332800767E+03  0.36839546697E+02  0.37575811326E+03  0.41544423227E+03  0.00000000000E+00 0.  1.
         14    1    5    5    0    0 -0.36303352775E+01  0.81989205895E+01  0.26671260871E+01  0.93549556185E+01  0.00000000000E+00 0. -1.
         11    1    3    3    0    0 -0.11266209894E+03 -0.16339683993E+03  0.26071976281E+03  0.32766762208E+03  0.00000000000E+00 0. -1.
        -12    1    3    3    0    0 -0.14183333880E+03 -0.84558223918E+02  0.24802772758E+03  0.29796735203E+03  0.00000000000E+00 0.  1.
          5    1    4    4  501    0  0.24853179994E+02  0.10581968714E+03  0.20083426620E+03  0.22840175486E+03  0.41800000000E+01 0. -1.
         -5    1    4    4    0  501  0.59944585352E+02  0.97096909426E+02  0.40241375335E+02  0.12107024334E+03  0.41800000000E+01 0. -1.
</event>
<event>
11    1  0.8328696E-009  0.1489795E+03  0.7561462E-02  0.1097926E+00
         22   -1    0    0    0    0  0.00000000000E+00  0.00000000000E+00  0.13700404201E+04  0.13700404201E+04  0.00000000000E+00 0. -1.
         22   -1    0    0    0    0 -0.00000000000E+00 -0.00000000000E+00 -0.39861751285E+03  0.39861751285E+03  0.00000000000E+00 0.  1.
        -24    2    1    2    0    0  0.65139944312E+02  0.46891497453E+02 -0.35864583063E+03  0.37551060726E+03  0.77067239875E+02 0.  0.
         25    2    1    2    0    0 -0.10023895939E+03 -0.28393627192E+02  0.19603652628E+03  0.25481924536E+03  0.12509388924E+03 0.  0.
         24    2    1    2    0    0  0.35099015078E+02 -0.18497870260E+02  0.11340322116E+04  0.11383280803E+04  0.90485631304E+02 0.  0.
        -13    1    5    5    0    0 -0.13989255917E+02  0.10040502168E+02  0.51395683919E+02  0.54203572672E+02  0.00000000000E+00 0.  1.
         14    1    5    5    0    0  0.49088270994E+02 -0.28538372428E+02  0.10826365276E+04  0.10841245076E+04  0.00000000000E+00 0. -1.
         13    1    3    3    0    0 -0.11729172129E+02  0.36144174888E+01 -0.12773465497E+03  0.12832295030E+03  0.00000000000E+00 0. -1.
        -14    1    3    3    0    0  0.76869116441E+02  0.43277079964E+02 -0.23091117566E+03  0.24718765697E+03  0.00000000000E+00 0.  1.
          5    1    4    4  501    0  0.13670397661E+02 -0.16355969213E+02 -0.59981871161E+01  0.22535486455E+02  0.41800000000E+01 0. -1.
         -5    1    4    4    0  501 -0.11390935705E+03 -0.12037657980E+02  0.20203471340E+03  0.23228375890E+03  0.41800000000E+01 0. -1.
</event>
<event>
11    1  0.8328696E-009  0.1595892E+03  0.7561462E-02  0.1087464E+00
         22   -1    0    0    0    0  0.00000000000E+00  0.00000000000E+00  0.34862589568E+03  0.34862589568E+03  0.00000000000E+00 0. -1.
         22   -1    0    0    0    0 -0.00000000000E+00 -0.00000000000E+00 -0.37831174888E+04  0.37831174888E+04  0.00000000000E+00 0. -1.
        -24    2    1    2    0    0 -0.26517411625E+02  0.41782760192E+02 -0.31096716996E+04  0.31111850717E+04  0.83459562555E+02 0.  0.
         25    2    1    2    0    0  0.71372896993E+02 -0.12920273710E+03 -0.64709462733E+03  0.67540204165E+03  0.12509605691E+03 0.  0.
         24    2    1    2    0    0 -0.44855485368E+02  0.87419976904E+02  0.32227473389E+03  0.34515627109E+03  0.74950519932E+02 0.  0.
        -13    1    5    5    0    0 -0.47736476602E+02  0.30313289327E+02  0.92856465004E+02  0.10871977650E+03  0.00000000000E+00 0.  1.
         14    1    5    5    0    0  0.28809912342E+01  0.57106687577E+02  0.22941826889E+03  0.23643649459E+03  0.00000000000E+00 0. -1.
         11    1    3    3    0    0  0.18719051908E+02  0.17797151508E+02 -0.21449954101E+04  0.21451509156E+04  0.00000000000E+00 0. -1.
        -12    1    3    3    0    0 -0.45236463533E+02  0.23985608684E+02 -0.96467628958E+03  0.96603415609E+03  0.00000000000E+00 0.  1.
          5    1    4    4  501    0 -0.14711454822E+02  0.13356730704E+02 -0.14447762329E+03  0.14589751605E+03  0.41800000000E+01 0. -1.
         -5    1    4    4    0  501  0.86084351815E+02 -0.14255946780E+03 -0.50261700403E+03  0.52950452560E+03  0.41800000000E+01 0. -1.
</event>
<event>
11    1  0.8328696E-009  0.1353900E+03  0.7561462E-02  0.1112818E+00
         22   -1    0    0    0    0  0.00000000000E+00  0.00000000000E+00  0.78695486580E+03  0.78695486580E+03  0.00000000000E+00 0. -1.
         22   -1    0    0    0    0 -0.00000000000E+00 -0.00000000000E+00 -0.15596625124E+03  0.15596625124E+03  0.00000000000E+00 0.  1.
        -24    2    1    2    0    0  0.13492636020E+02 -0.11804846437E+02 -0.12369594918E+03  0.14703705985E+03  0.77445487277E+02 0.  0.
         25    2    1    2    0    0  0.35799631350E+02 -0.15193532159E+02  0.26301850784E+03  0.29383411735E+03  0.12508915233E+03 0.  0.
         24    2    1    2    0    0 -0.49292267371E+02  0.26998378596E+02  0.49166605589E+03  0.50204993984E+03  0.84616733050E+02 0.  0.
        -13    1    5    5    0    0 -0.25356093119E+02  0.53474119874E+02  0.21165066868E+03  0.21976901171E+03  0.00000000000E+00 0.  1.
         14    1    5    5    0    0 -0.23936174252E+02 -0.26475741278E+02  0.28001538721E+03  0.28228092813E+03  0.00000000000E+00 0. -1.
         11    1    3    3    0    0 -0.78318165548E+01 -0.41649792238E+02 -0.58612184497E+02  0.72328629985E+02  0.00000000000E+00 0. -1.
        -12    1    3    3    0    0  0.21324452575E+02  0.29844945801E+02 -0.65083764681E+02  0.74708429863E+02  0.00000000000E+00 0.  1.
          5    1    4    4  501    0  0.19046114126E+02  0.37763166364E+02  0.21831401284E+03  0.22241243626E+03  0.41800000000E+01 0. -1.
         -5    1    4    4    0  501  0.16753517225E+02 -0.52956698523E+02  0.44704494998E+02  0.71421681098E+02  0.41800000000E+01 0. -1.
</event>
<event>
11    1  0.8328696E-009  0.1849816E+03  0.7561462E-02  0.1065683E+00
         22   -1    0    0    0    0  0.00000000000E+00  0.00000000000E+00  0.60020738831E+03  0.60020738831E+03  0.00000000000E+00 0.  1.
         22   -1    0    0    0    0 -0.00000000000E+00 -0.00000000000E+00 -0.15191800035E+04  0.15191800035E+04  0.00000000000E+00 0. -1.
         24    2    1    2    0    0 -0.95031687105E+02  0.98057501540E+02 -0.14422510211E+04  0.14508801773E+04  0.79492049935E+02 0.  0.
         25    2    1    2    0    0  0.61959119595E+02 -0.11858928203E+03  0.53690466947E+02  0.19087206389E+03  0.12508848155E+03 0.  0.
        -24    2    1    2    0    0  0.33072567510E+02  0.20531780495E+02  0.46958793890E+03  0.47763515063E+03  0.78148295138E+02 0.  0.
        -11    1    3    3    0    0 -0.78082556710E+01  0.63816054398E+02 -0.57960365680E+03  0.58315851758E+03  0.00000000000E+00 0.  1.
         12    1    3    3    0    0 -0.87223431434E+02  0.34241447142E+02 -0.86264736425E+03  0.86772165972E+03  0.00000000000E+00 0. -1.
         13    1    5    5    0    0 -0.79679428138E+01  0.16003411237E+02  0.22942625472E+02  0.29085414686E+02  0.00000000000E+00 0. -1.
        -14    1    5    5    0    0  0.41040510324E+02  0.45283692576E+01  0.44664531342E+03  0.44854973595E+03  0.00000000000E+00 0.  1.
          5    1    4    4  501    0  0.13144337887E+02  0.94289562429E+00 -0.32674077729E+02  0.35478591095E+02  0.41800000000E+01 0. -1.
         -5    1    4    4    0  501  0.48814781708E+02 -0.11953217766E+03  0.86364544676E+02  0.15539347279E+03  0.41800000000E+01 0. -1.
</event>
<event>
11    1  0.8328696E-009  0.1705004E+03  0.7561462E-02  0.1077597E+00
         22   -1    0    0    0    0  0.00000000000E+00  0.00000000000E+00  0.35290034824E+03  0.35290034824E+03  0.00000000000E+00 0. -1.
         22   -1    0    0    0    0 -0.00000000000E+00 -0.00000000000E+00 -0.91442476246E+03  0.91442476246E+03  0.00000000000E+00 0.  1.
        -24    2    1    2    0    0  0.23973728529E+02 -0.10459307841E+03 -0.54366772126E+03  0.55987561356E+03  0.79822677238E+02 0.  0.
         25    2    1    2    0    0  0.26737890702E+02  0.15144545359E+03 -0.32585627941E+03  0.38142050660E+03  0.12509455549E+03 0.  0.
         24    2    1    2    0    0 -0.50711619231E+02 -0.46852375180E+02  0.30799958645E+03  0.32602899054E+03  0.81635433697E+02 0.  0.
        -11    1    5    5    0    0  0.22623500334E+02 -0.10296335439E+02  0.78366517471E+02  0.82214039867E+02  0.00000000000E+00 0.  1.
         12    1    5    5    0    0 -0.73335119565E+02 -0.36556039740E+02  0.22963306898E+03  0.24381495068E+03  0.00000000000E+00 0. -1.
         11    1    3    3    0    0  0.39128471356E+02 -0.15201745316E+02 -0.20696609744E+03  0.21118024487E+03  0.00000000000E+00 0. -1.
        -12    1    3    3    0    0 -0.15154742827E+02 -0.89391333098E+02 -0.33670162382E+03  0.34869536869E+03  0.00000000000E+00 0.  1.
          5    1    4    4  501    0  0.32649656862E+02  0.15322894725E+03 -0.19419460654E+03  0.24954784707E+03  0.41800000000E+01 0. -1.
         -5    1    4    4    0  501 -0.59117661600E+01 -0.17834936589E+01 -0.13166167287E+03  0.13187265953E+03  0.41800000000E+01 0. -1.
</event>
<event>
11    1  0.8328696E-009  0.1328780E+03  0.7561462E-02  0.1115783E+00
         22   -1    0    0    0    0  0.00000000000E+00  0.00000000000E+00  0.94400771915E+03  0.94400771915E+03  0.00000000000E+00 0. -1.
         22   -1    0    0    0    0 -0.00000000000E+00 -0.00000000000E+00 -0.35557648872E+03  0.35557648872E+03  0.00000000000E+00 0.  1.
        -24    2    1    2    0    0  0.18354120291E+02  0.17827278651E+02 -0.26762392091E+03  0.28134890551E+03  0.82945512196E+02 0.  0.
         25    2    1    2    0    0 -0.37553226471E+02 -0.57528094529E+02 -0.13908364244E+02  0.14338951055E+03  0.12508949860E+03 0.  0.
         24    2    1    2    0    0  0.19199106180E+02  0.39700815878E+02  0.86996351559E+03  0.87484579181E+03  0.81079470550E+02 0.  0.
        -13    1    5    5    0    0 -0.11446150061E+02 -0.12827339948E+02  0.55184208470E+02  0.57800102645E+02  0.00000000000E+00 0.  1.
         14    1    5    5    0    0  0.30645256241E+02  0.52528155826E+02  0.81477930712E+03  0.81704568917E+03  0.00000000000E+00 0. -1.
         13    1    3    3    0    0 -0.21903250745E+02 -0.98384004812E+01 -0.28405944452E+02  0.37194679693E+02  0.00000000000E+00 0. -1.
        -14    1    3    3    0    0  0.40257371036E+02  0.27665679132E+02 -0.23921797646E+03  0.24415422582E+03  0.00000000000E+00 0.  1.
          5    1    4    4  501    0 -0.42151010141E+02  0.25017700231E+02 -0.31960541635E+02  0.58664653773E+02  0.41800000000E+01 0.  1.
         -5    1    4    4    0  501  0.45977836700E+01 -0.82545794759E+02  0.18052177391E+02  0.84724856776E+02  0.41800000000E+01 0.  1.
</event>
<event>
11    1  0.8328696E-009  0.4994223E+03  0.7561462E-02  0.9394813E-01
         22   -1    0    0    0    0  0.00000000000E+00  0.00000000000E+00  0.92141826799E+03  0.92141826799E+03  0.00000000000E+00 0. -1.
         22   -1    0    0    0    0 -0.00000000000E+00 -0.00000000000E+00 -0.47766017880E+03  0.47766017880E+03  0.00000000000E+00 0. -1.
        -24    2    1    2    0    0  0.19092061967E+03  0.57930783364E+02 -0.59074589361E+02  0.22422713997E+03  0.83554440429E+02 0.  0.
         25    2    1    2    0    0 -0.20936168795E+03  0.43798265452E+03  0.60042943160E+02  0.50488872616E+03  0.12508536582E+03 0.  0.
         24    2    1    2    0    0  0.18441068283E+02 -0.49591343788E+03  0.44278973539E+03  0.66996258065E+03  0.80727311564E+02 0.  0.
        -11    1    5    5    0    0  0.86366811495E+01 -0.22878937832E+03  0.25835447658E+03  0.34520458783E+03  0.00000000000E+00 0.  1.
         12    1    5    5    0    0  0.98043871334E+01 -0.26712405957E+03  0.18443525881E+03  0.32475799282E+03  0.00000000000E+00 0. -1.
         11    1    3    3    0    0  0.17533326558E+03  0.47347476818E+02 -0.22391878292E+02  0.18298888981E+03  0.00000000000E+00 0. -1.
        -12    1    3    3    0    0  0.15587354086E+02  0.10583306546E+02 -0.36682711069E+02  0.41238250160E+02  0.00000000000E+00 0.  1.
          5    1    4    4  501    0 -0.34269996709E+02  0.67352763853E+02 -0.36074045074E+02  0.83842928151E+02  0.41800000000E+01 0.  1.
         -5    1    4    4    0  501 -0.17509169124E+03  0.37062989067E+03  0.96116988234E+02  0.42104579801E+03  0.41800000000E+01 0.  1.
</event>
<event>
11    1  0.8328696E-009  0.1271378E+03  0.7561462E-02  0.1122837E+00
         22   -1    0    0    0    0  0.00000000000E+00  0.00000000000E+00  0.25608363897E+03  0.25608363897E+03  0.00000000000E+00 0.  1.
         22   -1    0    0    0    0 -0.00000000000E+00 -0.00000000000E+00 -0.39404723256E+03  0.39404723256E+03  0.00000000000E+00 0. -1.
        -24    2    1    2    0    0  0.28242415956E+00  0.33880966151E+01 -0.33516663232E+03  0.34514517918E+03  0.82322319768E+02 0.  0.
         25    2    1    2    0    0  0.12343715628E+02 -0.21629140160E+02  0.52906184896E+02  0.13808032421E+03  0.12508766731E+03 0.  0.
         24    2    1    2    0    0 -0.12626139788E+02  0.18241043545E+02  0.14429685384E+03  0.16690536814E+03  0.80892921878E+02 0.  0.
        -13    1    5    5    0    0 -0.14686096635E+02 -0.22840941201E+02  0.11014230513E+03  0.11344036940E+03  0.00000000000E+00 0.  1.
         14    1    5    5    0    0  0.20599568475E+01  0.41081984746E+02  0.34154548705E+02  0.53464998739E+02  0.00000000000E+00 0. -1.
         11    1    3    3    0    0  0.75371046851E+01 -0.14324539093E+02 -0.32081132154E+03  0.32121940228E+03  0.00000000000E+00 0. -1.
        -12    1    3    3    0    0 -0.72546805255E+01  0.17712635708E+02 -0.14355310775E+02  0.23925776909E+02  0.00000000000E+00 0.  1.
          5    1    4    4  501    0  0.39438875085E+02  0.34320481441E+02  0.54656216213E+02  0.75750212442E+02  0.41800000000E+01 0. -1.
         -5    1    4    4    0  501 -0.27095159456E+02 -0.55949621601E+02 -0.17500313166E+01  0.62330111767E+02  0.41800000000E+01 0. -1.
</event>
<event>
11    1  0.8328696E-009  0.1409867E+03  0.7561462E-02  0.1106462E+00
         22   -1    0    0    0    0  0.00000000000E+00  0.00000000000E+00  0.42825190596E+03  0.42825190596E+03  0.00000000000E+00 0.  1.
         22   -1    0    0    0    0 -0.00000000000E+00 -0.00000000000E+00 -0.57757273075E+03  0.57757273075E+03  0.00000000000E+00 0. -1.
         24    2    1    2    0    0 -0.28675318305E+02 -0.59719805153E+02 -0.43233541374E+03  0.44465916006E+03  0.80119471043E+02 0.  0.
         25    2    1    2    0    0  0.16716867567E+02  0.56166372114E+02 -0.96473255431E+02  0.16848929477E+03  0.12508972148E+03 0.  0.
        -24    2    1    2    0    0  0.11958450739E+02  0.35534330390E+01  0.37948784438E+03  0.39267618188E+03  0.10013954439E+03 0.  0.
        -13    1    3    3    0    0  0.19413278306E+02 -0.54349828645E+01 -0.20611572646E+03  0.20709926872E+03  0.00000000000E+00 0.  1.
         14    1    3    3    0    0 -0.48088596611E+02 -0.54284822289E+02 -0.22621968729E+03  0.23755989133E+03  0.00000000000E+00 0. -1.
         11    1    5    5    0    0 -0.31912732619E+02  0.26127679141E+02  0.26234209722E+03  0.26556440668E+03  0.00000000000E+00 0. -1.
        -12    1    5    5    0    0  0.43871183358E+02 -0.22574246102E+02  0.11714574717E+03  0.12711177520E+03  0.00000000000E+00 0.  1.
          5    1    4    4  501    0 -0.59427767980E+01  0.93728604754E+02 -0.67978980429E+02  0.11601285328E+03  0.41800000000E+01 0. -1.
         -5    1    4    4    0  501  0.22659644365E+02 -0.37562232640E+02 -0.28494275002E+02  0.52476441490E+02  0.41800000000E+01 0. -1.
</event>
<event>
11    1  0.8328696E-009  0.1305438E+03  0.7561462E-02  0.1118603E+00
         22   -1    0    0    0    0  0.00000000000E+00  0.00000000000E+00  0.53665908909E+03  0.53665908909E+03  0.00000000000E+00 0. -1.
         22   -1    0    0    0    0 -0.00000000000E+00 -0.00000000000E+00 -0.11505714242E+03  0.11505714242E+03  0.00000000000E+00 0. -1.
         24    2    1    2    0    0  0.34064484871E+02  0.28891305860E+02  0.28477290732E+01  0.87662051732E+02  0.75375255019E+02 0.  0.
         25    2    1    2    0    0 -0.64726435477E+02 -0.93180853592E+01  0.54764226138E+01  0.14125660445E+03  0.12508836449E+03 0.  0.
        -24    2    1    2    0    0  0.30661950606E+02 -0.19573220500E+02  0.41327779498E+03  0.42279757533E+03  0.81461571977E+02 0.  0.
        -13    1    3    3    0    0 -0.12346213591E+02  0.26735044394E+02  0.22656032540E+02  0.37154910836E+02  0.00000000000E+00 0.  1.
         14    1    3    3    0    0  0.46410698462E+02  0.21562614652E+01 -0.19808303467E+02  0.50507140895E+02  0.00000000000E+00 0. -1.
         11    1    5    5    0    0  0.56072998873E+02 -0.19275616316E+02  0.21976799383E+03  0.22762623245E+03  0.00000000000E+00 0. -1.
        -12    1    5    5    0    0 -0.25411048267E+02 -0.29760418447E+00  0.19350980114E+03  0.19517134288E+03  0.00000000000E+00 0.  1.
          5    1    4    4  501    0 -0.39047554926E+02 -0.35915199100E+02  0.56819850657E+02  0.77849732824E+02  0.41800000000E+01 0. -1.
         -5    1    4    4    0  501 -0.25678880551E+02  0.26597113741E+02 -0.51343428043E+02  0.63406871622E+02  0.41800000000E+01 0. -1.
</event>
<event>
11    1  0.1554266E-008  0.1821656E+03  0.7561462E-02  0.1067904E+00
         22   -1    0    0    0    0  0.00000000000E+00  0.00000000000E+00  0.49437227282E+03  0.49437227282E+03  0.00000000000E+00 0.  1.
         22   -1    0    0    0    0 -0.00000000000E+00 -0.00000000000E+00 -0.71431839873E+03  0.71431839873E+03  0.00000000000E+00 0.  1.
        -24    2    1    2    0    0  0.43263390888E+02  0.57661654599E+02 -0.52438541994E+03  0.53529454249E+03  0.79772120236E+02 0.  0.
         25    2    1    2    0    0  0.91402678472E+02 -0.36951927381E+02 -0.13341981224E+03  0.20777015704E+03  0.12509075621E+03 0.  0.
         24    2    1    2    0    0 -0.13466606936E+03 -0.20709727218E+02  0.43785910627E+03  0.46562597202E+03  0.80765746672E+02 0.  0.
        -11    1    5    5    0    0 -0.12932164906E+03 -0.18955000186E+02  0.29502519653E+03  0.32268134054E+03  0.00000000000E+00 0.  1.
         12    1    5    5    0    0 -0.53444202984E+01 -0.17547270322E+01  0.14283390974E+03  0.14294463148E+03  0.00000000000E+00 0. -1.
         13    1    3    3    0    0  0.30433462130E+02 -0.14176138623E+02 -0.13359086570E+03  0.13774497422E+03  0.00000000000E+00 0. -1.
        -14    1    3    3    0    0  0.12829928758E+02  0.71837793223E+02 -0.39079455424E+03  0.39754956827E+03  0.00000000000E+00 0.  1.
          5    1    4    4  501    0  0.15248079910E+02  0.14292674197E+02 -0.11121580150E+03  0.11323961930E+03  0.41800000000E+01 0. -1.
         -5    1    4    4    0  501  0.76154598561E+02 -0.51244601578E+02 -0.22204010748E+02  0.94530537744E+02  0.41800000000E+01 0. -1.
</event>
<event>
11    1  0.8328696E-009  0.1401467E+03  0.7561462E-02  0.1107395E+00
         22   -1    0    0    0    0  0.00000000000E+00  0.00000000000E+00  0.55470927537E+03  0.55470927537E+03  0.00000000000E+00 0. -1.
         22   -1    0    0    0    0 -0.00000000000E+00 -0.00000000000E+00 -0.24747008241E+03  0.24747008241E+03  0.00000000000E+00 0.  1.
        -24    2    1    2    0    0 -0.24408602530E+02  0.88339783993E+01 -0.20757090196E+03  0.22812116503E+03  0.90993227992E+02 0.  0.
         25    2    1    2    0    0  0.56024056108E+02  0.43783852252E+02  0.22368266497E+03  0.26595374474E+03  0.12506693869E+03 0.  0.
         24    2    1    2    0    0 -0.31615453579E+02 -0.52617830651E+02  0.29112742996E+03  0.30810444800E+03  0.80031227648E+02 0.  0.
        -13    1    5    5    0    0 -0.91572070451E+01 -0.39903602153E+02  0.45831598328E+02  0.61454758245E+02  0.00000000000E+00 0.  1.
         14    1    5    5    0    0 -0.22458246534E+02 -0.12714228499E+02  0.24529583163E+03  0.24664968976E+03  0.00000000000E+00 0. -1.
         11    1    3    3    0    0 -0.45837062254E+02  0.10118847441E+02 -0.48089214050E+02  0.67201189406E+02  0.00000000000E+00 0. -1.
        -12    1    3    3    0    0  0.21428459725E+02 -0.12848690421E+01 -0.15948168791E+03  0.16091997562E+03  0.00000000000E+00 0.  1.
          5    1    4    4  501    0  0.56939728263E+02 -0.33601563094E+02  0.97787695726E+02  0.11811478964E+03  0.41800000000E+01 0. -1.
         -5    1    4    4    0  501 -0.91567215517E+00  0.77385415346E+02  0.12589496924E+03  0.14783895510E+03  0.41800000000E+01 0. -1.
</event>
<event>
11    1  0.8328696E-009  0.1664659E+03  0.7561462E-02  0.1081149E+00
         22   -1    0    0    0    0  0.00000000000E+00  0.00000000000E+00  0.10250116584E+04  0.10250116584E+04  0.00000000000E+00 0.  1.
         22   -1    0    0    0    0 -0.00000000000E+00 -0.00000000000E+00 -0.16346321407E+03  0.16346321407E+03  0.00000000000E+00 0.  1.
         24    2    1    2    0    0 -0.42107196294E+02 -0.37589074617E+02 -0.68547467357E+02  0.11933725540E+03  0.79728732175E+02 0.  0.
         25    2    1    2    0    0  0.13947353992E+03  0.78479533394E+02  0.97075720325E+02  0.22512991430E+03  0.12509147587E+03 0.  0.
        -24    2    1    2    0    0 -0.97366343629E+02 -0.40890458777E+02  0.83302019139E+03  0.84400770282E+03  0.85288502445E+02 0.  0.
        -13    1    3    3    0    0 -0.36700088463E+02 -0.61043627248E+02 -0.61902635202E+02  0.94367140286E+02  0.00000000000E+00 0.  1.
         14    1    3    3    0    0 -0.54071078309E+01  0.23454552632E+02 -0.66448321548E+01  0.24970115110E+02  0.00000000000E+00 0. -1.
         13    1    5    5    0    0  0.15562014670E+02  0.12848001412E+00  0.89673205965E+02  0.91013607091E+02  0.00000000000E+00 0. -1.
        -14    1    5    5    0    0 -0.11292835830E+03 -0.41018938791E+02  0.74334698543E+03  0.75299409572E+03  0.00000000000E+00 0.  1.
          5    1    4    4  501    0  0.80657084157E+02  0.10870695369E+03  0.52377999245E+02  0.14520225278E+03  0.41800000000E+01 0.  1.
         -5    1    4    4    0  501  0.58816455766E+02 -0.30227420300E+02  0.44697721080E+02  0.79927661523E+02  0.41800000000E+01 0.  1.
</event>
<event>
11    1  0.8328696E-009  0.1415811E+03  0.7561462E-02  0.1105806E+00
         22   -1    0    0    0    0  0.00000000000E+00  0.00000000000E+00  0.31351014708E+04  0.31351014708E+04  0.00000000000E+00 0. -1.
         22   -1    0    0    0    0 -0.00000000000E+00 -0.00000000000E+00 -0.32454891940E+03  0.32454891940E+03  0.00000000000E+00 0. -1.
        -24    2    1    2    0    0 -0.14008887776E+02  0.88670418367E+01 -0.24846191343E+03  0.26142323976E+03  0.79585893797E+02 0.  0.
         25    2    1    2    0    0 -0.41724577940E+02 -0.44887395676E+02  0.18561464580E+01  0.13932798351E+03  0.12511204185E+03 0.  0.
         24    2    1    2    0    0  0.55733465716E+02  0.36020353839E+02  0.30571583184E+04  0.30588991669E+04  0.79015471356E+02 0.  0.
        -11    1    5    5    0    0  0.56547630384E+01  0.25225678201E+02  0.22333083720E+04  0.22334579905E+04  0.00000000000E+00 0.  1.
         12    1    5    5    0    0  0.50078702678E+02  0.10794675638E+02  0.82384994640E+03  0.82544117638E+03  0.00000000000E+00 0. -1.
         11    1    3    3    0    0 -0.40953917386E+02  0.23386902175E+02 -0.18570592768E+03  0.19160078841E+03  0.00000000000E+00 0. -1.
        -12    1    3    3    0    0  0.26945029610E+02 -0.14519860339E+02 -0.62755985746E+02  0.69822451345E+02  0.00000000000E+00 0.  1.
          5    1    4    4  501    0 -0.77256574054E+02 -0.53714681204E+02  0.22846762098E+02  0.96918997879E+02  0.41800000000E+01 0. -1.
         -5    1    4    4    0  501  0.35531996114E+02  0.88272855284E+01 -0.20990615640E+02  0.42408985635E+02  0.41800000000E+01 0. -1.
</event>
<event>
11    1  0.8328696E-009  0.1311272E+03  0.7561462E-02  0.1117892E+00
         22   -1    0    0    0    0  0.00000000000E+00  0.00000000000E+00  0.12882362871E+03  0.12882362871E+03  0.00000000000E+00 0. -1.
         22   -1    0    0    0    0 -0.00000000000E+00 -0.00000000000E+00 -0.10703233856E+04  0.10703233856E+04  0.00000000000E+00 0.  1.
        -24    2    1    2    0    0 -0.26747877357E+02  0.20452503847E+02 -0.97091875261E+03  0.97376444656E+03  0.66334149233E+02 0.  0.
         25    2    1    2    0    0 -0.17903236777E+02 -0.31657921783E+02  0.97438537724E+01  0.13063626479E+03  0.12509253013E+03 0.  0.
         24    2    1    2    0    0  0.44651114134E+02  0.11205417936E+02  0.19675141962E+02  0.94746302948E+02  0.80439215104E+02 0.  0.
        -11    1    5    5    0    0  0.48940846387E+02  0.33893661513E+02 -0.64498743631E+01  0.59879776345E+02  0.00000000000E+00 0.  1.
         12    1    5    5    0    0 -0.42897322528E+01 -0.22688243576E+02  0.26125016325E+02  0.34866526603E+02  0.00000000000E+00 0. -1.
         11    1    3    3    0    0 -0.35413905942E+02 -0.14082783305E+02 -0.43633381426E+03  0.43799505361E+03  0.00000000000E+00 0. -1.
        -12    1    3    3    0    0  0.86660285846E+01  0.34535287152E+02 -0.53458493835E+03  0.53576939295E+03  0.00000000000E+00 0.  1.
          5    1    4    4  501    0 -0.22392045507E+02 -0.21312912162E+01  0.64328102048E+02  0.68275348534E+02  0.41800000000E+01 0.  1.
         -5    1    4    4    0  501  0.44888087297E+01 -0.29526630567E+02 -0.54584248276E+02  0.62360916256E+02  0.41800000000E+01 0.  1.
</event>
<event>
11    1  0.8328696E-009  0.1484126E+03  0.7561462E-02  0.1098512E+00
         22   -1    0    0    0    0  0.00000000000E+00  0.00000000000E+00  0.11543906347E+04  0.11543906347E+04  0.00000000000E+00 0. -1.
         22   -1    0    0    0    0 -0.00000000000E+00 -0.00000000000E+00 -0.38677829853E+03  0.38677829853E+03  0.00000000000E+00 0.  1.
         24    2    1    2    0    0  0.63514976991E+02 -0.49322756335E+02 -0.35959843841E+03  0.37707514294E+03  0.80048359902E+02 0.  0.
         25    2    1    2    0    0 -0.79949974261E+02 -0.16752428576E+02  0.36311470585E+03  0.39266030780E+03  0.12512867565E+03 0.  0.
        -24    2    1    2    0    0  0.16434997270E+02  0.66075184911E+02  0.76409606868E+03  0.77143348244E+03  0.81429579799E+02 0.  0.
        -13    1    3    3    0    0  0.35084377330E+02 -0.49646404715E+02 -0.10848377477E+03  0.12435597461E+03  0.00000000000E+00 0.  1.
         14    1    3    3    0    0  0.28430599661E+02  0.32364837989E+00 -0.25111466364E+03  0.25271916833E+03  0.00000000000E+00 0. -1.
         11    1    5    5    0    0  0.15257970873E+02  0.47077523996E+02  0.73500244728E+03  0.73666661147E+03  0.00000000000E+00 0. -1.
        -12    1    5    5    0    0  0.11770263969E+01  0.18997660916E+02  0.29093621399E+02  0.34766870977E+02  0.00000000000E+00 0.  1.
          5    1    4    4  501    0 -0.16564374600E+02 -0.42476664944E+02  0.28537562379E+03  0.28902485122E+03  0.41800000000E+01 0. -1.
         -5    1    4    4    0  501 -0.63385599661E+02  0.25724236367E+02  0.77739082063E+02  0.10363545658E+03  0.41800000000E+01 0. -1.
</event>
<event>
11    1  0.8328696E-009  0.1408738E+03  0.7561462E-02  0.1106587E+00
         22   -1    0    0    0    0  0.00000000000E+00  0.00000000000E+00  0.33112098150E+03  0.33112098150E+03  0.00000000000E+00 0. -1.
         22   -1    0    0    0    0 -0.00000000000E+00 -0.00000000000E+00 -0.93335501282E+03  0.93335501282E+03  0.00000000000E+00 0.  1.
         24    2    1    2    0    0 -0.51952620081E+01  0.15089764416E+01 -0.87631681461E+03  0.88003806614E+03  0.80663315874E+02 0.  0.
         25    2    1    2    0    0 -0.29281375313E+02  0.54542298232E+02  0.76423703274E+02  0.15911705475E+03  0.12508154721E+03 0.  0.
        -24    2    1    2    0    0  0.34476637322E+02 -0.56051274674E+02  0.19765908002E+03  0.22532087344E+03  0.85848705185E+02 0.  0.
        -13    1    3    3    0    0  0.10448546467E+01 -0.36812298145E+02 -0.58311067429E+03  0.58427244971E+03  0.00000000000E+00 0.  1.
         14    1    3    3    0    0 -0.62401166549E+01  0.38321274586E+02 -0.29320614032E+03  0.29576561643E+03  0.00000000000E+00 0. -1.
         11    1    5    5    0    0  0.22161902061E+02 -0.78383560599E+02  0.13500354575E+03  0.15767399862E+03  0.00000000000E+00 0. -1.
        -12    1    5    5    0    0  0.12314735261E+02  0.22332285925E+02  0.62655534262E+02  0.67646874819E+02  0.00000000000E+00 0.  1.
          5    1    4    4  501    0 -0.18579036359E+02  0.68600711389E+02 -0.90214475441E+01  0.71764177073E+02  0.41800000000E+01 0. -1.
         -5    1    4    4    0  501 -0.10702338954E+02 -0.14058413157E+02  0.85445150819E+02  0.87352877674E+02  0.41800000000E+01 0. -1.
</event>
<event>
11    1  0.8328696E-009  0.2216117E+03  0.7561462E-02  0.1040213E+00
         22   -1    0    0    0    0  0.00000000000E+00  0.00000000000E+00  0.58285834478E+02  0.58285834478E+02  0.00000000000E+00 0.  1.
         22   -1    0    0    0    0 -0.00000000000E+00 -0.00000000000E+00 -0.29136874762E+04  0.29136874762E+04  0.00000000000E+00 0.  1.
         24    2    1    2    0    0 -0.33375474823E+02 -0.61780904467E+01 -0.14813272983E+04  0.14836765637E+04  0.76246244917E+02 0.  0.
         25    2    1    2    0    0  0.16395149337E+03 -0.11759223461E+03 -0.12065668763E+04  0.12296986724E+04  0.12508865666E+03 0.  0.
        -24    2    1    2    0    0 -0.13057601855E+03  0.12377032505E+03 -0.16750746712E+03  0.25859807460E+03  0.80280898498E+02 0.  0.
        -11    1    3    3    0    0 -0.53330022927E+02 -0.10228736476E+02 -0.70727277967E+03  0.70935428614E+03  0.00000000000E+00 0.  1.
         12    1    3    3    0    0  0.19954548104E+02  0.40506460289E+01 -0.77405451867E+03  0.77432227761E+03  0.00000000000E+00 0. -1.
         13    1    5    5    0    0 -0.11486278191E+03  0.56652266931E+02 -0.10789976681E+03  0.16746730336E+03  0.00000000000E+00 0. -1.
        -14    1    5    5    0    0 -0.15713236644E+02  0.67118058124E+02 -0.59607700308E+02  0.91130771247E+02  0.00000000000E+00 0.  1.
          5    1    4    4  501    0  0.64331985739E+02  0.59933179914E+01 -0.56827397841E+03  0.57195044470E+03  0.41800000000E+01 0. -1.
         -5    1    4    4    0  501  0.99619507634E+02 -0.12358555260E+03 -0.63829289789E+03  0.65774822768E+03  0.41800000000E+01 0. -1.
</event>
<event>
11    1  0.8328696E-009  0.1365154E+03  0.7561462E-02  0.1111513E+00
         22   -1    0    0    0    0  0.00000000000E+00  0.00000000000E+00  0.52340570287E+03  0.52340570287E+03  0.00000000000E+00 0.  1.
         22   -1    0    0    0    0 -0.00000000000E+00 -0.00000000000E+00 -0.62552834051E+03  0.62552834051E+03  0.00000000000E+00 0.  1.
         24    2    1    2    0    0  0.39980499842E+01 -0.53238731632E+02 -0.56045229773E+03  0.56808894248E+03  0.75946833930E+02 0.  0.
         25    2    1    2    0    0 -0.18862708164E+02  0.89150503357E+02  0.49875748092E+02  0.16259986523E+03  0.12509001526E+03 0.  0.
        -24    2    1    2    0    0  0.14864658179E+02 -0.35911771725E+02  0.40845391200E+03  0.41824523566E+03  0.81141022371E+02 0.  0.
        -13    1    3    3    0    0  0.25330415380E+02 -0.15583075942E+02 -0.42161569547E+03  0.42266329018E+03  0.00000000000E+00 0.  1.
         14    1    3    3    0    0 -0.21332365396E+02 -0.37655655691E+02 -0.13883660227E+03  0.14542565230E+03  0.00000000000E+00 0. -1.
         11    1    5    5    0    0  0.41017529855E+02  0.50948591036E+01  0.18756346202E+03  0.19206365515E+03  0.00000000000E+00 0. -1.
        -12    1    5    5    0    0 -0.26152871675E+02 -0.41006630828E+02  0.22089044999E+03  0.22618158051E+03  0.00000000000E+00 0.  1.
          5    1    4    4  501    0 -0.20762136934E+02  0.62894694998E+02  0.91584484087E+02  0.11310172021E+03  0.41800000000E+01 0. -1.
         -5    1    4    4    0  501  0.18994287702E+01  0.26255808359E+02 -0.41708735995E+02  0.49498145021E+02  0.41800000000E+01 0. -1.
</event>
<event>
11    1  0.8328696E-009  0.1535323E+03  0.7561462E-02  0.1093323E+00
         22   -1    0    0    0    0  0.00000000000E+00  0.00000000000E+00  0.10566937279E+04  0.10566937279E+04  0.00000000000E+00 0. -1.
         22   -1    0    0    0    0 -0.00000000000E+00 -0.00000000000E+00 -0.62896396888E+03  0.62896396888E+03  0.00000000000E+00 0.  1.
        -24    2    1    2    0    0 -0.65646814255E+02 -0.62894849241E+02 -0.59516573893E+03  0.60735304434E+03  0.79938710231E+02 0.  0.
         25    2    1    2    0    0  0.24733094958E+02  0.24518208479E+02  0.14989069092E+03  0.19831360531E+03  0.12509275876E+03 0.  0.
         24    2    1    2    0    0  0.40913719297E+02  0.38376640762E+02  0.87300480705E+03  0.87999104714E+03  0.95394711235E+02 0.  0.
        -13    1    5    5    0    0  0.27358478356E+02  0.42011782431E+02  0.18020129294E+03  0.18704540138E+03  0.00000000000E+00 0.  1.
         14    1    5    5    0    0  0.13555240941E+02 -0.36351416688E+01  0.69280351411E+03  0.69294564575E+03  0.00000000000E+00 0. -1.
         11    1    3    3    0    0 -0.32036146844E+02 -0.10018680014E+02 -0.61864536429E+02  0.70384014673E+02  0.00000000000E+00 0. -1.
        -12    1    3    3    0    0 -0.33610667410E+02 -0.52876169227E+02 -0.53330120250E+03  0.53696902967E+03  0.00000000000E+00 0.  1.
          5    1    4    4  501    0 -0.28887734258E+02 -0.35431067259E+02  0.77221828347E+02  0.89836211468E+02  0.41800000000E+01 0. -1.
         -5    1    4    4    0  501  0.53620829216E+02  0.59949275738E+02  0.72668862575E+02  0.10847739384E+03  0.41800000000E+01 0. -1.
</event>
<event>
11    1  0.8328696E-009  0.1300619E+03  0.7561462E-02  0.1119193E+00
         22   -1    0    0    0    0  0.00000000000E+00  0.00000000000E+00  0.93817079925E+03  0.93817079925E+03  0.00000000000E+00 0. -1.
         22   -1    0    0    0    0 -0.00000000000E+00 -0.00000000000E+00 -0.55547550616E+02  0.55547550616E+02  0.00000000000E+00 0. -1.
        -24    2    1    2    0    0  0.60211240005E+01 -0.10782278169E+02 -0.16497875609E+01  0.82634514980E+02  0.81689839088E+02 0.  0.
         25    2    1    2    0    0 -0.39619454705E+02  0.49343687498E+01  0.46332690652E+03  0.48157494096E+03  0.12509417360E+03 0.  0.
         24    2    1    2    0    0  0.33598330704E+02  0.58479094194E+01  0.42094612967E+03  0.42950889392E+03  0.78225315619E+02 0.  0.
        -13    1    5    5    0    0 -0.14206698141E+02 -0.10416863151E+02  0.26359507558E+02  0.31704336433E+02  0.00000000000E+00 0.  1.
         14    1    5    5    0    0  0.47805028845E+02  0.16264772570E+02  0.39458662211E+03  0.39780455749E+03  0.00000000000E+00 0. -1.
         13    1    3    3    0    0  0.31576168392E+02  0.22770208771E+02  0.70692241411E+01  0.39566535705E+02  0.00000000000E+00 0. -1.
        -14    1    3    3    0    0 -0.25555044391E+02 -0.33552486940E+02 -0.87190117020E+01  0.43067979274E+02  0.00000000000E+00 0.  1.
          5    1    4    4  501    0 -0.68109246118E+02  0.15254959857E+02  0.13694475267E+03  0.15376254710E+03  0.41800000000E+01 0. -1.
         -5    1    4    4    0  501  0.28489791414E+02 -0.10320591107E+02  0.32638215385E+03  0.32781239386E+03  0.41800000000E+01 0. -1.
</event>
<event>
11    1  0.8328696E-009  0.1407900E+03  0.7561462E-02  0.1106679E+00
         22   -1    0    0    0    0  0.00000000000E+00  0.00000000000E+00  0.16967760765E+03  0.16967760765E+03  0.00000000000E+00 0. -1.
         22   -1    0    0    0    0 -0.00000000000E+00 -0.00000000000E+00 -0.28254603705E+03  0.28254603705E+03  0.00000000000E+00 0. -1.
        -24    2    1    2    0    0  0.50190109967E+02 -0.28053821154E+02 -0.12406692551E+03  0.15879811169E+03  0.80735210718E+02 0.  0.
         25    2    1    2    0    0 -0.88881141218E+02 -0.20620230293E+02 -0.64429488481E+02  0.16769933702E+03  0.12508739940E+03 0.  0.
         24    2    1    2    0    0  0.38691031252E+02  0.48674051446E+02  0.75627984589E+02  0.12572619599E+03  0.78875377158E+02 0.  0.
        -11    1    5    5    0    0  0.21311050402E+02 -0.18879796146E+02  0.10653697175E+02  0.30399158463E+02  0.00000000000E+00 0.  1.
         12    1    5    5    0    0  0.17379980849E+02  0.67553847593E+02  0.64974287413E+02  0.95327037527E+02  0.00000000000E+00 0. -1.
         13    1    3    3    0    0  0.71250343044E+02 -0.26113447490E+02 -0.10906937473E+03  0.13287080954E+03  0.00000000000E+00 0. -1.
        -14    1    3    3    0    0 -0.21060233077E+02 -0.19403736635E+01 -0.14997550783E+02  0.25927302149E+02  0.00000000000E+00 0.  1.
          5    1    4    4  501    0 -0.33634362376E+01 -0.24881512609E+02 -0.76962426110E+02  0.81062258825E+02  0.41800000000E+01 0.  1.
         -5    1    4    4    0  501 -0.85517704981E+02  0.42612823164E+01  0.12532937629E+02  0.86637078193E+02  0.41800000000E+01 0.  1.
</event>
<event>
11    1  0.8328696E-009  0.1964411E+03  0.7561462E-02  0.1057069E+00
         22   -1    0    0    0    0  0.00000000000E+00  0.00000000000E+00  0.85508106353E+03  0.85508106353E+03  0.00000000000E+00 0. -1.
         22   -1    0    0    0    0 -0.00000000000E+00 -0.00000000000E+00 -0.33287527026E+03  0.33287527026E+03  0.00000000000E+00 0.  1.
         24    2    1    2    0    0  0.12058340449E+03 -0.88319094194E+02 -0.27350029844E+03  0.32318315880E+03  0.85465320722E+02 0.  0.
         25    2    1    2    0    0 -0.13356655613E+03  0.13456985305E+03  0.41825852801E+03  0.47595852717E+03  0.12508898060E+03 0.  0.
        -24    2    1    2    0    0  0.12983151641E+02 -0.46250758852E+02  0.37744756370E+03  0.38881464782E+03  0.80015449126E+02 0.  0.
        -13    1    3    3    0    0  0.13202039591E+03 -0.73336459026E+02 -0.22342874498E+03  0.26968134018E+03  0.00000000000E+00 0.  1.
         14    1    3    3    0    0 -0.11436991422E+02 -0.14982635169E+02 -0.50071553457E+02  0.53501818614E+02  0.00000000000E+00 0. -1.
         11    1    5    5    0    0  0.24950096621E+02 -0.60318403950E+02  0.19941137203E+03  0.20982305038E+03  0.00000000000E+00 0. -1.
        -12    1    5    5    0    0 -0.11966944980E+02  0.14067645098E+02  0.17803619167E+03  0.17899159744E+03  0.00000000000E+00 0.  1.
          5    1    4    4  501    0 -0.50004366613E+02 -0.44745270962E+01  0.39886757824E+02  0.64256392077E+02  0.41800000000E+01 0.  1.
         -5    1    4    4    0  501 -0.83562189514E+02  0.13904438014E+03  0.37837177019E+03  0.41170213509E+03  0.41800000000E+01 0.  1.
</event>
<event>
11    1  0.8328696E-009  0.1354795E+03  0.7561462E-02  0.1112714E+00
         22   -1    0    0    0    0  0.00000000000E+00  0.00000000000E+00  0.20742124124E+03  0.20742124124E+03  0.00000000000E+00 0. -1.
         22   -1    0    0    0    0 -0.00000000000E+00 -0.00000000000E+00 -0.40899637293E+03  0.40899637293E+03  0.00000000000E+00 0. -1.
         24    2    1    2    0    0 -0.24869228716E+01  0.27789074871E+02 -0.19884564669E+03  0.21695452175E+03  0.82166026009E+02 0.  0.
         25    2    1    2    0    0 -0.49647796754E+02 -0.23488575100E+02 -0.16312265027E+03  0.21277461811E+03  0.12508965665E+03 0.  0.
        -24    2    1    2    0    0  0.52134719626E+02 -0.43004997705E+01  0.16039316527E+03  0.18668847431E+03  0.79938074081E+02 0.  0.
        -13    1    3    3    0    0 -0.29197863567E+02  0.25118737853E+02 -0.38791499644E+02  0.54664857751E+02  0.00000000000E+00 0.  1.
         14    1    3    3    0    0  0.26710940695E+02  0.26703370175E+01 -0.16005414705E+03  0.16228966400E+03  0.00000000000E+00 0. -1.
         11    1    5    5    0    0  0.45349823276E+02 -0.11678282961E+02  0.16780860122E+03  0.17422030710E+03  0.00000000000E+00 0. -1.
        -12    1    5    5    0    0  0.67848963503E+01  0.73777831908E+01 -0.74154359491E+01  0.12468167211E+02  0.00000000000E+00 0.  1.
          5    1    4    4  501    0 -0.18201212448E+02 -0.22243118342E+02 -0.17609863793E+03  0.17847757038E+03  0.41800000000E+01 0. -1.
         -5    1    4    4    0  501 -0.31446584306E+02 -0.12454567581E+01  0.12975987665E+02  0.34297047729E+02  0.41800000000E+01 0. -1.
</event>
<event>
11    1  0.8328696E-009  0.1979385E+03  0.7561462E-02  0.1055991E+00
         22   -1    0    0    0    0  0.00000000000E+00  0.00000000000E+00  0.23032142957E+03  0.23032142957E+03  0.00000000000E+00 0.  1.
         22   -1    0    0    0    0 -0.00000000000E+00 -0.00000000000E+00 -0.15185097071E+04  0.15185097071E+04  0.00000000000E+00 0. -1.
         24    2    1    2    0    0 -0.55440678450E+01  0.40148746005E+02 -0.10870079438E+04  0.10909285904E+04  0.83043729310E+02 0.  0.
         25    2    1    2    0    0 -0.70709933113E+02 -0.17003451737E+03 -0.36055963609E+03  0.42374865625E+03  0.12509212908E+03 0.  0.
        -24    2    1    2    0    0  0.76254000958E+02  0.12988577137E+03  0.15937930239E+03  0.23415388999E+03  0.82105395085E+02 0.  0.
        -13    1    3    3    0    0  0.17792528900E+02  0.29015623737E+02 -0.16093905621E+03  0.16449881555E+03  0.00000000000E+00 0.  1.
         14    1    3    3    0    0 -0.23336596745E+02  0.11133122268E+02 -0.92606888759E+03  0.92642977485E+03  0.00000000000E+00 0. -1.
         13    1    5    5    0    0  0.49594809350E+02  0.15558880702E+02  0.32528990830E+02  0.61317690168E+02  0.00000000000E+00 0. -1.
        -14    1    5    5    0    0  0.26659191608E+02  0.11432689066E+03  0.12685031156E+03  0.17283619983E+03  0.00000000000E+00 0.  1.
          5    1    4    4  501    0 -0.70771626311E+02 -0.16048599507E+03 -0.37012414127E+03  0.40960191657E+03  0.41800000000E+01 0.  1.
         -5    1    4    4    0  501  0.61693197804E-01 -0.95485223010E+01  0.95645051823E+01  0.14146739680E+02  0.41800000000E+01 0.  1.
</event>
<event>
11    1  0.8328696E-009  0.1360572E+03  0.7561462E-02  0.1112043E+00
         22   -1    0    0    0    0  0.00000000000E+00  0.00000000000E+00  0.13018769011E+04  0.13018769011E+04  0.00000000000E+00 0. -1.
         22   -1    0    0    0    0 -0.00000000000E+00 -0.00000000000E+00 -0.63180466809E+03  0.63180466809E+03  0.00000000000E+00 0. -1.
         24    2    1    2    0    0  0.78732459395E+01 -0.53072911413E+02 -0.59745824225E+03  0.60540857504E+03  0.81758605524E+02 0.  0.
         25    2    1    2    0    0  0.59201989614E+00  0.48560862843E+02  0.12657375183E+03  0.18446532566E+03  0.12509210140E+03 0.  0.
        -24    2    1    2    0    0 -0.84652658357E+01  0.45120485701E+01  0.11409567235E+04  0.11438076685E+04  0.80135625225E+02 0.  0.
        -11    1    3    3    0    0  0.21065791438E+02 -0.48024504846E+02 -0.17438425642E+03  0.18209884547E+03  0.00000000000E+00 0.  1.
         12    1    3    3    0    0 -0.13192545499E+02 -0.50484065667E+01 -0.42307398583E+03  0.42330972957E+03  0.00000000000E+00 0. -1.
         13    1    5    5    0    0 -0.30215711242E+02  0.32279730851E+02  0.73120854123E+03  0.73254412904E+03  0.00000000000E+00 0. -1.
        -14    1    5    5    0    0  0.21750445406E+02 -0.27767682281E+02  0.40974818225E+03  0.41126353949E+03  0.00000000000E+00 0.  1.
          5    1    4    4  501    0  0.48276093455E+02  0.50252220038E+01  0.10585167593E+03  0.11652417669E+03  0.41800000000E+01 0. -1.
         -5    1    4    4    0  501 -0.47684073558E+02  0.43535640839E+02  0.20722075900E+02  0.67941148975E+02  0.41800000000E+01 0. -1.
</event>
<event>
11    1  0.8328696E-009  0.1781193E+03  0.7561462E-02  0.1071174E+00
         22   -1    0    0    0    0  0.00000000000E+00  0.00000000000E+00  0.31432757721E+03  0.31432757721E+03  0.00000000000E+00 0. -1.
         22   -1    0    0    0    0 -0.00000000000E+00 -0.00000000000E+00 -0.51976524996E+03  0.51976524996E+03  0.00000000000E+00 0. -1.
        -24    2    1    2    0    0  0.12785633222E+03 -0.15415966289E+02 -0.32408409158E+03  0.35749368552E+03  0.78653309341E+02 0.  0.
         25    2    1    2    0    0 -0.12370378513E+03 -0.47191394752E+02 -0.11958149302E+03  0.21789132050E+03  0.12508892790E+03 0.  0.
         24    2    1    2    0    0 -0.41525470955E+01  0.62607361041E+02  0.23822791185E+03  0.25870782115E+03  0.78995401355E+02 0.  0.
        -13    1    5    5    0    0  0.12454881388E+02 -0.12283868194E+02  0.91292619342E+02  0.92953535890E+02  0.00000000000E+00 0.  1.
         14    1    5    5    0    0 -0.16607428483E+02  0.74891229235E+02  0.14693529251E+03  0.16575428526E+03  0.00000000000E+00 0. -1.
         13    1    3    3    0    0  0.49640810152E+02  0.28781955849E+02 -0.16635735240E+03  0.17597550885E+03  0.00000000000E+00 0. -1.
        -14    1    3    3    0    0  0.78215522071E+02 -0.44197922138E+02 -0.15772673917E+03  0.18151817668E+03  0.00000000000E+00 0.  1.
          5    1    4    4  501    0 -0.48086010013E+02 -0.10066991712E+02 -0.12398928922E+03  0.13343322271E+03  0.41800000000E+01 0.  1.
         -5    1    4    4    0  501 -0.75617775115E+02 -0.37124403041E+02  0.44077962079E+01  0.84458097788E+02  0.41800000000E+01 0.  1.
</event>
<event>
11    1  0.8328696E-009  0.2388768E+04  0.7561462E-02  0.7923987E-01
         22   -1    0    0    0    0  0.00000000000E+00  0.00000000000E+00  0.76448310203E+03  0.76448310203E+03  0.00000000000E+00 0. -1.
         22   -1    0    0    0    0 -0.00000000000E+00 -0.00000000000E+00 -0.18660364456E+04  0.18660364456E+04  0.00000000000E+00 0. -1.
         24    2    1    2    0    0 -0.41428879641E+03  0.51184315445E+03 -0.81537985705E+03  0.10514631588E+04  0.84331734538E+02 0.  0.
         25    2    1    2    0    0  0.55309068313E+03 -0.93883081005E+03 -0.20719165573E+03  0.11161940221E+04  0.12509244218E+03 0.  0.
        -24    2    1    2    0    0 -0.13880188672E+03  0.42698765560E+03 -0.78981830754E+02  0.46286236670E+03  0.80118781366E+02 0.  0.
        -11    1    3    3    0    0 -0.80359844606E+02  0.10654423761E+03 -0.11563399501E+03  0.17658029334E+03  0.00000000000E+00 0.  1.
         12    1    3    3    0    0 -0.33392895180E+03  0.40529891684E+03 -0.69974586204E+03  0.87488286546E+03  0.00000000000E+00 0. -1.
         13    1    5    5    0    0 -0.99459137793E+02  0.18502318323E+03 -0.22208128485E+02  0.21123186170E+03  0.00000000000E+00 0. -1.
        -14    1    5    5    0    0 -0.39342748930E+02  0.24196447237E+03 -0.56773702268E+02  0.25163050501E+03  0.00000000000E+00 0.  1.
          5    1    4    4  501    0  0.28430611005E+03 -0.60080196294E+03 -0.13652142538E+03  0.67856358204E+03  0.41800000000E+01 0.  1.
         -5    1    4    4    0  501  0.26878457308E+03 -0.33802884712E+03 -0.70670230350E+02  0.43763044006E+03  0.41800000000E+01 0.  1.
</event>
<event>
11    1  0.8328696E-009  0.1805654E+03  0.7561462E-02  0.1069186E+00
         22   -1    0    0    0    0  0.00000000000E+00  0.00000000000E+00  0.61126261857E+02  0.61126261857E+02  0.00000000000E+00 0. -1.
         22   -1    0    0    0    0 -0.00000000000E+00 -0.00000000000E+00 -0.15276985822E+04  0.15276985822E+04  0.00000000000E+00 0.  1.
        -24    2    1    2    0    0  0.42254297705E+02  0.12735100011E+02 -0.84314392277E+03  0.84830371657E+03  0.82340224672E+02 0.  0.
         25    2    1    2    0    0 -0.14501452065E+03  0.56876997362E+02 -0.51893035490E+03  0.55605728960E+03  0.12508713780E+03 0.  0.
         24    2    1    2    0    0  0.10276022295E+03 -0.69612097373E+02 -0.10449804264E+03  0.18446383786E+03  0.87758526891E+02 0.  0.
        -11    1    5    5    0    0  0.11744570191E+03 -0.66651989440E+02 -0.10209658653E+03  0.16929174101E+03  0.00000000000E+00 0.  1.
         12    1    5    5    0    0 -0.14685478964E+02 -0.29601079328E+01 -0.24014561111E+01  0.15172096850E+02  0.00000000000E+00 0. -1.
         13    1    3    3    0    0 -0.18982891608E+02  0.22140120091E+02 -0.36486980517E+03  0.36603348182E+03  0.00000000000E+00 0. -1.
        -14    1    3    3    0    0  0.61237189314E+02 -0.94050200799E+01 -0.47827411760E+03  0.48227023475E+03  0.00000000000E+00 0.  1.
          5    1    4    4  501    0 -0.14555578970E+03  0.86697807147E+02 -0.44894680620E+03  0.47986842454E+03  0.41800000000E+01 0.  1.
         -5    1    4    4    0  501  0.54126904498E+00 -0.29820809785E+02 -0.69983548705E+02  0.76188865051E+02  0.41800000000E+01 0.  1.
</event>
<event>
11    1  0.8328696E-009  0.1665174E+03  0.7561462E-02  0.1081103E+00
         22   -1    0    0    0    0  0.00000000000E+00  0.00000000000E+00  0.16042551410E+04  0.16042551410E+04  0.00000000000E+00 0.  1.
         22   -1    0    0    0    0 -0.00000000000E+00 -0.00000000000E+00 -0.10476969426E+04  0.10476969426E+04  0.00000000000E+00 0. -1.
        -24    2    1    2    0    0 -0.56587396030E+02 -0.31769762334E+02 -0.10213843431E+04  0.10265874197E+04  0.80276414551E+02 0.  0.
         25    2    1    2    0    0 -0.40596761947E+02 -0.39563882786E+02  0.21851993014E+03  0.25809599387E+03  0.12509669971E+03 0.  0.
         24    2    1    2    0    0  0.97184157978E+02  0.71333645120E+02  0.13594226114E+04  0.13672686700E+04  0.82828316969E+02 0.  0.
        -13    1    5    5    0    0  0.16705452235E+02  0.20370318966E+02  0.74855761518E+03  0.74902104461E+03  0.00000000000E+00 0.  1.
         14    1    5    5    0    0  0.80478705743E+02  0.50963326154E+02  0.61086499622E+03  0.61824762539E+03  0.00000000000E+00 0. -1.
         13    1    3    3    0    0 -0.70347507960E+02 -0.33850031780E+02 -0.97600254740E+03  0.97911979301E+03  0.00000000000E+00 0. -1.
        -14    1    3    3    0    0  0.13760111929E+02  0.20802694455E+01 -0.45381795706E+02  0.47467626681E+02  0.00000000000E+00 0.  1.
          5    1    4    4  501    0 -0.23893211025E+02 -0.59590021699E+02  0.22229372209E+03  0.23141699916E+03  0.41800000000E+01 0. -1.
         -5    1    4    4    0  501 -0.16703550922E+02  0.20026138913E+02 -0.37737919435E+01  0.26678994711E+02  0.41800000000E+01 0. -1.
</event>
<event>
11    1  0.8328696E-009  0.1449152E+03  0.7561462E-02  0.1102191E+00
         22   -1    0    0    0    0  0.00000000000E+00  0.00000000000E+00  0.13474620116E+04  0.13474620116E+04  0.00000000000E+00 0.  1.
         22   -1    0    0    0    0 -0.00000000000E+00 -0.00000000000E+00 -0.13440067542E+03  0.13440067542E+03  0.00000000000E+00 0. -1.
         24    2    1    2    0    0 -0.38277495808E+02 -0.40492547122E+02 -0.94090256579E+02  0.13630702363E+03  0.81374536866E+02 0.  0.
         25    2    1    2    0    0 -0.30083189470E+02 -0.51308910620E+01  0.24301852140E+03  0.27502164648E+03  0.12509028724E+03 0.  0.
        -24    2    1    2    0    0  0.68360685279E+02  0.45623438184E+02  0.10641330714E+04  0.10705340169E+04  0.83121636107E+02 0.  0.
        -13    1    3    3    0    0  0.90534483209E+01  0.89297041473E+01 -0.57139230701E+02  0.58537135459E+02  0.00000000000E+00 0.  1.
         14    1    3    3    0    0 -0.47330944129E+02 -0.49422251269E+02 -0.36951025878E+02  0.77769888171E+02  0.00000000000E+00 0. -1.
         11    1    5    5    0    0 -0.11335371356E+02 -0.13502257297E+02  0.15211515780E+03  0.15313334982E+03  0.00000000000E+00 0. -1.
        -12    1    5    5    0    0  0.79696056635E+02  0.59125695481E+02  0.91201791355E+03  0.91740066707E+03  0.00000000000E+00 0.  1.
          5    1    4    4  501    0 -0.19683552041E+02  0.37650513430E+02  0.22197902719E+03  0.22604681881E+03  0.41800000000E+01 0.  1.
         -5    1    4    4    0  501 -0.10399637429E+02 -0.42781404492E+02  0.21039494203E+02  0.48974827670E+02  0.41800000000E+01 0.  1.
</event>
<event>
11    1  0.8328696E-009  0.2614635E+03  0.7561462E-02  0.1017964E+00
         22   -1    0    0    0    0  0.00000000000E+00  0.00000000000E+00  0.18789717544E+04  0.18789717544E+04  0.00000000000E+00 0.  1.
         22   -1    0    0    0    0 -0.00000000000E+00 -0.00000000000E+00 -0.13025892130E+04  0.13025892130E+04  0.00000000000E+00 0. -1.
        -24    2    1    2    0    0 -0.22167099047E+03 -0.27909470431E+02 -0.74021920002E+03  0.77772987068E+03  0.83799290697E+02 0.  0.
         25    2    1    2    0    0  0.24270088864E+03 -0.78760431437E+01 -0.50798251804E+03  0.57676538126E+03  0.12508522288E+03 0.  0.
         24    2    1    2    0    0 -0.21029898169E+02  0.35785513574E+02  0.18245842595E+04  0.18270657155E+04  0.85665331330E+02 0.  0.
        -11    1    5    5    0    0  0.28431482269E+02  0.26561035510E+02  0.11259438227E+04  0.11266158750E+04  0.00000000000E+00 0.  1.
         12    1    5    5    0    0 -0.49461380438E+02  0.92244780640E+01  0.69864043678E+03  0.70044984050E+03  0.00000000000E+00 0. -1.
         11    1    3    3    0    0 -0.21073104967E+03 -0.22889972520E+01 -0.65071308151E+03  0.68398854468E+03  0.00000000000E+00 0. -1.
        -12    1    3    3    0    0 -0.10939940799E+02 -0.25620473179E+02 -0.89506118507E+02  0.93741326003E+02  0.00000000000E+00 0.  1.
          5    1    4    4  501    0  0.21879826529E+03  0.35540633341E+00 -0.50572489398E+03  0.55104260089E+03  0.41800000000E+01 0.  1.
         -5    1    4    4    0  501  0.23902623350E+02 -0.82314494771E+01 -0.22576240627E+01  0.25722780369E+02  0.41800000000E+01 0.  1.
</event>
<event>
11    1  0.8328696E-009  0.3086362E+03  0.7561462E-02  0.9966010E-01
         22   -1    0    0    0    0  0.00000000000E+00  0.00000000000E+00  0.26266751178E+03  0.26266751178E+03  0.00000000000E+00 0.  1.
         22   -1    0    0    0    0 -0.00000000000E+00 -0.00000000000E+00 -0.69701425271E+03  0.69701425271E+03  0.00000000000E+00 0. -1.
        -24    2    1    2    0    0 -0.14621375600E+03  0.13136275778E+03 -0.10235255469E+03  0.23795810154E+03  0.86679732709E+02 0.  0.
         25    2    1    2    0    0  0.33688081017E+03  0.93908875565E+00 -0.32266925319E+03  0.48296227212E+03  0.12509015626E+03 0.  0.
         24    2    1    2    0    0 -0.19066705417E+03 -0.13230184654E+03 -0.93249330601E+01  0.23876139083E+03  0.55338442612E+02 0.  0.
        -13    1    5    5    0    0 -0.12149434368E+03 -0.54072376405E+02 -0.16940195514E+02  0.13405844868E+03  0.00000000000E+00 0.  1.
         14    1    5    5    0    0 -0.69172710486E+02 -0.78229470134E+02  0.76152624538E+01  0.10470294215E+03  0.00000000000E+00 0. -1.
         13    1    3    3    0    0 -0.14630607185E+03  0.12015136253E+03 -0.11464049398E+03  0.22132387905E+03  0.00000000000E+00 0. -1.
        -14    1    3    3    0    0  0.92315856274E-01  0.11211395256E+02  0.12287939291E+02  0.16634222489E+02  0.00000000000E+00 0.  1.
          5    1    4    4  501    0  0.33017062501E+03 -0.29707364574E+01 -0.33328071696E+03  0.46916412436E+03  0.41800000000E+01 0.  1.
         -5    1    4    4    0  501  0.67101851610E+01  0.39098252131E+01  0.10611463774E+02  0.13798147756E+02  0.41800000000E+01 0.  1.
</event>
<event>
11    1  0.8328696E-009  0.1975117E+03  0.7561462E-02  0.1056297E+00
         22   -1    0    0    0    0  0.00000000000E+00  0.00000000000E+00  0.45356778220E+03  0.45356778220E+03  0.00000000000E+00 0. -1.
         22   -1    0    0    0    0 -0.00000000000E+00 -0.00000000000E+00 -0.29817791633E+04  0.29817791633E+04  0.00000000000E+00 0. -1.
         24    2    1    2    0    0 -0.59827356217E+02  0.20255011768E+02 -0.20144251464E+04  0.20170353767E+04  0.80829834435E+02 0.  0.
         25    2    1    2    0    0  0.20456964476E+03 -0.65779821668E+02 -0.93268085726E+03  0.96525502734E+03  0.12509181354E+03 0.  0.
        -24    2    1    2    0    0 -0.14474228854E+03  0.45524809899E+02  0.41889462261E+03  0.45305654146E+03  0.82247714209E+02 0.  0.
        -11    1    3    3    0    0 -0.32083992764E+02 -0.12905743365E+01 -0.22645111438E+03  0.22871632075E+03  0.00000000000E+00 0.  1.
         12    1    3    3    0    0 -0.27743363452E+02  0.21545586105E+02 -0.17879740320E+04  0.17883190559E+04  0.00000000000E+00 0. -1.
         13    1    5    5    0    0 -0.55676340279E+02 -0.21622216501E+02  0.17374147817E+03  0.18372119189E+03  0.00000000000E+00 0. -1.
        -14    1    5    5    0    0 -0.89065948265E+02  0.67147026400E+02  0.24515314444E+03  0.26933534956E+03  0.00000000000E+00 0.  1.
          5    1    4    4  501    0  0.48234353234E+02 -0.52825964422E+02 -0.14091284840E+03  0.15808554201E+03  0.41800000000E+01 0. -1.
         -5    1    4    4    0  501  0.15633529153E+03 -0.12953857246E+02 -0.79176800887E+03  0.80716948534E+03  0.41800000000E+01 0. -1.
</event>
<event>
11    1  0.8328696E-009  0.1361182E+03  0.7561462E-02  0.1111972E+00
         22   -1    0    0    0    0  0.00000000000E+00  0.00000000000E+00  0.35927742633E+03  0.35927742633E+03  0.00000000000E+00 0.  1.
         22   -1    0    0    0    0 -0.00000000000E+00 -0.00000000000E+00 -0.25902300078E+03  0.25902300078E+03  0.00000000000E+00 0.  1.
         24    2    1    2    0    0  0.40713868801E+02 -0.36471612107E+02 -0.18101209686E+03  0.20377306658E+03  0.75962397621E+02 0.  0.
         25    2    1    2    0    0 -0.25691184794E+01  0.63337249415E+02  0.22924881913E+02  0.14209540871E+03  0.12508935780E+03 0.  0.
        -24    2    1    2    0    0 -0.38144750322E+02 -0.26865637308E+02  0.25834164050E+03  0.27243195181E+03  0.72814701179E+02 0.  0.
        -13    1    3    3    0    0  0.33113264923E+01 -0.38187050691E+02 -0.15099547791E+03  0.15578462721E+03  0.00000000000E+00 0.  1.
         14    1    3    3    0    0  0.37402542309E+02  0.17154385836E+01 -0.30016618944E+02  0.47988439374E+02  0.00000000000E+00 0. -1.
         13    1    5    5    0    0 -0.18436762522E+02  0.23047248702E+02  0.58676522119E+02  0.65681231208E+02  0.00000000000E+00 0. -1.
        -14    1    5    5    0    0 -0.19707987800E+02 -0.49912886009E+02  0.19966511838E+03  0.20675072060E+03  0.00000000000E+00 0.  1.
          5    1    4    4  501    0 -0.52376995334E+02  0.13756811663E+02  0.42563348029E+02  0.69005148379E+02  0.41800000000E+01 0. -1.
         -5    1    4    4    0  501  0.49807876855E+02  0.49580437751E+02 -0.19638466117E+02  0.73090260335E+02  0.41800000000E+01 0. -1.
</event>
<event>
11    1  0.8328696E-009  0.1393045E+03  0.7561462E-02  0.1108338E+00
         22   -1    0    0    0    0  0.00000000000E+00  0.00000000000E+00  0.16362879679E+03  0.16362879679E+03  0.00000000000E+00 0.  1.
         22   -1    0    0    0    0 -0.00000000000E+00 -0.00000000000E+00 -0.18824273066E+04  0.18824273066E+04  0.00000000000E+00 0. -1.
         24    2    1    2    0    0 -0.19217238749E+02 -0.61023527666E+02 -0.15974810301E+04  0.16008951564E+04  0.82622557049E+02 0.  0.
         25    2    1    2    0    0  0.25937092819E+02  0.29710494422E+02 -0.25457581723E+03  0.28637855226E+03  0.12509349388E+03 0.  0.
        -24    2    1    2    0    0 -0.67198540699E+01  0.31313033244E+02  0.13325833750E+03  0.15878239479E+03  0.80177315312E+02 0.  0.
        -13    1    3    3    0    0  0.87473868113E+01  0.60665904681E+00 -0.18588247072E+02  0.20552560435E+02  0.00000000000E+00 0.  1.
         14    1    3    3    0    0 -0.27964625560E+02 -0.61630186713E+02 -0.15788927830E+04  0.15803425959E+04  0.00000000000E+00 0. -1.
         13    1    5    5    0    0 -0.77567739073E+01 -0.16122809044E+02  0.60825514906E+00  0.17902024669E+02  0.00000000000E+00 0. -1.
        -14    1    5    5    0    0  0.10369198374E+01  0.47435842287E+02  0.13265008235E+03  0.14088037012E+03  0.00000000000E+00 0.  1.
          5    1    4    4  501    0  0.52964210002E+02  0.59137044866E+02 -0.10618865590E+03  0.13264954074E+03  0.41800000000E+01 0. -1.
         -5    1    4    4    0  501 -0.27027117183E+02 -0.29426550444E+02 -0.14838716133E+03  0.15372901152E+03  0.41800000000E+01 0. -1.
</event>
<event>
11    1  0.8328696E-009  0.1426527E+03  0.7561462E-02  0.1104632E+00
         22   -1    0    0    0    0  0.00000000000E+00  0.00000000000E+00  0.22133887258E+03  0.22133887258E+03  0.00000000000E+00 0. -1.
         22   -1    0    0    0    0 -0.00000000000E+00 -0.00000000000E+00 -0.22740140487E+04  0.22740140487E+04  0.00000000000E+00 0. -1.
        -24    2    1    2    0    0  0.59151608871E+02 -0.81370264071E+01 -0.21635016622E+04  0.21659821635E+04  0.84700451428E+02 0.  0.
         25    2    1    2    0    0 -0.29225333076E+02  0.72383737340E+02 -0.30726129014E+02  0.15061726898E+03  0.12509173109E+03 0.  0.
         24    2    1    2    0    0 -0.29926275795E+02 -0.64246710933E+02  0.14155261503E+03  0.17875348879E+03  0.83020750927E+02 0.  0.
        -13    1    5    5    0    0  0.18161403640E+02 -0.32368030746E+02  0.15685634253E+02  0.40293487296E+02  0.00000000000E+00 0.  1.
         14    1    5    5    0    0 -0.48087679436E+02 -0.31878680187E+02  0.12586698078E+03  0.13846000150E+03  0.00000000000E+00 0. -1.
         11    1    3    3    0    0  0.54394150345E+02 -0.33785143565E+02 -0.19237897055E+04  0.19248550571E+04  0.00000000000E+00 0. -1.
        -12    1    3    3    0    0  0.47574585258E+01  0.25648117158E+02 -0.23971195664E+03  0.24112710649E+03  0.00000000000E+00 0.  1.
          5    1    4    4  501    0  0.11905359161E+02  0.82205306717E+02 -0.56845104304E+02  0.10073871308E+03  0.41800000000E+01 0.  1.
         -5    1    4    4    0  501 -0.41130692236E+02 -0.98215693777E+01  0.26118975291E+02  0.49878555904E+02  0.41800000000E+01 0.  1.
</event>
<event>
11    1  0.8328696E-009  0.1508666E+03  0.7561462E-02  0.1095997E+00
         22   -1    0    0    0    0  0.00000000000E+00  0.00000000000E+00  0.15603475061E+04  0.15603475061E+04  0.00000000000E+00 0. -1.
         22   -1    0    0    0    0 -0.00000000000E+00 -0.00000000000E+00 -0.43447049904E+02  0.43447049904E+02  0.00000000000E+00 0.  1.
        -24    2    1    2    0    0  0.29756934223E+02  0.34871403625E+02  0.49415831783E+02  0.10554376827E+03  0.81216209372E+02 0.  0.
         25    2    1    2    0    0 -0.49883991502E+02 -0.10631614842E+03  0.61775372803E+03  0.64113861039E+03  0.12509002048E+03 0.  0.
         24    2    1    2    0    0  0.20127057279E+02  0.71444744792E+02  0.84973089641E+03  0.85711217737E+03  0.84197614459E+02 0.  0.
        -13    1    5    5    0    0  0.17759188063E+02 -0.13775538288E+02  0.29654548297E+03  0.29739599474E+03  0.00000000000E+00 0.  1.
         14    1    5    5    0    0  0.23678692167E+01  0.85220283080E+02  0.55318541344E+03  0.55971618263E+03  0.00000000000E+00 0. -1.
         11    1    3    3    0    0 -0.40681826225E+01  0.17629917957E+02  0.62748441738E+02  0.65304908373E+02  0.00000000000E+00 0. -1.
        -12    1    3    3    0    0  0.33825116846E+02  0.17241485668E+02 -0.13332609955E+02  0.40238859898E+02  0.00000000000E+00 0.  1.
          5    1    4    4  501    0  0.37332005646E+02 -0.56307092840E+01  0.15394019340E+03  0.15855736841E+03  0.41800000000E+01 0.  1.
         -5    1    4    4    0  501 -0.87215997149E+02 -0.10068543913E+03  0.46381353462E+03  0.48258124198E+03  0.41800000000E+01 0.  1.
</event>
<event>
11    1  0.8328696E-009  0.1306364E+03  0.7561462E-02  0.1118489E+00
         22   -1    0    0    0    0  0.00000000000E+00  0.00000000000E+00  0.32197915028E+03  0.32197915028E+03  0.00000000000E+00 0. -1.
         22   -1    0    0    0    0 -0.00000000000E+00 -0.00000000000E+00 -0.50615606160E+03  0.50615606160E+03  0.00000000000E+00 0.  1.
         24    2    1    2    0    0 -0.31405955199E+02  0.14634402172E+02 -0.35894529526E+03  0.37011885221E+03  0.83341106427E+02 0.  0.
         25    2    1    2    0    0  0.44831207116E+02 -0.36829395130E+02 -0.10027522028E+03  0.17049669255E+03  0.12509101043E+03 0.  0.
        -24    2    1    2    0    0 -0.13425251917E+02  0.22194992958E+02  0.27504360423E+03  0.28751966712E+03  0.79660025447E+02 0.  0.
        -13    1    3    3    0    0 -0.24732758826E+02  0.40570184385E+02 -0.31568002763E+03  0.31923585178E+03  0.00000000000E+00 0.  1.
         14    1    3    3    0    0 -0.66731963726E+01 -0.25935782213E+02 -0.43265267632E+02  0.50883000424E+02  0.00000000000E+00 0. -1.
         13    1    5    5    0    0 -0.23167608808E+02  0.45608176963E+02  0.23189920734E+03  0.23747439076E+03  0.00000000000E+00 0. -1.
        -14    1    5    5    0    0  0.97423568909E+01 -0.23413184005E+02  0.43144396890E+02  0.50045276360E+02  0.00000000000E+00 0.  1.
          5    1    4    4  501    0  0.64602995847E+02 -0.72167742060E+02 -0.75076500694E+02  0.12262007757E+03  0.41800000000E+01 0.  1.
         -5    1    4    4    0  501 -0.19771788731E+02  0.35338346929E+02 -0.25198719587E+02  0.47876614982E+02  0.41800000000E+01 0.  1.
</event>
<event>
11    1  0.8328696E-009  0.2098598E+03  0.7561462E-02  0.1047762E+00
         22   -1    0    0    0    0  0.00000000000E+00  0.00000000000E+00  0.10137556369E+04  0.10137556369E+04  0.00000000000E+00 0. -1.
         22   -1    0    0    0    0 -0.00000000000E+00 -0.00000000000E+00 -0.23316677715E+03  0.23316677715E+03  0.00000000000E+00 0.  1.
        -24    2    1    2    0    0  0.21141579150E+02  0.91332784563E+02 -0.11009084556E+03  0.16555663445E+03  0.80624816463E+02 0.  0.
         25    2    1    2    0    0 -0.11610472193E+03 -0.21841643177E+03  0.14300509888E+03  0.31190278872E+03  0.12508735822E+03 0.  0.
         24    2    1    2    0    0  0.94963142782E+02  0.12708364720E+03  0.74767460639E+03  0.76946299083E+03  0.88812866986E+02 0.  0.
        -11    1    5    5    0    0 -0.52195399252E-01  0.58367877585E+02  0.35100349325E+03  0.35582336085E+03  0.00000000000E+00 0.  1.
         12    1    5    5    0    0  0.95015338181E+02  0.68715769617E+02  0.39667111315E+03  0.41363962998E+03  0.00000000000E+00 0. -1.
         13    1    3    3    0    0  0.18760758062E+02  0.53867909450E+00  0.45355440888E+01  0.19308738395E+02  0.00000000000E+00 0. -1.
        -14    1    3    3    0    0  0.23808210887E+01  0.90794105469E+02 -0.11462638965E+03  0.14624789606E+03  0.00000000000E+00 0.  1.
          5    1    4    4  501    0  0.24452514642E+02 -0.28411138893E+02  0.46345227188E+01  0.38000914283E+02  0.41800000000E+01 0. -1.
         -5    1    4    4    0  501 -0.14055723657E+03 -0.19000529287E+03  0.13837057616E+03  0.27390187444E+03  0.41800000000E+01 0. -1.
</event>
<event>
11    1  0.8328696E-009  0.1314737E+03  0.7561462E-02  0.1117471E+00
         22   -1    0    0    0    0  0.00000000000E+00  0.00000000000E+00  0.82443754736E+03  0.82443754736E+03  0.00000000000E+00 0.  1.
         22   -1    0    0    0    0 -0.00000000000E+00 -0.00000000000E+00 -0.72949125196E+02  0.72949125196E+02  0.00000000000E+00 0. -1.
         24    2    1    2    0    0 -0.80821579993E+01 -0.39962093872E+02  0.65246470629E+01  0.90759773258E+02  0.80823729176E+02 0.  0.
         25    2    1    2    0    0  0.12647098641E+02  0.37833536897E+02  0.12463371374E+03  0.18102407532E+03  0.12507928537E+03 0.  0.
        -24    2    1    2    0    0 -0.45649406420E+01  0.21285569755E+01  0.62033006136E+03  0.62560282397E+03  0.80895852177E+02 0.  0.
        -13    1    3    3    0    0  0.27690951207E+02 -0.92467833643E+01  0.26617539193E+02  0.39506773774E+02  0.00000000000E+00 0.  1.
         14    1    3    3    0    0 -0.35773109206E+02 -0.30715310508E+02 -0.20092892130E+02  0.51252999483E+02  0.00000000000E+00 0. -1.
         13    1    5    5    0    0  0.33734604204E+01  0.24695298230E+02  0.62880349012E+02  0.67640049392E+02  0.00000000000E+00 0. -1.
        -14    1    5    5    0    0 -0.79384010624E+01 -0.22566741255E+02  0.55744971235E+03  0.55796277458E+03  0.00000000000E+00 0.  1.
          5    1    4    4  501    0  0.53576348685E+02 -0.10303912400E+02  0.98177110842E+02  0.11239578837E+03  0.41800000000E+01 0.  1.
         -5    1    4    4    0  501 -0.40929250044E+02  0.48137449296E+02  0.26456602899E+02  0.68628286958E+02  0.41800000000E+01 0.  1.
</event>
<event>
11    1  0.8328696E-009  0.1523668E+03  0.7561462E-02  0.1094485E+00
         22   -1    0    0    0    0  0.00000000000E+00  0.00000000000E+00  0.88736806893E+03  0.88736806893E+03  0.00000000000E+00 0. -1.
         22   -1    0    0    0    0 -0.00000000000E+00 -0.00000000000E+00 -0.34351443393E+03  0.34351443393E+03  0.00000000000E+00 0.  1.
        -24    2    1    2    0    0  0.62966719476E+02 -0.58422126673E+02 -0.26070273831E+03  0.28575291476E+03  0.79440908142E+02 0.  0.
         25    2    1    2    0    0 -0.52015977950E+02  0.83071937291E+02  0.23685830130E+02  0.16067152502E+03  0.12509081372E+03 0.  0.
         24    2    1    2    0    0 -0.10950741527E+02 -0.24649810618E+02  0.78087054318E+03  0.78445806308E+03  0.69915060035E+02 0.  0.
        -11    1    5    5    0    0  0.61162790589E+01 -0.30446756774E+02  0.14301448178E+03  0.14634738080E+03  0.00000000000E+00 0.  1.
         12    1    5    5    0    0 -0.17067020586E+02  0.57969461563E+01  0.63785606140E+03  0.63811068228E+03  0.00000000000E+00 0. -1.
         13    1    3    3    0    0  0.10889411145E+02 -0.63695325590E+02 -0.14049284494E+03  0.15464124048E+03  0.00000000000E+00 0. -1.
        -14    1    3    3    0    0  0.52077308332E+02  0.52731989164E+01 -0.12020989337E+03  0.13111167429E+03  0.00000000000E+00 0.  1.
          5    1    4    4  501    0 -0.25689351878E+02  0.11174773520E+03  0.34928697005E+02  0.11993742283E+03  0.41800000000E+01 0.  1.
         -5    1    4    4    0  501 -0.26326626072E+02 -0.28675797904E+02 -0.11242866876E+02  0.40734102192E+02  0.41800000000E+01 0.  1.
</event>
<event>
11    1  0.8328696E-009  0.1743183E+03  0.7561462E-02  0.1074334E+00
         22   -1    0    0    0    0  0.00000000000E+00  0.00000000000E+00  0.79975584468E+03  0.79975584468E+03  0.00000000000E+00 0. -1.
         22   -1    0    0    0    0 -0.00000000000E+00 -0.00000000000E+00 -0.87532498924E+03  0.87532498924E+03  0.00000000000E+00 0. -1.
        -24    2    1    2    0    0  0.56094503821E+01 -0.47397509646E+02 -0.80480329009E+03  0.81044113554E+03  0.82634790445E+02 0.  0.
         25    2    1    2    0    0 -0.52298628262E+02 -0.69948406992E+02  0.37587328188E+02  0.15712581300E+03  0.12509111763E+03 0.  0.
         24    2    1    2    0    0  0.46689177880E+02  0.11734591664E+03  0.69164681735E+03  0.70751388538E+03  0.79060954867E+02 0.  0.
        -13    1    5    5    0    0  0.38182963306E+02  0.57549893204E+02  0.18848324994E+03  0.20073829830E+03  0.00000000000E+00 0.  1.
         14    1    5    5    0    0  0.85062145737E+01  0.59796023434E+02  0.50316356740E+03  0.50677558709E+03  0.00000000000E+00 0. -1.
         13    1    3    3    0    0  0.20549836317E+01 -0.55000730515E+02 -0.79725657689E+03  0.79915414828E+03  0.00000000000E+00 0. -1.
        -14    1    3    3    0    0  0.35544667504E+01  0.76032208692E+01 -0.75467131974E+01  0.11286987266E+02  0.00000000000E+00 0.  1.
          5    1    4    4  501    0 -0.66817753275E+02 -0.20135813196E+02 -0.26320477690E+02  0.74701426168E+02  0.41800000000E+01 0.  1.
         -5    1    4    4    0  501  0.14519125013E+02 -0.49812593795E+02  0.63907805878E+02  0.82424386827E+02  0.41800000000E+01 0.  1.
</event>
<event>
11    1  0.8328696E-009  0.1794082E+03  0.7561462E-02  0.1070123E+00
         22   -1    0    0    0    0  0.00000000000E+00  0.00000000000E+00  0.11588940121E+04  0.11588940121E+04  0.00000000000E+00 0. -1.
         22   -1    0    0    0    0 -0.00000000000E+00 -0.00000000000E+00 -0.48316646569E+03  0.48316646569E+03  0.00000000000E+00 0. -1.
         24    2    1    2    0    0 -0.70692023642E+02  0.52132048207E+02 -0.41486794628E+03  0.43156859757E+03  0.80130698876E+02 0.  0.
         25    2    1    2    0    0  0.18801422880E+03 -0.13176430140E+02  0.18149314075E+03  0.29001830023E+03  0.12509150966E+03 0.  0.
        -24    2    1    2    0    0 -0.11732220515E+03 -0.38955618067E+02  0.90910235193E+03  0.92047357997E+03  0.74313425036E+02 0.  0.
        -11    1    3    3    0    0  0.10108569016E+02  0.51347399380E+00 -0.63478250826E+01  0.11947456063E+02  0.00000000000E+00 0.  1.
         12    1    3    3    0    0 -0.80800592658E+02  0.51618574213E+02 -0.40852012120E+03  0.41962114151E+03  0.00000000000E+00 0. -1.
         13    1    5    5    0    0 -0.61067091525E+02  0.17632025066E+02  0.35316481645E+03  0.35883905244E+03  0.00000000000E+00 0. -1.
        -14    1    5    5    0    0 -0.56255113630E+02 -0.56587643133E+02  0.55593753547E+03  0.56163452753E+03  0.00000000000E+00 0.  1.
          5    1    4    4  501    0  0.10767435263E+02  0.35215369862E+02  0.93851812627E+01  0.38231060199E+02  0.41800000000E+01 0. -1.
         -5    1    4    4    0  501  0.17724679353E+03 -0.48391800002E+02  0.17210795949E+03  0.25178724003E+03  0.41800000000E+01 0. -1.
</event>
<event>
11    1  0.8328696E-009  0.2613823E+03  0.7561462E-02  0.1018005E+00
         22   -1    0    0    0    0  0.00000000000E+00  0.00000000000E+00  0.14767208905E+04  0.14767208905E+04  0.00000000000E+00 0. -1.
         22   -1    0    0    0    0 -0.00000000000E+00 -0.00000000000E+00 -0.54030098280E+03  0.54030098280E+03  0.00000000000E+00 0. -1.
        -24    2    1    2    0    0 -0.13094381293E+02  0.47424687867E+02 -0.44805275962E+03  0.45773925907E+03  0.79708155471E+02 0.  0.
         25    2    1    2    0    0  0.10489616870E+03 -0.25049932952E+03  0.22069330671E+03  0.37162945780E+03  0.12509915261E+03 0.  0.
         24    2    1    2    0    0 -0.91801787407E+02  0.20307464165E+03  0.11637793606E+04  0.11876531564E+04  0.80440919396E+02 0.  0.
        -11    1    5    5    0    0 -0.45814566711E+02  0.44195329348E+02  0.20319744992E+03  0.21293521388E+03  0.00000000000E+00 0.  1.
         12    1    5    5    0    0 -0.45987220696E+02  0.15887931230E+03  0.96058191071E+03  0.97471794255E+03  0.00000000000E+00 0. -1.
         13    1    3    3    0    0 -0.21061898733E+02  0.39478550731E+02 -0.44325289115E+03  0.44550565098E+03  0.00000000000E+00 0. -1.
        -14    1    3    3    0    0  0.79675174399E+01  0.79461371354E+01 -0.47998684774E+01  0.12233608091E+02  0.00000000000E+00 0.  1.
          5    1    4    4  501    0  0.43545161184E+02 -0.35244663939E+01  0.24413728634E+02  0.50220568214E+02  0.41800000000E+01 0.  1.
         -5    1    4    4    0  501  0.61351007516E+02 -0.24697486312E+03  0.19627957807E+03  0.32140888959E+03  0.41800000000E+01 0.  1.
</event>
<event>
11    1  0.8328696E-009  0.1433506E+03  0.7561462E-02  0.1103874E+00
         22   -1    0    0    0    0  0.00000000000E+00  0.00000000000E+00  0.31887689858E+03  0.31887689858E+03  0.00000000000E+00 0. -1.
         22   -1    0    0    0    0 -0.00000000000E+00 -0.00000000000E+00 -0.18661249605E+03  0.18661249605E+03  0.00000000000E+00 0.  1.
        -24    2    1    2    0    0  0.33062619176E+02  0.13542070688E+02 -0.83794278968E+02  0.12100942140E+03  0.79657230773E+02 0.  0.
         25    2    1    2    0    0  0.26917499071E+02  0.30258194089E+02 -0.15337241073E+02  0.13237417527E+03  0.12509029239E+03 0.  0.
         24    2    1    2    0    0 -0.59980118247E+02 -0.43800264777E+02  0.23139592257E+03  0.25210579796E+03  0.67061036408E+02 0.  0.
        -13    1    5    5    0    0 -0.38032192586E+02 -0.40164729395E+01  0.39800670973E+02  0.55196676871E+02  0.00000000000E+00 0.  1.
         14    1    5    5    0    0 -0.21947925662E+02 -0.39783791838E+02  0.19159525160E+03  0.19690912109E+03  0.00000000000E+00 0. -1.
         11    1    3    3    0    0  0.37011743448E+02  0.35862800200E+02 -0.23589248513E+02  0.56678587109E+02  0.00000000000E+00 0. -1.
        -12    1    3    3    0    0 -0.39491242723E+01 -0.22320729512E+02 -0.60205030455E+02  0.64330834291E+02  0.00000000000E+00 0.  1.
          5    1    4    4  501    0 -0.32296493524E+02 -0.27277510456E+02 -0.24760733932E+02  0.49170035748E+02  0.41800000000E+01 0.  1.
         -5    1    4    4    0  501  0.59213992596E+02  0.57535704546E+02  0.94234928584E+01  0.83204139526E+02  0.41800000000E+01 0.  1.
</event>
<event>
11    1  0.8328696E-009  0.2303956E+03  0.7561462E-02  0.1034894E+00
         22   -1    0    0    0    0  0.00000000000E+00  0.00000000000E+00  0.89565314102E+03  0.89565314102E+03  0.00000000000E+00 0.  1.
         22   -1    0    0    0    0 -0.00000000000E+00 -0.00000000000E+00 -0.86315685531E+03  0.86315685531E+03  0.00000000000E+00 0. -1.
         24    2    1    2    0    0 -0.20118988493E+02  0.18378818359E+03 -0.53175688240E+03  0.56864389136E+03  0.80047630083E+02 0.  0.
         25    2    1    2    0    0  0.11205442196E+03 -0.20377172199E+03 -0.25167445248E+03  0.36478346014E+03  0.12509130504E+03 0.  0.
        -24    2    1    2    0    0 -0.91935433463E+02  0.19983538396E+02  0.81592762058E+03  0.82538264483E+03  0.81652695169E+02 0.  0.
        -13    1    3    3    0    0  0.16490872733E+02  0.14837367330E+03 -0.42244002600E+03  0.44804271155E+03  0.00000000000E+00 0.  1.
         14    1    3    3    0    0 -0.36609861226E+02  0.35414510290E+02 -0.10931685640E+03  0.12060117981E+03  0.00000000000E+00 0. -1.
         11    1    5    5    0    0 -0.10356269043E+03  0.94633520898E+01  0.60498064833E+03  0.61385370467E+03  0.00000000000E+00 0. -1.
        -12    1    5    5    0    0  0.11627256964E+02  0.10520186306E+02  0.21094697226E+03  0.21152894017E+03  0.00000000000E+00 0.  1.
          5    1    4    4  501    0  0.47670284722E+02 -0.19275316744E+03 -0.18956446809E+03  0.27455126947E+03  0.41800000000E+01 0. -1.
         -5    1    4    4    0  501  0.64384137234E+02 -0.11018554546E+02 -0.62109984386E+02  0.90232190665E+02  0.41800000000E+01 0. -1.
</event>
<event>
11    1  0.8328696E-009  0.1302332E+03  0.7561462E-02  0.1118983E+00
         22   -1    0    0    0    0  0.00000000000E+00  0.00000000000E+00  0.91174519126E+02  0.91174519126E+02  0.00000000000E+00 0.  1.
         22   -1    0    0    0    0 -0.00000000000E+00 -0.00000000000E+00 -0.44021043603E+03  0.44021043603E+03  0.00000000000E+00 0. -1.
        -24    2    1    2    0    0  0.36658609244E+02  0.76383574639E+01 -0.27173405330E+03  0.28724090717E+03  0.85239338879E+02 0.  0.
         25    2    1    2    0    0 -0.33544193958E+02  0.14124858432E+02 -0.93403219159E+02  0.16029906520E+03  0.12508758683E+03 0.  0.
         24    2    1    2    0    0 -0.31144152857E+01 -0.21763215896E+02  0.16101355556E+02  0.83844982790E+02  0.79293066151E+02 0.  0.
        -11    1    5    5    0    0 -0.17452806903E+02 -0.44654076072E+01  0.44280693697E+02  0.47805022416E+02  0.00000000000E+00 0.  1.
         12    1    5    5    0    0  0.14338391617E+02 -0.17297808289E+02 -0.28179338140E+02  0.36039960374E+02  0.00000000000E+00 0. -1.
         13    1    3    3    0    0  0.26039376208E+02 -0.10304653374E+01 -0.27227761716E+03  0.27352186709E+03  0.00000000000E+00 0. -1.
        -14    1    3    3    0    0  0.10619233036E+02  0.86688228013E+01  0.54356385709E+00  0.13719040079E+02  0.00000000000E+00 0.  1.
          5    1    4    4  501    0  0.41378640781E+01  0.58956000574E+02 -0.12861504043E+02  0.60628562650E+02  0.41800000000E+01 0. -1.
         -5    1    4    4    0  501 -0.37682058036E+02 -0.44831142142E+02 -0.80541715117E+02  0.99670502545E+02  0.41800000000E+01 0. -1.
</event>
<event>
11    1  0.8328696E-009  0.2903403E+03  0.7561462E-02  0.1004364E+00
         22   -1    0    0    0    0  0.00000000000E+00  0.00000000000E+00  0.24688492929E+04  0.24688492929E+04  0.00000000000E+00 0. -1.
         22   -1    0    0    0    0 -0.00000000000E+00 -0.00000000000E+00 -0.11460436108E+03  0.11460436108E+03  0.00000000000E+00 0.  1.
        -24    2    1    2    0    0 -0.19953962285E+02  0.63344746051E+02 -0.31664883866E+02  0.11546025259E+03  0.88981389037E+02 0.  0.
         25    2    1    2    0    0  0.25761463448E+03 -0.14411701188E+03  0.82761625889E+03  0.88754173715E+03  0.12508657083E+03 0.  0.
         24    2    1    2    0    0 -0.23766067219E+03  0.80772265832E+02  0.15582935568E+04  0.15804516643E+04  0.80882011739E+02 0.  0.
        -13    1    5    5    0    0  0.49220539778E+01 -0.13401439243E+01  0.78065780666E+02  0.78232274108E+02  0.00000000000E+00 0.  1.
         14    1    5    5    0    0 -0.24258272617E+03  0.82112409756E+02  0.14802277762E+04  0.15022193902E+04  0.00000000000E+00 0. -1.
         11    1    3    3    0    0 -0.27951739297E+02 -0.98378743301E+01  0.94955000348E+01  0.31116683981E+02  0.00000000000E+00 0. -1.
        -12    1    3    3    0    0  0.79977770118E+01  0.73182620381E+02 -0.41160383901E+02  0.84343568610E+02  0.00000000000E+00 0.  1.
          5    1    4    4  501    0  0.14702229593E+02  0.20438304206E+02  0.94412875367E+02  0.97801550442E+02  0.41800000000E+01 0.  1.
         -5    1    4    4    0  501  0.24291240488E+03 -0.16455531609E+03  0.73320338352E+03  0.78974018671E+03  0.41800000000E+01 0.  1.
</event>
<event>
11    1  0.8328696E-009  0.1516025E+03  0.7561462E-02  0.1095253E+00
         22   -1    0    0    0    0  0.00000000000E+00  0.00000000000E+00  0.24453032677E+03  0.24453032677E+03  0.00000000000E+00 0. -1.
         22   -1    0    0    0    0 -0.00000000000E+00 -0.00000000000E+00 -0.11062733097E+04  0.11062733097E+04  0.00000000000E+00 0. -1.
         24    2    1    2    0    0 -0.56178666760E+01  0.88187121624E+02 -0.10090156952E+04  0.10161699650E+04  0.81732464722E+02 0.  0.
         25    2    1    2    0    0 -0.50914279382E+02 -0.38475763454E+02 -0.11784671521E+02  0.14094044176E+03  0.12511067669E+03 0.  0.
        -24    2    1    2    0    0  0.56532146058E+02 -0.49711358170E+02  0.15905738380E+03  0.19369322968E+03  0.80936476425E+02 0.  0.
        -13    1    3    3    0    0  0.22380172206E+01 -0.10779687886E+02 -0.27140853150E+02  0.29288842615E+02  0.00000000000E+00 0.  1.
         14    1    3    3    0    0 -0.78558838965E+01  0.98966809511E+02 -0.98187484205E+03  0.98688112240E+03  0.00000000000E+00 0. -1.
         13    1    5    5    0    0  0.11330122704E+02 -0.47955368444E+02  0.13220040817E+03  0.14108521171E+03  0.00000000000E+00 0. -1.
        -14    1    5    5    0    0  0.45202023354E+02 -0.17559897262E+01  0.26856975625E+02  0.52608017972E+02  0.00000000000E+00 0.  1.
          5    1    4    4  501    0 -0.34679323811E+02 -0.42559586186E+02 -0.64890824976E+02  0.85101500823E+02  0.41800000000E+01 0. -1.
         -5    1    4    4    0  501 -0.16234955571E+02  0.40838227318E+01  0.53106153455E+02  0.55838940940E+02  0.41800000000E+01 0. -1.
</event>
<event>
11    1  0.8328696E-009  0.2207749E+03  0.7561462E-02  0.1040733E+00
         22   -1    0    0    0    0  0.00000000000E+00  0.00000000000E+00  0.15753632860E+03  0.15753632860E+03  0.00000000000E+00 0.  1.
         22   -1    0    0    0    0 -0.00000000000E+00 -0.00000000000E+00 -0.14824891260E+04  0.14824891260E+04  0.00000000000E+00 0.  1.
        -24    2    1    2    0    0  0.54935802111E+02  0.79485586406E+02 -0.10882400222E+04  0.10954283890E+04  0.79756558863E+02 0.  0.
         25    2    1    2    0    0 -0.19753630362E+03 -0.15484723581E+03 -0.23206603009E+03  0.36400609963E+03  0.12509012975E+03 0.  0.
         24    2    1    2    0    0  0.14260050151E+03  0.75361649403E+02 -0.46467450994E+01  0.18059096598E+03  0.81100083367E+02 0.  0.
        -11    1    5    5    0    0  0.13819219300E+03  0.63182866567E+02 -0.27407402000E+02  0.15440311693E+03  0.00000000000E+00 0.  1.
         12    1    5    5    0    0  0.44083085107E+01  0.12178782836E+02  0.22760656901E+02  0.26187849050E+02  0.00000000000E+00 0. -1.
         13    1    3    3    0    0  0.99352472924E+01  0.79546790898E+02 -0.67346823583E+03  0.67822257833E+03  0.00000000000E+00 0. -1.
        -14    1    3    3    0    0  0.45000554819E+02 -0.61204492467E-01 -0.41477178633E+03  0.41720581062E+03  0.00000000000E+00 0.  1.
          5    1    4    4  501    0 -0.58621304112E+02 -0.20535540478E+02 -0.33574263529E+00  0.62255528603E+02  0.41800000000E+01 0.  1.
         -5    1    4    4    0  501 -0.13891499951E+03 -0.13431169533E+03 -0.23173028746E+03  0.30175057103E+03  0.41800000000E+01 0.  1.
</event>
<event>
11    1  0.8328696E-009  0.2381271E+03  0.7561462E-02  0.1030421E+00
         22   -1    0    0    0    0  0.00000000000E+00  0.00000000000E+00  0.19792515321E+04  0.19792515321E+04  0.00000000000E+00 0.  1.
         22   -1    0    0    0    0 -0.00000000000E+00 -0.00000000000E+00 -0.43374755882E+03  0.43374755882E+03  0.00000000000E+00 0. -1.
        -24    2    1    2    0    0  0.10155606916E+02 -0.20469402850E+03 -0.38136282497E+03  0.43954226538E+03  0.75875009919E+02 0.  0.
         25    2    1    2    0    0 -0.35251834764E+02  0.16160897180E+03  0.47198500192E+03  0.51553567665E+03  0.12508812992E+03 0.  0.
         24    2    1    2    0    0  0.25096227848E+02  0.43085056701E+02  0.14548817964E+04  0.14579211489E+04  0.79792808585E+02 0.  0.
        -11    1    5    5    0    0  0.27361882376E+02  0.46711676433E+02  0.14513932447E+04  0.14524024939E+04  0.00000000000E+00 0.  1.
         12    1    5    5    0    0 -0.22656545274E+01 -0.36266197322E+01  0.34885516327E+01  0.55186550548E+01  0.00000000000E+00 0. -1.
         13    1    3    3    0    0  0.26084722590E+02 -0.19513899364E+03 -0.32275638612E+03  0.37806259320E+03  0.00000000000E+00 0. -1.
        -14    1    3    3    0    0 -0.15929115673E+02 -0.95550348590E+01 -0.58606438845E+02  0.61479672180E+02  0.00000000000E+00 0.  1.
          5    1    4    4  501    0 -0.35821607544E+02  0.51369391572E+02  0.32902701902E+03  0.33496007763E+03  0.41800000000E+01 0. -1.
         -5    1    4    4    0  501  0.56977277960E+00  0.11023958023E+03  0.14295798290E+03  0.18057559903E+03  0.41800000000E+01 0. -1.
</event>
<event>
11    1  0.8328696E-009  0.1562959E+03  0.7561462E-02  0.1090614E+00
         22   -1    0    0    0    0  0.00000000000E+00  0.00000000000E+00  0.19075108008E+03  0.19075108008E+03  0.00000000000E+00 0.  1.
         22   -1    0    0    0    0 -0.00000000000E+00 -0.00000000000E+00 -0.86109920555E+03  0.86109920555E+03  0.00000000000E+00 0. -1.
        -24    2    1    2    0    0  0.74066774485E+01 -0.39579235336E+02 -0.70238287465E+03  0.70799103554E+03  0.79298354742E+02 0.  0.
         25    2    1    2    0    0 -0.70824164252E+02 -0.34723397823E+02 -0.89249415573E+02  0.17269086338E+03  0.12503959180E+03 0.  0.
         24    2    1    2    0    0  0.63417486804E+02  0.74302633160E+02  0.12128416474E+03  0.17116838671E+03  0.71035970215E+02 0.  0.
        -11    1    5    5    0    0  0.64910871198E+01  0.37058451887E+02  0.87432759166E+02  0.95183771956E+02  0.00000000000E+00 0.  1.
         12    1    5    5    0    0  0.56926399684E+02  0.37244181273E+02  0.33851405574E+02  0.75984614752E+02  0.00000000000E+00 0. -1.
         13    1    3    3    0    0 -0.17361733378E+02 -0.55178535582E+02 -0.52917215031E+03  0.53232439850E+03  0.00000000000E+00 0. -1.
        -14    1    3    3    0    0  0.24768410826E+02  0.15599300245E+02 -0.17321072434E+03  0.17566663704E+03  0.00000000000E+00 0.  1.
          5    1    4    4  501    0 -0.30983479981E+02  0.83867188413E+01 -0.10654426896E+03  0.11135289280E+03  0.41800000000E+01 0. -1.
         -5    1    4    4    0  501 -0.39840684271E+02 -0.43110116665E+02  0.17294853392E+02  0.61337970589E+02  0.41800000000E+01 0. -1.
</event>
<event>
11    1  0.8328696E-009  0.1628215E+03  0.7561462E-02  0.1084453E+00
         22   -1    0    0    0    0  0.00000000000E+00  0.00000000000E+00  0.20362374862E+04  0.20362374862E+04  0.00000000000E+00 0. -1.
         22   -1    0    0    0    0 -0.00000000000E+00 -0.00000000000E+00 -0.79051801142E+03  0.79051801142E+03  0.00000000000E+00 0.  1.
         24    2    1    2    0    0 -0.50282736206E+02 -0.57448611050E+02 -0.76487925699E+03  0.77287483868E+03  0.80414812162E+02 0.  0.
         25    2    1    2    0    0  0.46304612283E+02  0.15407097898E+03  0.53379852325E+03  0.57137570675E+03  0.12508937270E+03 0.  0.
        -24    2    1    2    0    0  0.39781239232E+01 -0.96622367928E+02  0.14768002085E+04  0.14825049522E+04  0.86777704087E+02 0.  0.
        -11    1    3    3    0    0 -0.66772677083E+02 -0.64545886629E+02 -0.65020189977E+03  0.65680078589E+03  0.00000000000E+00 0.  1.
         12    1    3    3    0    0  0.16489940877E+02  0.70972755788E+01 -0.11467735722E+03  0.11607405279E+03  0.00000000000E+00 0. -1.
         13    1    5    5    0    0 -0.18331821929E+02 -0.52838928432E+02  0.12050765062E+04  0.12063736543E+04  0.00000000000E+00 0. -1.
        -14    1    5    5    0    0  0.22309945852E+02 -0.43783439495E+02  0.27172370232E+03  0.27613129787E+03  0.00000000000E+00 0.  1.
          5    1    4    4  501    0  0.48642739993E+02  0.16535123715E+03  0.53168522947E+03  0.55893989250E+03  0.41800000000E+01 0. -1.
         -5    1    4    4    0  501 -0.23381277105E+01 -0.11280258174E+02  0.21132937758E+01  0.12435814258E+02  0.41800000000E+01 0. -1.
</event>
<event>
11    1  0.8328696E-009  0.1371791E+03  0.7561462E-02  0.1110750E+00
         22   -1    0    0    0    0  0.00000000000E+00  0.00000000000E+00  0.11733848240E+03  0.11733848240E+03  0.00000000000E+00 0.  1.
         22   -1    0    0    0    0 -0.00000000000E+00 -0.00000000000E+00 -0.55877796383E+03  0.55877796383E+03  0.00000000000E+00 0.  1.
         24    2    1    2    0    0  0.44647022328E+02  0.46070699206E+02 -0.23875108661E+03  0.25920696239E+03  0.77912143234E+02 0.  0.
         25    2    1    2    0    0 -0.36992311352E+02 -0.25979789784E+02 -0.27619840793E+03  0.30655613370E+03  0.12509085493E+03 0.  0.
        -24    2    1    2    0    0 -0.76547109757E+01 -0.20090909421E+02  0.73510013114E+02  0.11035335014E+03  0.79447470809E+02 0.  0.
        -11    1    3    3    0    0 -0.21743618708E+02  0.20028316199E+02 -0.66345438576E+02  0.72633570917E+02  0.00000000000E+00 0.  1.
         12    1    3    3    0    0  0.66390641036E+02  0.26042383007E+02 -0.17240564804E+03  0.18657339147E+03  0.00000000000E+00 0. -1.
         13    1    5    5    0    0 -0.39231114224E+02  0.43555124652E+01  0.51072011825E+02  0.64547666138E+02  0.00000000000E+00 0. -1.
        -14    1    5    5    0    0  0.31576403248E+02 -0.24446421886E+02  0.22438001290E+02  0.45805684003E+02  0.00000000000E+00 0.  1.
          5    1    4    4  501    0  0.32770699360E+02  0.24594961342E+02 -0.13448164517E+03  0.14064713345E+03  0.41800000000E+01 0. -1.
         -5    1    4    4    0  501 -0.69763010713E+02 -0.50574751127E+02 -0.14171676276E+03  0.16590900025E+03  0.41800000000E+01 0. -1.
</event>
<event>
11    1  0.9050509E-009  0.1490570E+03  0.7561462E-02  0.1097846E+00
         22   -1    0    0    0    0  0.00000000000E+00  0.00000000000E+00  0.11058922284E+04  0.11058922284E+04  0.00000000000E+00 0. -1.
         22   -1    0    0    0    0 -0.00000000000E+00 -0.00000000000E+00 -0.59755937657E+03  0.59755937657E+03  0.00000000000E+00 0.  1.
         24    2    1    2    0    0  0.22318664177E+02  0.64232066488E+02 -0.48192907796E+03  0.49347639721E+03  0.81482742255E+02 0.  0.
         25    2    1    2    0    0 -0.69590143000E+02 -0.12780028831E+03 -0.20504826163E+02  0.19298684754E+03  0.12509106175E+03 0.  0.
        -24    2    1    2    0    0  0.47271478824E+02  0.63568221827E+02  0.10107667560E+04  0.10169883602E+04  0.79626492673E+02 0.  0.
        -11    1    3    3    0    0  0.12288698195E+02  0.17030255545E+02 -0.38127230329E+03  0.38185024678E+03  0.00000000000E+00 0.  1.
         12    1    3    3    0    0  0.10029965981E+02  0.47201810943E+02 -0.10065677467E+03  0.11162615044E+03  0.00000000000E+00 0. -1.
         11    1    5    5    0    0  0.53611814132E+02  0.77862406315E+02  0.92404188872E+03  0.92886500260E+03  0.00000000000E+00 0. -1.
        -12    1    5    5    0    0 -0.63403353083E+01 -0.14294184488E+02  0.86724867233E+02  0.88123357622E+02  0.00000000000E+00 0.  1.
          5    1    4    4  501    0 -0.92570433013E+02 -0.96608244872E+02 -0.51260240956E+02  0.14334407120E+03  0.41800000000E+01 0. -1.
         -5    1    4    4    0  501  0.22980290012E+02 -0.31192043442E+02  0.30755414792E+02  0.49642776335E+02  0.41800000000E+01 0. -1.
</event>
<event>
11    1  0.8328696E-009  0.1668485E+03  0.7561462E-02  0.1080807E+00
         22   -1    0    0    0    0  0.00000000000E+00  0.00000000000E+00  0.49029817225E+03  0.49029817225E+03  0.00000000000E+00 0.  1.
         22   -1    0    0    0    0 -0.00000000000E+00 -0.00000000000E+00 -0.13320722756E+04  0.13320722756E+04  0.00000000000E+00 0.  1.
        -24    2    1    2    0    0 -0.11076496755E+02  0.31436882699E+02 -0.59770163378E+03  0.60403379558E+03  0.80613998807E+02 0.  0.
         25    2    1    2    0    0 -0.56995848043E+02  0.56036590668E+02 -0.71371684639E+03  0.72899077153E+03  0.12508869641E+03 0.  0.
         24    2    1    2    0    0  0.68072344798E+02 -0.87473473367E+02  0.46964437683E+03  0.48934588072E+03  0.81290206182E+02 0.  0.
        -11    1    5    5    0    0  0.24562281090E+02 -0.68895099276E+02  0.15772740536E+03  0.17386136649E+03  0.00000000000E+00 0.  1.
         12    1    5    5    0    0  0.43510063707E+02 -0.18578374091E+02  0.31191697147E+03  0.31548451423E+03  0.00000000000E+00 0. -1.
         11    1    3    3    0    0  0.14896488718E+02  0.43228288619E+02 -0.19357110317E+03  0.19889786901E+03  0.00000000000E+00 0. -1.
        -12    1    3    3    0    0 -0.25972985473E+02 -0.11791405920E+02 -0.40413053061E+03  0.40513592657E+03  0.00000000000E+00 0.  1.
          5    1    4    4  501    0 -0.53483713174E+02 -0.30002521179E+02 -0.26121452395E+03  0.26834894965E+03  0.41800000000E+01 0.  1.
         -5    1    4    4    0  501 -0.35121348688E+01  0.86039111847E+02 -0.45250232244E+03  0.46064182188E+03  0.41800000000E+01 0.  1.
</event>
<event>
11    1  0.8328696E-009  0.1539885E+03  0.7561462E-02  0.1092872E+00
         22   -1    0    0    0    0  0.00000000000E+00  0.00000000000E+00  0.31221529388E+03  0.31221529388E+03  0.00000000000E+00 0. -1.
         22   -1    0    0    0    0 -0.00000000000E+00 -0.00000000000E+00 -0.18948977435E+04  0.18948977435E+04  0.00000000000E+00 0. -1.
         24    2    1    2    0    0 -0.27461144382E+02  0.31330851948E+02 -0.18300160177E+04  0.18322128294E+04  0.79432300485E+02 0.  0.
         25    2    1    2    0    0 -0.51257041948E+02 -0.77716424385E+02  0.10555108214E+03  0.18829750165E+03  0.12509113165E+03 0.  0.
        -24    2    1    2    0    0  0.78718186330E+02  0.46385572437E+02  0.14178248596E+03  0.18660270633E+03  0.79813047146E+02 0.  0.
        -11    1    3    3    0    0 -0.37421573985E+02  0.48396109054E+02 -0.94601207375E+03  0.94798808075E+03  0.00000000000E+00 0.  1.
         12    1    3    3    0    0  0.99604296033E+01 -0.17065257105E+02 -0.88400394400E+03  0.88422474867E+03  0.00000000000E+00 0. -1.
         11    1    5    5    0    0  0.41637696954E+02  0.62365690974E+02  0.11779289954E+03  0.13963647232E+03  0.00000000000E+00 0. -1.
        -12    1    5    5    0    0  0.37080489376E+02 -0.15980118537E+02  0.23989586418E+02  0.46966234012E+02  0.00000000000E+00 0.  1.
          5    1    4    4  501    0 -0.43298786897E+02  0.21043357226E+01  0.98457580460E+02  0.10765955938E+03  0.41800000000E+01 0. -1.
         -5    1    4    4    0  501 -0.79582550504E+01 -0.79820760108E+02  0.70935016787E+01  0.80637942271E+02  0.41800000000E+01 0. -1.
</event>
<event>
11    1  0.8328696E-009  0.1401410E+03  0.7561462E-02  0.1107401E+00
         22   -1    0    0    0    0  0.00000000000E+00  0.00000000000E+00  0.20798930827E+04  0.20798930827E+04  0.00000000000E+00 0.  1.
         22   -1    0    0    0    0 -0.00000000000E+00 -0.00000000000E+00 -0.27208351143E+03  0.27208351143E+03  0.00000000000E+00 0. -1.
         24    2    1    2    0    0 -0.62710651936E+02 -0.23380175817E+01 -0.23051376619E+03  0.25235652849E+03  0.81296548974E+02 0.  0.
         25    2    1    2    0    0  0.72317015221E+02 -0.49005829234E+02  0.16835269834E+03  0.22719461480E+03  0.12507373811E+03 0.  0.
        -24    2    1    2    0    0 -0.96063632853E+01  0.51343846815E+02  0.18699706391E+04  0.18724254508E+04  0.80364202153E+02 0.  0.
        -13    1    3    3    0    0  0.90081473838E+01 -0.25710472184E+02 -0.63679184414E+02  0.69261920467E+02  0.00000000000E+00 0.  1.
         14    1    3    3    0    0 -0.71718799320E+02  0.23372454602E+02 -0.16683458178E+03  0.18309460802E+03  0.00000000000E+00 0. -1.
         13    1    5    5    0    0  0.25967082217E+02 -0.11243759215E+01  0.28352859689E+03  0.28471743682E+03  0.00000000000E+00 0. -1.
        -14    1    5    5    0    0 -0.35573445503E+02  0.52468222737E+02  0.15864420422E+04  0.15877080140E+04  0.00000000000E+00 0.  1.
          5    1    4    4  501    0  0.77265728755E+02 -0.84819060986E+02  0.14001559453E+03  0.18106933771E+03  0.41800000000E+01 0. -1.
         -5    1    4    4    0  501 -0.49487135342E+01  0.35813231752E+02  0.28337103809E+02  0.46125277088E+02  0.41800000000E+01 0. -1.
</event>
<event>
11    1  0.8328696E-009  0.1648633E+03  0.7561462E-02  0.1082590E+00
         22   -1    0    0    0    0  0.00000000000E+00  0.00000000000E+00  0.83604805998E+03  0.83604805998E+03  0.00000000000E+00 0.  1.
         22   -1    0    0    0    0 -0.00000000000E+00 -0.00000000000E+00 -0.27528185435E+03  0.27528185435E+03  0.00000000000E+00 0. -1.
        -24    2    1    2    0    0  0.78630227087E+02  0.67850236292E+02 -0.19778219728E+03  0.23720606915E+03  0.79765622330E+02 0.  0.
         25    2    1    2    0    0 -0.78367681921E+02 -0.11741234883E+03  0.10923779785E+03  0.21795966523E+03  0.12508543465E+03 0.  0.
         24    2    1    2    0    0 -0.26254516631E+00  0.49562112535E+02  0.64931060506E+03  0.65616417993E+03  0.80564863697E+02 0.  0.
        -11    1    5    5    0    0 -0.71304496770E+01  0.21392294307E+02  0.58705206934E+03  0.58748498337E+03  0.00000000000E+00 0.  1.
         12    1    5    5    0    0  0.68679045107E+01  0.28169818227E+02  0.62258535714E+02  0.68679196563E+02  0.00000000000E+00 0. -1.
         13    1    3    3    0    0  0.41303482582E+02  0.77535616904E+02 -0.16350407306E+03  0.18561069869E+03  0.00000000000E+00 0. -1.
        -14    1    3    3    0    0  0.37326744505E+02 -0.96853806126E+01 -0.34278124224E+02  0.51595370464E+02  0.00000000000E+00 0.  1.
          5    1    4    4  501    0 -0.37399900253E+02 -0.12775030364E+03  0.44260061471E+02  0.14034000877E+03  0.41800000000E+01 0. -1.
         -5    1    4    4    0  501 -0.40967781668E+02  0.10337954816E+02  0.64977736382E+02  0.77619656466E+02  0.41800000000E+01 0. -1.
</event>
<event>
11    1  0.8328696E-009  0.1399512E+03  0.7561462E-02  0.1107613E+00
         22   -1    0    0    0    0  0.00000000000E+00  0.00000000000E+00  0.10212008193E+04  0.10212008193E+04  0.00000000000E+00 0.  1.
         22   -1    0    0    0    0 -0.00000000000E+00 -0.00000000000E+00 -0.16205261307E+04  0.16205261307E+04  0.00000000000E+00 0.  1.
        -24    2    1    2    0    0  0.43233985884E+02 -0.10632269073E+02 -0.15779079288E+04  0.15805919522E+04  0.80593204862E+02 0.  0.
         25    2    1    2    0    0 -0.27768564240E+02 -0.51640063347E+02  0.86074383517E+02  0.16277190043E+03  0.12509237694E+03 0.  0.
         24    2    1    2    0    0 -0.15465421644E+02  0.62272332420E+02  0.89250823395E+03  0.89836309735E+03  0.79801531052E+02 0.  0.
        -11    1    5    5    0    0 -0.50522174082E+01  0.65451007422E+02  0.87678060186E+03  0.87923465757E+03  0.00000000000E+00 0.  1.
         12    1    5    5    0    0 -0.10413204236E+02 -0.31786750018E+01  0.15727632087E+02  0.19128439777E+02  0.00000000000E+00 0. -1.
         13    1    3    3    0    0 -0.78918529107E+01  0.16475042960E+01 -0.17169195747E+02  0.18967785727E+02  0.00000000000E+00 0. -1.
        -14    1    3    3    0    0  0.51125838795E+02 -0.12279773369E+02 -0.15607387331E+04  0.15616241664E+04  0.00000000000E+00 0.  1.
          5    1    4    4  501    0 -0.67363831235E+02 -0.51733300394E+02  0.88687903622E+02  0.12287081337E+03  0.41800000000E+01 0. -1.
         -5    1    4    4    0  501  0.39595266995E+02  0.93237047334E-01 -0.26135201056E+01  0.39901087064E+02  0.41800000000E+01 0. -1.
</event>
<event>
11    1  0.8328696E-009  0.2602876E+03  0.7561462E-02  0.1018557E+00
         22   -1    0    0    0    0  0.00000000000E+00  0.00000000000E+00  0.67508400210E+03  0.67508400210E+03  0.00000000000E+00 0. -1.
         22   -1    0    0    0    0 -0.00000000000E+00 -0.00000000000E+00 -0.26825465515E+04  0.26825465515E+04  0.00000000000E+00 0. -1.
         24    2    1    2    0    0  0.20519958842E+03  0.10314703401E+03 -0.25912580542E+04  0.26026398425E+04  0.79810178295E+02 0.  0.
         25    2    1    2    0    0 -0.10726412884E+03 -0.18056522253E+03  0.12871106189E+03  0.27627860529E+03  0.12511569592E+03 0.  0.
        -24    2    1    2    0    0 -0.97935459577E+02  0.77418188520E+02  0.45508444296E+03  0.47871210577E+03  0.80489128679E+02 0.  0.
        -11    1    3    3    0    0  0.12900013414E+03  0.37028217773E+02 -0.11385402089E+04  0.11464231028E+04  0.00000000000E+00 0.  1.
         12    1    3    3    0    0  0.76199454277E+02  0.66118816237E+02 -0.14527178453E+04  0.14562167396E+04  0.00000000000E+00 0. -1.
         13    1    5    5    0    0  0.70714198730E+01  0.33996413494E+02  0.96751299958E+02  0.10279384784E+03  0.00000000000E+00 0. -1.
        -14    1    5    5    0    0 -0.10500687945E+03  0.43421775026E+02  0.35833314300E+03  0.37591825794E+03  0.00000000000E+00 0.  1.
          5    1    4    4  501    0 -0.71972059639E+02 -0.91575922709E+02  0.13726981066E+03  0.18007387458E+03  0.41800000000E+01 0. -1.
         -5    1    4    4    0  501 -0.35292069201E+02 -0.88989299820E+02 -0.85587487615E+01  0.96204730712E+02  0.41800000000E+01 0. -1.
</event>
<event>
11    1  0.8328696E-009  0.1332443E+03  0.7561462E-02  0.1115346E+00
         22   -1    0    0    0    0  0.00000000000E+00  0.00000000000E+00  0.30903645728E+03  0.30903645728E+03  0.00000000000E+00 0. -1.
         22   -1    0    0    0    0 -0.00000000000E+00 -0.00000000000E+00 -0.68037355795E+03  0.68037355795E+03  0.00000000000E+00 0.  1.
        -24    2    1    2    0    0 -0.44098798047E+02 -0.35775479634E+02 -0.44913968582E+03  0.45986360880E+03  0.80768139703E+02 0.  0.
         25    2    1    2    0    0 -0.28683126661E+01  0.16530580418E+02 -0.19913049902E+03  0.23575786386E+03  0.12508927782E+03 0.  0.
         24    2    1    2    0    0  0.46967110713E+02  0.19244899215E+02  0.27693308418E+03  0.29378854257E+03  0.83925556289E+02 0.  0.
        -11    1    5    5    0    0 -0.18512005872E+02  0.26155397972E+02  0.82176209264E+02  0.88202769647E+02  0.00000000000E+00 0.  1.
         12    1    5    5    0    0  0.65479116585E+02 -0.69104987565E+01  0.19475687491E+03  0.20558577292E+03  0.00000000000E+00 0. -1.
         13    1    3    3    0    0  0.19546516462E+02 -0.28637029408E+02 -0.16172549581E+03  0.16540036806E+03  0.00000000000E+00 0. -1.
        -14    1    3    3    0    0 -0.63645314509E+02 -0.71384502253E+01 -0.28741419001E+03  0.29446324075E+03  0.00000000000E+00 0.  1.
          5    1    4    4  501    0  0.13128017128E+02  0.30704777876E+02 -0.20911127948E+03  0.21180209589E+03  0.41800000000E+01 0. -1.
         -5    1    4    4    0  501 -0.15996329794E+02 -0.14174197458E+02  0.99807804567E+01  0.23955767969E+02  0.41800000000E+01 0. -1.
</event>
<event>
11    1  0.8328696E-009  0.1505802E+03  0.7561462E-02  0.1096287E+00
         22   -1    0    0    0    0  0.00000000000E+00  0.00000000000E+00  0.11094154159E+03  0.11094154159E+03  0.00000000000E+00 0. -1.
         22   -1    0    0    0    0 -0.00000000000E+00 -0.00000000000E+00 -0.56361535140E+03  0.56361535140E+03  0.00000000000E+00 0. -1.
         24    2    1    2    0    0 -0.19732337477E+02 -0.85905754959E+02 -0.43134323702E+03  0.44726791125E+03  0.78882396178E+02 0.  0.
         25    2    1    2    0    0  0.60322269268E+01  0.53040185033E+02 -0.24930772423E+02  0.13827297574E+03  0.12509285918E+03 0.  0.
        -24    2    1    2    0    0  0.13700110551E+02  0.32865569926E+02  0.36001996334E+01  0.89016006003E+02  0.81504902746E+02 0.  0.
        -13    1    3    3    0    0  0.15474807358E+01  0.10466057939E+02 -0.10132248929E+02  0.14649079622E+02  0.00000000000E+00 0.  1.
         14    1    3    3    0    0 -0.21279818213E+02 -0.96371812898E+02 -0.42121098809E+03  0.43261883162E+03  0.00000000000E+00 0. -1.
         13    1    5    5    0    0  0.19596619065E+02  0.58809389490E+02  0.61284545284E+01  0.62290687313E+02  0.00000000000E+00 0. -1.
        -14    1    5    5    0    0 -0.58965085149E+01 -0.25943819565E+02 -0.25282548950E+01  0.26725318690E+02  0.00000000000E+00 0.  1.
          5    1    4    4  501    0  0.61964717361E+02  0.25376195959E+02  0.80477403598E+01  0.67570822430E+02  0.41800000000E+01 0.  1.
         -5    1    4    4    0  501 -0.55932490434E+02  0.27663989074E+02 -0.32978512783E+02  0.70702153313E+02  0.41800000000E+01 0.  1.
</event>
<event>
11    1  0.8328696E-009  0.2026116E+03  0.7561462E-02  0.1052692E+00
         22   -1    0    0    0    0  0.00000000000E+00  0.00000000000E+00  0.19896934523E+03  0.19896934523E+03  0.00000000000E+00 0.  1.
         22   -1    0    0    0    0 -0.00000000000E+00 -0.00000000000E+00 -0.17500516245E+04  0.17500516245E+04  0.00000000000E+00 0.  1.
        -24    2    1    2    0    0  0.49029479257E+02  0.14839983268E+03 -0.12246791874E+04  0.12373043709E+04  0.81587952977E+02 0.  0.
         25    2    1    2    0    0 -0.10181871921E+03 -0.14437021926E+03 -0.48214699996E+03  0.52850752211E+03  0.12507861352E+03 0.  0.
         24    2    1    2    0    0  0.52789239953E+02 -0.40296134221E+01  0.15574390814E+03  0.18320907666E+03  0.80662625844E+02 0.  0.
        -13    1    5    5    0    0  0.57112175627E+02 -0.22138876106E+02  0.15245874684E+03  0.16430337771E+03  0.00000000000E+00 0.  1.
         14    1    5    5    0    0 -0.43229356739E+01  0.18109262684E+02  0.32851612994E+01  0.18905698944E+02  0.00000000000E+00 0. -1.
         13    1    3    3    0    0  0.30766599852E+02  0.26242265850E+02 -0.14337358888E+03  0.14896719830E+03  0.00000000000E+00 0. -1.
        -14    1    3    3    0    0  0.18262879405E+02  0.12215756683E+03 -0.10813055985E+04  0.10883371726E+04  0.00000000000E+00 0.  1.
          5    1    4    4  501    0 -0.77498902993E+01 -0.72502599745E+02 -0.75855788386E+02  0.10530081102E+03  0.41800000000E+01 0.  1.
         -5    1    4    4    0  501 -0.94068828911E+02 -0.71867619516E+02 -0.40629121157E+03  0.42320671109E+03  0.41800000000E+01 0.  1.
</event>
<event>
11    1  0.8328696E-009  0.2702050E+03  0.7561462E-02  0.1013654E+00
         22   -1    0    0    0    0  0.00000000000E+00  0.00000000000E+00  0.45352693099E+03  0.45352693099E+03  0.00000000000E+00 0. -1.
         22   -1    0    0    0    0 -0.00000000000E+00 -0.00000000000E+00 -0.10379583584E+04  0.10379583584E+04  0.00000000000E+00 0. -1.
         24    2    1    2    0    0 -0.11769269566E+03  0.30625649091E+01 -0.39470377896E+03  0.42098488585E+03  0.87041662866E+02 0.  0.
         25    2    1    2    0    0  0.32969947240E+03 -0.99122869136E+02 -0.53422297012E+03  0.64774099242E+03  0.12508847339E+03 0.  0.
        -24    2    1    2    0    0 -0.21200677675E+03  0.96060304227E+02  0.34449532164E+03  0.42275941114E+03  0.76642270609E+02 0.  0.
        -13    1    3    3    0    0 -0.40349928890E+02  0.43218627234E+02 -0.16871375298E+03  0.17877443035E+03  0.00000000000E+00 0.  1.
         14    1    3    3    0    0 -0.77342766769E+02 -0.40156062325E+02 -0.22599002598E+03  0.24221045550E+03  0.00000000000E+00 0. -1.
         11    1    5    5    0    0 -0.18544053342E+03  0.66330418825E+02  0.32064743265E+03  0.37630133133E+03  0.00000000000E+00 0. -1.
        -12    1    5    5    0    0 -0.26566243329E+02  0.29729885402E+02  0.23847888988E+02  0.46458079812E+02  0.00000000000E+00 0.  1.
          5    1    4    4  501    0  0.36015852679E+02 -0.30646678435E+02 -0.19818122233E+02  0.51445028061E+02  0.41800000000E+01 0. -1.
         -5    1    4    4    0  501  0.29368361972E+03 -0.68476190701E+02 -0.51440484789E+03  0.59629596436E+03  0.41800000000E+01 0. -1.
</event>
<event>
11    1  0.8328696E-009  0.1314818E+03  0.7561462E-02  0.1117462E+00
         22   -1    0    0    0    0  0.00000000000E+00  0.00000000000E+00  0.66345946000E+03  0.66345946000E+03  0.00000000000E+00 0.  1.
         22   -1    0    0    0    0 -0.00000000000E+00 -0.00000000000E+00 -0.24490209873E+03  0.24490209873E+03  0.00000000000E+00 0. -1.
        -24    2    1    2    0    0 -0.76175814702E+02  0.61419976512E+01 -0.18017658593E+03  0.21106656348E+03  0.79025396066E+02 0.  0.
         25    2    1    2    0    0  0.53392644011E+02 -0.43582764169E+02  0.74818317809E+02  0.16123561381E+03  0.12509560629E+03 0.  0.
         24    2    1    2    0    0  0.22783170691E+02  0.37440766518E+02  0.52391562939E+03  0.53605938144E+03  0.10464793286E+03 0.  0.
        -13    1    5    5    0    0  0.15179702075E+02  0.74212953551E+02  0.36324997195E+03  0.37106404831E+03  0.00000000000E+00 0.  1.
         14    1    5    5    0    0  0.76034686164E+01 -0.36772187034E+02  0.16066565744E+03  0.16499533313E+03  0.00000000000E+00 0. -1.
         13    1    3    3    0    0 -0.40813648388E+02 -0.35939927861E+02 -0.78741398254E+02  0.95695559502E+02  0.00000000000E+00 0. -1.
        -14    1    3    3    0    0 -0.35362166313E+02  0.42081925512E+02 -0.10143518767E+03  0.11537100398E+03  0.00000000000E+00 0.  1.
          5    1    4    4  501    0 -0.41020218520E+01 -0.33776673134E+02 -0.27123805841E+02  0.43713424421E+02  0.41800000000E+01 0. -1.
         -5    1    4    4    0  501  0.57494665863E+02 -0.98060910347E+01  0.10194212365E+03  0.11752218939E+03  0.41800000000E+01 0. -1.
</event>
<event>
11    1  0.8328696E-009  0.1470467E+03  0.7561462E-02  0.1099935E+00
         22   -1    0    0    0    0  0.00000000000E+00  0.00000000000E+00  0.14522128617E+04  0.14522128617E+04  0.00000000000E+00 0.  1.
         22   -1    0    0    0    0 -0.00000000000E+00 -0.00000000000E+00 -0.19111862178E+04  0.19111862178E+04  0.00000000000E+00 0. -1.
        -24    2    1    2    0    0 -0.21938262190E+02 -0.72906142274E+02 -0.11137435202E+04  0.11191960674E+04  0.79866235648E+02 0.  0.
         25    2    1    2    0    0  0.66331021066E+02  0.60200907269E+02 -0.78586787947E+03  0.80078723307E+03  0.12509162671E+03 0.  0.
         24    2    1    2    0    0 -0.44392758876E+02  0.12705235004E+02  0.14406380435E+04  0.14434157790E+04  0.76674628007E+02 0.  0.
        -13    1    5    5    0    0 -0.24179321927E+02 -0.11149190029E+02  0.12458313253E+04  0.12461158193E+04  0.00000000000E+00 0.  1.
         14    1    5    5    0    0 -0.20213436948E+02  0.23854425033E+02  0.19480671829E+03  0.19729995975E+03  0.00000000000E+00 0. -1.
         13    1    3    3    0    0 -0.18781876500E+02 -0.59044487348E+02 -0.10882029949E+04  0.10899654895E+04  0.00000000000E+00 0. -1.
        -14    1    3    3    0    0 -0.31563856902E+01 -0.13861654925E+02 -0.25540525321E+02  0.29230577852E+02  0.00000000000E+00 0.  1.
          5    1    4    4  501    0  0.69654728120E+02  0.61571252790E+02 -0.78898460555E+03  0.79445388822E+03  0.41800000000E+01 0.  1.
         -5    1    4    4    0  501 -0.33237070539E+01 -0.13703455202E+01  0.31167260827E+01  0.63333448429E+01  0.41800000000E+01 0.  1.
</event>
<event>
11    1  0.8328696E-009  0.1334086E+03  0.7561462E-02  0.1115150E+00
         22   -1    0    0    0    0  0.00000000000E+00  0.00000000000E+00  0.66112553448E+03  0.66112553448E+03  0.00000000000E+00 0.  1.
         22   -1    0    0    0    0 -0.00000000000E+00 -0.00000000000E+00 -0.87076078922E+03  0.87076078922E+03  0.00000000000E+00 0. -1.
        -24    2    1    2    0    0 -0.80528364609E+01  0.49219791178E+02 -0.67660239049E+03  0.68319972855E+03  0.80521042310E+02 0.  0.
         25    2    1    2    0    0  0.29352859915E+02 -0.17162778732E+02 -0.16544519551E+03  0.21018013280E+03  0.12508966443E+03 0.  0.
         24    2    1    2    0    0 -0.21300023454E+02 -0.32057012446E+02  0.63241233126E+03  0.63850646235E+03  0.79144189165E+02 0.  0.
        -13    1    5    5    0    0  0.17673750531E+02 -0.56351263729E+01  0.44092361410E+03  0.44131366349E+03  0.00000000000E+00 0.  1.
         14    1    5    5    0    0 -0.38973773985E+02 -0.26421886074E+02  0.19148871716E+03  0.19719279886E+03  0.00000000000E+00 0. -1.
         13    1    3    3    0    0 -0.27952828316E+02  0.62724648556E+02 -0.55583519642E+03  0.56006116427E+03  0.00000000000E+00 0. -1.
        -14    1    3    3    0    0  0.19899991855E+02 -0.13504857377E+02 -0.12076719408E+03  0.12313856428E+03  0.00000000000E+00 0.  1.
          5    1    4    4  501    0 -0.22747551655E+01 -0.27587506676E+02  0.11364061188E+02  0.30213561895E+02  0.41800000000E+01 0.  1.
         -5    1    4    4    0  501  0.31627615080E+02  0.10424727945E+02 -0.17680925670E+03  0.17996657091E+03  0.41800000000E+01 0.  1.
</event>
<event>
11    1  0.8328696E-009  0.1485208E+03  0.7561462E-02  0.1098400E+00
         22   -1    0    0    0    0  0.00000000000E+00  0.00000000000E+00  0.56045359661E+03  0.56045359661E+03  0.00000000000E+00 0. -1.
         22   -1    0    0    0    0 -0.00000000000E+00 -0.00000000000E+00 -0.60983043798E+03  0.60983043798E+03  0.00000000000E+00 0. -1.
         24    2    1    2    0    0 -0.26073130886E+02  0.77544518790E+02 -0.44626182784E+03  0.46116065063E+03  0.82623036461E+02 0.  0.
         25    2    1    2    0    0  0.43694646943E+02 -0.60640354333E+02 -0.11804540192E+03  0.18753323295E+03  0.12509005476E+03 0.  0.
        -24    2    1    2    0    0 -0.17621516057E+02 -0.16904164457E+02  0.51493038840E+03  0.52159015101E+03  0.79414810482E+02 0.  0.
        -13    1    3    3    0    0 -0.12907093611E+02 -0.11337635976E+02 -0.16508111372E+03  0.16597261570E+03  0.00000000000E+00 0.  1.
         14    1    3    3    0    0 -0.13166037275E+02  0.88882154766E+02 -0.28118071412E+03  0.29518803493E+03  0.00000000000E+00 0. -1.
         13    1    5    5    0    0 -0.35546404096E+01 -0.19585012450E+01  0.48654472937E+03  0.48656165578E+03  0.00000000000E+00 0. -1.
        -14    1    5    5    0    0 -0.14066875648E+02 -0.14945663212E+02  0.28385659030E+02  0.35028495227E+02  0.00000000000E+00 0.  1.
          5    1    4    4  501    0 -0.23871473007E+02 -0.60999014129E+02 -0.20433222286E+02  0.68743842788E+02  0.41800000000E+01 0. -1.
         -5    1    4    4    0  501  0.67566119950E+02  0.35865979598E+00 -0.97612179638E+02  0.11878939016E+03  0.41800000000E+01 0. -1.
</event>
<event>
11    1  0.8328696E-009  0.1910105E+03  0.7561462E-02  0.1061069E+00
         22   -1    0    0    0    0  0.00000000000E+00  0.00000000000E+00  0.63252294818E+03  0.63252294818E+03  0.00000000000E+00 0. -1.
         22   -1    0    0    0    0 -0.00000000000E+00 -0.00000000000E+00 -0.15797786051E+04  0.15797786051E+04  0.00000000000E+00 0.  1.
        -24    2    1    2    0    0 -0.62797988073E+01 -0.59388743211E+02 -0.14856929829E+04  0.14889794277E+04  0.78801255786E+02 0.  0.
         25    2    1    2    0    0 -0.10612647528E+03  0.14244255525E+03  0.70378797268E+02  0.22836966079E+03  0.12508723581E+03 0.  0.
         24    2    1    2    0    0  0.11240627409E+03 -0.83053812037E+02  0.46805852881E+03  0.49495246472E+03  0.79787529080E+02 0.  0.
        -13    1    5    5    0    0  0.19599711725E+02 -0.30519720585E+02  0.40825699543E+02  0.54610802846E+02  0.00000000000E+00 0.  1.
         14    1    5    5    0    0  0.92806562365E+02 -0.52534091452E+02  0.42723282927E+03  0.44034166188E+03  0.00000000000E+00 0. -1.
         11    1    3    3    0    0  0.24746960083E+02 -0.39698604492E+02 -0.41020182844E+03  0.41286066813E+03  0.00000000000E+00 0. -1.
        -12    1    3    3    0    0 -0.31026758891E+02 -0.19690138719E+02 -0.10754911545E+04  0.10761187596E+04  0.00000000000E+00 0.  1.
          5    1    4    4  501    0 -0.11837192474E+03  0.66884197832E+02  0.22190228635E+02  0.13782339110E+03  0.41800000000E+01 0.  1.
         -5    1    4    4    0  501  0.12245449459E+02  0.75558357417E+02  0.48188568633E+02  0.90546269691E+02  0.41800000000E+01 0.  1.
</event>
<event>
11    1  0.8328696E-009  0.1375603E+03  0.7561462E-02  0.1110314E+00
         22   -1    0    0    0    0  0.00000000000E+00  0.00000000000E+00  0.21721910052E+03  0.21721910052E+03  0.00000000000E+00 0.  1.
         22   -1    0    0    0    0 -0.00000000000E+00 -0.00000000000E+00 -0.92247345874E+03  0.92247345874E+03  0.00000000000E+00 0. -1.
        -24    2    1    2    0    0  0.24219361001E+02 -0.13516106045E+02 -0.84898102536E+03  0.85325964139E+03  0.80709179344E+02 0.  0.
         25    2    1    2    0    0  0.31842301405E+02 -0.19637394275E+02  0.32572927845E+02  0.13456988139E+03  0.12509395643E+03 0.  0.
         24    2    1    2    0    0 -0.56061662406E+02  0.33153500320E+02  0.11115373929E+03  0.15186303649E+03  0.80406240542E+02 0.  0.
        -13    1    5    5    0    0  0.10066826950E+02 -0.34613871724E+01  0.59181139743E+02  0.60130936358E+02  0.00000000000E+00 0.  1.
         14    1    5    5    0    0 -0.66128489356E+02  0.36614887492E+02  0.51972599543E+02  0.91732100128E+02  0.00000000000E+00 0. -1.
         13    1    3    3    0    0 -0.75054879298E+01 -0.35168197765E+02 -0.62305804847E+03  0.62409491766E+03  0.00000000000E+00 0. -1.
        -14    1    3    3    0    0  0.31724848931E+02  0.21652091719E+02 -0.22592297689E+03  0.22916472373E+03  0.00000000000E+00 0.  1.
          5    1    4    4  501    0 -0.53729805922E+01  0.16978104234E+02 -0.40631186452E+02  0.44558844872E+02  0.41800000000E+01 0. -1.
         -5    1    4    4    0  501  0.37215281998E+02 -0.36615498508E+02  0.73204114297E+02  0.90011036519E+02  0.41800000000E+01 0. -1.
</event>
<event>
11    1  0.8328696E-009  0.1400873E+03  0.7561462E-02  0.1107461E+00
         22   -1    0    0    0    0  0.00000000000E+00  0.00000000000E+00  0.72982950185E+02  0.72982950185E+02  0.00000000000E+00 0.  1.
         22   -1    0    0    0    0 -0.00000000000E+00 -0.00000000000E+00 -0.84637260355E+03  0.84637260355E+03  0.00000000000E+00 0.  1.
        -24    2    1    2    0    0  0.24983668055E+02  0.20985142975E+02 -0.51780343672E+03  0.52550742441E+03  0.83505054576E+02 0.  0.
         25    2    1    2    0    0 -0.25468744989E+02  0.46222586932E+02 -0.23864538616E+03  0.27456129059E+03  0.12508835853E+03 0.  0.
         24    2    1    2    0    0  0.48507693397E+00 -0.67207729906E+02 -0.16940830491E+02  0.11928683874E+03  0.97083695337E+02 0.  0.
        -11    1    5    5    0    0 -0.16033833058E+02 -0.20364529364E+01  0.32187527502E+02  0.36017604998E+02  0.00000000000E+00 0.  1.
         12    1    5    5    0    0  0.16518909992E+02 -0.65171276970E+02 -0.49128357993E+02  0.83269233744E+02  0.00000000000E+00 0. -1.
         13    1    3    3    0    0  0.18389640989E+02 -0.24312490050E+02 -0.85207266193E+02  0.90496156163E+02  0.00000000000E+00 0. -1.
        -14    1    3    3    0    0  0.65940270659E+01  0.45297633025E+02 -0.43259617053E+03  0.43501126825E+03  0.00000000000E+00 0.  1.
          5    1    4    4  501    0 -0.63340927422E+02  0.15232689672E+02 -0.57887502218E+02  0.87249889595E+02  0.41800000000E+01 0.  1.
         -5    1    4    4    0  501  0.37872182432E+02  0.30989897260E+02 -0.18075788394E+03  0.18731140099E+03  0.41800000000E+01 0.  1.
</event>
<event>
11    1  0.8328696E-009  0.1805929E+03  0.7561462E-02  0.1069164E+00
         22   -1    0    0    0    0  0.00000000000E+00  0.00000000000E+00  0.17598911031E+04  0.17598911031E+04  0.00000000000E+00 0. -1.
         22   -1    0    0    0    0 -0.00000000000E+00 -0.00000000000E+00 -0.72310595669E+02  0.72310595669E+02  0.00000000000E+00 0.  1.
         24    2    1    2    0    0 -0.57599226369E+02 -0.11183295833E+03  0.69121141268E+02  0.16424658773E+03  0.79843146004E+02 0.  0.
         25    2    1    2    0    0 -0.23355703890E+02  0.17568306970E+03  0.55256326909E+03  0.59361879787E+03  0.12508829266E+03 0.  0.
        -24    2    1    2    0    0  0.80954930259E+02 -0.63850111372E+02  0.10658960971E+04  0.10743363131E+04  0.86217669716E+02 0.  0.
        -13    1    3    3    0    0 -0.14630446494E+02 -0.89023174318E+02  0.14966965469E+02  0.91450454267E+02  0.00000000000E+00 0.  1.
         14    1    3    3    0    0 -0.42968779875E+02 -0.22809784010E+02  0.54154175799E+02  0.72796133462E+02  0.00000000000E+00 0. -1.
         13    1    5    5    0    0  0.97006756915E+02 -0.66242464052E+02  0.96846357826E+03  0.97556141649E+03  0.00000000000E+00 0. -1.
        -14    1    5    5    0    0 -0.16051826656E+02  0.23923526800E+01  0.97432518796E+02  0.98774896656E+02  0.00000000000E+00 0.  1.
          5    1    4    4  501    0 -0.57590897052E+02  0.17041316498E+03  0.42852867652E+03  0.46477054255E+03  0.41800000000E+01 0.  1.
         -5    1    4    4    0  501  0.34235193163E+02  0.52699047185E+01  0.12403459257E+03  0.12884825533E+03  0.41800000000E+01 0.  1.
</event>
<event>
11    1  0.8328696E-009  0.1376509E+03  0.7561462E-02  0.1110210E+00
         22   -1    0    0    0    0  0.00000000000E+00  0.00000000000E+00  0.10230025722E+04  0.10230025722E+04  0.00000000000E+00 0. -1.
         22   -1    0    0    0    0 -0.00000000000E+00 -0.00000000000E+00 -0.18287881122E+03  0.18287881122E+03  0.00000000000E+00 0.  1.
        -24    2    1    2    0    0 -0.51475604559E+02 -0.17413809555E+01 -0.79545086206E+02  0.12425604096E+03  0.80370222741E+02 0.  0.
         25    2    1    2    0    0  0.28092334934E+02 -0.51958174664E+02 -0.14565301964E+02  0.13908423386E+03  0.12507375780E+03 0.  0.
         24    2    1    2    0    0  0.23383269625E+02  0.53699555620E+02  0.93423414913E+03  0.94254110859E+03  0.11027182965E+03 0.  0.
        -11    1    5    5    0    0 -0.52880433188E+01  0.83196505476E+02  0.59092388502E+03  0.59677521716E+03  0.00000000000E+00 0.  1.
         12    1    5    5    0    0  0.28671312944E+02 -0.29496949856E+02  0.34331026411E+03  0.34576589143E+03  0.00000000000E+00 0. -1.
         13    1    3    3    0    0 -0.53885234588E+02  0.23499728791E+01 -0.10377548053E+02  0.54925716952E+02  0.00000000000E+00 0. -1.
        -14    1    3    3    0    0  0.24096300291E+01 -0.40913538346E+01 -0.69167538152E+02  0.69330324009E+02  0.00000000000E+00 0.  1.
          5    1    4    4  501    0 -0.52909801968E+00 -0.42338164683E+02  0.51215940727E+02  0.66583369681E+02  0.41800000000E+01 0. -1.
         -5    1    4    4    0  501  0.28621432953E+02 -0.96200099811E+01 -0.65781242691E+02  0.72500864176E+02  0.41800000000E+01 0. -1.
</event>
<event>
11    1  0.8328696E-009  0.2069602E+03  0.7561462E-02  0.1049708E+00
         22   -1    0    0    0    0  0.00000000000E+00  0.00000000000E+00  0.11051257323E+04  0.11051257323E+04  0.00000000000E+00 0. -1.
         22   -1    0    0    0    0 -0.00000000000E+00 -0.00000000000E+00 -0.31424974023E+03  0.31424974023E+03  0.00000000000E+00 0.  1.
         24    2    1    2    0    0 -0.52311038925E+02  0.15539699114E+03 -0.25749143771E+03  0.31551646744E+03  0.79775504286E+02 0.  0.
         25    2    1    2    0    0  0.73783528443E+02 -0.16551645609E+03  0.47056332265E+03  0.51953555234E+03  0.12509054006E+03 0.  0.
        -24    2    1    2    0    0 -0.21472489518E+02  0.10119464952E+02  0.57780410712E+03  0.58432345274E+03  0.83742700210E+02 0.  0.
        -11    1    3    3    0    0 -0.38650059481E+02  0.16137980423E+03 -0.24577371833E+03  0.29655014573E+03  0.00000000000E+00 0.  1.
         12    1    3    3    0    0 -0.13660979444E+02 -0.59828130863E+01 -0.11717719373E+02  0.18966321707E+02  0.00000000000E+00 0. -1.
         13    1    5    5    0    0  0.10387803210E+02  0.39453919136E+02  0.35605675201E+03  0.35838656343E+03  0.00000000000E+00 0. -1.
        -14    1    5    5    0    0 -0.31860292728E+02 -0.29334454183E+02  0.22174735511E+03  0.22593688931E+03  0.00000000000E+00 0.  1.
          5    1    4    4  501    0  0.96288315037E+02 -0.16722419677E+03  0.38128214583E+03  0.42735104859E+03  0.41800000000E+01 0. -1.
         -5    1    4    4    0  501 -0.22504786594E+02  0.17077406791E+01  0.89281176817E+02  0.92184503750E+02  0.41800000000E+01 0. -1.
</event>
<event>
11    1  0.8328696E-009  0.1789604E+03  0.7561462E-02  0.1070487E+00
         22   -1    0    0    0    0  0.00000000000E+00  0.00000000000E+00  0.88633848209E+03  0.88633848209E+03  0.00000000000E+00 0. -1.
         22   -1    0    0    0    0 -0.00000000000E+00 -0.00000000000E+00 -0.16142920787E+03  0.16142920787E+03  0.00000000000E+00 0.  1.
         24    2    1    2    0    0  0.16798458220E+02  0.24950832121E+01 -0.80145407480E+02  0.10047014813E+03  0.58159699854E+02 0.  0.
         25    2    1    2    0    0 -0.11997755668E+03  0.70939642446E+02  0.75014430538E+02  0.20174469541E+03  0.12508681130E+03 0.  0.
        -24    2    1    2    0    0  0.10317909846E+03 -0.73434725658E+02  0.73004025117E+03  0.74555284641E+03  0.82774955026E+02 0.  0.
        -13    1    3    3    0    0  0.23876530451E+02 -0.23105602797E+02 -0.36327876960E+02  0.49230805716E+02  0.00000000000E+00 0.  1.
         14    1    3    3    0    0 -0.70780722308E+01  0.25600686009E+02 -0.43817530519E+02  0.51239342418E+02  0.00000000000E+00 0. -1.
         11    1    5    5    0    0  0.10817382311E+03 -0.41975431827E+02  0.62892519185E+03  0.63953921680E+03  0.00000000000E+00 0. -1.
        -12    1    5    5    0    0 -0.49947246545E+01 -0.31459293831E+02  0.10111505932E+03  0.10601362961E+03  0.00000000000E+00 0.  1.
          5    1    4    4  501    0  0.24958606017E+01  0.63804312934E+02  0.18518980245E+02  0.66615649051E+02  0.41800000000E+01 0.  1.
         -5    1    4    4    0  501 -0.12247341728E+03  0.71353295119E+01  0.56495450293E+02  0.13512904636E+03  0.41800000000E+01 0.  1.
</event>
<event>
11    1  0.8328696E-009  0.2140026E+03  0.7561462E-02  0.1045041E+00
         22   -1    0    0    0    0  0.00000000000E+00  0.00000000000E+00  0.81947684384E+03  0.81947684384E+03  0.00000000000E+00 0. -1.
         22   -1    0    0    0    0 -0.00000000000E+00 -0.00000000000E+00 -0.60800984747E+03  0.60800984747E+03  0.00000000000E+00 0. -1.
         24    2    1    2    0    0  0.53410959696E+02 -0.24808366254E+02 -0.53909382047E+03  0.54821915286E+03  0.80336210012E+02 0.  0.
         25    2    1    2    0    0 -0.19100535300E+03  0.10404238428E+03  0.27943862820E+03  0.37555414482E+03  0.12508839338E+03 0.  0.
        -24    2    1    2    0    0  0.13759439331E+03 -0.79234018027E+02  0.47112218864E+03  0.50371339363E+03  0.80998886457E+02 0.  0.
        -13    1    3    3    0    0  0.84085354744E+01 -0.10073735640E+02 -0.87640383884E+01  0.15779479948E+02  0.00000000000E+00 0.  1.
         14    1    3    3    0    0  0.45002424222E+02 -0.14734630614E+02 -0.53032978208E+03  0.53243967291E+03  0.00000000000E+00 0. -1.
         13    1    5    5    0    0  0.98990694007E+02 -0.31023416569E+02  0.37796152065E+03  0.39193943533E+03  0.00000000000E+00 0. -1.
        -14    1    5    5    0    0  0.38603699301E+02 -0.48210601458E+02  0.93160667989E+02  0.11177395829E+03  0.00000000000E+00 0.  1.
          5    1    4    4  501    0 -0.46101879592E+02  0.94753595459E+02  0.12479639207E+03  0.16338677740E+03  0.41800000000E+01 0. -1.
         -5    1    4    4    0  501 -0.14490347341E+03  0.92887888215E+01  0.15464223613E+03  0.21216736742E+03  0.41800000000E+01 0. -1.
</event>
<event>
11    1  0.8328696E-009  0.1429722E+03  0.7561462E-02  0.1104284E+00
         22   -1    0    0    0    0  0.00000000000E+00  0.00000000000E+00  0.38477296519E+02  0.38477296519E+02  0.00000000000E+00 0.  1.
         22   -1    0    0    0    0 -0.00000000000E+00 -0.00000000000E+00 -0.26376246804E+04  0.26376246804E+04  0.00000000000E+00 0.  1.
         24    2    1    2    0    0  0.72318090178E+02 -0.21755210701E+02 -0.20088872824E+04  0.20119427224E+04  0.81130815092E+02 0.  0.
         25    2    1    2    0    0 -0.35294741538E+02  0.13729954024E+02 -0.55011068487E+03  0.56542284807E+03  0.12508797343E+03 0.  0.
        -24    2    1    2    0    0 -0.37023348640E+02  0.80252566770E+01 -0.40149416563E+02  0.98736406477E+02  0.81864334264E+02 0.  0.
        -11    1    3    3    0    0  0.68479091545E+02 -0.43202762333E+02 -0.11827715600E+04  0.11855397200E+04  0.00000000000E+00 0.  1.
         12    1    3    3    0    0  0.38389986331E+01  0.21447551632E+02 -0.82611572247E+03  0.82640300235E+03  0.00000000000E+00 0. -1.
         13    1    5    5    0    0 -0.28801142392E+01  0.23737982630E+02 -0.53699818588E+02  0.58783138686E+02  0.00000000000E+00 0. -1.
        -14    1    5    5    0    0 -0.34143234400E+02 -0.15712725953E+02  0.13550402025E+02  0.39953267792E+02  0.00000000000E+00 0.  1.
          5    1    4    4  501    0  0.33891573567E+02  0.38293291115E+02 -0.14794336433E+03  0.15658775927E+03  0.41800000000E+01 0. -1.
         -5    1    4    4    0  501 -0.69186315105E+02 -0.24563337092E+02 -0.40216732054E+03  0.40883508880E+03  0.41800000000E+01 0. -1.
</event>
<event>
11    1  0.8328696E-009  0.1364650E+03  0.7561462E-02  0.1111571E+00
         22   -1    0    0    0    0  0.00000000000E+00  0.00000000000E+00  0.25131065030E+03  0.25131065030E+03  0.00000000000E+00 0. -1.
         22   -1    0    0    0    0 -0.00000000000E+00 -0.00000000000E+00 -0.28370497416E+03  0.28370497416E+03  0.00000000000E+00 0.  1.
         24    2    1    2    0    0  0.52271732074E+02 -0.68948558786E+00 -0.17197831700E+03  0.19725159748E+03  0.81233255671E+02 0.  0.
         25    2    1    2    0    0  0.67475889866E+01 -0.16176511930E+02 -0.38921905472E+02  0.13218251467E+03  0.12510033158E+03 0.  0.
        -24    2    1    2    0    0 -0.59019321061E+02  0.16865997518E+02  0.17850589862E+03  0.20558151232E+03  0.81435006201E+02 0.  0.
        -13    1    3    3    0    0  0.29970114809E+02  0.18604004787E+02 -0.16248835141E+03  0.16627321227E+03  0.00000000000E+00 0.  1.
         14    1    3    3    0    0  0.22301617265E+02 -0.19293490375E+02 -0.94899655958E+01  0.30978385215E+02  0.00000000000E+00 0. -1.
         11    1    5    5    0    0 -0.55166922225E+02 -0.17316262994E+02  0.15049642585E+03  0.16122163771E+03  0.00000000000E+00 0. -1.
        -12    1    5    5    0    0 -0.38523988356E+01  0.34182260513E+02  0.28009472765E+02  0.44359874607E+02  0.00000000000E+00 0.  1.
          5    1    4    4  501    0  0.45127920155E+01 -0.54931753654E+02 -0.64928222395E+02  0.85270213525E+02  0.41800000000E+01 0. -1.
         -5    1    4    4    0  501  0.22347969711E+01  0.38755241723E+02  0.26006316922E+02  0.46912301142E+02  0.41800000000E+01 0. -1.
</event>
<event>
11    1  0.8328696E-009  0.1607476E+03  0.7561462E-02  0.1086376E+00
         22   -1    0    0    0    0  0.00000000000E+00  0.00000000000E+00  0.70413735942E+03  0.70413735942E+03  0.00000000000E+00 0. -1.
         22   -1    0    0    0    0 -0.00000000000E+00 -0.00000000000E+00 -0.16422509314E+03  0.16422509314E+03  0.00000000000E+00 0. -1.
         24    2    1    2    0    0 -0.16640911662E+02  0.68362384900E+02 -0.10273034427E+03  0.14795365714E+03  0.79915113825E+02 0.  0.
         25    2    1    2    0    0 -0.88468752205E+02 -0.54168724930E+02  0.19792395467E+03  0.25608890944E+03  0.12508663728E+03 0.  0.
        -24    2    1    2    0    0  0.10510966387E+03 -0.14193659970E+02  0.44471865588E+03  0.46431988598E+03  0.81047962421E+02 0.  0.
        -11    1    3    3    0    0  0.18884959301E+02  0.20034783922E+02  0.16342143039E+01  0.27580879445E+02  0.00000000000E+00 0.  1.
         12    1    3    3    0    0 -0.35525870963E+02  0.48327600978E+02 -0.10436455857E+03  0.12037277770E+03  0.00000000000E+00 0. -1.
         11    1    5    5    0    0  0.83915551275E+02 -0.13403347703E+02  0.43044978089E+03  0.43875788693E+03  0.00000000000E+00 0. -1.
        -12    1    5    5    0    0  0.21194112593E+02 -0.79031226685E+00  0.14268874982E+02  0.25561999048E+02  0.00000000000E+00 0.  1.
          5    1    4    4  501    0  0.29375738322E+02  0.41185964001E+01  0.26358011556E+02  0.39901303380E+02  0.41800000000E+01 0. -1.
         -5    1    4    4    0  501 -0.11784449053E+03 -0.58287321330E+02  0.17156594312E+03  0.21618760606E+03  0.41800000000E+01 0. -1.
</event>
<event>
11    1  0.8328696E-009  0.1324499E+03  0.7561462E-02  0.1116295E+00
         22   -1    0    0    0    0  0.00000000000E+00  0.00000000000E+00  0.10170732930E+03  0.10170732930E+03  0.00000000000E+00 0.  1.
         22   -1    0    0    0    0 -0.00000000000E+00 -0.00000000000E+00 -0.14887303650E+04  0.14887303650E+04  0.00000000000E+00 0. -1.
         24    2    1    2    0    0  0.18857831687E+02  0.43301693293E+01 -0.12784098318E+04  0.12808257526E+04  0.76213794121E+02 0.  0.
         25    2    1    2    0    0 -0.30289416490E+01  0.37574236626E+02 -0.16066366199E+03  0.20707650013E+03  0.12508743693E+03 0.  0.
        -24    2    1    2    0    0 -0.15828890038E+02 -0.41904405955E+02  0.52050458085E+02  0.10253544154E+03  0.76142849868E+02 0.  0.
        -13    1    3    3    0    0 -0.55261405897E+01  0.33099357886E+02 -0.33841895671E+03  0.34007866146E+03  0.00000000000E+00 0.  1.
         14    1    3    3    0    0  0.24383972276E+02 -0.28769188557E+02 -0.93999087506E+03  0.94074709115E+03  0.00000000000E+00 0. -1.
         11    1    5    5    0    0 -0.20829527325E+02  0.33456357589E+01  0.52953267839E+02  0.57000974220E+02  0.00000000000E+00 0. -1.
        -12    1    5    5    0    0  0.50006372879E+01 -0.45250041714E+02 -0.90280975335E+00  0.45534467317E+02  0.00000000000E+00 0.  1.
          5    1    4    4  501    0 -0.17197157303E+02 -0.28987269719E+02 -0.15821291265E+01  0.33999699375E+02  0.41800000000E+01 0.  1.
         -5    1    4    4    0  501  0.14168215654E+02  0.66561506344E+02 -0.15908153286E+03  0.17307680075E+03  0.41800000000E+01 0.  1.
</event>
<event>
11    1  0.8328696E-009  0.1549334E+03  0.7561462E-02  0.1091942E+00
         22   -1    0    0    0    0  0.00000000000E+00  0.00000000000E+00  0.17486788189E+03  0.17486788189E+03  0.00000000000E+00 0. -1.
         22   -1    0    0    0    0 -0.00000000000E+00 -0.00000000000E+00 -0.20514639662E+04  0.20514639662E+04  0.00000000000E+00 0. -1.
         24    2    1    2    0    0  0.58329615141E+01  0.36597902762E+02 -0.17594378218E+04  0.17616769532E+04  0.80689583610E+02 0.  0.
         25    2    1    2    0    0  0.26771082243E+02 -0.11920902872E+03 -0.23866564205E+03  0.29586470456E+03  0.12508857397E+03 0.  0.
        -24    2    1    2    0    0 -0.32604043757E+02  0.82611125953E+02  0.12150737953E+03  0.16879019029E+03  0.76409837448E+02 0.  0.
        -13    1    3    3    0    0  0.16269201888E+01 -0.75560803135E+01 -0.16998954179E+02  0.18673662259E+02  0.00000000000E+00 0.  1.
         14    1    3    3    0    0  0.42060413252E+01  0.44153983075E+02 -0.17424388676E+04  0.17430032910E+04  0.00000000000E+00 0. -1.
         11    1    5    5    0    0 -0.11777698078E+02  0.45699148358E+02  0.83095200037E+01  0.47918414575E+02  0.00000000000E+00 0. -1.
        -12    1    5    5    0    0 -0.20826345679E+02  0.36911977595E+02  0.11319785952E+03  0.12087177572E+03  0.00000000000E+00 0.  1.
          5    1    4    4  501    0  0.72344123776E+02 -0.10202659887E+03 -0.15817253744E+03  0.20169066196E+03  0.41800000000E+01 0.  1.
         -5    1    4    4    0  501 -0.45573041532E+02 -0.17182429849E+02 -0.80493104610E+02  0.94174042601E+02  0.41800000000E+01 0.  1.
</event>
<event>
11    1  0.8328696E-009  0.1569181E+03  0.7561462E-02  0.1090012E+00
         22   -1    0    0    0    0  0.00000000000E+00  0.00000000000E+00  0.83658506856E+03  0.83658506856E+03  0.00000000000E+00 0.  1.
         22   -1    0    0    0    0 -0.00000000000E+00 -0.00000000000E+00 -0.16898439096E+04  0.16898439096E+04  0.00000000000E+00 0. -1.
         24    2    1    2    0    0  0.19721080284E+02 -0.91474386004E+02 -0.15097713396E+04  0.15147899775E+04  0.80141710681E+02 0.  0.
         25    2    1    2    0    0 -0.12147386716E+02  0.11366123716E+03 -0.13443874835E+03  0.21630527729E+03  0.12509100722E+03 0.  0.
        -24    2    1    2    0    0 -0.75736935683E+01 -0.22186851155E+02  0.79095124685E+03  0.79533372341E+03  0.80013995716E+02 0.  0.
        -13    1    3    3    0    0 -0.16560530654E+02 -0.16296622545E+02 -0.10496425504E+03  0.10750500415E+03  0.00000000000E+00 0.  1.
         14    1    3    3    0    0  0.36281610938E+02 -0.75177763459E+02 -0.14048070845E+04  0.14072849733E+04  0.00000000000E+00 0. -1.
         11    1    5    5    0    0 -0.16636548340E+02  0.17871578281E+02  0.92255073758E+02  0.95431476385E+02  0.00000000000E+00 0. -1.
        -12    1    5    5    0    0  0.90628547717E+01 -0.40058429435E+02  0.69869617309E+03  0.69990224703E+03  0.00000000000E+00 0.  1.
          5    1    4    4  501    0  0.22168753996E+02  0.66588990381E+02 -0.14097898019E+03  0.15753759091E+03  0.41800000000E+01 0.  1.
         -5    1    4    4    0  501 -0.34316140712E+02  0.47072246778E+02  0.65402318380E+01  0.58767686381E+02  0.41800000000E+01 0.  1.
</event>
<event>
11    1  0.8328696E-009  0.4981717E+03  0.7561462E-02  0.9397616E-01
         22   -1    0    0    0    0  0.00000000000E+00  0.00000000000E+00  0.80896096334E+03  0.80896096334E+03  0.00000000000E+00 0.  1.
         22   -1    0    0    0    0 -0.00000000000E+00 -0.00000000000E+00 -0.68520152115E+03  0.68520152115E+03  0.00000000000E+00 0.  1.
         24    2    1    2    0    0 -0.47618016954E+03 -0.54461578837E+02 -0.33443040320E+03  0.58969998056E+03  0.78668640904E+02 0.  0.
         25    2    1    2    0    0  0.50143472525E+03 -0.15114278126E+03  0.23296596442E+03  0.58668747878E+03  0.12509249844E+03 0.  0.
        -24    2    1    2    0    0 -0.25254555706E+02  0.20560436010E+03  0.22522388097E+03  0.31777502516E+03  0.85698451442E+02 0.  0.
        -11    1    3    3    0    0 -0.46947460259E+03 -0.53059719002E+02 -0.31184834521E+03  0.56610169287E+03  0.00000000000E+00 0.  1.
         12    1    3    3    0    0 -0.67055669474E+01 -0.14018598355E+01 -0.22582057990E+02  0.23598287696E+02  0.00000000000E+00 0. -1.
         13    1    5    5    0    0 -0.12484174434E+02  0.28796135692E+02  0.88514198670E+02  0.93913978769E+02  0.00000000000E+00 0. -1.
        -14    1    5    5    0    0 -0.12770381272E+02  0.17680822441E+03  0.13670968230E+03  0.22386104639E+03  0.00000000000E+00 0.  1.
          5    1    4    4  501    0  0.22045389903E+03 -0.49449653223E+02  0.16610658222E+03  0.28045330959E+03  0.41800000000E+01 0. -1.
         -5    1    4    4    0  501  0.28098082621E+03 -0.10169312804E+03  0.66859382198E+02  0.30623416919E+03  0.41800000000E+01 0. -1.
</event>
<event>
11    1  0.8328696E-009  0.1346721E+03  0.7561462E-02  0.1113658E+00
         22   -1    0    0    0    0  0.00000000000E+00  0.00000000000E+00  0.14957456391E+04  0.14957456391E+04  0.00000000000E+00 0.  1.
         22   -1    0    0    0    0 -0.00000000000E+00 -0.00000000000E+00 -0.56555017129E+03  0.56555017129E+03  0.00000000000E+00 0. -1.
         24    2    1    2    0    0  0.44495426229E+02 -0.17361520519E+02 -0.45335658497E+03  0.46277055515E+03  0.79643758249E+02 0.  0.
         25    2    1    2    0    0 -0.58483746354E+02  0.48650096677E+02 -0.55785778628E+02  0.15667485927E+03  0.12509107857E+03 0.  0.
        -24    2    1    2    0    0  0.13988320125E+02 -0.31288576159E+02  0.14393378314E+04  0.14418503959E+04  0.77875049592E+02 0.  0.
        -13    1    3    3    0    0  0.27848614072E+02 -0.29440348936E+02 -0.88527632324E+02  0.97362318872E+02  0.00000000000E+00 0.  1.
         14    1    3    3    0    0  0.16646812157E+02  0.12078828418E+02 -0.36482895265E+03  0.36540823628E+03  0.00000000000E+00 0. -1.
         11    1    5    5    0    0  0.26193457423E+02 -0.36304055164E+02  0.41151118824E+03  0.41393905309E+03  0.00000000000E+00 0. -1.
        -12    1    5    5    0    0 -0.12205137297E+02  0.50154790051E+01  0.10278266431E+04  0.10279113428E+04  0.00000000000E+00 0.  1.
          5    1    4    4  501    0 -0.88575544418E+02  0.66797955997E+02 -0.42194976298E+02  0.11876650378E+03  0.41800000000E+01 0.  1.
         -5    1    4    4    0  501  0.30091798064E+02 -0.18147859320E+02 -0.13590802329E+02  0.37908355498E+02  0.41800000000E+01 0.  1.
</event>
<event>
11    1  0.8328696E-009  0.1460674E+03  0.7561462E-02  0.1100966E+00
         22   -1    0    0    0    0  0.00000000000E+00  0.00000000000E+00  0.10399252798E+04  0.10399252798E+04  0.00000000000E+00 0. -1.
         22   -1    0    0    0    0 -0.00000000000E+00 -0.00000000000E+00 -0.24241319062E+03  0.24241319062E+03  0.00000000000E+00 0. -1.
        -24    2    1    2    0    0 -0.58991237388E+02  0.48146389429E+02 -0.21178741962E+03  0.23839503687E+03  0.78614512597E+02 0.  0.
         25    2    1    2    0    0  0.80940367622E+02  0.22880952510E+02  0.46277010258E+03  0.48670363993E+03  0.12509749869E+03 0.  0.
         24    2    1    2    0    0 -0.21949130234E+02 -0.71027341939E+02  0.54652940621E+03  0.55723979361E+03  0.79341969431E+02 0.  0.
        -13    1    5    5    0    0  0.15119510425E+02 -0.68097630543E+02  0.40178938005E+03  0.40779969691E+03  0.00000000000E+00 0.  1.
         14    1    5    5    0    0 -0.37068640659E+02 -0.29297113958E+01  0.14474002616E+03  0.14944009670E+03  0.00000000000E+00 0. -1.
         11    1    3    3    0    0 -0.67808935331E+02  0.87743972381E+01 -0.11960273073E+03  0.13776739439E+03  0.00000000000E+00 0. -1.
        -12    1    3    3    0    0  0.88176979435E+01  0.39371992191E+02 -0.92184688886E+02  0.10062764248E+03  0.00000000000E+00 0.  1.
          5    1    4    4  501    0  0.98021685743E+02  0.56063569160E+02  0.33641038959E+03  0.35488138481E+03  0.41800000000E+01 0. -1.
         -5    1    4    4    0  501 -0.17081318122E+02 -0.33182616650E+02  0.12635971299E+03  0.13182225512E+03  0.41800000000E+01 0. -1.
</event>
<event>
11    1  0.8328696E-009  0.1443090E+03  0.7561462E-02  0.1102840E+00
         22   -1    0    0    0    0  0.00000000000E+00  0.00000000000E+00  0.97882537021E+03  0.97882537021E+03  0.00000000000E+00 0. -1.
         22   -1    0    0    0    0 -0.00000000000E+00 -0.00000000000E+00 -0.59635761485E+03  0.59635761485E+03  0.00000000000E+00 0.  1.
        -24    2    1    2    0    0 -0.68527902055E+02  0.18926673788E+02 -0.52451495300E+03  0.53528682871E+03  0.79760646543E+02 0.  0.
         25    2    1    2    0    0  0.77009443728E+02 -0.46109991084E+02  0.28199319859E+02  0.15652274526E+03  0.12509029716E+03 0.  0.
         24    2    1    2    0    0 -0.84815416723E+01  0.27183317297E+02  0.87878338849E+03  0.88337341108E+03  0.85308090080E+02 0.  0.
        -13    1    5    5    0    0  0.24426429124E+02  0.45933793332E+02  0.49622986716E+03  0.49894954141E+03  0.00000000000E+00 0.  1.
         14    1    5    5    0    0 -0.32907970797E+02 -0.18750476036E+02  0.38255352133E+03  0.38442386967E+03  0.00000000000E+00 0. -1.
         13    1    3    3    0    0  0.58107117046E+01  0.24116823361E+02 -0.61520099059E+02  0.66333310846E+02  0.00000000000E+00 0. -1.
        -14    1    3    3    0    0 -0.74338613760E+02 -0.51901495731E+01 -0.46299485394E+03  0.46895351787E+03  0.00000000000E+00 0.  1.
          5    1    4    4  501    0  0.46583047031E+02 -0.88938874049E+02  0.25896596205E+02  0.10376998450E+03  0.41800000000E+01 0. -1.
         -5    1    4    4    0  501  0.30426396697E+02  0.42828882964E+02  0.23027236546E+01  0.52752760763E+02  0.41800000000E+01 0. -1.
</event>
<event>
11    1  0.8328696E-009  0.1433202E+03  0.7561462E-02  0.1103906E+00
         22   -1    0    0    0    0  0.00000000000E+00  0.00000000000E+00  0.58870911013E+02  0.58870911013E+02  0.00000000000E+00 0.  1.
         22   -1    0    0    0    0 -0.00000000000E+00 -0.00000000000E+00 -0.24652743669E+04  0.24652743669E+04  0.00000000000E+00 0.  1.
        -24    2    1    2    0    0 -0.52062999645E+01 -0.27259652734E+02 -0.18269071718E+04  0.18287748600E+04  0.77829813945E+02 0.  0.
         25    2    1    2    0    0 -0.47606271158E+01  0.94009508964E+02 -0.56734454047E+03  0.58854858943E+03  0.12509661535E+03 0.  0.
         24    2    1    2    0    0  0.99669270803E+01 -0.66749856229E+02 -0.12151743647E+02  0.10682182852E+03  0.81904549528E+02 0.  0.
        -11    1    5    5    0    0 -0.17020486007E+02 -0.75276564039E+02 -0.36208157779E+01  0.77261687429E+02  0.00000000000E+00 0.  1.
         12    1    5    5    0    0  0.26987413087E+02  0.85267078100E+01 -0.85309278696E+01  0.29560141095E+02  0.00000000000E+00 0. -1.
         11    1    3    3    0    0 -0.37692713673E+02 -0.10023971144E+02 -0.57160373441E+03  0.57293284934E+03  0.00000000000E+00 0. -1.
        -12    1    3    3    0    0  0.32486413709E+02 -0.17235681590E+02 -0.12553034373E+04  0.12558420106E+04  0.00000000000E+00 0.  1.
          5    1    4    4  501    0 -0.61878347441E+02  0.71532245583E+02 -0.32417827561E+03  0.33772003023E+03  0.41800000000E+01 0. -1.
         -5    1    4    4    0  501  0.57117720325E+02  0.22477263381E+02 -0.24316626485E+03  0.25082855919E+03  0.41800000000E+01 0. -1.
</event>
<event>
11    1  0.8328696E-009  0.1401693E+03  0.7561462E-02  0.1107370E+00
         22   -1    0    0    0    0  0.00000000000E+00  0.00000000000E+00  0.21956242926E+04  0.21956242926E+04  0.00000000000E+00 0. -1.
         22   -1    0    0    0    0 -0.00000000000E+00 -0.00000000000E+00 -0.35884734712E+02  0.35884734712E+02  0.00000000000E+00 0.  1.
         24    2    1    2    0    0  0.57422258387E+02 -0.27899773199E+02  0.87473713573E+02  0.13310009977E+03  0.77383931729E+02 0.  0.
         25    2    1    2    0    0 -0.68009164080E+02 -0.49487029751E+01  0.41368361205E+03  0.43752957201E+03  0.12509300319E+03 0.  0.
        -24    2    1    2    0    0  0.10586905692E+02  0.32848476174E+02  0.16585822323E+04  0.16608793556E+04  0.80212888492E+02 0.  0.
        -11    1    3    3    0    0  0.71795414107E+02 -0.99996185047E+01  0.46461961509E+02  0.86100451360E+02  0.00000000000E+00 0.  1.
         12    1    3    3    0    0 -0.14373155720E+02 -0.17900154694E+02  0.41011752064E+02  0.46999648411E+02  0.00000000000E+00 0. -1.
         11    1    5    5    0    0  0.84374936890E+01 -0.51172024444E+01  0.13399096118E+04  0.13399459485E+04  0.00000000000E+00 0. -1.
        -12    1    5    5    0    0  0.21494120035E+01  0.37965678618E+02  0.31867262049E+03  0.32093340707E+03  0.00000000000E+00 0.  1.
          5    1    4    4  501    0 -0.17718305287E+02  0.58055966880E+02  0.20253499607E+03  0.21147654873E+03  0.41800000000E+01 0.  1.
         -5    1    4    4    0  501 -0.50290858793E+02 -0.63004669855E+02  0.21114861598E+03  0.22605302328E+03  0.41800000000E+01 0.  1.
</event>
<event>
11    1  0.8328696E-009  0.2266935E+03  0.7561462E-02  0.1037104E+00
         22   -1    0    0    0    0  0.00000000000E+00  0.00000000000E+00  0.19941052918E+03  0.19941052918E+03  0.00000000000E+00 0. -1.
         22   -1    0    0    0    0 -0.00000000000E+00 -0.00000000000E+00 -0.50341198071E+03  0.50341198071E+03  0.00000000000E+00 0.  1.
        -24    2    1    2    0    0  0.12005667169E+03 -0.66221339626E+02 -0.15509504172E+03  0.22174001163E+03  0.79468802368E+02 0.  0.
         25    2    1    2    0    0 -0.11787494080E+03 -0.14371843902E+03 -0.12217064728E+03  0.25519141252E+03  0.12508996196E+03 0.  0.
         24    2    1    2    0    0 -0.21817308890E+01  0.20993977865E+03 -0.26735762523E+02  0.22589108575E+03  0.78946253947E+02 0.  0.
        -11    1    5    5    0    0 -0.16740239808E+01 -0.53869578570E+01 -0.79469920406E+01  0.97455812415E+01  0.00000000000E+00 0.  1.
         12    1    5    5    0    0 -0.50770690823E+00  0.21532673651E+03 -0.18788770483E+02  0.21614550450E+03  0.00000000000E+00 0. -1.
         13    1    3    3    0    0  0.11247027895E+02 -0.31652689150E+02 -0.62766910921E+01  0.34172872545E+02  0.00000000000E+00 0. -1.
        -14    1    3    3    0    0  0.10880964379E+03 -0.34568650475E+02 -0.14881835063E+03  0.18756713908E+03  0.00000000000E+00 0.  1.
          5    1    4    4  501    0 -0.68568373752E+02 -0.13339051792E+03 -0.34444332000E+02  0.15394329006E+03  0.41800000000E+01 0. -1.
         -5    1    4    4    0  501 -0.49306567048E+02 -0.10327921108E+02 -0.87726315283E+02  0.10124812246E+03  0.41800000000E+01 0. -1.
</event>
<event>
11    1  0.8328696E-009  0.1440740E+03  0.7561462E-02  0.1103093E+00
         22   -1    0    0    0    0  0.00000000000E+00  0.00000000000E+00  0.68197302766E+03  0.68197302766E+03  0.00000000000E+00 0. -1.
         22   -1    0    0    0    0 -0.00000000000E+00 -0.00000000000E+00 -0.19823661927E+03  0.19823661927E+03  0.00000000000E+00 0. -1.
         24    2    1    2    0    0  0.30267699497E+02  0.53526962151E+01 -0.14700341811E+03  0.17094487651E+03  0.81653909138E+02 0.  0.
         25    2    1    2    0    0  0.44202742935E+02  0.10043922117E+02  0.98871688173E+02  0.16576037448E+03  0.12508448413E+03 0.  0.
        -24    2    1    2    0    0 -0.74470442432E+02 -0.15396618332E+02  0.53186813833E+03  0.54350439595E+03  0.82039071136E+02 0.  0.
        -11    1    3    3    0    0 -0.69465239727E+01  0.28137827172E+02 -0.16523493189E+02  0.33361914520E+02  0.00000000000E+00 0.  1.
         12    1    3    3    0    0  0.37214223470E+02 -0.22785130957E+02 -0.13047992492E+03  0.13758296199E+03  0.00000000000E+00 0. -1.
         13    1    5    5    0    0 -0.85406392517E+02 -0.17174756900E+02  0.52008384944E+03  0.52732953132E+03  0.00000000000E+00 0. -1.
        -14    1    5    5    0    0  0.10935950085E+02  0.17781385677E+01  0.11784288892E+02  0.16174864627E+02  0.00000000000E+00 0.  1.
          5    1    4    4  501    0 -0.47377577503E+01  0.49121731479E+02  0.89511056904E+02  0.10229903499E+03  0.41800000000E+01 0. -1.
         -5    1    4    4    0  501  0.48940500685E+02 -0.39077809362E+02  0.93606312686E+01  0.63461339488E+02  0.41800000000E+01 0. -1.
</event>
<event>
11    1  0.8328696E-009  0.1713651E+03  0.7561462E-02  0.1076850E+00
         22   -1    0    0    0    0  0.00000000000E+00  0.00000000000E+00  0.32261299749E+03  0.32261299749E+03  0.00000000000E+00 0. -1.
         22   -1    0    0    0    0 -0.00000000000E+00 -0.00000000000E+00 -0.14077089378E+04  0.14077089378E+04  0.00000000000E+00 0. -1.
        -24    2    1    2    0    0  0.46042427456E+02  0.31175164636E+02 -0.13215764572E+04  0.13258555868E+04  0.90757416717E+02 0.  0.
         25    2    1    2    0    0  0.83191254974E+02 -0.49659672185E+02  0.58228579795E+02  0.16859231367E+03  0.12508370309E+03 0.  0.
         24    2    1    2    0    0 -0.12923368243E+03  0.18484507550E+02  0.17825193713E+03  0.23587403484E+03  0.82581992748E+02 0.  0.
        -13    1    5    5    0    0 -0.66674051615E+02  0.35786712291E+02  0.46008674360E+02  0.88560239677E+02  0.00000000000E+00 0.  1.
         14    1    5    5    0    0 -0.62559630816E+02 -0.17302204741E+02  0.13224326277E+03  0.14731379516E+03  0.00000000000E+00 0. -1.
         13    1    3    3    0    0  0.31000299921E+02  0.59737365628E+02 -0.10852125343E+04  0.10872974827E+04  0.00000000000E+00 0. -1.
        -14    1    3    3    0    0  0.15042127536E+02 -0.28562200992E+02 -0.23636392299E+03  0.23855810407E+03  0.00000000000E+00 0.  1.
          5    1    4    4  501    0  0.10232686142E+03 -0.13110932541E+02  0.81423535865E+01  0.10356859293E+03  0.41800000000E+01 0.  1.
         -5    1    4    4    0  501 -0.19135606442E+02 -0.36548739644E+02  0.50086226209E+02  0.65023720743E+02  0.41800000000E+01 0.  1.
</event>
<event>
11    1  0.8328696E-009  0.1426861E+03  0.7561462E-02  0.1104595E+00
         22   -1    0    0    0    0  0.00000000000E+00  0.00000000000E+00  0.13361374061E+04  0.13361374061E+04  0.00000000000E+00 0.  1.
         22   -1    0    0    0    0 -0.00000000000E+00 -0.00000000000E+00 -0.57785754124E+03  0.57785754124E+03  0.00000000000E+00 0. -1.
         24    2    1    2    0    0  0.54029668286E+02  0.44499527088E+02 -0.54666081929E+03  0.55696112356E+03  0.80425299756E+02 0.  0.
         25    2    1    2    0    0 -0.41700064888E+02  0.18111753185E+02  0.16323132787E+03  0.21060279389E+03  0.12506853873E+03 0.  0.
        -24    2    1    2    0    0 -0.12329603398E+02 -0.62611280273E+02  0.11417093563E+04  0.11464310299E+04  0.82046697243E+02 0.  0.
        -11    1    3    3    0    0  0.43568181651E+02  0.25125349009E+02 -0.12517930367E+03  0.13490488383E+03  0.00000000000E+00 0.  1.
         12    1    3    3    0    0  0.10461486636E+02  0.19374178079E+02 -0.42148151562E+03  0.42205623972E+03  0.00000000000E+00 0. -1.
         11    1    5    5    0    0 -0.31451022024E+02  0.57377339009E+01  0.43215929082E+03  0.43334021395E+03  0.00000000000E+00 0. -1.
        -12    1    5    5    0    0  0.19121418627E+02 -0.68349014174E+02  0.70955006550E+03  0.71309081598E+03  0.00000000000E+00 0.  1.
          5    1    4    4  501    0 -0.12633772658E+02 -0.39978082119E+02  0.88407261337E+01  0.43052178807E+02  0.41800000000E+01 0.  1.
         -5    1    4    4    0  501 -0.29066292231E+02  0.58089835305E+02  0.15439060173E+03  0.16755061508E+03  0.41800000000E+01 0.  1.
</event>
<event>
11    1  0.8328696E-009  0.1396870E+04  0.7561462E-02  0.8372527E-01
         22   -1    0    0    0    0  0.00000000000E+00  0.00000000000E+00  0.12096823146E+04  0.12096823146E+04  0.00000000000E+00 0.  1.
         22   -1    0    0    0    0 -0.00000000000E+00 -0.00000000000E+00 -0.40325579970E+03  0.40325579970E+03  0.00000000000E+00 0.  1.
        -24    2    1    2    0    0 -0.29387685607E+03 -0.10839056273E+03  0.20093304227E+03  0.38069694518E+03  0.80274254695E+02 0.  0.
         25    2    1    2    0    0  0.60730134949E+03 -0.93196869329E+02  0.16178711408E+03  0.64755134915E+03  0.12508834462E+03 0.  0.
         24    2    1    2    0    0 -0.31342449342E+03  0.20158743206E+03  0.44370635855E+03  0.58468981998E+03  0.78194930341E+02 0.  0.
        -13    1    5    5    0    0 -0.89248749970E+02  0.28330526898E+02  0.14820701506E+03  0.17530909115E+03  0.00000000000E+00 0.  1.
         14    1    5    5    0    0 -0.22417574345E+03  0.17325690516E+03  0.29549934349E+03  0.40938072883E+03  0.00000000000E+00 0. -1.
         13    1    3    3    0    0 -0.23546157231E+02 -0.21856282384E+02  0.49426598284E+02  0.58950040016E+02  0.00000000000E+00 0. -1.
        -14    1    3    3    0    0 -0.27033069884E+03 -0.86534280347E+02  0.15150644399E+03  0.32174690516E+03  0.00000000000E+00 0.  1.
          5    1    4    4  501    0  0.45292057541E+03 -0.81872514683E+02  0.17434073890E+03  0.49219134687E+03  0.41800000000E+01 0. -1.
         -5    1    4    4    0  501  0.15438077408E+03 -0.11324354646E+02 -0.12553624819E+02  0.15536000228E+03  0.41800000000E+01 0. -1.
</event>
<event>
11    1  0.8328696E-009  0.1553751E+03  0.7561462E-02  0.1091510E+00
         22   -1    0    0    0    0  0.00000000000E+00  0.00000000000E+00  0.35329294080E+04  0.35329294080E+04  0.00000000000E+00 0. -1.
         22   -1    0    0    0    0 -0.00000000000E+00 -0.00000000000E+00 -0.42486333174E+02  0.42486333174E+02  0.00000000000E+00 0.  1.
        -24    2    1    2    0    0 -0.86859967708E+02 -0.10021795357E+02  0.66159125343E+02  0.13392199220E+03  0.76895902079E+02 0.  0.
         25    2    1    2    0    0  0.16321035209E+03  0.22294610919E+02  0.15258803715E+04  0.15398349866E+04  0.12508480800E+03 0.  0.
         24    2    1    2    0    0 -0.76350384385E+02 -0.12272815561E+02  0.18984035779E+04  0.19016587623E+04  0.79936852116E+02 0.  0.
        -11    1    5    5    0    0 -0.26401028544E+02 -0.12653964071E+02  0.16782996410E+03  0.17036441519E+03  0.00000000000E+00 0.  1.
         12    1    5    5    0    0 -0.49949355840E+02  0.38114850922E+00  0.17305736138E+04  0.17312943471E+04  0.00000000000E+00 0. -1.
         11    1    3    3    0    0  0.34993027151E+01  0.19832041969E+02  0.48335144752E+01  0.20710332454E+02  0.00000000000E+00 0. -1.
        -12    1    3    3    0    0 -0.90359270424E+02 -0.29853837326E+02  0.61325610868E+02  0.11321165975E+03  0.00000000000E+00 0.  1.
          5    1    4    4  501    0  0.35007796928E+02  0.39375492285E+02  0.85230617600E+03  0.85394336187E+03  0.41800000000E+01 0.  1.
         -5    1    4    4    0  501  0.12820255517E+03 -0.17080881366E+02  0.67357419549E+03  0.68589162474E+03  0.41800000000E+01 0.  1.
</event>
<event>
11    1  0.8328696E-009  0.1306322E+03  0.7561462E-02  0.1118495E+00
         22   -1    0    0    0    0  0.00000000000E+00  0.00000000000E+00  0.28312997806E+03  0.28312997806E+03  0.00000000000E+00 0. -1.
         22   -1    0    0    0    0 -0.00000000000E+00 -0.00000000000E+00 -0.98231726326E+03  0.98231726326E+03  0.00000000000E+00 0.  1.
        -24    2    1    2    0    0  0.18983624741E+02 -0.51824437844E+01 -0.84740421462E+03  0.85130206717E+03  0.78956132630E+02 0.  0.
         25    2    1    2    0    0  0.94802776475E+01  0.30775656384E+02 -0.91587443083E+02  0.15834299670E+03  0.12508888114E+03 0.  0.
         24    2    1    2    0    0 -0.28463902388E+02 -0.25593212599E+02  0.23980437250E+03  0.25580217745E+03  0.80395339698E+02 0.  0.
        -13    1    5    5    0    0 -0.13726462924E+02 -0.27230551308E+02  0.22264361878E+02  0.37757390254E+02  0.00000000000E+00 0.  1.
         14    1    5    5    0    0 -0.14737439464E+02  0.16373387083E+01  0.21754001062E+03  0.21804478719E+03  0.00000000000E+00 0. -1.
         13    1    3    3    0    0  0.39547794873E+02  0.13040280990E+02 -0.26516475218E+03  0.26841464715E+03  0.00000000000E+00 0. -1.
        -14    1    3    3    0    0 -0.20564170132E+02 -0.18222724774E+02 -0.58223946244E+03  0.58288742001E+03  0.00000000000E+00 0.  1.
          5    1    4    4  501    0 -0.37636104083E+02  0.59493047459E+02 -0.33357506374E+02  0.78013426139E+02  0.41800000000E+01 0. -1.
         -5    1    4    4    0  501  0.47116381731E+02 -0.28717391075E+02 -0.58229936708E+02  0.80329570561E+02  0.41800000000E+01 0. -1.
</event>
<event>
11    1  0.8328696E-009  0.1657896E+03  0.7561462E-02  0.1081755E+00
         22   -1    0    0    0    0  0.00000000000E+00  0.00000000000E+00  0.12409428862E+04  0.12409428862E+04  0.00000000000E+00 0. -1.
         22   -1    0    0    0    0 -0.00000000000E+00 -0.00000000000E+00 -0.31090430689E+03  0.31090430689E+03  0.00000000000E+00 0.  1.
         24    2    1    2    0    0  0.63988865811E+02 -0.56388946652E+02 -0.26916919470E+03  0.29311260367E+03  0.78668003674E+02 0.  0.
         25    2    1    2    0    0  0.48552442217E+02  0.85856052632E+02  0.23293806030E+03  0.28219787119E+03  0.12508755793E+03 0.  0.
        -24    2    1    2    0    0 -0.11254130803E+03 -0.29467105980E+02  0.96626971375E+03  0.97653671827E+03  0.80080872067E+02 0.  0.
        -11    1    3    3    0    0  0.48701124914E+02 -0.47567242037E+02 -0.26674677833E+03  0.27529672325E+03  0.00000000000E+00 0.  1.
         12    1    3    3    0    0  0.15287740897E+02 -0.88217046147E+01 -0.24224163703E+01  0.17815880419E+02  0.00000000000E+00 0. -1.
         13    1    5    5    0    0 -0.25117060956E+02 -0.44747427924E+02  0.41658252819E+03  0.41973110660E+03  0.00000000000E+00 0. -1.
        -14    1    5    5    0    0 -0.87424247072E+02  0.15280321944E+02  0.54968718556E+03  0.55680561166E+03  0.00000000000E+00 0.  1.
          5    1    4    4  501    0  0.41421395776E+02  0.16191688176E+02  0.19957973342E+03  0.20451759138E+03  0.41800000000E+01 0. -1.
         -5    1    4    4    0  501  0.71310464414E+01  0.69664364456E+02  0.33358326880E+02  0.77680279805E+02  0.41800000000E+01 0. -1.
</event>
<event>
11    1  0.8328696E-009  0.1370075E+03  0.7561462E-02  0.1110947E+00
         22   -1    0    0    0    0  0.00000000000E+00  0.00000000000E+00  0.19354229807E+03  0.19354229807E+03  0.00000000000E+00 0. -1.
         22   -1    0    0    0    0 -0.00000000000E+00 -0.00000000000E+00 -0.15105430281E+04  0.15105430281E+04  0.00000000000E+00 0.  1.
         24    2    1    2    0    0  0.14090998206E+02 -0.32865104849E+02 -0.11889044196E+04  0.11921361134E+04  0.80100702698E+02 0.  0.
         25    2    1    2    0    0  0.31972390067E+02  0.64005439395E+02 -0.29021578664E+03  0.32402371250E+03  0.12508890217E+03 0.  0.
        -24    2    1    2    0    0 -0.46063388273E+02 -0.31140334546E+02  0.16211947622E+03  0.18792550027E+03  0.77082507135E+02 0.  0.
        -11    1    3    3    0    0  0.47464916836E+02 -0.14704994007E+02 -0.65710408244E+03  0.65898021999E+03  0.00000000000E+00 0.  1.
         12    1    3    3    0    0 -0.33373918630E+02 -0.18160110842E+02 -0.53180033716E+03  0.53315589341E+03  0.00000000000E+00 0. -1.
         13    1    5    5    0    0 -0.39806362005E+02 -0.51085550107E+02  0.15087930084E+03  0.16419148367E+03  0.00000000000E+00 0. -1.
        -14    1    5    5    0    0 -0.62570262687E+01  0.19945215561E+02  0.11240175375E+02  0.23734016600E+02  0.00000000000E+00 0.  1.
          5    1    4    4  501    0  0.20806322163E+02  0.96198184598E+01  0.48085988277E+01  0.23791573547E+02  0.41800000000E+01 0.  1.
         -5    1    4    4    0  501  0.11166067904E+02  0.54385620935E+02 -0.29502438547E+03  0.30023213895E+03  0.41800000000E+01 0.  1.
</event>
<event>
11    1  0.8328696E-009  0.1357526E+03  0.7561462E-02  0.1112396E+00
         22   -1    0    0    0    0  0.00000000000E+00  0.00000000000E+00  0.12935958746E+03  0.12935958746E+03  0.00000000000E+00 0.  1.
         22   -1    0    0    0    0 -0.00000000000E+00 -0.00000000000E+00 -0.59350276994E+03  0.59350276994E+03  0.00000000000E+00 0.  1.
        -24    2    1    2    0    0  0.46332491429E+02  0.16591551918E+02 -0.44010475314E+03  0.45048863489E+03  0.82618624258E+02 0.  0.
         25    2    1    2    0    0 -0.76302661589E+02 -0.34994305955E+02 -0.78709730880E+02  0.16996973938E+03  0.12509113859E+03 0.  0.
         24    2    1    2    0    0  0.29970170160E+02  0.18402754037E+02  0.54671301533E+02  0.10240398313E+03  0.79124914498E+02 0.  0.
        -13    1    5    5    0    0  0.36619881684E+02 -0.22605093624E+02  0.16827979657E+02  0.46208082536E+02  0.00000000000E+00 0.  1.
         14    1    5    5    0    0 -0.66497115243E+01  0.41007847661E+02  0.37843321875E+02  0.56195900595E+02  0.00000000000E+00 0. -1.
         11    1    3    3    0    0 -0.39511129905E+01 -0.23849988846E+02 -0.55913497338E+02  0.60915945748E+02  0.00000000000E+00 0. -1.
        -12    1    3    3    0    0  0.50283604420E+02  0.40441540765E+02 -0.38419125580E+03  0.38957268914E+03  0.00000000000E+00 0.  1.
          5    1    4    4  501    0 -0.23702623543E+02 -0.78573128603E+02 -0.41116622705E+02  0.91889063353E+02  0.41800000000E+01 0.  1.
         -5    1    4    4    0  501 -0.52600038046E+02  0.43578822648E+02 -0.37593108175E+02  0.78080676023E+02  0.41800000000E+01 0.  1.
</event>
<event>
11    1  0.8328696E-009  0.1566124E+03  0.7561462E-02  0.1090307E+00
         22   -1    0    0    0    0  0.00000000000E+00  0.00000000000E+00  0.94844492603E+03  0.94844492603E+03  0.00000000000E+00 0. -1.
         22   -1    0    0    0    0 -0.00000000000E+00 -0.00000000000E+00 -0.15238659062E+03  0.15238659062E+03  0.00000000000E+00 0. -1.
        -24    2    1    2    0    0 -0.13207102905E+02 -0.19388384239E+02 -0.11236415597E+03  0.14267547471E+03  0.84736358934E+02 0.  0.
         25    2    1    2    0    0 -0.84452989167E+02  0.20694406585E+02  0.30492211073E+03  0.34085991853E+03  0.12508966626E+03 0.  0.
         24    2    1    2    0    0  0.97660092072E+02 -0.13060223456E+01  0.60350038065E+03  0.61729612342E+03  0.85455223742E+02 0.  0.
        -11    1    5    5    0    0  0.72118778138E+02 -0.38469775442E+02  0.32231054390E+03  0.33251335085E+03  0.00000000000E+00 0.  1.
         12    1    5    5    0    0  0.25541313934E+02  0.37163753097E+02  0.28118983675E+03  0.28478277257E+03  0.00000000000E+00 0. -1.
         11    1    3    3    0    0 -0.22801224410E+01  0.23473572054E+02 -0.90138426431E+02  0.93172654050E+02  0.00000000000E+00 0. -1.
        -12    1    3    3    0    0 -0.10926980464E+02 -0.42861956293E+02 -0.22225729538E+02  0.49502820655E+02  0.00000000000E+00 0.  1.
          5    1    4    4  501    0 -0.21959150779E+01  0.29618817264E+02  0.58921598594E+01  0.30566097673E+02  0.41800000000E+01 0. -1.
         -5    1    4    4    0  501 -0.82257074089E+02 -0.89244106794E+01  0.29902995087E+03  0.31029382085E+03  0.41800000000E+01 0. -1.
</event>
<event>
11    1  0.8328696E-009  0.1260316E+03  0.7561462E-02  0.1124243E+00
         22   -1    0    0    0    0  0.00000000000E+00  0.00000000000E+00  0.29817837926E+03  0.29817837926E+03  0.00000000000E+00 0. -1.
         22   -1    0    0    0    0 -0.00000000000E+00 -0.00000000000E+00 -0.52521643906E+03  0.52521643906E+03  0.00000000000E+00 0.  1.
         24    2    1    2    0    0 -0.12651279603E+02  0.51115871847E+01 -0.38104534517E+03  0.38975935383E+03  0.80812224474E+02 0.  0.
         25    2    1    2    0    0  0.20825470151E+02 -0.19896458955E+02 -0.10286629552E+03  0.16449958190E+03  0.12509623657E+03 0.  0.
        -24    2    1    2    0    0 -0.81741905477E+01  0.14784871771E+02  0.25687358089E+03  0.26913588259E+03  0.78515456527E+02 0.  0.
        -13    1    3    3    0    0 -0.47062898827E+02  0.64423955887E+01 -0.21697618485E+03  0.22211502808E+03  0.00000000000E+00 0.  1.
         14    1    3    3    0    0  0.34411619224E+02 -0.13308084040E+01 -0.16406916031E+03  0.16764432575E+03  0.00000000000E+00 0. -1.
         11    1    5    5    0    0 -0.14554029713E+02 -0.19888993970E+02  0.20463216503E+03  0.20611092845E+03  0.00000000000E+00 0. -1.
        -12    1    5    5    0    0  0.63798391651E+01  0.34673865740E+02  0.52241415862E+02  0.63024954140E+02  0.00000000000E+00 0.  1.
          5    1    4    4  501    0  0.50833900355E+02 -0.20255837969E+02  0.24262086524E+01  0.54933990257E+02  0.41800000000E+01 0. -1.
         -5    1    4    4    0  501 -0.30008430204E+02  0.35937901399E+00 -0.10529250417E+03  0.10956559164E+03  0.41800000000E+01 0. -1.
</event>
<event>
11    1  0.8328696E-009  0.1313133E+03  0.7561462E-02  0.1117666E+00
         22   -1    0    0    0    0  0.00000000000E+00  0.00000000000E+00  0.14640506414E+03  0.14640506414E+03  0.00000000000E+00 0. -1.
         22   -1    0    0    0    0 -0.00000000000E+00 -0.00000000000E+00 -0.21335518624E+04  0.21335518624E+04  0.00000000000E+00 0.  1.
         24    2    1    2    0    0  0.10589290408E+02  0.37135217853E+02 -0.18269961530E+04  0.18290930534E+04  0.78583059746E+02 0.  0.
         25    2    1    2    0    0 -0.87652706950E+00 -0.63563623611E+02 -0.27453648529E+03  0.30831475627E+03  0.12508638866E+03 0.  0.
        -24    2    1    2    0    0 -0.97127633389E+01  0.26428405758E+02  0.11438584001E+03  0.14254911695E+03  0.80270367781E+02 0.  0.
        -11    1    3    3    0    0  0.38882708903E+02  0.26412586773E+02 -0.64535245673E+03  0.64706203968E+03  0.00000000000E+00 0.  1.
         12    1    3    3    0    0 -0.28293418495E+02  0.10722631080E+02 -0.11816436963E+04  0.11820310137E+04  0.00000000000E+00 0. -1.
         13    1    5    5    0    0  0.12821387628E+02  0.30103097329E+01  0.10877473976E+03  0.10956912866E+03  0.00000000000E+00 0. -1.
        -14    1    5    5    0    0 -0.22534150967E+02  0.23418096025E+02  0.56111002530E+01  0.32979988285E+02  0.00000000000E+00 0.  1.
          5    1    4    4  501    0  0.45344063425E+02  0.84889741564E+01 -0.50918879868E+02  0.68835684766E+02  0.41800000000E+01 0. -1.
         -5    1    4    4    0  501 -0.46220590495E+02 -0.72052597767E+02 -0.22361760543E+03  0.23947907150E+03  0.41800000000E+01 0. -1.
</event>
<event>
11    1  0.8328696E-009  0.1419278E+03  0.7561462E-02  0.1105425E+00
         22   -1    0    0    0    0  0.00000000000E+00  0.00000000000E+00  0.22632976931E+04  0.22632976931E+04  0.00000000000E+00 0.  1.
         22   -1    0    0    0    0 -0.00000000000E+00 -0.00000000000E+00 -0.44405108981E+02  0.44405108981E+02  0.00000000000E+00 0.  1.
         24    2    1    2    0    0  0.90158182769E+01  0.32089589201E+01  0.90550479612E+01  0.76164885540E+02  0.75016754790E+02 0.  0.
         25    2    1    2    0    0 -0.74671871184E+02 -0.64390411078E+00  0.56743219236E+03  0.58583467820E+03  0.12508666714E+03 0.  0.
        -24    2    1    2    0    0  0.65656052907E+02 -0.25650548093E+01  0.16424053438E+04  0.16457032383E+04  0.80786994993E+02 0.  0.
        -11    1    3    3    0    0  0.19899534089E+02  0.35762540236E+02  0.11537112399E+01  0.40942420431E+02  0.00000000000E+00 0.  1.
         12    1    3    3    0    0 -0.10883715812E+02 -0.32553581316E+02  0.79013367214E+01  0.35222465109E+02  0.00000000000E+00 0. -1.
         13    1    5    5    0    0  0.36691660796E+01 -0.19373054279E+02  0.98044728161E+02  0.10000773336E+03  0.00000000000E+00 0. -1.
        -14    1    5    5    0    0  0.61986886827E+02  0.16807999470E+02  0.15443606156E+04  0.15456955050E+04  0.00000000000E+00 0.  1.
          5    1    4    4  501    0 -0.95411937242E+02  0.30589929973E+02  0.48385238317E+03  0.49413538902E+03  0.41800000000E+01 0. -1.
         -5    1    4    4    0  501  0.20740066058E+02 -0.31233834084E+02  0.83579809184E+02  0.91699289174E+02  0.41800000000E+01 0. -1.
</event>
<event>
11    1  0.8328696E-009  0.1352545E+03  0.7561462E-02  0.1112976E+00
         22   -1    0    0    0    0  0.00000000000E+00  0.00000000000E+00  0.22718228641E+04  0.22718228641E+04  0.00000000000E+00 0. -1.
         22   -1    0    0    0    0 -0.00000000000E+00 -0.00000000000E+00 -0.85547429084E+02  0.85547429084E+02  0.00000000000E+00 0.  1.
        -24    2    1    2    0    0 -0.97702379888E+01 -0.33898075637E+02 -0.31534213883E+02  0.93924709327E+02  0.81135117518E+02 0.  0.
         25    2    1    2    0    0  0.23925218815E+02  0.81557564782E+02  0.24173167779E+03  0.28514252800E+03  0.12509198519E+03 0.  0.
         24    2    1    2    0    0 -0.14154980826E+02 -0.47659489145E+02  0.19760779711E+04  0.19783030559E+04  0.79542708786E+02 0.  0.
        -11    1    5    5    0    0  0.29263948372E+02 -0.13092195541E+02  0.11011886575E+04  0.11016552290E+04  0.00000000000E+00 0.  1.
         12    1    5    5    0    0 -0.43418929198E+02 -0.34567293604E+02  0.87488931369E+03  0.87664782690E+03  0.00000000000E+00 0. -1.
         11    1    3    3    0    0  0.32283642333E+02 -0.23051080129E+01  0.44201693885E+00  0.32368850215E+02  0.00000000000E+00 0. -1.
        -12    1    3    3    0    0 -0.42053880322E+02 -0.31592967624E+02 -0.31976230822E+02  0.61555859112E+02  0.00000000000E+00 0.  1.
          5    1    4    4  501    0  0.30864879894E+02  0.85547589749E+02  0.74420731162E+02  0.11758804595E+03  0.41800000000E+01 0.  1.
         -5    1    4    4    0  501 -0.69396610788E+01 -0.39900249671E+01  0.16731094663E+03  0.16755448206E+03  0.41800000000E+01 0.  1.
</event>
<event>
11    1  0.8328696E-009  0.1308527E+03  0.7561462E-02  0.1118226E+00
         22   -1    0    0    0    0  0.00000000000E+00  0.00000000000E+00  0.88480015584E+03  0.88480015584E+03  0.00000000000E+00 0.  1.
         22   -1    0    0    0    0 -0.00000000000E+00 -0.00000000000E+00 -0.15866735341E+03  0.15866735341E+03  0.00000000000E+00 0.  1.
        -24    2    1    2    0    0  0.55363567662E+01 -0.27620278683E+01 -0.11430812291E+03  0.13814102769E+03  0.77319573988E+02 0.  0.
         25    2    1    2    0    0  0.51404136336E+00 -0.35450512916E+02  0.11200558535E+03  0.17161075323E+03  0.12509195166E+03 0.  0.
         24    2    1    2    0    0 -0.60503981296E+01  0.38212540785E+02  0.72843533999E+03  0.73371572834E+03  0.78891823884E+02 0.  0.
        -11    1    5    5    0    0 -0.15722290568E+02  0.55863111264E+02  0.65519913967E+03  0.65776423606E+03  0.00000000000E+00 0.  1.
         12    1    5    5    0    0  0.96718924381E+01 -0.17650570479E+02  0.73236200326E+02  0.75951492281E+02  0.00000000000E+00 0. -1.
         11    1    3    3    0    0  0.31280246111E+02  0.11521398379E+02 -0.18956345734E+02  0.38347613497E+02  0.00000000000E+00 0. -1.
        -12    1    3    3    0    0 -0.25743889344E+02 -0.14283426247E+02 -0.95351777181E+02  0.99793414189E+02  0.00000000000E+00 0.  1.
          5    1    4    4  501    0  0.22667494765E+02 -0.56773656719E+02  0.64785016526E+01  0.61615799920E+02  0.41800000000E+01 0. -1.
         -5    1    4    4    0  501 -0.22153453401E+02  0.21323143802E+02  0.10552708370E+03  0.10999495331E+03  0.41800000000E+01 0. -1.
</event>
<event>
11    1  0.8328696E-009  0.1478194E+03  0.7561462E-02  0.1099128E+00
         22   -1    0    0    0    0  0.00000000000E+00  0.00000000000E+00  0.13568251756E+03  0.13568251756E+03  0.00000000000E+00 0. -1.
         22   -1    0    0    0    0 -0.00000000000E+00 -0.00000000000E+00 -0.11143141032E+04  0.11143141032E+04  0.00000000000E+00 0.  1.
         24    2    1    2    0    0  0.95874522508E+01 -0.26739129757E+02 -0.62033950548E+03  0.62438779009E+03  0.65054669758E+02 0.  0.
         25    2    1    2    0    0 -0.84821846386E+02  0.46882756830E+02 -0.45225680367E+03  0.47914173130E+03  0.12509134143E+03 0.  0.
        -24    2    1    2    0    0  0.75234394135E+02 -0.20143627074E+02  0.93964723508E+02  0.14646709937E+03  0.80976923629E+02 0.  0.
        -13    1    3    3    0    0 -0.14826291639E+02 -0.39981581213E+02 -0.41321974550E+03  0.41541413533E+03  0.00000000000E+00 0.  1.
         14    1    3    3    0    0  0.24413743890E+02  0.13242451456E+02 -0.20711975998E+03  0.20897365477E+03  0.00000000000E+00 0. -1.
         13    1    5    5    0    0  0.66677015401E+02 -0.19916110759E+02  0.10891022125E+03  0.12924361548E+03  0.00000000000E+00 0. -1.
        -14    1    5    5    0    0  0.85573787337E+01 -0.22751631442E+00 -0.14945497739E+02  0.17223483885E+02  0.00000000000E+00 0.  1.
          5    1    4    4  501    0 -0.28223699168E+02 -0.39599483861E+02 -0.21231001099E+03  0.21784790447E+03  0.41800000000E+01 0.  1.
         -5    1    4    4    0  501 -0.56598147218E+02  0.86482240692E+02 -0.23994679268E+03  0.26129382683E+03  0.41800000000E+01 0.  1.
</event>
<event>
11    1  0.8328696E-009  0.1768694E+03  0.7561462E-02  0.1072204E+00
         22   -1    0    0    0    0  0.00000000000E+00  0.00000000000E+00  0.59001111267E+03  0.59001111267E+03  0.00000000000E+00 0. -1.
         22   -1    0    0    0    0 -0.00000000000E+00 -0.00000000000E+00 -0.34142827144E+03  0.34142827144E+03  0.00000000000E+00 0.  1.
         24    2    1    2    0    0  0.46738210160E+02 -0.10515464049E+03 -0.21097773104E+03  0.25244845131E+03  0.77308853752E+02 0.  0.
         25    2    1    2    0    0 -0.22590378995E+02  0.19585926375E+03  0.34495161920E+02  0.23603114409E+03  0.12509839475E+03 0.  0.
        -24    2    1    2    0    0 -0.24147831165E+02 -0.90704623258E+02  0.42506541035E+03  0.44295978870E+03  0.81989785333E+02 0.  0.
        -13    1    3    3    0    0  0.37474854928E+02 -0.89326628659E+02 -0.21300497518E+03  0.23399728800E+03  0.00000000000E+00 0.  1.
         14    1    3    3    0    0  0.92633552323E+01 -0.15828011828E+02  0.20272441425E+01  0.18451163308E+02  0.00000000000E+00 0. -1.
         11    1    5    5    0    0  0.23635423465E+02 -0.62996838983E+02  0.27312705340E+03  0.28129276966E+03  0.00000000000E+00 0. -1.
        -12    1    5    5    0    0 -0.47783254630E+02 -0.27707784275E+02  0.15193835695E+03  0.16166701904E+03  0.00000000000E+00 0.  1.
          5    1    4    4  501    0 -0.29079236795E+02  0.22444414673E+02  0.49516687182E+02  0.61795861286E+02  0.41800000000E+01 0.  1.
         -5    1    4    4    0  501  0.64888577999E+01  0.17341484907E+03 -0.15021525262E+02  0.17423528281E+03  0.41800000000E+01 0.  1.
</event>
<event>
11    1  0.8328696E-009  0.1277463E+03  0.7561462E-02  0.1122069E+00
         22   -1    0    0    0    0  0.00000000000E+00  0.00000000000E+00  0.88718525244E+03  0.88718525244E+03  0.00000000000E+00 0.  1.
         22   -1    0    0    0    0 -0.00000000000E+00 -0.00000000000E+00 -0.95092872736E+03  0.95092872736E+03  0.00000000000E+00 0. -1.
         24    2    1    2    0    0  0.26994277561E+02  0.16780910943E+02 -0.91280883527E+03  0.91696494367E+03  0.81206207814E+02 0.  0.
         25    2    1    2    0    0 -0.46224098226E+02 -0.30556066050E+02  0.10628184223E+03  0.17324572470E+03  0.12509160926E+03 0.  0.
        -24    2    1    2    0    0  0.19229820665E+02  0.13775155107E+02  0.74278351812E+03  0.74790331143E+03  0.84097964063E+02 0.  0.
        -13    1    3    3    0    0 -0.59502264352E+01 -0.26705152548E+02 -0.47209911927E+03  0.47289126529E+03  0.00000000000E+00 0.  1.
         14    1    3    3    0    0  0.32944503996E+02  0.43486063491E+02 -0.44070971600E+03  0.44407367839E+03  0.00000000000E+00 0. -1.
         11    1    5    5    0    0 -0.25561932507E+02  0.22772602322E+01  0.92987270126E+02  0.96463623782E+02  0.00000000000E+00 0. -1.
        -12    1    5    5    0    0  0.44791753173E+02  0.11497894875E+02  0.64979624799E+03  0.65143968765E+03  0.00000000000E+00 0.  1.
          5    1    4    4  501    0 -0.46721424802E+01 -0.70602367158E+02  0.87085307571E+02  0.11228466662E+03  0.41800000000E+01 0.  1.
         -5    1    4    4    0  501 -0.41551955746E+02  0.40046301108E+02  0.19196534662E+02  0.60961058076E+02  0.41800000000E+01 0.  1.
</event>
<event>
11    1  0.8328696E-009  0.1695004E+03  0.7561462E-02  0.1078467E+00
         22   -1    0    0    0    0  0.00000000000E+00  0.00000000000E+00  0.42706272530E+03  0.42706272530E+03  0.00000000000E+00 0.  1.
         22   -1    0    0    0    0 -0.00000000000E+00 -0.00000000000E+00 -0.99270344495E+03  0.99270344495E+03  0.00000000000E+00 0. -1.
         24    2    1    2    0    0 -0.98933173966E+02  0.62519209423E+02 -0.92384765340E+03  0.93446426000E+03  0.77669441006E+02 0.  0.
         25    2    1    2    0    0  0.19447299188E+02 -0.81961070749E+02  0.54303773718E+02  0.16028291677E+03  0.12508356809E+03 0.  0.
        -24    2    1    2    0    0  0.79485874778E+02  0.19441861325E+02  0.30390316004E+03  0.32501899348E+03  0.81143238653E+02 0.  0.
        -13    1    3    3    0    0 -0.73491324710E+02  0.25617543045E+02 -0.33537621374E+03  0.34428830660E+03  0.00000000000E+00 0.  1.
         14    1    3    3    0    0 -0.25441849256E+02  0.36901666379E+02 -0.58847143966E+03  0.59017595340E+03  0.00000000000E+00 0. -1.
         13    1    5    5    0    0 -0.66173122825E+01 -0.17824556614E+02  0.30248859101E+02  0.35728099827E+02  0.00000000000E+00 0. -1.
        -14    1    5    5    0    0  0.86103187060E+02  0.37266417939E+02  0.27365430093E+03  0.28929089365E+03  0.00000000000E+00 0.  1.
          5    1    4    4  501    0  0.49285950725E+02 -0.73248863907E+02  0.80399239123E+02  0.11948226251E+03  0.41800000000E+01 0.  1.
         -5    1    4    4    0  501 -0.29838651537E+02 -0.87122068421E+01 -0.26095465406E+02  0.40800654264E+02  0.41800000000E+01 0.  1.
</event>
<event>
11    1  0.8328696E-009  0.1964797E+03  0.7561462E-02  0.1057041E+00
         22   -1    0    0    0    0  0.00000000000E+00  0.00000000000E+00  0.10265814699E+04  0.10265814699E+04  0.00000000000E+00 0. -1.
         22   -1    0    0    0    0 -0.00000000000E+00 -0.00000000000E+00 -0.20114020585E+04  0.20114020585E+04  0.00000000000E+00 0.  1.
         24    2    1    2    0    0  0.12230236332E+03 -0.86848350425E+02 -0.18924287946E+04  0.19000956830E+04  0.81094745870E+02 0.  0.
         25    2    1    2    0    0 -0.24982188769E+03  0.33740862375E+02  0.76570044827E+02  0.29165076122E+03  0.12509106042E+03 0.  0.
        -24    2    1    2    0    0  0.12751952437E+03  0.53107488049E+02  0.83103816112E+03  0.84623708419E+03  0.80069613697E+02 0.  0.
        -13    1    3    3    0    0  0.49330860866E+02 -0.18085068952E+02 -0.11136758116E+04  0.11149145335E+04  0.00000000000E+00 0.  1.
         14    1    3    3    0    0  0.72971502454E+02 -0.68763281473E+02 -0.77875298299E+03  0.78518114952E+03  0.00000000000E+00 0. -1.
         11    1    5    5    0    0  0.11470829127E+03  0.14883674846E+02  0.52746987835E+03  0.54000369298E+03  0.00000000000E+00 0. -1.
        -12    1    5    5    0    0  0.12811233100E+02  0.38223813204E+02  0.30356828276E+03  0.30623339121E+03  0.00000000000E+00 0.  1.
          5    1    4    4  501    0  0.39144134686E+01  0.87270779141E+01 -0.17063490582E+02  0.20002990591E+02  0.41800000000E+01 0.  1.
         -5    1    4    4    0  501 -0.25373630116E+03  0.25013784461E+02  0.93633535409E+02  0.27164777063E+03  0.41800000000E+01 0.  1.
</event>
<event>
11    1  0.8328696E-009  0.1589537E+03  0.7561462E-02  0.1088066E+00
         22   -1    0    0    0    0  0.00000000000E+00  0.00000000000E+00  0.29379021900E+03  0.29379021900E+03  0.00000000000E+00 0.  1.
         22   -1    0    0    0    0 -0.00000000000E+00 -0.00000000000E+00 -0.22151705712E+04  0.22151705712E+04  0.00000000000E+00 0.  1.
        -24    2    1    2    0    0 -0.50620448318E+02 -0.13616866910E+02 -0.15333847801E+04  0.15362053885E+04  0.76878234448E+02 0.  0.
         25    2    1    2    0    0  0.14704929562E+03  0.27442762704E+01 -0.65198630212E+03  0.67997439399E+03  0.12509201385E+03 0.  0.
         24    2    1    2    0    0 -0.96428847306E+02  0.10872590639E+02  0.26399072999E+03  0.29278100776E+03  0.81319598918E+02 0.  0.
        -11    1    5    5    0    0 -0.87157603695E+02 -0.20843973503E+02  0.22158787093E+03  0.23902322827E+03  0.00000000000E+00 0.  1.
         12    1    5    5    0    0 -0.92712436104E+01  0.31716564142E+02  0.42402859061E+02  0.53757779489E+02  0.00000000000E+00 0. -1.
         13    1    3    3    0    0 -0.37595907057E+02 -0.32915895764E+02 -0.48604509446E+03  0.48860694046E+03  0.00000000000E+00 0. -1.
        -14    1    3    3    0    0 -0.13024541261E+02  0.19299028854E+02 -0.10473396856E+04  0.10475984480E+04  0.00000000000E+00 0.  1.
          5    1    4    4  501    0  0.15426213972E+02  0.88161587151E+01 -0.34990273411E+03  0.35037849316E+03  0.41800000000E+01 0. -1.
         -5    1    4    4    0  501  0.13162308165E+03 -0.60718824446E+01 -0.30208356802E+03  0.32959590083E+03  0.41800000000E+01 0. -1.
</event>
<event>
11    1  0.8328696E-009  0.1336116E+03  0.7561462E-02  0.1114909E+00
         22   -1    0    0    0    0  0.00000000000E+00  0.00000000000E+00  0.41591221465E+04  0.41591221465E+04  0.00000000000E+00 0.  1.
         22   -1    0    0    0    0 -0.00000000000E+00 -0.00000000000E+00 -0.19159968371E+03  0.19159968371E+03  0.00000000000E+00 0. -1.
        -24    2    1    2    0    0  0.53645323131E+01  0.48228110353E+02 -0.16119531782E+03  0.19142724763E+03  0.91135787757E+02 0.  0.
         25    2    1    2    0    0  0.22420734049E+02 -0.19762764463E+02  0.26561846617E+03  0.29511916233E+03  0.12509554042E+03 0.  0.
         24    2    1    2    0    0 -0.27785266362E+02 -0.28465345890E+02  0.38630993145E+04  0.38641754203E+04  0.82055275733E+02 0.  0.
        -11    1    5    5    0    0 -0.11158727015E+02  0.16379491145E+02  0.27244271283E+04  0.27244992168E+04  0.00000000000E+00 0.  1.
         12    1    5    5    0    0 -0.16626539348E+02 -0.44844837035E+02  0.11386721862E+04  0.11396762035E+04  0.00000000000E+00 0. -1.
         11    1    3    3    0    0 -0.10957772445E+02  0.31902646806E+02 -0.16466319142E+03  0.16808277205E+03  0.00000000000E+00 0. -1.
        -12    1    3    3    0    0  0.16322304758E+02  0.16325463548E+02  0.34678735987E+01  0.23344475577E+02  0.00000000000E+00 0.  1.
          5    1    4    4  501    0 -0.43941678692E+02 -0.20429781118E+02  0.18142940491E+03  0.18783596154E+03  0.41800000000E+01 0.  1.
         -5    1    4    4    0  501  0.66362412742E+02  0.66701665465E+00  0.84189061258E+02  0.10728320079E+03  0.41800000000E+01 0.  1.
</event>
<event>
11    1  0.8328696E-009  0.1387975E+03  0.7561462E-02  0.1108909E+00
         22   -1    0    0    0    0  0.00000000000E+00  0.00000000000E+00  0.23703565560E+04  0.23703565560E+04  0.00000000000E+00 0.  1.
         22   -1    0    0    0    0 -0.00000000000E+00 -0.00000000000E+00 -0.39933954078E+04  0.39933954078E+04  0.00000000000E+00 0.  1.
         24    2    1    2    0    0 -0.53467484536E+02 -0.27463134103E+02 -0.39747992122E+04  0.39761363189E+04  0.83775019956E+02 0.  0.
         25    2    1    2    0    0  0.59561023907E+02  0.40223506805E+02  0.28857268217E+03  0.32262738522E+03  0.12509512672E+03 0.  0.
        -24    2    1    2    0    0 -0.60935393707E+01 -0.12760372702E+02  0.20631876782E+04  0.20649882597E+04  0.85047979022E+02 0.  0.
        -11    1    3    3    0    0 -0.40935014564E+02 -0.10357097054E+02 -0.37710830749E+04  0.37713194645E+04  0.00000000000E+00 0.  1.
         12    1    3    3    0    0 -0.12532469973E+02 -0.17106037049E+02 -0.20371613725E+03  0.20481685449E+03  0.00000000000E+00 0. -1.
         11    1    5    5    0    0  0.21070005169E+02  0.60235614952E+01  0.15779786581E+03  0.15931225585E+03  0.00000000000E+00 0. -1.
        -12    1    5    5    0    0 -0.27163544539E+02 -0.18783934197E+02  0.19053898124E+04  0.19056760038E+04  0.00000000000E+00 0.  1.
          5    1    4    4  501    0  0.57001879807E+00 -0.39549628018E+02  0.12596702024E+03  0.13209716343E+03  0.41800000000E+01 0.  1.
         -5    1    4    4    0  501  0.58991005109E+02  0.79773134823E+02  0.16260566193E+03  0.19053022179E+03  0.41800000000E+01 0.  1.
</event>
<event>
11    1  0.8328696E-009  0.1294252E+03  0.7561462E-02  0.1119977E+00
         22   -1    0    0    0    0  0.00000000000E+00  0.00000000000E+00  0.12799788783E+04  0.12799788783E+04  0.00000000000E+00 0.  1.
         22   -1    0    0    0    0 -0.00000000000E+00 -0.00000000000E+00 -0.29798875659E+03  0.29798875659E+03  0.00000000000E+00 0. -1.
        -24    2    1    2    0    0  0.40602891918E+02 -0.87355184581E+00 -0.24480459296E+03  0.25964214507E+03  0.76389769204E+02 0.  0.
         25    2    1    2    0    0 -0.66394232809E+01  0.87087115709E+01  0.45990699568E+02  0.13372382667E+03  0.12508794416E+03 0.  0.
         24    2    1    2    0    0 -0.33963468637E+02 -0.78351597251E+01  0.11808040151E+04  0.11846016631E+04  0.88136662745E+02 0.  0.
        -11    1    5    5    0    0 -0.55282945137E+02 -0.22582680099E+02  0.54355344134E+03  0.54682403482E+03  0.00000000000E+00 0.  1.
         12    1    5    5    0    0  0.21319476499E+02  0.14747520374E+02  0.63725057376E+03  0.63777762832E+03  0.00000000000E+00 0. -1.
         13    1    3    3    0    0  0.27398526787E+02 -0.29668780957E+02 -0.20413233280E+03  0.20808874339E+03  0.00000000000E+00 0. -1.
        -14    1    3    3    0    0  0.13204365131E+02  0.28795229111E+02 -0.40672260160E+02  0.51553401678E+02  0.00000000000E+00 0.  1.
          5    1    4    4  501    0  0.41970468003E+01 -0.24092250131E+02 -0.36534768829E+02  0.44162353329E+02  0.41800000000E+01 0.  1.
         -5    1    4    4    0  501 -0.10836470081E+02  0.32800961701E+02  0.82525468397E+02  0.89561473338E+02  0.41800000000E+01 0.  1.
</event>
<event>
11    1  0.8328696E-009  0.2378960E+03  0.7561462E-02  0.1030552E+00
         22   -1    0    0    0    0  0.00000000000E+00  0.00000000000E+00  0.23681403426E+04  0.23681403426E+04  0.00000000000E+00 0.  1.
         22   -1    0    0    0    0 -0.00000000000E+00 -0.00000000000E+00 -0.60413936763E+03  0.60413936763E+03  0.00000000000E+00 0. -1.
         24    2    1    2    0    0 -0.62199944807E+02 -0.38704394640E+02 -0.52556031711E+03  0.53672718952E+03  0.80595072728E+02 0.  0.
         25    2    1    2    0    0 -0.12960751103E+03 -0.41375928043E+02  0.59178724044E+02  0.19406158940E+03  0.12509078609E+03 0.  0.
        -24    2    1    2    0    0  0.19180745583E+03  0.80080322683E+02  0.22303825681E+04  0.22414909313E+04  0.80450215394E+02 0.  0.
        -11    1    3    3    0    0 -0.63316650174E+02 -0.54120934134E+02 -0.32262558226E+03  0.33320465188E+03  0.00000000000E+00 0.  1.
         12    1    3    3    0    0  0.11167053673E+01  0.15416539494E+02 -0.20293473485E+03  0.20352253764E+03  0.00000000000E+00 0. -1.
         11    1    5    5    0    0  0.21070366496E+02  0.26704112166E+01  0.74361577516E+02  0.77335216112E+02  0.00000000000E+00 0. -1.
        -12    1    5    5    0    0  0.17073708934E+03  0.77409911466E+02  0.21560209906E+04  0.21641557152E+04  0.00000000000E+00 0.  1.
          5    1    4    4  501    0 -0.50746762703E+02  0.36930234323E+02 -0.91080089191E+01  0.63557095264E+02  0.41800000000E+01 0.  1.
         -5    1    4    4    0  501 -0.78860748324E+02 -0.78306162366E+02  0.68286732963E+02  0.13050449414E+03  0.41800000000E+01 0.  1.
</event>
<event>
11    1  0.8328696E-009  0.1483737E+03  0.7561462E-02  0.1098552E+00
         22   -1    0    0    0    0  0.00000000000E+00  0.00000000000E+00  0.11393066553E+04  0.11393066553E+04  0.00000000000E+00 0.  1.
         22   -1    0    0    0    0 -0.00000000000E+00 -0.00000000000E+00 -0.23996522547E+03  0.23996522547E+03  0.00000000000E+00 0.  1.
        -24    2    1    2    0    0 -0.28085424615E+02  0.26622763429E+02 -0.19368932421E+03  0.21901154322E+03  0.94619972228E+02 0.  0.
         25    2    1    2    0    0 -0.16608909548E+02 -0.91857101276E+02  0.17148899142E+03  0.23188433397E+03  0.12509311425E+03 0.  0.
         24    2    1    2    0    0  0.44694334163E+02  0.65234337847E+02  0.92154176258E+03  0.92837600354E+03  0.79935482848E+02 0.  0.
        -11    1    5    5    0    0  0.14455057908E+02  0.62915473149E+02  0.81638075362E+03  0.81892908139E+03  0.00000000000E+00 0.  1.
         12    1    5    5    0    0  0.30239276254E+02  0.23188646978E+01  0.10516100896E+03  0.10944692215E+03  0.00000000000E+00 0. -1.
         11    1    3    3    0    0  0.15809312854E+02 -0.19295808301E+02 -0.14404155579E+02  0.28805247592E+02  0.00000000000E+00 0. -1.
        -12    1    3    3    0    0 -0.43894737469E+02  0.45918571730E+02 -0.17928516863E+03  0.19020629563E+03  0.00000000000E+00 0.  1.
          5    1    4    4  501    0 -0.20043944751E+01  0.16142192875E+02  0.10018133863E+03  0.10157933352E+03  0.41800000000E+01 0.  1.
         -5    1    4    4    0  501 -0.14604515073E+02 -0.10799929415E+03  0.71307652788E+02  0.13030500046E+03  0.41800000000E+01 0.  1.
</event>
<event>
11    1  0.8328696E-009  0.1448388E+03  0.7561462E-02  0.1102272E+00
         22   -1    0    0    0    0  0.00000000000E+00  0.00000000000E+00  0.15314223230E+04  0.15314223230E+04  0.00000000000E+00 0. -1.
         22   -1    0    0    0    0 -0.00000000000E+00 -0.00000000000E+00 -0.33513488464E+03  0.33513488464E+03  0.00000000000E+00 0.  1.
        -24    2    1    2    0    0 -0.41652985678E+02 -0.38217285303E+01 -0.21829104441E+03  0.23641148091E+03  0.80559489873E+02 0.  0.
         25    2    1    2    0    0  0.80635494030E+01  0.68966036551E+02 -0.57435818795E+02  0.15416920645E+03  0.12509171000E+03 0.  0.
         24    2    1    2    0    0  0.33589436275E+02 -0.65144308021E+02  0.14720143016E+04  0.14759765203E+04  0.79426401739E+02 0.  0.
        -13    1    5    5    0    0 -0.11264045086E+02 -0.39908496241E+02  0.30233730222E+03  0.30516784086E+03  0.00000000000E+00 0.  1.
         14    1    5    5    0    0  0.44853481361E+02 -0.25235811780E+02  0.11696769994E+04  0.11708086794E+04  0.00000000000E+00 0. -1.
         11    1    3    3    0    0  0.44243975025E+01  0.27363714063E+02 -0.33796189126E+02  0.43709616105E+02  0.00000000000E+00 0. -1.
        -12    1    3    3    0    0 -0.46077383180E+02 -0.31185442594E+02 -0.18449485529E+03  0.19270186480E+03  0.00000000000E+00 0.  1.
          5    1    4    4  501    0 -0.57539021062E+02  0.25108605171E+02 -0.15903181025E+02  0.64896568208E+02  0.41800000000E+01 0.  1.
         -5    1    4    4    0  501  0.65602570465E+02  0.43857431381E+02 -0.41532637770E+02  0.89272638244E+02  0.41800000000E+01 0.  1.
</event>
<event>
11    1  0.8328696E-009  0.1674841E+03  0.7561462E-02  0.1080242E+00
         22   -1    0    0    0    0  0.00000000000E+00  0.00000000000E+00  0.50663290614E+03  0.50663290614E+03  0.00000000000E+00 0.  1.
         22   -1    0    0    0    0 -0.00000000000E+00 -0.00000000000E+00 -0.17428624022E+03  0.17428624022E+03  0.00000000000E+00 0.  1.
        -24    2    1    2    0    0  0.24226499130E+02 -0.27851319619E+02 -0.70155358609E+02  0.11667801718E+03  0.85611716994E+02 0.  0.
         25    2    1    2    0    0  0.77195438452E+02 -0.30825924706E+02  0.16336458715E+02  0.15108109898E+03  0.12509694335E+03 0.  0.
         24    2    1    2    0    0 -0.10142193758E+03  0.58677244326E+02  0.38616556582E+03  0.41316003020E+03  0.88588587898E+02 0.  0.
        -13    1    5    5    0    0 -0.11096304935E+03  0.70641132814E+02  0.34255618179E+03  0.36694373636E+03  0.00000000000E+00 0.  1.
         14    1    5    5    0    0  0.95411117675E+01 -0.11963888489E+02  0.43609384024E+02  0.46216293842E+02  0.00000000000E+00 0. -1.
         11    1    3    3    0    0  0.30598481518E+02 -0.54510098460E+02 -0.62089129675E+02  0.88106060683E+02  0.00000000000E+00 0. -1.
        -12    1    3    3    0    0 -0.63719823879E+01  0.26658778840E+02 -0.80662289336E+01  0.28571956496E+02  0.00000000000E+00 0.  1.
          5    1    4    4  501    0  0.46450430278E+02 -0.78134640661E+02 -0.36771934623E+01  0.91069526714E+02  0.41800000000E+01 0. -1.
         -5    1    4    4    0  501  0.30745008175E+02  0.47308715954E+02  0.20013652178E+02  0.60011572271E+02  0.41800000000E+01 0. -1.
</event>
<event>
11    1  0.8328696E-009  0.2507654E+03  0.7561462E-02  0.1023492E+00
         22   -1    0    0    0    0  0.00000000000E+00  0.00000000000E+00  0.11456174160E+03  0.11456174160E+03  0.00000000000E+00 0.  1.
         22   -1    0    0    0    0 -0.00000000000E+00 -0.00000000000E+00 -0.12101183586E+04  0.12101183586E+04  0.00000000000E+00 0.  1.
         24    2    1    2    0    0  0.88438085740E+02 -0.19908145238E+03 -0.90473052773E+03  0.93398524910E+03  0.79601495145E+02 0.  0.
         25    2    1    2    0    0 -0.60240008968E+02  0.20808353599E+03 -0.15754677267E+03  0.29562766417E+03  0.12508842317E+03 0.  0.
        -24    2    1    2    0    0 -0.28198076772E+02 -0.90020836080E+01 -0.33279316590E+02  0.95067186926E+02  0.83988618720E+02 0.  0.
        -11    1    3    3    0    0  0.63661168840E+01 -0.10977144391E+03 -0.46600431304E+03  0.47880091595E+03  0.00000000000E+00 0.  1.
         12    1    3    3    0    0  0.82071968856E+02 -0.89310008469E+02 -0.43872621469E+03  0.45518433315E+03  0.00000000000E+00 0. -1.
         13    1    5    5    0    0  0.62291836323E+01 -0.41174924916E+02 -0.19433345974E+02  0.45954674477E+02  0.00000000000E+00 0. -1.
        -14    1    5    5    0    0 -0.34427260404E+02  0.32172841308E+02 -0.13845970616E+02  0.49112512449E+02  0.00000000000E+00 0.  1.
          5    1    4    4  501    0 -0.86748183329E+02  0.15825931418E+03 -0.15667253560E+03  0.23902931545E+03  0.41800000000E+01 0. -1.
         -5    1    4    4    0  501  0.26508174361E+02  0.49824221810E+02 -0.87423707457E+00  0.56598348716E+02  0.41800000000E+01 0. -1.
</event>
<event>
11    1  0.8328696E-009  0.2087993E+03  0.7561462E-02  0.1048470E+00
         22   -1    0    0    0    0  0.00000000000E+00  0.00000000000E+00  0.93478978961E+03  0.93478978961E+03  0.00000000000E+00 0. -1.
         22   -1    0    0    0    0 -0.00000000000E+00 -0.00000000000E+00 -0.66464723864E+03  0.66464723864E+03  0.00000000000E+00 0. -1.
        -24    2    1    2    0    0  0.14033602824E+03  0.86361521467E+02 -0.54833091242E+03  0.57800997744E+03  0.79222669022E+02 0.  0.
         25    2    1    2    0    0 -0.13315795352E+03 -0.14338414295E+03  0.38540744354E+02  0.23542039513E+03  0.12508924987E+03 0.  0.
         24    2    1    2    0    0 -0.71780747233E+01  0.57022621479E+02  0.77993271904E+03  0.78600665569E+03  0.78792845175E+02 0.  0.
        -13    1    5    5    0    0 -0.15321453116E+01  0.17619574558E+02  0.28643927612E+02  0.33664097580E+02  0.00000000000E+00 0.  1.
         14    1    5    5    0    0 -0.56459294117E+01  0.39403046922E+02  0.75128879143E+03  0.75234255811E+03  0.00000000000E+00 0. -1.
         11    1    3    3    0    0  0.14169850863E+03  0.97174859206E+02 -0.51037260090E+03  0.53851797775E+03  0.00000000000E+00 0. -1.
        -12    1    3    3    0    0 -0.13624803837E+01 -0.10813337739E+02 -0.37958311523E+02  0.39491999691E+02  0.00000000000E+00 0.  1.
          5    1    4    4  501    0 -0.13311171333E+03 -0.89036231550E+02 -0.12578576288E+02  0.16069185336E+03  0.41800000000E+01 0. -1.
         -5    1    4    4    0  501 -0.46240184893E-01 -0.54347911397E+02  0.51119320642E+02  0.74728541764E+02  0.41800000000E+01 0. -1.
</event>
<event>
11    1  0.8328696E-009  0.1537797E+03  0.7561462E-02  0.1093078E+00
         22   -1    0    0    0    0  0.00000000000E+00  0.00000000000E+00  0.13380411578E+04  0.13380411578E+04  0.00000000000E+00 0. -1.
         22   -1    0    0    0    0 -0.00000000000E+00 -0.00000000000E+00 -0.66179271315E+03  0.66179271315E+03  0.00000000000E+00 0.  1.
         24    2    1    2    0    0  0.87600678368E+02 -0.10941562846E+02 -0.59283053844E+03  0.60472199478E+03  0.80293505462E+02 0.  0.
         25    2    1    2    0    0 -0.11504728940E+03 -0.16147923660E+02  0.55394801699E+02  0.17948036798E+03  0.12509190301E+03 0.  0.
        -24    2    1    2    0    0  0.27446611031E+02  0.27089486506E+02  0.12136841814E+04  0.12156315082E+04  0.56951864211E+02 0.  0.
        -11    1    3    3    0    0  0.48476329145E+02 -0.20786099424E+02 -0.50860510426E+03  0.51133273756E+03  0.00000000000E+00 0.  1.
         12    1    3    3    0    0  0.39124349224E+02  0.98445365786E+01 -0.84225434173E+02  0.93389257221E+02  0.00000000000E+00 0. -1.
         13    1    5    5    0    0  0.26059728402E+02  0.43927796428E+02  0.82423604004E+03  0.82581705628E+03  0.00000000000E+00 0. -1.
        -14    1    5    5    0    0  0.13868826296E+01 -0.16838309922E+02  0.38944814134E+03  0.38981445191E+03  0.00000000000E+00 0.  1.
          5    1    4    4  501    0 -0.12932374132E+03 -0.38821275569E+02  0.66015468052E+02  0.15035702820E+03  0.41800000000E+01 0. -1.
         -5    1    4    4    0  501  0.14276451924E+02  0.22673351909E+02 -0.10620666353E+02  0.29123339783E+02  0.41800000000E+01 0. -1.
</event>
<event>
11    1  0.8328696E-009  0.3638261E+03  0.7561462E-02  0.9762966E-01
         22   -1    0    0    0    0  0.00000000000E+00  0.00000000000E+00  0.10277991015E+03  0.10277991015E+03  0.00000000000E+00 0.  1.
         22   -1    0    0    0    0 -0.00000000000E+00 -0.00000000000E+00 -0.24085232883E+04  0.24085232883E+04  0.00000000000E+00 0. -1.
        -24    2    1    2    0    0  0.32048806418E+02  0.67242178261E+02 -0.44698290579E+03  0.46023877852E+03  0.80482163564E+02 0.  0.
         25    2    1    2    0    0  0.26424598726E+03 -0.23436098489E+03 -0.15128451579E+04  0.15585568861E+04  0.12509229482E+03 0.  0.
         24    2    1    2    0    0 -0.29629479367E+03  0.16711880663E+03 -0.34591531441E+03  0.49250753386E+03  0.84775974620E+02 0.  0.
        -11    1    5    5    0    0 -0.26691365349E+03  0.11764200929E+03 -0.30408405828E+03  0.42136641450E+03  0.00000000000E+00 0.  1.
         12    1    5    5    0    0 -0.29381140185E+02  0.49476797341E+02 -0.41831256130E+02  0.71141119355E+02  0.00000000000E+00 0. -1.
         11    1    3    3    0    0  0.30968341522E+02  0.85583987673E+02 -0.35896034529E+03  0.37031903355E+03  0.00000000000E+00 0. -1.
        -12    1    3    3    0    0  0.10804648963E+01 -0.18341809412E+02 -0.88022560507E+02  0.89919744968E+02  0.00000000000E+00 0.  1.
          5    1    4    4  501    0  0.24491387938E+03 -0.24901404858E+03 -0.13853076062E+04  0.14286656155E+04  0.41800000000E+01 0.  1.
         -5    1    4    4    0  501  0.19332107879E+02  0.14653063687E+02 -0.12753755169E+03  0.12989127054E+03  0.41800000000E+01 0.  1.
</event>
<event>
11    1  0.8328696E-009  0.1280875E+03  0.7561462E-02  0.1121641E+00
         22   -1    0    0    0    0  0.00000000000E+00  0.00000000000E+00  0.41839041805E+03  0.41839041805E+03  0.00000000000E+00 0. -1.
         22   -1    0    0    0    0 -0.00000000000E+00 -0.00000000000E+00 -0.42051281956E+03  0.42051281956E+03  0.00000000000E+00 0. -1.
        -24    2    1    2    0    0  0.20916910507E+02 -0.34002504709E+02 -0.34525940328E+03  0.35660167966E+03  0.79793576898E+02 0.  0.
         25    2    1    2    0    0 -0.13444909844E+01  0.52092379113E+02  0.88991592088E+01  0.13580158137E+03  0.12508977116E+03 0.  0.
         24    2    1    2    0    0 -0.19572419523E+02 -0.18089874404E+02  0.33423784256E+03  0.34649997658E+03  0.87389788934E+02 0.  0.
        -13    1    5    5    0    0  0.11406051992E+02 -0.46472098732E+02  0.14644322698E+03  0.15406288557E+03  0.00000000000E+00 0.  1.
         14    1    5    5    0    0 -0.30978471515E+02  0.28382224328E+02  0.18779461558E+03  0.19243709101E+03  0.00000000000E+00 0. -1.
         11    1    3    3    0    0  0.19221893183E+02 -0.11058865346E+02 -0.32555850853E+03  0.32631292061E+03  0.00000000000E+00 0. -1.
        -12    1    3    3    0    0  0.16950173242E+01 -0.22943639364E+02 -0.19700894743E+02  0.30288759048E+02  0.00000000000E+00 0.  1.
          5    1    4    4  501    0 -0.16422879461E+02  0.70307557083E+02  0.50193779995E+02  0.88032672929E+02  0.41800000000E+01 0.  1.
         -5    1    4    4    0  501  0.15078388476E+02 -0.18215177970E+02 -0.41294620786E+02  0.47768908439E+02  0.41800000000E+01 0.  1.
</event>
<event>
11    1  0.1054447E-008  0.1462095E+03  0.7561462E-02  0.1100816E+00
         22   -1    0    0    0    0  0.00000000000E+00  0.00000000000E+00  0.11924100063E+04  0.11924100063E+04  0.00000000000E+00 0.  1.
         22   -1    0    0    0    0 -0.00000000000E+00 -0.00000000000E+00 -0.18711811614E+04  0.18711811614E+04  0.00000000000E+00 0. -1.
         24    2    1    2    0    0 -0.54839981454E+02 -0.23765487097E+02 -0.12027349034E+04  0.12068189518E+04  0.79173937891E+02 0.  0.
         25    2    1    2    0    0  0.79252458314E+02 -0.47908273448E+02 -0.65472778624E+03  0.67297213637E+03  0.12508743916E+03 0.  0.
        -24    2    1    2    0    0 -0.24412476859E+02  0.71673760545E+02  0.11786915346E+04  0.11838000796E+04  0.79597724181E+02 0.  0.
        -13    1    3    3    0    0  0.73061528953E+01 -0.21373360773E+02 -0.10892109626E+03  0.11123850786E+03  0.00000000000E+00 0.  1.
         14    1    3    3    0    0 -0.62146134350E+02 -0.23921263237E+01 -0.10938138072E+04  0.10955804439E+04  0.00000000000E+00 0. -1.
         11    1    5    5    0    0  0.24491847249E+02  0.29317870851E+01  0.21059072021E+03  0.21203041621E+03  0.00000000000E+00 0. -1.
        -12    1    5    5    0    0 -0.48904324108E+02  0.68741973460E+02  0.96810081439E+03  0.97176966338E+03  0.00000000000E+00 0.  1.
          5    1    4    4  501    0 -0.21939137766E+02 -0.37383048384E+02 -0.32432130355E+03  0.32723171975E+03  0.41800000000E+01 0. -1.
         -5    1    4    4    0  501  0.10119159608E+03 -0.10525225064E+02 -0.33040648269E+03  0.34574041662E+03  0.41800000000E+01 0. -1.
</event>
<event>
11    1  0.8328696E-009  0.1748259E+03  0.7561462E-02  0.1073907E+00
         22   -1    0    0    0    0  0.00000000000E+00  0.00000000000E+00  0.34469330561E+03  0.34469330561E+03  0.00000000000E+00 0. -1.
         22   -1    0    0    0    0 -0.00000000000E+00 -0.00000000000E+00 -0.26721132902E+03  0.26721132902E+03  0.00000000000E+00 0. -1.
         24    2    1    2    0    0  0.65420394159E+02  0.11750222290E+03 -0.17987189451E+03  0.23765453388E+03  0.77712152719E+02 0.  0.
         25    2    1    2    0    0 -0.20387402769E+02 -0.70360876657E+02  0.73740684236E+02  0.16263778738E+03  0.12508821773E+03 0.  0.
        -24    2    1    2    0    0 -0.45032991390E+02 -0.47141346244E+02  0.18361318686E+03  0.21161231337E+03  0.82557204045E+02 0.  0.
        -11    1    3    3    0    0  0.85120326683E+01 -0.82125192246E+01 -0.11877339077E+01  0.11887425457E+02  0.00000000000E+00 0.  1.
         12    1    3    3    0    0  0.56908361490E+02  0.12571474213E+03 -0.17868416060E+03  0.22576710842E+03  0.00000000000E+00 0. -1.
         11    1    5    5    0    0 -0.29166738135E+02  0.51317236227E+01  0.13587455966E+03  0.13906447844E+03  0.00000000000E+00 0. -1.
        -12    1    5    5    0    0 -0.15866253255E+02 -0.52273069867E+02  0.47738627204E+02  0.72547834929E+02  0.00000000000E+00 0.  1.
          5    1    4    4  501    0  0.23044973626E+02 -0.23348079513E+02  0.90491989485E+02  0.96345608034E+02  0.41800000000E+01 0.  1.
         -5    1    4    4    0  501 -0.43432376394E+02 -0.47012797145E+02 -0.16751305249E+02  0.66292179344E+02  0.41800000000E+01 0.  1.
</event>
<event>
11    1  0.8328696E-009  0.1803715E+03  0.7561462E-02  0.1069343E+00
         22   -1    0    0    0    0  0.00000000000E+00  0.00000000000E+00  0.11229973198E+03  0.11229973198E+03  0.00000000000E+00 0.  1.
         22   -1    0    0    0    0 -0.00000000000E+00 -0.00000000000E+00 -0.62975300552E+03  0.62975300552E+03  0.00000000000E+00 0. -1.
         24    2    1    2    0    0 -0.14437182193E+02  0.27691946427E+00 -0.22643089618E+03  0.24608324045E+03  0.95275923360E+02 0.  0.
         25    2    1    2    0    0  0.13536061598E+03 -0.39940217219E+02 -0.28907523606E+03  0.34515297181E+03  0.12509342323E+03 0.  0.
        -24    2    1    2    0    0 -0.12092343379E+03  0.39663297754E+02 -0.19471413046E+01  0.15081652525E+03  0.80908460010E+02 0.  0.
        -11    1    3    3    0    0  0.28685129432E+02 -0.11462473661E+02 -0.24958149465E+02  0.39713148675E+02  0.00000000000E+00 0.  1.
         12    1    3    3    0    0 -0.43122311626E+02  0.11739393126E+02 -0.20147274671E+03  0.20637009177E+03  0.00000000000E+00 0. -1.
         13    1    5    5    0    0 -0.24225929830E+02 -0.21972853227E+02 -0.13873390417E+02  0.35527073011E+02  0.00000000000E+00 0. -1.
        -14    1    5    5    0    0 -0.96697503958E+02  0.61636150981E+02  0.11926249113E+02  0.11528945224E+03  0.00000000000E+00 0.  1.
          5    1    4    4  501    0  0.53466275703E+02 -0.69738487064E+02 -0.20887103533E+03  0.22664218719E+03  0.41800000000E+01 0.  1.
         -5    1    4    4    0  501  0.81894340279E+02  0.29798269845E+02 -0.80204200728E+02  0.11851078461E+03  0.41800000000E+01 0.  1.
</event>
<event>
11    1  0.8328696E-009  0.2350629E+03  0.7561462E-02  0.1032172E+00
         22   -1    0    0    0    0  0.00000000000E+00  0.00000000000E+00  0.15008439308E+04  0.15008439308E+04  0.00000000000E+00 0. -1.
         22   -1    0    0    0    0 -0.00000000000E+00 -0.00000000000E+00 -0.24088165336E+03  0.24088165336E+03  0.00000000000E+00 0. -1.
        -24    2    1    2    0    0 -0.13878139762E+03 -0.13197092591E+03 -0.12380324278E+03  0.24136467704E+03  0.79076309924E+02 0.  0.
         25    2    1    2    0    0  0.20063611833E+03  0.13949129729E+03  0.28076480194E+03  0.39266659855E+03  0.12508201153E+03 0.  0.
         24    2    1    2    0    0 -0.61854720713E+02 -0.75203713823E+01  0.11030007183E+04  0.11076943086E+04  0.80582468585E+02 0.  0.
        -11    1    5    5    0    0  0.13654855417E+02  0.17088576484E+02  0.19338921333E+03  0.19462235831E+03  0.00000000000E+00 0.  1.
         12    1    5    5    0    0 -0.75509576131E+02 -0.24608947866E+02  0.90961150498E+03  0.91307195028E+03  0.00000000000E+00 0. -1.
         13    1    3    3    0    0 -0.13037853747E+03 -0.78106715816E+02 -0.99637639067E+02  0.18173299427E+03  0.00000000000E+00 0. -1.
        -14    1    3    3    0    0 -0.84028601512E+01 -0.53864210089E+02 -0.24165603714E+02  0.59631682771E+02  0.00000000000E+00 0.  1.
          5    1    4    4  501    0  0.60839265335E+01 -0.19127247220E+02  0.39357729717E+02  0.44377573579E+02  0.41800000000E+01 0. -1.
         -5    1    4    4    0  501  0.19455219180E+03  0.15861854451E+03  0.24140707223E+03  0.34828902497E+03  0.41800000000E+01 0. -1.
</event>
<event>
11    1  0.8328696E-009  0.1377156E+03  0.7561462E-02  0.1110136E+00
         22   -1    0    0    0    0  0.00000000000E+00  0.00000000000E+00  0.29079334419E+03  0.29079334419E+03  0.00000000000E+00 0.  1.
         22   -1    0    0    0    0 -0.00000000000E+00 -0.00000000000E+00 -0.53794019635E+03  0.53794019635E+03  0.00000000000E+00 0.  1.
         24    2    1    2    0    0  0.29094522241E+02 -0.60390215665E+02 -0.47361747757E+03  0.48518427893E+03  0.81220687558E+02 0.  0.
         25    2    1    2    0    0 -0.16754400611E+02 -0.13005953543E+02  0.50388131756E+02  0.13650946222E+03  0.12508399052E+03 0.  0.
        -24    2    1    2    0    0 -0.12340121630E+02  0.73396169207E+02  0.17608249365E+03  0.20703979939E+03  0.79505708629E+02 0.  0.
        -11    1    3    3    0    0  0.23250911687E+01 -0.15861558876E+02 -0.35880802981E+03  0.35916597466E+03  0.00000000000E+00 0.  1.
         12    1    3    3    0    0  0.26769431072E+02 -0.44528656789E+02 -0.11480944776E+03  0.12601830427E+03  0.00000000000E+00 0. -1.
         11    1    5    5    0    0 -0.33746328793E+02  0.32821774412E+02  0.34928134600E+02  0.58617899734E+02  0.00000000000E+00 0. -1.
        -12    1    5    5    0    0  0.21406207163E+02  0.40574394795E+02  0.14115435905E+03  0.14842189966E+03  0.00000000000E+00 0.  1.
          5    1    4    4  501    0 -0.26875866895E+02  0.52717475095E+02  0.31942550019E+02  0.67373906696E+02  0.41800000000E+01 0.  1.
         -5    1    4    4    0  501  0.10121466284E+02 -0.65723428638E+02  0.18445581737E+02  0.69135555521E+02  0.41800000000E+01 0.  1.
</event>
<event>
11    1  0.8328696E-009  0.1342355E+03  0.7561462E-02  0.1114172E+00
         22   -1    0    0    0    0  0.00000000000E+00  0.00000000000E+00  0.51648899510E+03  0.51648899510E+03  0.00000000000E+00 0. -1.
         22   -1    0    0    0    0 -0.00000000000E+00 -0.00000000000E+00 -0.20488391129E+03  0.20488391129E+03  0.00000000000E+00 0. -1.
         24    2    1    2    0    0  0.11692855810E+02 -0.46846506016E+02 -0.16681285645E+03  0.19128984265E+03  0.80211949356E+02 0.  0.
         25    2    1    2    0    0 -0.15165445795E+02  0.54865955396E+02  0.21947538576E+03  0.25895338815E+03  0.12508856250E+03 0.  0.
        -24    2    1    2    0    0  0.34725899851E+01 -0.80194493800E+01  0.25894255449E+03  0.27112967560E+03  0.79897960011E+02 0.  0.
        -13    1    3    3    0    0  0.29369958207E+02 -0.22040604224E+02 -0.20941312700E+02  0.42271991404E+02  0.00000000000E+00 0.  1.
         14    1    3    3    0    0 -0.17677102397E+02 -0.24805901792E+02 -0.14587154375E+03  0.14901785124E+03  0.00000000000E+00 0. -1.
         11    1    5    5    0    0 -0.18735025722E+02 -0.22795448682E+02  0.22954744622E+03  0.23143608995E+03  0.00000000000E+00 0. -1.
        -12    1    5    5    0    0  0.22207615707E+02  0.14775999302E+02  0.29395108279E+02  0.39693585647E+02  0.00000000000E+00 0.  1.
          5    1    4    4  501    0  0.14686737875E+02  0.27930320621E+02 -0.37909344054E+01  0.32056928472E+02  0.41800000000E+01 0. -1.
         -5    1    4    4    0  501 -0.29852183670E+02  0.26935634775E+02  0.22326632017E+03  0.22689645967E+03  0.41800000000E+01 0. -1.
</event>
<event>
11    1  0.8328696E-009  0.1456366E+03  0.7561462E-02  0.1101423E+00
         22   -1    0    0    0    0  0.00000000000E+00  0.00000000000E+00  0.60854901970E+03  0.60854901970E+03  0.00000000000E+00 0. -1.
         22   -1    0    0    0    0 -0.00000000000E+00 -0.00000000000E+00 -0.22706777859E+03  0.22706777859E+03  0.00000000000E+00 0. -1.
         24    2    1    2    0    0  0.29596495202E+02  0.86165979129E+02 -0.14504727742E+03  0.18950962786E+03  0.81084264056E+02 0.  0.
         25    2    1    2    0    0 -0.30701287663E+02 -0.59765451939E+01  0.24445623357E+02  0.13123779317E+03  0.12508989447E+03 0.  0.
        -24    2    1    2    0    0  0.11047924614E+01 -0.80189433935E+02  0.50208289517E+03  0.51486937726E+03  0.81065875240E+02 0.  0.
        -13    1    3    3    0    0  0.52527157179E+01  0.46086837659E+02 -0.11246003049E+02  0.47729029033E+02  0.00000000000E+00 0.  1.
         14    1    3    3    0    0  0.24343779484E+02  0.40079141470E+02 -0.13380127437E+03  0.14178059883E+03  0.00000000000E+00 0. -1.
         13    1    5    5    0    0 -0.38323415117E+01 -0.94208311502E+02  0.36493012701E+03  0.37691363785E+03  0.00000000000E+00 0. -1.
        -14    1    5    5    0    0  0.49371339731E+01  0.14018877567E+02  0.13715276817E+03  0.13795573941E+03  0.00000000000E+00 0.  1.
          5    1    4    4  501    0  0.70098610827E+01 -0.47386730857E+02 -0.26937157088E+02  0.55115544501E+02  0.41800000000E+01 0.  1.
         -5    1    4    4    0  501 -0.37711148746E+02  0.41410185663E+02  0.51382780445E+02  0.76122248670E+02  0.41800000000E+01 0.  1.
</event>
<event>
11    1  0.8328696E-009  0.1527795E+03  0.7561462E-02  0.1094072E+00
         22   -1    0    0    0    0  0.00000000000E+00  0.00000000000E+00  0.60456603825E+03  0.60456603825E+03  0.00000000000E+00 0.  1.
         22   -1    0    0    0    0 -0.00000000000E+00 -0.00000000000E+00 -0.11728356392E+04  0.11728356392E+04  0.00000000000E+00 0. -1.
        -24    2    1    2    0    0  0.16215159245E+02 -0.85965397656E+02 -0.10586711980E+04  0.10652892851E+04  0.80022337429E+02 0.  0.
         25    2    1    2    0    0  0.18930072654E+01  0.93651453455E+02 -0.51395540510E+02  0.16450690269E+03  0.12508733444E+03 0.  0.
         24    2    1    2    0    0 -0.18108166510E+02 -0.76860557992E+01  0.54179713757E+03  0.54760548967E+03  0.77075630960E+02 0.  0.
        -11    1    5    5    0    0 -0.57456753630E+01 -0.92959664356E+01  0.53100170299E+03  0.53111414626E+03  0.00000000000E+00 0.  1.
         12    1    5    5    0    0 -0.12362491147E+02  0.16099106364E+01  0.10795434572E+02  0.16491343403E+02  0.00000000000E+00 0. -1.
         11    1    3    3    0    0  0.17065595586E+02 -0.88178986887E+02 -0.60671611673E+03  0.61332798287E+03  0.00000000000E+00 0. -1.
        -12    1    3    3    0    0 -0.85043634163E+00  0.22135892307E+01 -0.45195508127E+03  0.45196130222E+03  0.00000000000E+00 0.  1.
          5    1    4    4  501    0  0.33572896365E+02  0.21072483916E+02 -0.72244443316E+02  0.82510126280E+02  0.41800000000E+01 0. -1.
         -5    1    4    4    0  501 -0.31679889099E+02  0.72578969539E+02  0.20848902806E+02  0.81996776406E+02  0.41800000000E+01 0. -1.
</event>
<event>
11    1  0.8328696E-009  0.1304136E+03  0.7561462E-02  0.1118762E+00
         22   -1    0    0    0    0  0.00000000000E+00  0.00000000000E+00  0.22809365225E+03  0.22809365225E+03  0.00000000000E+00 0.  1.
         22   -1    0    0    0    0 -0.00000000000E+00 -0.00000000000E+00 -0.75886065028E+03  0.75886065028E+03  0.00000000000E+00 0. -1.
        -24    2    1    2    0    0  0.18935494934E+02  0.30513897004E+02 -0.67666939200E+03  0.68245384291E+03  0.81068679253E+02 0.  0.
         25    2    1    2    0    0 -0.28851634234E+02 -0.54263196874E+02  0.60441314370E+01  0.13950190263E+03  0.12508932001E+03 0.  0.
         24    2    1    2    0    0  0.99161392996E+01  0.23749299870E+02  0.13985826254E+03  0.16499855699E+03  0.83676945129E+02 0.  0.
        -11    1    5    5    0    0  0.19163918685E+02  0.51117500694E+02  0.65754045509E+02  0.85462559974E+02  0.00000000000E+00 0.  1.
         12    1    5    5    0    0 -0.92477793854E+01 -0.27368200824E+02  0.74104217031E+02  0.79535997018E+02  0.00000000000E+00 0. -1.
         11    1    3    3    0    0  0.20288177204E+01  0.33984693295E+02 -0.64866710301E+03  0.64955991718E+03  0.00000000000E+00 0. -1.
        -12    1    3    3    0    0  0.16906677214E+02 -0.34707962916E+01 -0.28002288989E+02  0.32893925730E+02  0.00000000000E+00 0.  1.
          5    1    4    4  501    0  0.23618981114E+02  0.19463438941E+02 -0.29001992384E+02  0.42370622918E+02  0.41800000000E+01 0. -1.
         -5    1    4    4    0  501 -0.52470615347E+02 -0.73726635815E+02  0.35046123821E+02  0.97131279711E+02  0.41800000000E+01 0. -1.
</event>
<event>
11    1  0.8328696E-009  0.1311073E+03  0.7561462E-02  0.1117916E+00
         22   -1    0    0    0    0  0.00000000000E+00  0.00000000000E+00  0.15641048432E+04  0.15641048432E+04  0.00000000000E+00 0. -1.
         22   -1    0    0    0    0 -0.00000000000E+00 -0.00000000000E+00 -0.35370010394E+03  0.35370010394E+03  0.00000000000E+00 0.  1.
        -24    2    1    2    0    0 -0.17489285682E+02 -0.25868656634E+01 -0.32126005957E+03  0.33171073396E+03  0.80693358824E+02 0.  0.
         25    2    1    2    0    0  0.55899237817E+02  0.15458342009E+01  0.15534862448E+03  0.20714116065E+03  0.12508857228E+03 0.  0.
         24    2    1    2    0    0 -0.38409952135E+02  0.10410314625E+01  0.13763161744E+04  0.13789530525E+04  0.76084828625E+02 0.  0.
        -13    1    5    5    0    0  0.22603118682E+02  0.75185886497E+01  0.36210282237E+03  0.36288549726E+03  0.00000000000E+00 0.  1.
         14    1    5    5    0    0 -0.61013070817E+02 -0.64775571872E+01  0.10142133520E+04  0.10160675553E+04  0.00000000000E+00 0. -1.
         13    1    3    3    0    0  0.16456123194E+02 -0.31519591581E+02 -0.18339781776E+03  0.18681286948E+03  0.00000000000E+00 0. -1.
        -14    1    3    3    0    0 -0.33945408875E+02  0.28932725917E+02 -0.13786224181E+03  0.14489786448E+03  0.00000000000E+00 0.  1.
          5    1    4    4  501    0  0.79403102745E+02  0.37673202202E+02  0.12996472763E+03  0.15694720678E+03  0.41800000000E+01 0.  1.
         -5    1    4    4    0  501 -0.23503864929E+02 -0.36127368001E+02  0.25383896856E+02  0.50193953867E+02  0.41800000000E+01 0.  1.
</event>
<event>
11    1  0.8328696E-009  0.1355571E+03  0.7561462E-02  0.1112624E+00
         22   -1    0    0    0    0  0.00000000000E+00  0.00000000000E+00  0.25810338993E+03  0.25810338993E+03  0.00000000000E+00 0.  1.
         22   -1    0    0    0    0 -0.00000000000E+00 -0.00000000000E+00 -0.36953043579E+03  0.36953043579E+03  0.00000000000E+00 0. -1.
         24    2    1    2    0    0  0.14277905568E+02  0.47961042042E+02 -0.28863402113E+03  0.30397524909E+03  0.81161775283E+02 0.  0.
         25    2    1    2    0    0 -0.21026095648E+02 -0.73948692025E+02  0.23604700869E+02  0.14871092106E+03  0.12508896989E+03 0.  0.
        -24    2    1    2    0    0  0.67481900800E+01  0.25987649982E+02  0.15360227440E+03  0.17494765557E+03  0.79322931542E+02 0.  0.
        -11    1    3    3    0    0  0.64126979045E+01 -0.16173927788E+02 -0.15498271032E+02  0.23300537322E+02  0.00000000000E+00 0.  1.
         12    1    3    3    0    0  0.78652076634E+01  0.64134969831E+02 -0.27313575009E+03  0.28067471177E+03  0.00000000000E+00 0. -1.
         11    1    5    5    0    0 -0.22722368690E+01  0.54060111529E+02  0.94342081885E+02  0.10875700958E+03  0.00000000000E+00 0. -1.
        -12    1    5    5    0    0  0.90204269490E+01 -0.28072461547E+02  0.59260192513E+02  0.66190645988E+02  0.00000000000E+00 0.  1.
          5    1    4    4  501    0  0.50584023435E+02 -0.42222515571E+02 -0.24328179098E+01  0.66067202536E+02  0.41800000000E+01 0. -1.
         -5    1    4    4    0  501 -0.71610119083E+02 -0.31726176454E+02  0.26037518779E+02  0.82643718525E+02  0.41800000000E+01 0. -1.
</event>
<event>
11    1  0.8328696E-009  0.2229930E+03  0.7561462E-02  0.1039359E+00
         22   -1    0    0    0    0  0.00000000000E+00  0.00000000000E+00  0.30289141735E+03  0.30289141735E+03  0.00000000000E+00 0. -1.
         22   -1    0    0    0    0 -0.00000000000E+00 -0.00000000000E+00 -0.15367852499E+04  0.15367852499E+04  0.00000000000E+00 0. -1.
        -24    2    1    2    0    0 -0.34177569095E+02  0.24859806306E+02 -0.13715267837E+04  0.13745214852E+04  0.80233899858E+02 0.  0.
         25    2    1    2    0    0 -0.10701837246E+03 -0.14773779521E+03 -0.62315535882E+00  0.22119554893E+03  0.12509074452E+03 0.  0.
         24    2    1    2    0    0  0.14119594155E+03  0.12287798891E+03  0.13825610650E+03  0.24395963313E+03  0.73254744163E+02 0.  0.
        -11    1    5    5    0    0  0.56332927475E+02  0.17580066169E+02  0.14787137045E+02  0.60836805196E+02  0.00000000000E+00 0.  1.
         12    1    5    5    0    0  0.84863014076E+02  0.10529792274E+03  0.12346896946E+03  0.18312282793E+03  0.00000000000E+00 0. -1.
         13    1    3    3    0    0 -0.12461371333E+02  0.16755989036E+02 -0.12778170295E+04  0.12779876407E+04  0.00000000000E+00 0. -1.
        -14    1    3    3    0    0 -0.21716197762E+02  0.81038172694E+01 -0.93709754194E+02  0.96533844483E+02  0.00000000000E+00 0.  1.
          5    1    4    4  501    0 -0.42664206168E+01 -0.12398286890E+02 -0.43724347033E+02  0.45838965806E+02  0.41800000000E+01 0. -1.
         -5    1    4    4    0  501 -0.10275195184E+03 -0.13533950832E+03  0.43101191674E+02  0.17535658312E+03  0.41800000000E+01 0. -1.
</event>
<event>
11    1  0.8328696E-009  0.1472684E+03  0.7561462E-02  0.1099703E+00
         22   -1    0    0    0    0  0.00000000000E+00  0.00000000000E+00  0.75054714056E+03  0.75054714056E+03  0.00000000000E+00 0. -1.
         22   -1    0    0    0    0 -0.00000000000E+00 -0.00000000000E+00 -0.11075493792E+04  0.11075493792E+04  0.00000000000E+00 0.  1.
         24    2    1    2    0    0  0.20319573878E+02  0.17039549724E+02 -0.10674255237E+04  0.10704384913E+04  0.75750140228E+02 0.  0.
         25    2    1    2    0    0  0.60220627332E+02 -0.13880437533E+02  0.11310648804E+03  0.17960987515E+03  0.12508972424E+03 0.  0.
        -24    2    1    2    0    0 -0.80540201210E+02 -0.31591121914E+01  0.59731679697E+03  0.60804815332E+03  0.80240244352E+02 0.  0.
        -13    1    3    3    0    0 -0.10735490892E+02  0.39887538457E+02 -0.60502095314E+03  0.60642940251E+03  0.00000000000E+00 0.  1.
         14    1    3    3    0    0  0.31055064770E+02 -0.22847988733E+02 -0.46240457055E+03  0.46400908882E+03  0.00000000000E+00 0. -1.
         13    1    5    5    0    0 -0.92909013723E+02 -0.17142773085E+02  0.51969300793E+03  0.52821092566E+03  0.00000000000E+00 0. -1.
        -14    1    5    5    0    0  0.12368812513E+02  0.13983660893E+02  0.77623789047E+02  0.79837227663E+02  0.00000000000E+00 0.  1.
          5    1    4    4  501    0  0.17539650845E+02  0.55270989850E+02  0.45827717085E+02  0.74028195466E+02  0.41800000000E+01 0. -1.
         -5    1    4    4    0  501  0.42680976487E+02 -0.69151427383E+02  0.67278770957E+02  0.10558167968E+03  0.41800000000E+01 0. -1.
</event>
<event>
11    1  0.8328696E-009  0.1461702E+03  0.7561462E-02  0.1100858E+00
         22   -1    0    0    0    0  0.00000000000E+00  0.00000000000E+00  0.98563973329E+03  0.98563973329E+03  0.00000000000E+00 0.  1.
         22   -1    0    0    0    0 -0.00000000000E+00 -0.00000000000E+00 -0.31227059162E+03  0.31227059162E+03  0.00000000000E+00 0. -1.
         24    2    1    2    0    0  0.40973908633E+02  0.63347000250E+02 -0.22901693308E+03  0.25399798046E+03  0.79840558687E+02 0.  0.
         25    2    1    2    0    0 -0.27410286474E+01 -0.87587920845E+02  0.17050820159E+02  0.15368290439E+03  0.12509415461E+03 0.  0.
        -24    2    1    2    0    0 -0.38232879986E+02  0.24240920595E+02  0.88533525459E+03  0.89022944006E+03  0.81489677790E+02 0.  0.
        -13    1    3    3    0    0 -0.21400234642E+02  0.22848381191E+02 -0.39427408350E+02  0.50344206172E+02  0.00000000000E+00 0.  1.
         14    1    3    3    0    0  0.62374143275E+02  0.40498619058E+02 -0.18958952473E+03  0.20365377429E+03  0.00000000000E+00 0. -1.
         11    1    5    5    0    0  0.21147221877E+01 -0.27297276462E+02  0.22560511840E+03  0.22726038546E+03  0.00000000000E+00 0. -1.
        -12    1    5    5    0    0 -0.40347602173E+02  0.51538197057E+02  0.65973013619E+03  0.66296905460E+03  0.00000000000E+00 0.  1.
          5    1    4    4  501    0 -0.45246584467E+02 -0.85847659847E+02  0.40140935661E+02  0.10509919706E+03  0.41800000000E+01 0.  1.
         -5    1    4    4    0  501  0.42505555819E+02 -0.17402609984E+01 -0.23090115502E+02  0.48583707328E+02  0.41800000000E+01 0.  1.
</event>
<event>
11    1  0.8328696E-009  0.1358830E+03  0.7561462E-02  0.1112245E+00
         22   -1    0    0    0    0  0.00000000000E+00  0.00000000000E+00  0.15109031538E+04  0.15109031538E+04  0.00000000000E+00 0. -1.
         22   -1    0    0    0    0 -0.00000000000E+00 -0.00000000000E+00 -0.42713902971E+02  0.42713902971E+02  0.00000000000E+00 0. -1.
        -24    2    1    2    0    0  0.53970589777E+02  0.17293451563E+02  0.37646962604E+02  0.10513743218E+03  0.80154212765E+02 0.  0.
         25    2    1    2    0    0 -0.20741389697E+02 -0.94355050071E+01  0.59302568766E+03  0.60650495234E+03  0.12509818940E+03 0.  0.
         24    2    1    2    0    0 -0.33229200080E+02 -0.78579465558E+01  0.83751660059E+03  0.84197467228E+03  0.79507014943E+02 0.  0.
        -13    1    5    5    0    0  0.13724951281E+02 -0.29262921457E+01  0.30448678384E+02  0.33526996417E+02  0.00000000000E+00 0.  1.
         14    1    5    5    0    0 -0.46954151361E+02 -0.49316544101E+01  0.80706792221E+03  0.80844767586E+03  0.00000000000E+00 0. -1.
         13    1    3    3    0    0  0.62853273083E+02  0.23395074933E+02  0.11428224572E+01  0.67075848944E+02  0.00000000000E+00 0. -1.
        -14    1    3    3    0    0 -0.88826833066E+01 -0.61016233697E+01  0.36504140147E+02  0.38061583235E+02  0.00000000000E+00 0.  1.
          5    1    4    4  501    0 -0.51267526012E+01 -0.19928481309E+02  0.58540486898E+03  0.58578132523E+03  0.41800000000E+01 0.  1.
         -5    1    4    4    0  501 -0.15614637096E+02  0.10492976302E+02  0.76208186737E+01  0.20723627109E+02  0.41800000000E+01 0.  1.
</event>
<event>
11    1  0.8328696E-009  0.1331965E+03  0.7561462E-02  0.1115403E+00
         22   -1    0    0    0    0  0.00000000000E+00  0.00000000000E+00  0.17199660735E+04  0.17199660735E+04  0.00000000000E+00 0.  1.
         22   -1    0    0    0    0 -0.00000000000E+00 -0.00000000000E+00 -0.29324685265E+03  0.29324685265E+03  0.00000000000E+00 0. -1.
        -24    2    1    2    0    0  0.12414842535E+02 -0.39625505397E+02 -0.17953282920E+03  0.20021463491E+03  0.78291470024E+02 0.  0.
         25    2    1    2    0    0  0.17873591974E+02  0.73587775192E+02 -0.49723859652E+02  0.15444454331E+03  0.12508408688E+03 0.  0.
         24    2    1    2    0    0 -0.30288434509E+02 -0.33962269796E+02  0.16559759097E+04  0.16585537479E+04  0.80458040142E+02 0.  0.
        -13    1    5    5    0    0 -0.39972702180E+02  0.12185011840E+02  0.10072353267E+04  0.10081018276E+04  0.00000000000E+00 0.  1.
         14    1    5    5    0    0  0.96842676715E+01 -0.46147281635E+02  0.64874058292E+03  0.65045192026E+03  0.00000000000E+00 0. -1.
         13    1    3    3    0    0 -0.10975292961E+02 -0.13433337986E+02 -0.15815468811E+03  0.15910316463E+03  0.00000000000E+00 0. -1.
        -14    1    3    3    0    0  0.23390135496E+02 -0.26192167411E+02 -0.21378141098E+02  0.41111470285E+02  0.00000000000E+00 0.  1.
          5    1    4    4  501    0  0.54000290412E+02 -0.22176430383E+01  0.45070183032E+01  0.54394254469E+02  0.41800000000E+01 0. -1.
         -5    1    4    4    0  501 -0.36126698438E+02  0.75805418231E+02 -0.54230877955E+02  0.10005028884E+03  0.41800000000E+01 0. -1.
</event>
<event>
11    1  0.8328696E-009  0.1634661E+03  0.7561462E-02  0.1083862E+00
         22   -1    0    0    0    0  0.00000000000E+00  0.00000000000E+00  0.20313217697E+03  0.20313217697E+03  0.00000000000E+00 0.  1.
         22   -1    0    0    0    0 -0.00000000000E+00 -0.00000000000E+00 -0.13312208709E+04  0.13312208709E+04  0.00000000000E+00 0. -1.
         24    2    1    2    0    0 -0.36100707555E+02 -0.11980075691E+02 -0.10369545808E+04  0.10411004708E+04  0.84667611313E+02 0.  0.
         25    2    1    2    0    0 -0.57856992747E+02  0.64038060530E+02 -0.24547156496E+03  0.28870861953E+03  0.12509225786E+03 0.  0.
        -24    2    1    2    0    0  0.93957700302E+02 -0.52057984839E+02  0.15433745176E+03  0.20454395759E+03  0.80499057990E+02 0.  0.
        -13    1    3    3    0    0 -0.63800174642E+02 -0.71271359824E+01 -0.76865627342E+03  0.77133243483E+03  0.00000000000E+00 0.  1.
         14    1    3    3    0    0  0.27699467087E+02 -0.48529397082E+01 -0.26829830736E+03  0.26976803597E+03  0.00000000000E+00 0. -1.
         13    1    5    5    0    0  0.26839408726E+02  0.10294285484E+02  0.47542054797E+01  0.29136380080E+02  0.00000000000E+00 0. -1.
        -14    1    5    5    0    0  0.67118291575E+02 -0.62352270323E+02  0.14958324628E+03  0.17540757751E+03  0.00000000000E+00 0.  1.
          5    1    4    4  501    0 -0.22968776727E+02 -0.36464065670E+02 -0.94770108602E+02  0.10419231581E+03  0.41800000000E+01 0. -1.
         -5    1    4    4    0  501 -0.34888216020E+02  0.10050212620E+03 -0.15070145636E+03  0.18451630372E+03  0.41800000000E+01 0. -1.
</event>
<event>
11    1  0.8328696E-009  0.3786888E+03  0.7561462E-02  0.9714818E-01
         22   -1    0    0    0    0  0.00000000000E+00  0.00000000000E+00  0.29674146145E+03  0.29674146145E+03  0.00000000000E+00 0.  1.
         22   -1    0    0    0    0 -0.00000000000E+00 -0.00000000000E+00 -0.12005493976E+04  0.12005493976E+04  0.00000000000E+00 0.  1.
        -24    2    1    2    0    0 -0.28222090336E+03 -0.18734520682E+03 -0.69838634555E+03  0.78021611719E+03  0.79036934822E+02 0.  0.
         25    2    1    2    0    0  0.25552640710E+03  0.37678774731E+03 -0.19299381963E+03  0.51005577700E+03  0.12509008753E+03 0.  0.
         24    2    1    2    0    0  0.26694496260E+02 -0.18944254049E+03 -0.12427770952E+02  0.20701896484E+03  0.78111010964E+02 0.  0.
        -13    1    5    5    0    0  0.13207653736E+02 -0.93255670555E+02 -0.45254047709E+02  0.10449397610E+03  0.00000000000E+00 0.  1.
         14    1    5    5    0    0  0.13486842524E+02 -0.96186869933E+02  0.32826276757E+02  0.10252498873E+03  0.00000000000E+00 0. -1.
         13    1    3    3    0    0 -0.15637015363E+03 -0.13779739221E+03 -0.36291533014E+03  0.41850601322E+03  0.00000000000E+00 0. -1.
        -14    1    3    3    0    0 -0.12585074972E+03 -0.49547814608E+02 -0.33547101540E+03  0.36171010397E+03  0.00000000000E+00 0.  1.
          5    1    4    4  501    0  0.19484896015E+03  0.18529862483E+03 -0.85473796662E+02  0.28217891479E+03  0.41800000000E+01 0. -1.
         -5    1    4    4    0  501  0.60677446943E+02  0.19148912247E+03 -0.10752002297E+03  0.22787686221E+03  0.41800000000E+01 0. -1.
</event>
<event>
11    1  0.8328696E-009  0.1350338E+03  0.7561462E-02  0.1113234E+00
         22   -1    0    0    0    0  0.00000000000E+00  0.00000000000E+00  0.16655344076E+04  0.16655344076E+04  0.00000000000E+00 0. -1.
         22   -1    0    0    0    0 -0.00000000000E+00 -0.00000000000E+00 -0.86345000470E+03  0.86345000470E+03  0.00000000000E+00 0. -1.
        -24    2    1    2    0    0 -0.23023293031E+02 -0.39608978837E+02 -0.84087915625E+03  0.84450150977E+03  0.63293770320E+02 0.  0.
         25    2    1    2    0    0  0.61794881523E+02  0.67215539042E+02  0.29381294031E+03  0.33213385378E+03  0.12510122646E+03 0.  0.
         24    2    1    2    0    0 -0.38771588492E+02 -0.27606560205E+02  0.13491506188E+04  0.13523490487E+04  0.79844843958E+02 0.  0.
        -13    1    5    5    0    0 -0.47657105305E+01  0.26807889013E+02  0.29781219168E+03  0.29905430347E+03  0.00000000000E+00 0.  1.
         14    1    5    5    0    0 -0.34005877962E+02 -0.54414449218E+02  0.10513384271E+04  0.10532947452E+04  0.00000000000E+00 0. -1.
         11    1    3    3    0    0  0.18282924461E+02 -0.97934433709E+01 -0.42629146560E+03  0.42679572456E+03  0.00000000000E+00 0. -1.
        -12    1    3    3    0    0 -0.41306217493E+02 -0.29815535466E+02 -0.41458769065E+03  0.41770578521E+03  0.00000000000E+00 0.  1.
          5    1    4    4  501    0 -0.14278155972E+02  0.27121441572E+02  0.20901529129E+03  0.21129198453E+03  0.41800000000E+01 0.  1.
         -5    1    4    4    0  501  0.76073037495E+02  0.40094097470E+02  0.84797649020E+02  0.12084186926E+03  0.41800000000E+01 0.  1.
</event>
<event>
11    1  0.8328696E-009  0.1355365E+03  0.7561462E-02  0.1112648E+00
         22   -1    0    0    0    0  0.00000000000E+00  0.00000000000E+00  0.10361698520E+03  0.10361698520E+03  0.00000000000E+00 0. -1.
         22   -1    0    0    0    0 -0.00000000000E+00 -0.00000000000E+00 -0.80159547485E+03  0.80159547485E+03  0.00000000000E+00 0. -1.
        -24    2    1    2    0    0  0.39625050640E+02 -0.28884539213E-01 -0.58987790143E+03  0.59749036242E+03  0.86421346428E+02 0.  0.
         25    2    1    2    0    0 -0.83836092333E+02 -0.12118522092E+02 -0.14079477168E+03  0.20651060075E+03  0.12509241197E+03 0.  0.
         24    2    1    2    0    0  0.44211041693E+02  0.12147406631E+02  0.32694183469E+02  0.10121149688E+03  0.84099237648E+02 0.  0.
        -11    1    5    5    0    0  0.84397601416E+01  0.32380353863E+02 -0.16334974876E+02  0.37236383709E+02  0.00000000000E+00 0.  1.
         12    1    5    5    0    0  0.35771281552E+02 -0.20232947232E+02  0.49029158345E+02  0.63975113173E+02  0.00000000000E+00 0. -1.
         13    1    3    3    0    0 -0.41028263598E+01  0.25446914503E+02 -0.40474857100E+03  0.40556847063E+03  0.00000000000E+00 0. -1.
        -14    1    3    3    0    0  0.43727877000E+02 -0.25475799042E+02 -0.18512933043E+03  0.19192189179E+03  0.00000000000E+00 0.  1.
          5    1    4    4  501    0 -0.24595334851E+02  0.53382851904E+02 -0.79369805454E+02  0.98851898271E+02  0.41800000000E+01 0. -1.
         -5    1    4    4    0  501 -0.59240757482E+02 -0.65501373996E+02 -0.61424966228E+02  0.10765870247E+03  0.41800000000E+01 0. -1.
</event>
<event>
11    1  0.8328696E-009  0.1444181E+03  0.7561462E-02  0.1102723E+00
         22   -1    0    0    0    0  0.00000000000E+00  0.00000000000E+00  0.67686224073E+03  0.67686224073E+03  0.00000000000E+00 0.  1.
         22   -1    0    0    0    0 -0.00000000000E+00 -0.00000000000E+00 -0.11440980506E+04  0.11440980506E+04  0.00000000000E+00 0.  1.
        -24    2    1    2    0    0  0.57073317756E+02 -0.38602507367E+02 -0.91277317123E+03  0.91892145706E+03  0.80710996543E+02 0.  0.
         25    2    1    2    0    0 -0.79123655074E+02  0.67285014505E+02 -0.19638857050E+03  0.25495897382E+03  0.12509109376E+03 0.  0.
         24    2    1    2    0    0  0.22050337318E+02 -0.28682507139E+02  0.64192593182E+03  0.64707986048E+03  0.73037937385E+02 0.  0.
        -11    1    5    5    0    0 -0.18422680614E+02 -0.35249853514E+02  0.35940442735E+03  0.36159852009E+03  0.00000000000E+00 0.  1.
         12    1    5    5    0    0  0.40473017932E+02  0.65673463752E+01  0.28252150447E+03  0.28548134038E+03  0.00000000000E+00 0. -1.
         11    1    3    3    0    0 -0.76523194373E+01 -0.29250482261E+02 -0.13219410497E+03  0.13560763288E+03  0.00000000000E+00 0. -1.
        -12    1    3    3    0    0  0.64725637193E+02 -0.93520251057E+01 -0.78057906626E+03  0.78331382419E+03  0.00000000000E+00 0.  1.
          5    1    4    4  501    0 -0.36961967548E+02  0.99881984739E+02 -0.10852282734E+03  0.15210941580E+03  0.41800000000E+01 0. -1.
         -5    1    4    4    0  501 -0.42161687526E+02 -0.32596970234E+02 -0.87865743160E+02  0.10284955802E+03  0.41800000000E+01 0. -1.
</event>
<event>
11    1  0.8328696E-009  0.1436641E+03  0.7561462E-02  0.1103534E+00
         22   -1    0    0    0    0  0.00000000000E+00  0.00000000000E+00  0.56487491702E+03  0.56487491702E+03  0.00000000000E+00 0.  1.
         22   -1    0    0    0    0 -0.00000000000E+00 -0.00000000000E+00 -0.18626707089E+04  0.18626707089E+04  0.00000000000E+00 0.  1.
         24    2    1    2    0    0  0.46271569790E+02  0.12347982971E+02 -0.13419756413E+04  0.13453291438E+04  0.81965556613E+02 0.  0.
         25    2    1    2    0    0 -0.11558455395E+03 -0.10708250812E+01 -0.49983905761E+03  0.52806040822E+03  0.12509106855E+03 0.  0.
        -24    2    1    2    0    0  0.69312984165E+02 -0.11277157890E+02  0.54401890705E+03  0.55415607389E+03  0.78745913794E+02 0.  0.
        -13    1    3    3    0    0  0.13850830017E+02  0.20871860859E+02 -0.10678567918E+03  0.10968437147E+03  0.00000000000E+00 0.  1.
         14    1    3    3    0    0  0.32420739773E+02 -0.85238778878E+01 -0.12351899621E+04  0.12356447724E+04  0.00000000000E+00 0. -1.
         13    1    5    5    0    0  0.18061853413E+02  0.31962638548E+02  0.14705161661E+03  0.15156522939E+03  0.00000000000E+00 0. -1.
        -14    1    5    5    0    0  0.51251130752E+02 -0.43239796438E+02  0.39696729044E+03  0.40259084450E+03  0.00000000000E+00 0.  1.
          5    1    4    4  501    0 -0.50069223343E+02 -0.61676597328E+02 -0.26965367429E+03  0.28114321305E+03  0.41800000000E+01 0.  1.
         -5    1    4    4    0  501 -0.65515330612E+02  0.60605772247E+02 -0.23018538332E+03  0.24691719517E+03  0.41800000000E+01 0.  1.
</event>
<event>
11    1  0.8328696E-009  0.1593927E+03  0.7561462E-02  0.1087650E+00
         22   -1    0    0    0    0  0.00000000000E+00  0.00000000000E+00  0.74532413677E+03  0.74532413677E+03  0.00000000000E+00 0. -1.
         22   -1    0    0    0    0 -0.00000000000E+00 -0.00000000000E+00 -0.20534107381E+03  0.20534107381E+03  0.00000000000E+00 0. -1.
        -24    2    1    2    0    0  0.72799203953E+01 -0.79913331157E+02 -0.14420789671E+03  0.18492839872E+03  0.83447333347E+02 0.  0.
         25    2    1    2    0    0  0.89550529276E+02  0.37796282028E+02  0.16090874704E+03  0.22580776132E+03  0.12509861698E+03 0.  0.
         24    2    1    2    0    0 -0.96830449672E+02  0.42117049128E+02  0.52328221264E+03  0.53992905053E+03  0.80926656515E+02 0.  0.
        -11    1    5    5    0    0 -0.57697543550E+01  0.29200960792E+02  0.24593897645E+03  0.24773366003E+03  0.00000000000E+00 0.  1.
         12    1    5    5    0    0 -0.91060695317E+02  0.12916088337E+02  0.27734323619E+03  0.29219539050E+03  0.00000000000E+00 0. -1.
         13    1    3    3    0    0 -0.31428912652E+02 -0.68342719764E+02 -0.98182798160E+02  0.12368656253E+03  0.00000000000E+00 0. -1.
        -14    1    3    3    0    0  0.38708833048E+02 -0.11570611392E+02 -0.46025098554E+02  0.61241836197E+02  0.00000000000E+00 0.  1.
          5    1    4    4  501    0 -0.17533933723E+02 -0.15655338024E+02 -0.16131099473E+01  0.23929123765E+02  0.41800000000E+01 0. -1.
         -5    1    4    4    0  501  0.10708446300E+03  0.53451620052E+02  0.16252185698E+03  0.20187863755E+03  0.41800000000E+01 0. -1.
</event>
<event>
11    1  0.8328696E-009  0.2618324E+03  0.7561462E-02  0.1017778E+00
         22   -1    0    0    0    0  0.00000000000E+00  0.00000000000E+00  0.41627618409E+03  0.41627618409E+03  0.00000000000E+00 0.  1.
         22   -1    0    0    0    0 -0.00000000000E+00 -0.00000000000E+00 -0.43856064248E+03  0.43856064248E+03  0.00000000000E+00 0. -1.
        -24    2    1    2    0    0 -0.61383830886E+02 -0.19979601089E+03 -0.18277231666E+03  0.29073002155E+03  0.86207917458E+02 0.  0.
         25    2    1    2    0    0  0.15381677599E+03  0.24489159927E+03 -0.47566809005E+02  0.31865586089E+03  0.12508980932E+03 0.  0.
         24    2    1    2    0    0 -0.92432945101E+02 -0.45095588372E+02  0.20805466727E+03  0.24545094412E+03  0.79887170223E+02 0.  0.
        -13    1    5    5    0    0 -0.49225618667E+02 -0.15151510436E+02  0.17711710208E+03  0.18445378189E+03  0.00000000000E+00 0.  1.
         14    1    5    5    0    0 -0.43207326433E+02 -0.29944077937E+02  0.30937565187E+02  0.60997162235E+02  0.00000000000E+00 0. -1.
         13    1    3    3    0    0 -0.80933325241E+02 -0.12913604673E+03 -0.13116148305E+03  0.20107127178E+03  0.00000000000E+00 0. -1.
        -14    1    3    3    0    0  0.19549494355E+02 -0.70659964160E+02 -0.51610833611E+02  0.89658749772E+02  0.00000000000E+00 0.  1.
          5    1    4    4  501    0  0.34399812698E+02  0.11968528331E+03  0.31281586865E+02  0.12846759993E+03  0.41800000000E+01 0. -1.
         -5    1    4    4    0  501  0.11941696329E+03  0.12520631596E+03 -0.78848395870E+02  0.19018826096E+03  0.41800000000E+01 0. -1.
</event>
<event>
11    1  0.8328696E-009  0.1624175E+03  0.7561462E-02  0.1084825E+00
         22   -1    0    0    0    0  0.00000000000E+00  0.00000000000E+00  0.68857374301E+03  0.68857374301E+03  0.00000000000E+00 0.  1.
         22   -1    0    0    0    0 -0.00000000000E+00 -0.00000000000E+00 -0.38667602493E+03  0.38667602493E+03  0.00000000000E+00 0. -1.
         24    2    1    2    0    0  0.20871820819E+02 -0.22012642795E+02 -0.31477480444E+03  0.32576190388E+03  0.78214136605E+02 0.  0.
         25    2    1    2    0    0 -0.11929054684E+03  0.42937640243E+02  0.76984541532E+02  0.19402432554E+03  0.12507974957E+03 0.  0.
        -24    2    1    2    0    0  0.98418726022E+02 -0.20924997449E+02  0.53968798098E+03  0.55546353851E+03  0.84572599910E+02 0.  0.
        -11    1    3    3    0    0  0.32830827788E+02  0.19713924252E+02 -0.11114900626E+03  0.11756106352E+03  0.00000000000E+00 0.  1.
         12    1    3    3    0    0 -0.11959006969E+02 -0.41726567047E+02 -0.20362579817E+03  0.20820084036E+03  0.00000000000E+00 0. -1.
         11    1    5    5    0    0  0.38147585163E+02  0.27323213497E+02  0.30002720775E+03  0.30367436777E+03  0.00000000000E+00 0. -1.
        -12    1    5    5    0    0  0.60271140858E+02 -0.48248210946E+02  0.23966077323E+03  0.25178917075E+03  0.00000000000E+00 0.  1.
          5    1    4    4  501    0 -0.11180576972E+03  0.49223567983E+01  0.98817017156E+02  0.14935539836E+03  0.41800000000E+01 0.  1.
         -5    1    4    4    0  501 -0.74847771191E+01  0.38015283445E+02 -0.21832475624E+02  0.44668927184E+02  0.41800000000E+01 0.  1.
</event>
<event>
11    1  0.8328696E-009  0.1413218E+03  0.7561462E-02  0.1106091E+00
         22   -1    0    0    0    0  0.00000000000E+00  0.00000000000E+00  0.25950326796E+02  0.25950326796E+02  0.00000000000E+00 0.  1.
         22   -1    0    0    0    0 -0.00000000000E+00 -0.00000000000E+00 -0.16434947169E+04  0.16434947169E+04  0.00000000000E+00 0. -1.
        -24    2    1    2    0    0 -0.43039771153E+02 -0.50072433551E+02 -0.10344646765E+04  0.10396869427E+04  0.80449371704E+02 0.  0.
         25    2    1    2    0    0  0.58487201765E+02  0.34155009071E+02 -0.46154815676E+03  0.48296905777E+03  0.12508034351E+03 0.  0.
         24    2    1    2    0    0 -0.15447430612E+02  0.15917424480E+02 -0.12153155685E+03  0.14678904323E+03  0.79278725949E+02 0.  0.
        -11    1    5    5    0    0 -0.43181927694E+02  0.55258708324E+01 -0.36711804576E+02  0.56947087046E+02  0.00000000000E+00 0.  1.
         12    1    5    5    0    0  0.27734497082E+02  0.10391553648E+02 -0.84819752276E+02  0.89841956188E+02  0.00000000000E+00 0. -1.
         13    1    3    3    0    0 -0.45700659790E+02 -0.24648492164E+02 -0.95050059517E+03  0.95191779051E+03  0.00000000000E+00 0. -1.
        -14    1    3    3    0    0  0.26608886376E+01 -0.25423941387E+02 -0.83964081355E+02  0.87769152222E+02  0.00000000000E+00 0.  1.
          5    1    4    4  501    0  0.86675747809E+02  0.28590805918E+02 -0.43195127264E+03  0.44150820353E+03  0.41800000000E+01 0.  1.
         -5    1    4    4    0  501 -0.28188546044E+02  0.55642031534E+01 -0.29596884119E+02  0.41460854241E+02  0.41800000000E+01 0.  1.
</event>
<event>
11    1  0.8328696E-009  0.1315119E+03  0.7561462E-02  0.1117425E+00
         22   -1    0    0    0    0  0.00000000000E+00  0.00000000000E+00  0.75197799933E+03  0.75197799933E+03  0.00000000000E+00 0. -1.
         22   -1    0    0    0    0 -0.00000000000E+00 -0.00000000000E+00 -0.45041833350E+03  0.45041833350E+03  0.00000000000E+00 0. -1.
        -24    2    1    2    0    0  0.41717273301E+00  0.40224594507E+02 -0.42260744747E+03  0.43337311038E+03  0.87160806034E+02 0.  0.
         25    2    1    2    0    0 -0.10837778458E+01 -0.56419903627E+02  0.22878792615E+03  0.26679141237E+03  0.12509741190E+03 0.  0.
         24    2    1    2    0    0  0.66660511276E+00  0.16195309120E+02  0.49537918715E+03  0.50223181007E+03  0.81077244570E+02 0.  0.
        -13    1    5    5    0    0 -0.81554680558E+01 -0.71218898667E+01  0.63186859451E+01  0.12536297960E+02  0.00000000000E+00 0.  1.
         14    1    5    5    0    0  0.88220731685E+01  0.23317198987E+02  0.48906050120E+03  0.48969551211E+03  0.00000000000E+00 0. -1.
         13    1    3    3    0    0 -0.33935794719E+02  0.44052478491E+02 -0.32732032602E+03  0.33201032341E+03  0.00000000000E+00 0. -1.
        -14    1    3    3    0    0  0.34352967452E+02 -0.38278839846E+01 -0.95287121446E+02  0.10136278697E+03  0.00000000000E+00 0.  1.
          5    1    4    4  501    0 -0.37812281932E+02 -0.40052945786E+02  0.27918921190E+02  0.61894633785E+02  0.41800000000E+01 0. -1.
         -5    1    4    4    0  501  0.36728504086E+02 -0.16366957841E+02  0.20086900496E+03  0.20489677859E+03  0.41800000000E+01 0. -1.
</event>
<event>
11    1  0.8328696E-009  0.2297196E+03  0.7561462E-02  0.1035294E+00
         22   -1    0    0    0    0  0.00000000000E+00  0.00000000000E+00  0.24183703382E+04  0.24183703382E+04  0.00000000000E+00 0. -1.
         22   -1    0    0    0    0 -0.00000000000E+00 -0.00000000000E+00 -0.88694929562E+02  0.88694929562E+02  0.00000000000E+00 0.  1.
         24    2    1    2    0    0  0.76553532617E+01  0.34990238890E+02 -0.44292020535E+02  0.80427485354E+02  0.56779186911E+02 0.  0.
         25    2    1    2    0    0  0.13081335436E+03 -0.16243042209E+03  0.71930843620E+03  0.75930696469E+03  0.12508662814E+03 0.  0.
        -24    2    1    2    0    0 -0.13846870763E+03  0.12744018320E+03  0.16546589929E+04  0.16673308177E+04  0.81737931154E+02 0.  0.
        -13    1    3    3    0    0 -0.11527433879E+02  0.43926493518E+02 -0.25260878658E+02  0.51966629246E+02  0.00000000000E+00 0.  1.
         14    1    3    3    0    0  0.19182787141E+02 -0.89362546287E+01 -0.19031141877E+02  0.28460856108E+02  0.00000000000E+00 0. -1.
         13    1    5    5    0    0 -0.11948061758E+03  0.87166936046E+02  0.14681568385E+04  0.14755874068E+04  0.00000000000E+00 0. -1.
        -14    1    5    5    0    0 -0.18988090041E+02  0.40273247159E+02  0.18650215444E+03  0.19174341087E+03  0.00000000000E+00 0.  1.
          5    1    4    4  501    0  0.39269638437E+02  0.39530045994E+01  0.24807979645E+03  0.25123452898E+03  0.41800000000E+01 0. -1.
         -5    1    4    4    0  501  0.91543715927E+02 -0.16638342669E+03  0.47122863975E+03  0.50807243571E+03  0.41800000000E+01 0. -1.
</event>
<event>
11    1  0.8328696E-009  0.2883353E+03  0.7561462E-02  0.1005252E+00
         22   -1    0    0    0    0  0.00000000000E+00  0.00000000000E+00  0.18393251331E+04  0.18393251331E+04  0.00000000000E+00 0.  1.
         22   -1    0    0    0    0 -0.00000000000E+00 -0.00000000000E+00 -0.23367934614E+04  0.23367934614E+04  0.00000000000E+00 0. -1.
        -24    2    1    2    0    0  0.98083512954E+02  0.24003829868E+03 -0.21970704245E+04  0.22137619199E+04  0.79903862975E+02 0.  0.
         25    2    1    2    0    0 -0.12960889302E+03 -0.23825711179E+03  0.40919354928E+02  0.30147623302E+03  0.12509440035E+03 0.  0.
         24    2    1    2    0    0  0.31525380062E+02 -0.17811868879E+01  0.16586827413E+04  0.16608804417E+04  0.79362353337E+02 0.  0.
        -13    1    5    5    0    0  0.31115308190E+02  0.35718765144E+02  0.83193544890E+03  0.83328301538E+03  0.00000000000E+00 0.  1.
         14    1    5    5    0    0  0.41007187209E+00 -0.37499952032E+02  0.82674729237E+03  0.82759742629E+03  0.00000000000E+00 0. -1.
         13    1    3    3    0    0  0.14068746894E+02  0.13996782190E+03 -0.11422337434E+04  0.11508635216E+04  0.00000000000E+00 0. -1.
        -14    1    3    3    0    0  0.84014766060E+02  0.10007047678E+03 -0.10548366811E+04  0.10628983983E+04  0.00000000000E+00 0.  1.
          5    1    4    4  501    0 -0.21176541322E+01  0.14582400968E+02  0.44014778211E+01  0.15936633397E+02  0.41800000000E+01 0. -1.
         -5    1    4    4    0  501 -0.12749123888E+03 -0.25283951276E+03  0.36517877107E+02  0.28553959963E+03  0.41800000000E+01 0. -1.
</event>
<event>
11    1  0.8328696E-009  0.1731082E+03  0.7561462E-02  0.1075358E+00
         22   -1    0    0    0    0  0.00000000000E+00  0.00000000000E+00  0.43467469187E+03  0.43467469187E+03  0.00000000000E+00 0.  1.
         22   -1    0    0    0    0 -0.00000000000E+00 -0.00000000000E+00 -0.65399084784E+03  0.65399084784E+03  0.00000000000E+00 0. -1.
         24    2    1    2    0    0 -0.92947667176E+01  0.17298674208E+02 -0.57702583218E+03  0.58287747772E+03  0.80010663085E+02 0.  0.
         25    2    1    2    0    0 -0.23464345449E+01 -0.13238752273E+03  0.91656004024E+02  0.20392434697E+03  0.12510936929E+03 0.  0.
        -24    2    1    2    0    0  0.11641201262E+02  0.11508884852E+03  0.26605367218E+03  0.30186371503E+03  0.83403749001E+02 0.  0.
        -11    1    3    3    0    0 -0.27068546316E+01  0.22646014027E+02 -0.42071227774E+02  0.47855587132E+02  0.00000000000E+00 0.  1.
         12    1    3    3    0    0 -0.65879120859E+01 -0.53473398192E+01 -0.53495460441E+03  0.53502189058E+03  0.00000000000E+00 0. -1.
         13    1    5    5    0    0  0.11596207365E+01  0.56361063609E+02  0.42806934130E+02  0.70783810444E+02  0.00000000000E+00 0. -1.
        -14    1    5    5    0    0  0.10481580526E+02  0.58727784914E+02  0.22324673805E+03  0.23107990459E+03  0.00000000000E+00 0.  1.
          5    1    4    4  501    0  0.14746709337E+02 -0.11815110947E+02 -0.27414124370E+02  0.33556950069E+02  0.41800000000E+01 0.  1.
         -5    1    4    4    0  501 -0.17093143882E+02 -0.12057241178E+03  0.11907012839E+03  0.17036739690E+03  0.41800000000E+01 0.  1.
</event>
<event>
11    1  0.8328696E-009  0.3089406E+03  0.7561462E-02  0.9964768E-01
         22   -1    0    0    0    0  0.00000000000E+00  0.00000000000E+00  0.88308200261E+03  0.88308200261E+03  0.00000000000E+00 0.  1.
         22   -1    0    0    0    0 -0.00000000000E+00 -0.00000000000E+00 -0.37732418529E+03  0.37732418529E+03  0.00000000000E+00 0. -1.
         24    2    1    2    0    0 -0.11273684869E+03  0.25811160976E+03 -0.25612774066E+03  0.38901118491E+03  0.79981762324E+02 0.  0.
         25    2    1    2    0    0  0.15741178121E+03 -0.24659703114E+03  0.50878314578E+03  0.60007975728E+03  0.12508741356E+03 0.  0.
        -24    2    1    2    0    0 -0.44674932522E+02 -0.11514578613E+02  0.25310241219E+03  0.27131524572E+03  0.86155071720E+02 0.  0.
        -11    1    3    3    0    0 -0.10624441381E+03  0.14662784325E+03 -0.15499934551E+03  0.23835351265E+03  0.00000000000E+00 0.  1.
         12    1    3    3    0    0 -0.64924348731E+01  0.11148376651E+03 -0.10112839515E+03  0.15065767226E+03  0.00000000000E+00 0. -1.
         11    1    5    5    0    0  0.75024597472E+01 -0.36360122920E+02  0.13214506496E+03  0.13726129692E+03  0.00000000000E+00 0. -1.
        -12    1    5    5    0    0 -0.52177392269E+02  0.24845544307E+02  0.12095734724E+03  0.13405394879E+03  0.00000000000E+00 0.  1.
          5    1    4    4  501    0  0.14462854324E+03 -0.21096311485E+03  0.33137062965E+03  0.41862491319E+03  0.41800000000E+01 0.  1.
         -5    1    4    4    0  501  0.12783237971E+02 -0.35633916290E+02  0.17741251613E+03  0.18145484409E+03  0.41800000000E+01 0.  1.
</event>
<event>
11    1  0.8328696E-009  0.1362324E+03  0.7561462E-02  0.1111840E+00
         22   -1    0    0    0    0  0.00000000000E+00  0.00000000000E+00  0.14663102897E+04  0.14663102897E+04  0.00000000000E+00 0.  1.
         22   -1    0    0    0    0 -0.00000000000E+00 -0.00000000000E+00 -0.44384949375E+02  0.44384949375E+02  0.00000000000E+00 0. -1.
         24    2    1    2    0    0 -0.32373980232E+02  0.86211879822E+01  0.32278936736E+02  0.92334499578E+02  0.79757949931E+02 0.  0.
         25    2    1    2    0    0 -0.17482333787E+02 -0.37538106608E+02  0.34883658894E+03  0.37289682494E+03  0.12510129825E+03 0.  0.
        -24    2    1    2    0    0  0.49856314019E+02  0.28916918626E+02  0.10408098146E+04  0.10454639145E+04  0.79924252560E+02 0.  0.
        -11    1    3    3    0    0 -0.75175298545E+01  0.21590875171E+02  0.52835154811E+02  0.57569373191E+02  0.00000000000E+00 0.  1.
         12    1    3    3    0    0 -0.24856450377E+02 -0.12969687189E+02 -0.20556218074E+02  0.34765126387E+02  0.00000000000E+00 0. -1.
         11    1    5    5    0    0 -0.20110788300E+02  0.91656473519E+01  0.14096923164E+03  0.14269119513E+03  0.00000000000E+00 0. -1.
        -12    1    5    5    0    0  0.69967102319E+02  0.19751271274E+02  0.89984058296E+03  0.90277271939E+03  0.00000000000E+00 0.  1.
          5    1    4    4  501    0 -0.29631998755E+02 -0.64624609111E+02  0.32975997936E+03  0.33736258216E+03  0.41800000000E+01 0. -1.
         -5    1    4    4    0  501  0.12149664968E+02  0.27086502503E+02  0.19076609575E+02  0.35534242774E+02  0.41800000000E+01 0. -1.
</event>
<event>
11    1  0.8328696E-009  0.1535085E+03  0.7561462E-02  0.1093347E+00
         22   -1    0    0    0    0  0.00000000000E+00  0.00000000000E+00  0.19239327886E+04  0.19239327886E+04  0.00000000000E+00 0.  1.
         22   -1    0    0    0    0 -0.00000000000E+00 -0.00000000000E+00 -0.98131912175E+03  0.98131912175E+03  0.00000000000E+00 0. -1.
         24    2    1    2    0    0  0.50675549599E+02 -0.57992082238E+02 -0.96742900126E+03  0.97382865117E+03  0.80574663640E+02 0.  0.
         25    2    1    2    0    0 -0.86184308388E+00  0.11972634441E+03  0.11151235820E+04  0.11284867241E+04  0.12508614222E+03 0.  0.
        -24    2    1    2    0    0 -0.49813706515E+02 -0.61734262172E+02  0.79491908612E+03  0.80293653511E+03  0.80735379154E+02 0.  0.
        -11    1    3    3    0    0 -0.15369784034E+02 -0.18424064301E+01 -0.50711022480E+02  0.53021057361E+02  0.00000000000E+00 0.  1.
         12    1    3    3    0    0  0.66045333633E+02 -0.56149675808E+02 -0.91671797878E+03  0.92080759380E+03  0.00000000000E+00 0. -1.
         13    1    5    5    0    0  0.14683892095E+02 -0.14735720259E+02  0.37025041883E+03  0.37083437109E+03  0.00000000000E+00 0. -1.
        -14    1    5    5    0    0 -0.64497598611E+02 -0.46998541914E+02  0.42466866730E+03  0.43210216402E+03  0.00000000000E+00 0.  1.
          5    1    4    4  501    0  0.28128518986E+00  0.13752480761E+03  0.10813237135E+04  0.10900420165E+04  0.41800000000E+01 0.  1.
         -5    1    4    4    0  501 -0.11431282737E+01 -0.17798463197E+02  0.33799868444E+02  0.38444707584E+02  0.41800000000E+01 0.  1.
</event>
<event>
11    1  0.8328696E-009  0.1460539E+03  0.7561462E-02  0.1100981E+00
         22   -1    0    0    0    0  0.00000000000E+00  0.00000000000E+00  0.20448952274E+03  0.20448952274E+03  0.00000000000E+00 0.  1.
         22   -1    0    0    0    0 -0.00000000000E+00 -0.00000000000E+00 -0.18031005740E+04  0.18031005740E+04  0.00000000000E+00 0. -1.
         24    2    1    2    0    0 -0.92942943581E+02  0.15529133150E+01 -0.11831217774E+04  0.11902483153E+04  0.90956635204E+02 0.  0.
         25    2    1    2    0    0  0.38985052263E+02  0.20107144067E+02 -0.59749604645E+03  0.61202407394E+03  0.12509120681E+03 0.  0.
        -24    2    1    2    0    0  0.53957891319E+02 -0.21660057382E+02  0.18200677256E+03  0.20531770757E+03  0.75155064117E+02 0.  0.
        -13    1    3    3    0    0 -0.23336996849E+02 -0.23843022488E+02 -0.12011561952E+03  0.12466301455E+03  0.00000000000E+00 0.  1.
         14    1    3    3    0    0 -0.69605946733E+02  0.25395935803E+02 -0.10630061579E+04  0.10655853007E+04  0.00000000000E+00 0. -1.
         11    1    5    5    0    0  0.24396588570E+02 -0.32087354907E+01  0.52524005740E+01  0.25161025994E+02  0.00000000000E+00 0. -1.
        -12    1    5    5    0    0  0.29561302749E+02 -0.18451321891E+02  0.17675437199E+03  0.18015668158E+03  0.00000000000E+00 0.  1.
          5    1    4    4  501    0 -0.42182589738E+02  0.24274730215E+02 -0.28208332953E+03  0.28628152334E+03  0.41800000000E+01 0.  1.
         -5    1    4    4    0  501  0.81167642001E+02 -0.41675861481E+01 -0.31541271692E+03  0.32574255061E+03  0.41800000000E+01 0.  1.
</event>
<event>
11    1  0.8328696E-009  0.1636755E+03  0.7561462E-02  0.1083670E+00
         22   -1    0    0    0    0  0.00000000000E+00  0.00000000000E+00  0.48236251919E+03  0.48236251919E+03  0.00000000000E+00 0.  1.
         22   -1    0    0    0    0 -0.00000000000E+00 -0.00000000000E+00 -0.10178469583E+04  0.10178469583E+04  0.00000000000E+00 0.  1.
         24    2    1    2    0    0 -0.25475920932E+01  0.56781313238E+02 -0.93947954714E+03  0.94451050239E+03  0.79042152494E+02 0.  0.
         25    2    1    2    0    0  0.45796896055E+02 -0.14291766413E+03  0.89980701916E+02  0.21509731162E+03  0.12509001695E+03 0.  0.
        -24    2    1    2    0    0 -0.43249303962E+02  0.86136350888E+02  0.31401440613E+03  0.34060166347E+03  0.90080367794E+02 0.  0.
        -11    1    3    3    0    0  0.25293957953E+02  0.63195309810E+02 -0.60665252786E+03  0.61045943440E+03  0.00000000000E+00 0.  1.
         12    1    3    3    0    0 -0.27841550046E+02 -0.64139965719E+01 -0.33282701928E+03  0.33405106798E+03  0.00000000000E+00 0. -1.
         11    1    5    5    0    0 -0.25198037527E+02  0.90854203273E+01  0.13799537067E+02  0.30131597717E+02  0.00000000000E+00 0. -1.
        -12    1    5    5    0    0 -0.18051266435E+02  0.77050930560E+02  0.30021486906E+03  0.31047006575E+03  0.00000000000E+00 0.  1.
          5    1    4    4  501    0  0.90068665444E+01 -0.86078188581E+02 -0.17116903405E+02  0.88323490514E+02  0.41800000000E+01 0.  1.
         -5    1    4    4    0  501  0.36790029511E+02 -0.56839475544E+02  0.10709760532E+03  0.12677382110E+03  0.41800000000E+01 0.  1.
</event>
<event>
11    1  0.8328696E-009  0.1790944E+03  0.7561462E-02  0.1070378E+00
         22   -1    0    0    0    0  0.00000000000E+00  0.00000000000E+00  0.70885495416E+03  0.70885495416E+03  0.00000000000E+00 0.  1.
         22   -1    0    0    0    0 -0.00000000000E+00 -0.00000000000E+00 -0.32792140708E+04  0.32792140708E+04  0.00000000000E+00 0. -1.
        -24    2    1    2    0    0  0.33115637020E+02 -0.73340505082E+02 -0.21889133284E+04  0.21913189474E+04  0.63731430156E+02 0.  0.
         25    2    1    2    0    0  0.26207109361E+02  0.18653718239E+03 -0.10692101654E+04  0.10928592141E+04  0.12509177017E+03 0.  0.
         24    2    1    2    0    0 -0.59322746380E+02 -0.11319667731E+03  0.68776437719E+03  0.70389086340E+03  0.78165421078E+02 0.  0.
        -11    1    5    5    0    0 -0.55301744789E+02 -0.80907308558E+02  0.31951454698E+03  0.33420625561E+03  0.00000000000E+00 0.  1.
         12    1    5    5    0    0 -0.40210015916E+01 -0.32289368747E+02  0.36824983021E+03  0.36968460779E+03  0.00000000000E+00 0. -1.
         11    1    3    3    0    0  0.89061975357E+01 -0.10670957637E+02 -0.12200201875E+04  0.12200993597E+04  0.00000000000E+00 0. -1.
        -12    1    3    3    0    0  0.24209439484E+02 -0.62669547445E+02 -0.96889314091E+03  0.97121958776E+03  0.00000000000E+00 0.  1.
          5    1    4    4  501    0  0.12223475430E+02  0.67639690209E+02 -0.72766711906E+03  0.73091822361E+03  0.41800000000E+01 0. -1.
         -5    1    4    4    0  501  0.13983633930E+02  0.11889749218E+03 -0.34154304635E+03  0.36194099046E+03  0.41800000000E+01 0. -1.
</event>
<event>
11    1  0.8328696E-009  0.1558345E+03  0.7561462E-02  0.1091062E+00
         22   -1    0    0    0    0  0.00000000000E+00  0.00000000000E+00  0.11715826587E+04  0.11715826587E+04  0.00000000000E+00 0.  1.
         22   -1    0    0    0    0 -0.00000000000E+00 -0.00000000000E+00 -0.22834835669E+03  0.22834835669E+03  0.00000000000E+00 0. -1.
        -24    2    1    2    0    0 -0.58741191134E+02 -0.55313095101E+02 -0.92461406427E+02  0.16038897078E+03  0.10327363769E+03 0.  0.
         25    2    1    2    0    0  0.12896630890E+03  0.33637334697E+02 -0.14818299600E+02  0.18338801170E+03  0.12509117361E+03 0.  0.
         24    2    1    2    0    0 -0.70225117761E+02  0.21675760404E+02  0.10505140081E+04  0.10561540330E+04  0.80500027445E+02 0.  0.
        -13    1    5    5    0    0 -0.42780404727E+02  0.21754736542E+02  0.96812967139E+03  0.96931857107E+03  0.00000000000E+00 0.  1.
         14    1    5    5    0    0 -0.27444713034E+02 -0.78976137087E-01  0.82384336683E+02  0.86835461889E+02  0.00000000000E+00 0. -1.
         13    1    3    3    0    0  0.96810544363E+01 -0.56177128754E+02 -0.65523147660E+02  0.86849729356E+02  0.00000000000E+00 0. -1.
        -14    1    3    3    0    0 -0.68422245571E+02  0.86403365224E+00 -0.26938258767E+02  0.73539241419E+02  0.00000000000E+00 0.  1.
          5    1    4    4  501    0  0.87900163377E+01  0.59043345573E+02 -0.29528650551E+01  0.59913044120E+02  0.41800000000E+01 0. -1.
         -5    1    4    4    0  501  0.12017629256E+03 -0.25406010876E+02 -0.11865434545E+02  0.12347496758E+03  0.41800000000E+01 0. -1.
</event>
<event>
11    1  0.8328696E-009  0.1457440E+03  0.7561462E-02  0.1101309E+00
         22   -1    0    0    0    0  0.00000000000E+00  0.00000000000E+00  0.16050499673E+04  0.16050499673E+04  0.00000000000E+00 0. -1.
         22   -1    0    0    0    0 -0.00000000000E+00 -0.00000000000E+00 -0.17520452347E+03  0.17520452347E+03  0.00000000000E+00 0. -1.
        -24    2    1    2    0    0  0.46546198682E+02  0.34558693208E+02 -0.10852559792E+03  0.14697561670E+03  0.80393871735E+02 0.  0.
         25    2    1    2    0    0 -0.23049660507E+02 -0.10456864288E+03  0.10523551908E+03  0.19541714070E+03  0.12508979367E+03 0.  0.
         24    2    1    2    0    0 -0.23496538175E+02  0.70009949672E+02  0.14331355227E+04  0.14378617334E+04  0.90085834405E+02 0.  0.
        -13    1    5    5    0    0  0.31827269359E+02  0.43907295778E+02  0.57658023426E+03  0.57912485030E+03  0.00000000000E+00 0.  1.
         14    1    5    5    0    0 -0.55323807534E+02  0.26102653894E+02  0.85655528845E+03  0.85873688310E+03  0.00000000000E+00 0. -1.
         11    1    3    3    0    0  0.43528703147E+02  0.11920850110E+02 -0.11474860592E+03  0.12330489538E+03  0.00000000000E+00 0. -1.
        -12    1    3    3    0    0  0.30174955355E+01  0.22637843098E+02  0.62230079935E+01  0.23670721322E+02  0.00000000000E+00 0.  1.
          5    1    4    4  501    0  0.89394627023E+01  0.24424679746E+02  0.38482565964E+02  0.46635386321E+02  0.41800000000E+01 0.  1.
         -5    1    4    4    0  501 -0.31989123209E+02 -0.12899332263E+03  0.66752953112E+02  0.14878175438E+03  0.41800000000E+01 0.  1.
</event>
<event>
11    1  0.8328696E-009  0.2076651E+03  0.7561462E-02  0.1049232E+00
         22   -1    0    0    0    0  0.00000000000E+00  0.00000000000E+00  0.15459181779E+04  0.15459181779E+04  0.00000000000E+00 0. -1.
         22   -1    0    0    0    0 -0.00000000000E+00 -0.00000000000E+00 -0.28786277982E+03  0.28786277982E+03  0.00000000000E+00 0. -1.
        -24    2    1    2    0    0 -0.15391237335E+03 -0.41165369402E+02 -0.19540165548E+03  0.26451984007E+03  0.80033321289E+02 0.  0.
         25    2    1    2    0    0  0.22772658671E+03  0.82899121683E+01  0.25162969083E+03  0.36179134169E+03  0.12508937876E+03 0.  0.
         24    2    1    2    0    0 -0.73814213366E+02  0.32875457233E+02  0.12018273628E+04  0.12074697760E+04  0.84053056347E+02 0.  0.
        -13    1    5    5    0    0 -0.17215736296E+01 -0.79055619598E+01  0.10447007786E+02  0.13213693554E+02  0.00000000000E+00 0.  1.
         14    1    5    5    0    0 -0.72092639736E+02  0.40781019193E+02  0.11913803550E+04  0.11942560824E+04  0.00000000000E+00 0. -1.
         13    1    3    3    0    0 -0.14457526860E+03 -0.11824781009E+02 -0.14269788025E+03  0.20348100345E+03  0.00000000000E+00 0. -1.
        -14    1    3    3    0    0 -0.93371047510E+01 -0.29340588393E+02 -0.52703775228E+02  0.61038836618E+02  0.00000000000E+00 0.  1.
          5    1    4    4  501    0  0.81060828721E+02  0.34325999334E+02  0.26896766203E+02  0.92141416395E+02  0.41800000000E+01 0. -1.
         -5    1    4    4    0  501  0.14666575799E+03 -0.26036087165E+02  0.22473292462E+03  0.26964992530E+03  0.41800000000E+01 0. -1.
</event>
<event>
11    1  0.8328696E-009  0.2691755E+03  0.7561462E-02  0.1014153E+00
         22   -1    0    0    0    0  0.00000000000E+00  0.00000000000E+00  0.72584698366E+03  0.72584698366E+03  0.00000000000E+00 0.  1.
         22   -1    0    0    0    0 -0.00000000000E+00 -0.00000000000E+00 -0.16206841721E+04  0.16206841721E+04  0.00000000000E+00 0.  1.
         24    2    1    2    0    0  0.99618085830E+02  0.16151677580E+02 -0.13803312745E+04  0.13864556427E+04  0.82220325217E+02 0.  0.
         25    2    1    2    0    0 -0.32649306476E+03  0.63325719699E+01 -0.68009080157E+02  0.35624375620E+03  0.12508619445E+03 0.  0.
        -24    2    1    2    0    0  0.22687497893E+03 -0.22484249549E+02  0.55350316622E+03  0.60383175693E+03  0.79178520543E+02 0.  0.
        -11    1    3    3    0    0  0.57862393126E+02  0.24355060614E+02 -0.11793019988E+04  0.11809718158E+04  0.00000000000E+00 0.  1.
         12    1    3    3    0    0  0.41755692704E+02 -0.82033830341E+01 -0.20102927577E+03  0.20548382682E+03  0.00000000000E+00 0. -1.
         13    1    5    5    0    0  0.27397489240E+02  0.44573099055E-01  0.15736712024E+03  0.15973426350E+03  0.00000000000E+00 0. -1.
        -14    1    5    5    0    0  0.19947748969E+03 -0.22528822648E+02  0.39613604598E+03  0.44409749343E+03  0.00000000000E+00 0.  1.
          5    1    4    4  501    0 -0.11025685869E+03 -0.43928525415E+02 -0.62350201093E+02  0.13413168981E+03  0.41800000000E+01 0. -1.
         -5    1    4    4    0  501 -0.21623620607E+03  0.50261097385E+02 -0.56588790642E+01  0.22211206639E+03  0.41800000000E+01 0. -1.
</event>
<event>
11    1  0.8328696E-009  0.1399603E+03  0.7561462E-02  0.1107603E+00
         22   -1    0    0    0    0  0.00000000000E+00  0.00000000000E+00  0.20902644381E+03  0.20902644381E+03  0.00000000000E+00 0.  1.
         22   -1    0    0    0    0 -0.00000000000E+00 -0.00000000000E+00 -0.11461898685E+04  0.11461898685E+04  0.00000000000E+00 0. -1.
         24    2    1    2    0    0  0.26228202954E+02  0.31171477297E+02 -0.99996785282E+03  0.10040285679E+04  0.80486513961E+02 0.  0.
         25    2    1    2    0    0  0.22849249769E+01  0.29505748000E+02 -0.96364899616E+02  0.16065668368E+03  0.12509422883E+03 0.  0.
        -24    2    1    2    0    0 -0.28513127931E+02 -0.60677225297E+02  0.15916932776E+03  0.19053106068E+03  0.80451762260E+02 0.  0.
        -13    1    3    3    0    0  0.35479911556E+02 -0.86343479474E+01 -0.22157798428E+03  0.22456664758E+03  0.00000000000E+00 0.  1.
         14    1    3    3    0    0 -0.92517086021E+01  0.39805825245E+02 -0.77838986855E+03  0.77946192036E+03  0.00000000000E+00 0. -1.
         13    1    5    5    0    0 -0.31315551674E+02  0.10098104014E+02  0.63217021007E+02  0.71267294226E+02  0.00000000000E+00 0. -1.
        -14    1    5    5    0    0  0.28024237434E+01 -0.70775329311E+02  0.95952306756E+02  0.11926376646E+03  0.00000000000E+00 0.  1.
          5    1    4    4  501    0  0.53663358555E+02 -0.79338274990E+01 -0.13366081512E+02  0.56025228292E+02  0.41800000000E+01 0. -1.
         -5    1    4    4    0  501 -0.51378433578E+02  0.37439575499E+02 -0.82998818104E+02  0.10463145539E+03  0.41800000000E+01 0. -1.
</event>
<event>
11    1  0.8328696E-009  0.2500987E+03  0.7561462E-02  0.1023847E+00
         22   -1    0    0    0    0  0.00000000000E+00  0.00000000000E+00  0.29708511298E+04  0.29708511298E+04  0.00000000000E+00 0.  1.
         22   -1    0    0    0    0 -0.00000000000E+00 -0.00000000000E+00 -0.37269210019E+03  0.37269210019E+03  0.00000000000E+00 0. -1.
         24    2    1    2    0    0 -0.38899715998E+02  0.45874145777E+02 -0.26576245281E+03  0.28392904340E+03  0.79802225559E+02 0.  0.
         25    2    1    2    0    0  0.21702346678E+03  0.76746819865E+02  0.91402552509E+02  0.27747452212E+03  0.12509366223E+03 0.  0.
        -24    2    1    2    0    0 -0.17812375078E+03 -0.12262096564E+03  0.27725189299E+04  0.27821396644E+04  0.81706328302E+02 0.  0.
        -13    1    3    3    0    0  0.37854530767E+01  0.17165371589E+01  0.48773623078E+01  0.64081836659E+01  0.00000000000E+00 0.  1.
         14    1    3    3    0    0 -0.42685169075E+02  0.44157608618E+02 -0.27063981512E+03  0.27752085973E+03  0.00000000000E+00 0. -1.
         13    1    5    5    0    0 -0.66198198619E+02 -0.38038352787E+02  0.14933956610E+04  0.14953460195E+04  0.00000000000E+00 0. -1.
        -14    1    5    5    0    0 -0.11192555216E+03 -0.84582612855E+02  0.12791232689E+04  0.12867936449E+04  0.00000000000E+00 0.  1.
          5    1    4    4  501    0  0.25860959204E+02 -0.49254022292E+01  0.61997675374E+02  0.67485057234E+02  0.41800000000E+01 0. -1.
         -5    1    4    4    0  501  0.19116250758E+03  0.81672222094E+02  0.29404877134E+02  0.20998946489E+03  0.41800000000E+01 0. -1.
</event>
<event>
11    1  0.8328696E-009  0.1739493E+03  0.7561462E-02  0.1074645E+00
         22   -1    0    0    0    0  0.00000000000E+00  0.00000000000E+00  0.10622452848E+04  0.10622452848E+04  0.00000000000E+00 0. -1.
         22   -1    0    0    0    0 -0.00000000000E+00 -0.00000000000E+00 -0.19466429079E+03  0.19466429079E+03  0.00000000000E+00 0. -1.
         24    2    1    2    0    0 -0.12321429401E+03  0.32185209096E+02 -0.10422349037E+03  0.18257478908E+03  0.79078238014E+02 0.  0.
         25    2    1    2    0    0  0.98304845581E+02 -0.16608665322E+02  0.81000381720E+02  0.17929707252E+03  0.12508672171E+03 0.  0.
        -24    2    1    2    0    0  0.24909448430E+02 -0.15576543774E+02  0.89080410267E+03  0.89503771399E+03  0.81837954477E+02 0.  0.
        -11    1    3    3    0    0  0.10491444749E+02  0.70998549270E+01 -0.30267898822E+01  0.13024584826E+02  0.00000000000E+00 0.  1.
         12    1    3    3    0    0 -0.13370573876E+03  0.25085354169E+02 -0.10119670049E+03  0.16955020425E+03  0.00000000000E+00 0. -1.
         11    1    5    5    0    0 -0.22053989519E+02 -0.30356949488E+02  0.35587621690E+03  0.35784885718E+03  0.00000000000E+00 0. -1.
        -12    1    5    5    0    0  0.46963437949E+02  0.14780405714E+02  0.53492788577E+03  0.53718885680E+03  0.00000000000E+00 0.  1.
          5    1    4    4  501    0  0.11149499326E+03 -0.51136274360E+02  0.63545482025E+02  0.13820836720E+03  0.41800000000E+01 0.  1.
         -5    1    4    4    0  501 -0.13190147682E+02  0.34527609038E+02  0.17454899695E+02  0.41088705323E+02  0.41800000000E+01 0.  1.
</event>
<event>
11    1  0.8328696E-009  0.2020333E+03  0.7561462E-02  0.1053095E+00
         22   -1    0    0    0    0  0.00000000000E+00  0.00000000000E+00  0.44266367379E+03  0.44266367379E+03  0.00000000000E+00 0.  1.
         22   -1    0    0    0    0 -0.00000000000E+00 -0.00000000000E+00 -0.17458579980E+03  0.17458579980E+03  0.00000000000E+00 0. -1.
         24    2    1    2    0    0  0.22099569584E+02 -0.62488142800E+02 -0.45832044825E+02  0.11319979418E+03  0.79501308819E+02 0.  0.
         25    2    1    2    0    0 -0.13364601902E+03  0.14437588649E+03  0.16230072832E+03  0.28406969067E+03  0.12509359594E+03 0.  0.
        -24    2    1    2    0    0  0.11154644943E+03 -0.81887743686E+02  0.15160919049E+03  0.21997998874E+03  0.79105220179E+02 0.  0.
        -11    1    3    3    0    0 -0.12137960854E+02  0.14701306541E+02 -0.83545428199E+01  0.20814823887E+02  0.00000000000E+00 0.  1.
         12    1    3    3    0    0  0.34237530438E+02 -0.77189449342E+02 -0.37477502005E+02  0.92384970297E+02  0.00000000000E+00 0. -1.
         13    1    5    5    0    0  0.53128305669E+02 -0.49356804123E+01  0.20592772619E+02  0.57193007339E+02  0.00000000000E+00 0. -1.
        -14    1    5    5    0    0  0.58418143763E+02 -0.76952063273E+02  0.13101641787E+03  0.16278698140E+03  0.00000000000E+00 0.  1.
          5    1    4    4  501    0 -0.13469502893E+03  0.13034310141E+03  0.85816166609E+02  0.20618914072E+03  0.41800000000E+01 0.  1.
         -5    1    4    4    0  501  0.10490099094E+01  0.14032785081E+02  0.76484561712E+02  0.77880549941E+02  0.41800000000E+01 0.  1.
</event>
<event>
11    1  0.8328696E-009  0.1705638E+03  0.7561462E-02  0.1077542E+00
         22   -1    0    0    0    0  0.00000000000E+00  0.00000000000E+00  0.98063896104E+03  0.98063896104E+03  0.00000000000E+00 0.  1.
         22   -1    0    0    0    0 -0.00000000000E+00 -0.00000000000E+00 -0.89883105481E+03  0.89883105481E+03  0.00000000000E+00 0.  1.
         24    2    1    2    0    0  0.62809940777E+01  0.58380306422E+02 -0.86113369684E+03  0.86686805107E+03  0.80381982231E+02 0.  0.
         25    2    1    2    0    0 -0.10680841392E+03 -0.10175028253E+03  0.31099520459E+03  0.36623326359E+03  0.12509048246E+03 0.  0.
        -24    2    1    2    0    0  0.10052741984E+03  0.43369976104E+02  0.63194639847E+03  0.64636870119E+03  0.80308968126E+02 0.  0.
        -11    1    3    3    0    0 -0.68526230093E+01  0.72296093688E+02 -0.78556272509E+03  0.78891221226E+03  0.00000000000E+00 0.  1.
         12    1    3    3    0    0  0.13133617087E+02 -0.13915787266E+02 -0.75570971745E+02  0.77955838803E+02  0.00000000000E+00 0. -1.
         11    1    5    5    0    0  0.66748362290E+01 -0.20200716602E+02  0.72667331919E+02  0.75717656581E+02  0.00000000000E+00 0. -1.
        -12    1    5    5    0    0  0.93852583610E+02  0.63570692706E+02  0.55927906656E+03  0.57065104461E+03  0.00000000000E+00 0.  1.
          5    1    4    4  501    0 -0.62914595043E+02 -0.56133160723E+01  0.38887514724E+02  0.74293114002E+02  0.41800000000E+01 0.  1.
         -5    1    4    4    0  501 -0.43893818874E+02 -0.96136966454E+02  0.27210768987E+03  0.29194014959E+03  0.41800000000E+01 0.  1.
</event>
<event>
11    1  0.8328696E-009  0.1493756E+03  0.7561462E-02  0.1097519E+00
         22   -1    0    0    0    0  0.00000000000E+00  0.00000000000E+00  0.26462321209E+03  0.26462321209E+03  0.00000000000E+00 0.  1.
         22   -1    0    0    0    0 -0.00000000000E+00 -0.00000000000E+00 -0.83786093940E+03  0.83786093940E+03  0.00000000000E+00 0.  1.
        -24    2    1    2    0    0 -0.40393453922E+02  0.72457329912E+02 -0.76589598375E+03  0.77436253595E+03  0.78479190699E+02 0.  0.
         25    2    1    2    0    0 -0.12255798041E+02 -0.66549149207E+02  0.39357899067E+02  0.14756540126E+03  0.12509000593E+03 0.  0.
         24    2    1    2    0    0  0.52649251963E+02 -0.59081807048E+01  0.15330035737E+03  0.18055621429E+03  0.79326519006E+02 0.  0.
        -13    1    5    5    0    0  0.61688783054E+02 -0.40218071000E+01  0.15837976481E+03  0.17001714851E+03  0.00000000000E+00 0.  1.
         14    1    5    5    0    0 -0.90395310907E+01 -0.18863736048E+01 -0.50794074337E+01  0.10539065784E+02  0.00000000000E+00 0. -1.
         13    1    3    3    0    0 -0.30788098203E+02  0.15384841385E+02 -0.96221988634E+02  0.10219232570E+03  0.00000000000E+00 0. -1.
        -14    1    3    3    0    0 -0.96053557186E+01  0.57072488528E+02 -0.66967399512E+03  0.67217021025E+03  0.00000000000E+00 0.  1.
          5    1    4    4  501    0 -0.68551016586E+02 -0.36684568296E+02  0.15489961579E+02  0.79387724088E+02  0.41800000000E+01 0.  1.
         -5    1    4    4    0  501  0.56295218545E+02 -0.29864580912E+02  0.23867937487E+02  0.68177677168E+02  0.41800000000E+01 0.  1.
</event>
<event>
11    1  0.8328696E-009  0.1330455E+03  0.7561462E-02  0.1115583E+00
         22   -1    0    0    0    0  0.00000000000E+00  0.00000000000E+00  0.17980345743E+04  0.17980345743E+04  0.00000000000E+00 0. -1.
         22   -1    0    0    0    0 -0.00000000000E+00 -0.00000000000E+00 -0.90682166098E+02  0.90682166098E+02  0.00000000000E+00 0.  1.
         24    2    1    2    0    0  0.41871547000E+02  0.17446315478E+02 -0.55769036596E+02  0.10560914792E+03  0.77366053986E+02 0.  0.
         25    2    1    2    0    0 -0.50281688036E+02  0.60037512263E+01  0.52382565909E+03  0.54092973796E+03  0.12508943641E+03 0.  0.
        -24    2    1    2    0    0  0.84101410360E+01 -0.23450066705E+02  0.12392957857E+04  0.12421778545E+04  0.80815479301E+02 0.  0.
        -13    1    3    3    0    0  0.19096192966E+02 -0.10240176605E+02 -0.65060632356E+02  0.68574132771E+02  0.00000000000E+00 0.  1.
         14    1    3    3    0    0  0.22775354034E+02  0.27686492084E+02  0.92915957599E+01  0.37035015148E+02  0.00000000000E+00 0. -1.
         11    1    5    5    0    0  0.18684390480E+02 -0.25601900473E+02  0.12182233940E+04  0.12186356311E+04  0.00000000000E+00 0. -1.
        -12    1    5    5    0    0 -0.10274249444E+02  0.21518337686E+01  0.21072391687E+02  0.23542223379E+02  0.00000000000E+00 0.  1.
          5    1    4    4  501    0 -0.75547631929E+02  0.44835351295E+02  0.36384312348E+03  0.37432197948E+03  0.41800000000E+01 0. -1.
         -5    1    4    4    0  501  0.25265943892E+02 -0.38831600068E+02  0.15998253561E+03  0.16660775848E+03  0.41800000000E+01 0. -1.
</event>
<event>
11    1  0.8328696E-009  0.1423069E+03  0.7561462E-02  0.1105009E+00
         22   -1    0    0    0    0  0.00000000000E+00  0.00000000000E+00  0.10171507898E+04  0.10171507898E+04  0.00000000000E+00 0.  1.
         22   -1    0    0    0    0 -0.00000000000E+00 -0.00000000000E+00 -0.26469098456E+03  0.26469098456E+03  0.00000000000E+00 0. -1.
         24    2    1    2    0    0  0.82568143361E+00 -0.25427027176E+02 -0.24074665722E+03  0.25495529579E+03  0.79975211353E+02 0.  0.
         25    2    1    2    0    0 -0.65324839719E+02  0.35342412974E+02  0.51179688385E+03  0.53207106621E+03  0.12508856201E+03 0.  0.
        -24    2    1    2    0    0  0.64499158285E+02 -0.99153857984E+01  0.48140957858E+03  0.49481541233E+03  0.93960915494E+02 0.  0.
        -13    1    3    3    0    0  0.37973939746E+01 -0.31320556843E+02 -0.28229269900E+02  0.42335436233E+02  0.00000000000E+00 0.  1.
         14    1    3    3    0    0 -0.29717125409E+01  0.58935296669E+01 -0.21251738732E+03  0.21261985956E+03  0.00000000000E+00 0. -1.
         11    1    5    5    0    0  0.40504807836E+01  0.27636498388E+02  0.47458452238E+02  0.55068022722E+02  0.00000000000E+00 0. -1.
        -12    1    5    5    0    0  0.60448677502E+02 -0.37551884186E+02  0.43395112634E+03  0.43974738961E+03  0.00000000000E+00 0.  1.
          5    1    4    4  501    0 -0.41095372686E+01  0.69508201708E+02  0.18268070876E+03  0.19554537109E+03  0.41800000000E+01 0.  1.
         -5    1    4    4    0  501 -0.61215302450E+02 -0.34165788734E+02  0.32911617509E+03  0.33652569512E+03  0.41800000000E+01 0.  1.
</event>
<event>
11    1  0.8328696E-009  0.1508306E+03  0.7561462E-02  0.1096033E+00
         22   -1    0    0    0    0  0.00000000000E+00  0.00000000000E+00  0.64969237453E+03  0.64969237453E+03  0.00000000000E+00 0.  1.
         22   -1    0    0    0    0 -0.00000000000E+00 -0.00000000000E+00 -0.53351508599E+03  0.53351508599E+03  0.00000000000E+00 0.  1.
        -24    2    1    2    0    0  0.52284936115E+02  0.70309675988E+02 -0.38638754524E+03  0.40419046816E+03  0.79983963097E+02 0.  0.
         25    2    1    2    0    0 -0.76929455443E+02 -0.25633501112E+02 -0.93133170158E+02  0.17577443516E+03  0.12509055592E+03 0.  0.
         24    2    1    2    0    0  0.24644519328E+02 -0.44676174876E+02  0.59569800393E+03  0.60324255720E+03  0.80263054991E+02 0.  0.
        -11    1    5    5    0    0  0.24827850402E+02 -0.43246311376E+02  0.59824296407E+03  0.60031767395E+03  0.00000000000E+00 0.  1.
         12    1    5    5    0    0 -0.18333107410E+00 -0.14298634995E+01 -0.25449601376E+01  0.29248832475E+01  0.00000000000E+00 0. -1.
         11    1    3    3    0    0 -0.18521446343E+02  0.18901716603E+01 -0.40741823542E+02  0.44794116902E+02  0.00000000000E+00 0. -1.
        -12    1    3    3    0    0  0.70806382458E+02  0.68419504327E+02 -0.34564572169E+03  0.35939635125E+03  0.00000000000E+00 0.  1.
          5    1    4    4  501    0  0.30232612473E+02 -0.20457268040E+02 -0.54347749836E+01  0.37141888101E+02  0.41800000000E+01 0. -1.
         -5    1    4    4    0  501 -0.10716206792E+03 -0.51762330724E+01 -0.87698395175E+02  0.13863254706E+03  0.41800000000E+01 0. -1.
</event>
<event>
11    1  0.8328696E-009  0.1465381E+03  0.7561462E-02  0.1100470E+00
         22   -1    0    0    0    0  0.00000000000E+00  0.00000000000E+00  0.10870052377E+04  0.10870052377E+04  0.00000000000E+00 0. -1.
         22   -1    0    0    0    0 -0.00000000000E+00 -0.00000000000E+00 -0.13786589711E+03  0.13786589711E+03  0.00000000000E+00 0.  1.
         24    2    1    2    0    0 -0.34707416976E+02  0.15845019822E+02 -0.10024420604E+03  0.13426033759E+03  0.80754368054E+02 0.  0.
         25    2    1    2    0    0  0.99461719638E+02 -0.38112990071E+02  0.39630099812E+03  0.42900705776E+03  0.12508933134E+03 0.  0.
        -24    2    1    2    0    0 -0.64754302661E+02  0.22267970249E+02  0.65308254853E+03  0.66160373948E+03  0.80707562711E+02 0.  0.
        -11    1    3    3    0    0 -0.16630372098E+01  0.44726003796E+02 -0.58814173506E+02  0.73907294048E+02  0.00000000000E+00 0.  1.
         12    1    3    3    0    0 -0.33044379767E+02 -0.28880983974E+02 -0.41430032531E+02  0.60353043543E+02  0.00000000000E+00 0. -1.
         11    1    5    5    0    0 -0.52794810105E+02  0.48474727752E+02  0.54714415968E+03  0.55181865017E+03  0.00000000000E+00 0. -1.
        -12    1    5    5    0    0 -0.11959492556E+02 -0.26206757503E+02  0.10593838885E+03  0.10978508931E+03  0.00000000000E+00 0.  1.
          5    1    4    4  501    0 -0.28764874954E+02 -0.22439613699E+01  0.99459568900E+02  0.10364425522E+03  0.41800000000E+01 0.  1.
         -5    1    4    4    0  501  0.12822659459E+03 -0.35869028701E+02  0.29684142922E+03  0.32536280255E+03  0.41800000000E+01 0.  1.
</event>
<event>
11    1  0.8328696E-009  0.1357515E+03  0.7561462E-02  0.1112397E+00
         22   -1    0    0    0    0  0.00000000000E+00  0.00000000000E+00  0.41436769760E+03  0.41436769760E+03  0.00000000000E+00 0.  1.
         22   -1    0    0    0    0 -0.00000000000E+00 -0.00000000000E+00 -0.71897536361E+03  0.71897536361E+03  0.00000000000E+00 0.  1.
        -24    2    1    2    0    0  0.18831973557E+02 -0.15184763356E+02 -0.66646164203E+03  0.67189686042E+03  0.81786615504E+02 0.  0.
         25    2    1    2    0    0 -0.61287223830E+02  0.39708742017E+02  0.82593577503E+02  0.16673807496E+03  0.12508788350E+03 0.  0.
         24    2    1    2    0    0  0.42455250273E+02 -0.24523978661E+02  0.27926039852E+03  0.29470812584E+03  0.80390518388E+02 0.  0.
        -13    1    5    5    0    0  0.47655509028E+02 -0.32341723929E+02  0.27944364506E+03  0.28531699111E+03  0.00000000000E+00 0.  1.
         14    1    5    5    0    0 -0.52002587551E+01  0.78177452680E+01 -0.18324654413E+00  0.93911347286E+01  0.00000000000E+00 0. -1.
         13    1    3    3    0    0 -0.11395504026E+02 -0.31663352492E+02 -0.12845176461E+03  0.13278660036E+03  0.00000000000E+00 0. -1.
        -14    1    3    3    0    0  0.30227477583E+02  0.16478589136E+02 -0.53800987742E+03  0.53911026006E+03  0.00000000000E+00 0.  1.
          5    1    4    4  501    0 -0.47205958473E+02  0.75867368041E+02  0.17963753948E+02  0.91238308318E+02  0.41800000000E+01 0. -1.
         -5    1    4    4    0  501 -0.14081265357E+02 -0.36158626024E+02  0.64629823555E+02  0.75499766640E+02  0.41800000000E+01 0. -1.
</event>
<event>
11    1  0.8328696E-009  0.1366205E+03  0.7561462E-02  0.1111392E+00
         22   -1    0    0    0    0  0.00000000000E+00  0.00000000000E+00  0.17492006503E+04  0.17492006503E+04  0.00000000000E+00 0.  1.
         22   -1    0    0    0    0 -0.00000000000E+00 -0.00000000000E+00 -0.66883798011E+03  0.66883798011E+03  0.00000000000E+00 0. -1.
         24    2    1    2    0    0  0.74130019907E+01  0.18964525574E+02 -0.60882072267E+03  0.61438255215E+03  0.79928982278E+02 0.  0.
         25    2    1    2    0    0 -0.29494967021E+02 -0.68683427426E+02  0.39469089713E+02  0.15097379770E+03  0.12509161550E+03 0.  0.
        -24    2    1    2    0    0  0.22081965030E+02  0.49718901851E+02  0.16497143031E+04  0.16526822806E+04  0.82715512952E+02 0.  0.
        -13    1    3    3    0    0  0.79291351923E+01  0.32659117425E+02 -0.10235211819E+03  0.10772857204E+03  0.00000000000E+00 0.  1.
         14    1    3    3    0    0 -0.51613320156E+00 -0.13694591851E+02 -0.50646860448E+03  0.50665398011E+03  0.00000000000E+00 0. -1.
         13    1    5    5    0    0 -0.11613715383E+02  0.46631813457E+02  0.46332339961E+03  0.46580894908E+03  0.00000000000E+00 0. -1.
        -14    1    5    5    0    0  0.33695680414E+02  0.30870883937E+01  0.11863909035E+04  0.11868733315E+04  0.00000000000E+00 0.  1.
          5    1    4    4  501    0  0.28708392189E+02 -0.38591541511E+02 -0.28832048516E+02  0.56233782373E+02  0.41800000000E+01 0. -1.
         -5    1    4    4    0  501 -0.58203359210E+02 -0.30091885915E+02  0.68301138229E+02  0.94740015329E+02  0.41800000000E+01 0. -1.
</event>
<event>
11    1  0.8328696E-009  0.1398853E+03  0.7561462E-02  0.1107687E+00
         22   -1    0    0    0    0  0.00000000000E+00  0.00000000000E+00  0.18011325825E+04  0.18011325825E+04  0.00000000000E+00 0.  1.
         22   -1    0    0    0    0 -0.00000000000E+00 -0.00000000000E+00 -0.91144690852E+03  0.91144690852E+03  0.00000000000E+00 0.  1.
         24    2    1    2    0    0 -0.41711594886E+02  0.19618269293E+01 -0.70650338260E+03  0.71225298211E+03  0.80084798777E+02 0.  0.
         25    2    1    2    0    0  0.59367989721E+02  0.58036756272E+02 -0.17250956672E+03  0.22869108295E+03  0.12508891848E+03 0.  0.
        -24    2    1    2    0    0 -0.17656394835E+02 -0.59998583201E+02  0.17686986233E+04  0.17716354260E+04  0.80533745707E+02 0.  0.
        -11    1    3    3    0    0 -0.52307247648E+02 -0.27378676530E+02 -0.44751114461E+03  0.45138881758E+03  0.00000000000E+00 0.  1.
         12    1    3    3    0    0  0.10595652761E+02  0.29340503459E+02 -0.25899223799E+03  0.26086416453E+03  0.00000000000E+00 0. -1.
         13    1    5    5    0    0  0.71235322157E+01  0.14022588358E+01  0.14774847994E+02  0.16462295536E+02  0.00000000000E+00 0. -1.
        -14    1    5    5    0    0 -0.24779927051E+02 -0.61400842037E+02  0.17539237753E+04  0.17551731305E+04  0.00000000000E+00 0.  1.
          5    1    4    4  501    0  0.87587844630E+02  0.19548298588E+02 -0.64690050952E+02  0.11070700789E+03  0.41800000000E+01 0. -1.
         -5    1    4    4    0  501 -0.28219854908E+02  0.38488457684E+02 -0.10781951577E+03  0.11798407505E+03  0.41800000000E+01 0. -1.
</event>
<event>
11    1  0.8328696E-009  0.1296739E+03  0.7561462E-02  0.1119670E+00
         22   -1    0    0    0    0  0.00000000000E+00  0.00000000000E+00  0.82758126993E+02  0.82758126993E+02  0.00000000000E+00 0. -1.
         22   -1    0    0    0    0 -0.00000000000E+00 -0.00000000000E+00 -0.10767003500E+04  0.10767003500E+04  0.00000000000E+00 0. -1.
         24    2    1    2    0    0  0.96418910484E+01 -0.17516396509E+02 -0.90868104649E+03  0.91251809730E+03  0.81167995176E+02 0.  0.
         25    2    1    2    0    0  0.80113618477E+01  0.43801870861E+02 -0.90828995248E+02  0.16087674971E+03  0.12509450991E+03 0.  0.
        -24    2    1    2    0    0 -0.17653252896E+02 -0.26285474351E+02  0.55678187096E+01  0.86063630004E+02  0.79833478595E+02 0.  0.
        -13    1    3    3    0    0 -0.14737678849E+01  0.28925940934E+01  0.28143752914E+00  0.32585732231E+01  0.00000000000E+00 0.  1.
         14    1    3    3    0    0  0.11115658933E+02 -0.20408990603E+02 -0.90896248402E+03  0.90925952407E+03  0.00000000000E+00 0. -1.
         13    1    5    5    0    0 -0.31610642116E+02 -0.38017826405E+01  0.34437426856E+02  0.46900134484E+02  0.00000000000E+00 0. -1.
        -14    1    5    5    0    0  0.13957389220E+02 -0.22483691711E+02 -0.28869608146E+02  0.39163495519E+02  0.00000000000E+00 0.  1.
          5    1    4    4  501    0  0.40144570672E+02  0.76605754081E+02 -0.56501280932E+02  0.10339194969E+03  0.41800000000E+01 0. -1.
         -5    1    4    4    0  501 -0.32133208825E+02 -0.32803883220E+02 -0.34327714316E+02  0.57484800025E+02  0.41800000000E+01 0. -1.
</event>
<event>
11    1  0.8328696E-009  0.1698890E+03  0.7561462E-02  0.1078128E+00
         22   -1    0    0    0    0  0.00000000000E+00  0.00000000000E+00  0.37930821154E+04  0.37930821154E+04  0.00000000000E+00 0.  1.
         22   -1    0    0    0    0 -0.00000000000E+00 -0.00000000000E+00 -0.33728903760E+02  0.33728903760E+02  0.00000000000E+00 0.  1.
        -24    2    1    2    0    0  0.15719735171E+02 -0.19604345659E+01  0.49202920428E+02  0.96051599817E+02  0.80956958140E+02 0.  0.
         25    2    1    2    0    0  0.31337477121E+02  0.10764500217E+03  0.81207315603E+03  0.82926513135E+03  0.12509341850E+03 0.  0.
         24    2    1    2    0    0 -0.47057212293E+02 -0.10568456760E+03  0.28980771352E+04  0.29014942880E+04  0.80214791485E+02 0.  0.
        -13    1    5    5    0    0 -0.69164166349E+02 -0.72405958633E+02  0.19354715136E+04  0.19380599280E+04  0.00000000000E+00 0.  1.
         14    1    5    5    0    0  0.22106954056E+02 -0.33278608971E+02  0.96260562160E+03  0.96343435997E+03  0.00000000000E+00 0. -1.
         11    1    3    3    0    0 -0.11334689408E+02  0.28887249014E+02  0.45198857695E+02  0.54825952582E+02  0.00000000000E+00 0. -1.
        -12    1    3    3    0    0  0.27054424579E+02 -0.30847683580E+02  0.40040627320E+01  0.41225647235E+02  0.00000000000E+00 0.  1.
          5    1    4    4  501    0 -0.11532938646E+01  0.12311273657E+03  0.71735449727E+03  0.72785508389E+03  0.41800000000E+01 0.  1.
         -5    1    4    4    0  501  0.32490770986E+02 -0.15467734405E+02  0.94718658763E+02  0.10141004745E+03  0.41800000000E+01 0.  1.
</event>
<event>
11    1  0.8328696E-009  0.1488583E+03  0.7561462E-02  0.1098051E+00
         22   -1    0    0    0    0  0.00000000000E+00  0.00000000000E+00  0.10854056890E+04  0.10854056890E+04  0.00000000000E+00 0.  1.
         22   -1    0    0    0    0 -0.00000000000E+00 -0.00000000000E+00 -0.94883760983E+02  0.94883760983E+02  0.00000000000E+00 0. -1.
         24    2    1    2    0    0  0.69290352519E+02  0.23232764852E+02 -0.10699380488E+02  0.11058899017E+03  0.82307555485E+02 0.  0.
         25    2    1    2    0    0 -0.12577546342E+03  0.58689091713E+01  0.22432984981E+03  0.28605524383E+03  0.12509919950E+03 0.  0.
        -24    2    1    2    0    0  0.56485110903E+02 -0.29101674023E+02  0.77689145867E+03  0.78364521595E+03  0.80635046612E+02 0.  0.
        -11    1    3    3    0    0 -0.62010337274E+01  0.32011940964E+02  0.49890416677E+01  0.32986477841E+02  0.00000000000E+00 0.  1.
         12    1    3    3    0    0  0.75491386247E+02 -0.87791761121E+01 -0.15688422155E+02  0.77602512333E+02  0.00000000000E+00 0. -1.
         11    1    5    5    0    0  0.59755477223E+02  0.24832787697E+00  0.30309941155E+03  0.30893370164E+03  0.00000000000E+00 0. -1.
        -12    1    5    5    0    0 -0.32703663206E+01 -0.29350001900E+02  0.47379204712E+03  0.47471151431E+03  0.00000000000E+00 0.  1.
          5    1    4    4  501    0 -0.60084966340E+02  0.25249754499E+02  0.16741620213E+02  0.67420379187E+02  0.41800000000E+01 0. -1.
         -5    1    4    4    0  501 -0.65690497082E+02 -0.19380845327E+02  0.20758822959E+03  0.21863486465E+03  0.41800000000E+01 0. -1.
</event>
<event>
11    1  0.8328696E-009  0.1555839E+03  0.7561462E-02  0.1091306E+00
         22   -1    0    0    0    0  0.00000000000E+00  0.00000000000E+00  0.28555782906E+03  0.28555782906E+03  0.00000000000E+00 0. -1.
         22   -1    0    0    0    0 -0.00000000000E+00 -0.00000000000E+00 -0.19236945844E+03  0.19236945844E+03  0.00000000000E+00 0.  1.
        -24    2    1    2    0    0  0.10409470900E+02 -0.10650125036E+03 -0.10346365369E+03  0.16936897835E+03  0.80809960908E+02 0.  0.
         25    2    1    2    0    0 -0.97809168482E+01  0.37578375718E+02  0.88174563280E+02  0.15789281960E+03  0.12509032023E+03 0.  0.
         24    2    1    2    0    0 -0.62855405178E+00  0.68922874639E+02  0.10847746102E+03  0.15066548956E+03  0.78625520442E+02 0.  0.
        -13    1    5    5    0    0 -0.33239637430E+02  0.27662425873E+02  0.19791537405E+02  0.47558261685E+02  0.00000000000E+00 0.  1.
         14    1    5    5    0    0  0.32611083378E+02  0.41260448766E+02  0.88685923619E+02  0.10310722787E+03  0.00000000000E+00 0. -1.
         11    1    3    3    0    0  0.55133880134E+01 -0.84781996847E+01  0.13381870498E+02  0.16773543910E+02  0.00000000000E+00 0. -1.
        -12    1    3    3    0    0  0.48960828866E+01 -0.98023050673E+02 -0.11684552418E+03  0.15259543444E+03  0.00000000000E+00 0.  1.
          5    1    4    4  501    0  0.25373334787E+02  0.73503225291E+02  0.37626550189E+02  0.86485605309E+02  0.41800000000E+01 0. -1.
         -5    1    4    4    0  501 -0.35154251635E+02 -0.35924849573E+02  0.50548013091E+02  0.71407214288E+02  0.41800000000E+01 0. -1.
</event>
<event>
11    1  0.8328696E-009  0.1682674E+03  0.7561462E-02  0.1079549E+00
         22   -1    0    0    0    0  0.00000000000E+00  0.00000000000E+00  0.14998273248E+03  0.14998273248E+03  0.00000000000E+00 0.  1.
         22   -1    0    0    0    0 -0.00000000000E+00 -0.00000000000E+00 -0.12454551485E+04  0.12454551485E+04  0.00000000000E+00 0. -1.
         24    2    1    2    0    0 -0.78789314803E+02  0.46734143614E+02 -0.75599035857E+03  0.76599765181E+03  0.82699117385E+02 0.  0.
         25    2    1    2    0    0  0.16381740996E+03 -0.10893934799E+03 -0.41575994923E+03  0.47666092636E+03  0.12508148538E+03 0.  0.
        -24    2    1    2    0    0 -0.85028095159E+02  0.62205204378E+02  0.76277891794E+02  0.15277930280E+03  0.80149448972E+02 0.  0.
        -13    1    3    3    0    0 -0.31752748737E+02  0.11015107954E+02 -0.71954542024E+02  0.79416785213E+02  0.00000000000E+00 0.  1.
         14    1    3    3    0    0 -0.47036566066E+02  0.35719035660E+02 -0.68403581655E+03  0.68658086660E+03  0.00000000000E+00 0. -1.
         13    1    5    5    0    0 -0.62178975368E+01  0.51348920936E+02  0.39780832153E+02  0.65252498327E+02  0.00000000000E+00 0. -1.
        -14    1    5    5    0    0 -0.78810197623E+02  0.10856283441E+02  0.36497059641E+02  0.87526804477E+02  0.00000000000E+00 0.  1.
          5    1    4    4  501    0 -0.18798098500E+02 -0.61836371504E+01 -0.64822603618E+02  0.67904699509E+02  0.41800000000E+01 0.  1.
         -5    1    4    4    0  501  0.18261550846E+03 -0.10275571084E+03 -0.35093734561E+03  0.40875622685E+03  0.41800000000E+01 0.  1.
</event>
<event>
11    1  0.8328696E-009  0.1416905E+03  0.7561462E-02  0.1105685E+00
         22   -1    0    0    0    0  0.00000000000E+00  0.00000000000E+00  0.27372920683E+04  0.27372920683E+04  0.00000000000E+00 0. -1.
         22   -1    0    0    0    0 -0.00000000000E+00 -0.00000000000E+00 -0.22278813164E+02  0.22278813164E+02  0.00000000000E+00 0.  1.
        -24    2    1    2    0    0 -0.47361780866E+02 -0.27521244066E+02  0.21170117112E+03  0.23361684203E+03  0.82212443485E+02 0.  0.
         25    2    1    2    0    0  0.74129181782E+02  0.70519161669E+02  0.63414123167E+03  0.65440855677E+03  0.12508944686E+03 0.  0.
         24    2    1    2    0    0 -0.26767400915E+02 -0.42997917603E+02  0.18691708524E+04  0.18715454827E+04  0.79482726154E+02 0.  0.
        -13    1    5    5    0    0  0.28040798802E+01  0.19030772031E+02  0.19050294392E+03  0.19147168143E+03  0.00000000000E+00 0.  1.
         14    1    5    5    0    0 -0.29571480796E+02 -0.62028689634E+02  0.16786679084E+04  0.16800738012E+04  0.00000000000E+00 0. -1.
         11    1    3    3    0    0 -0.30070444418E+01  0.78430234135E+01 -0.48905148864E+01  0.97196948714E+01  0.00000000000E+00 0. -1.
        -12    1    3    3    0    0 -0.44354736424E+02 -0.35364267480E+02  0.21659168601E+03  0.22389714716E+03  0.00000000000E+00 0.  1.
          5    1    4    4  501    0  0.10621402654E+03  0.65309270700E+02  0.43297402201E+03  0.45058927684E+03  0.41800000000E+01 0.  1.
         -5    1    4    4    0  501 -0.32084844754E+02  0.52098909696E+01  0.20116720966E+03  0.20381927993E+03  0.41800000000E+01 0.  1.
</event>
<event>
11    1  0.8328696E-009  0.2160540E+03  0.7561462E-02  0.1043718E+00
         22   -1    0    0    0    0  0.00000000000E+00  0.00000000000E+00  0.30877933568E+04  0.30877933568E+04  0.00000000000E+00 0.  1.
         22   -1    0    0    0    0 -0.00000000000E+00 -0.00000000000E+00 -0.11369211938E+04  0.11369211938E+04  0.00000000000E+00 0.  1.
         24    2    1    2    0    0 -0.11605018239E+03 -0.13308072109E+03 -0.10664215560E+04  0.10837442889E+04  0.77901382278E+02 0.  0.
         25    2    1    2    0    0  0.93917222175E+02  0.14028072550E+03  0.11973042965E+03  0.24183020327E+03  0.12508934751E+03 0.  0.
        -24    2    1    2    0    0  0.22132960210E+02 -0.72000044069E+01  0.28975632894E+04  0.28991400585E+04  0.92727314900E+02 0.  0.
        -13    1    3    3    0    0 -0.97747143048E+02 -0.14210807265E+03 -0.94205039809E+03  0.95770985210E+03  0.00000000000E+00 0.  1.
         14    1    3    3    0    0 -0.18303039337E+02  0.90273515587E+01 -0.12437115796E+03  0.12603443679E+03  0.00000000000E+00 0. -1.
         13    1    5    5    0    0 -0.20006175031E+02  0.29400813618E+02  0.73886461821E+03  0.73971993276E+03  0.00000000000E+00 0. -1.
        -14    1    5    5    0    0  0.42139135241E+02 -0.36600818025E+02  0.21586986712E+04  0.21594201257E+04  0.00000000000E+00 0.  1.
          5    1    4    4  501    0  0.61144492247E+02  0.11262381308E+03  0.15633891523E+02  0.12916912622E+03  0.41800000000E+01 0. -1.
         -5    1    4    4    0  501  0.32772729929E+02  0.27656912421E+02  0.10409653813E+03  0.11266107705E+03  0.41800000000E+01 0. -1.
</event>
<event>
11    1  0.8328696E-009  0.1540981E+03  0.7561462E-02  0.1092763E+00
         22   -1    0    0    0    0  0.00000000000E+00  0.00000000000E+00  0.84877559511E+03  0.84877559511E+03  0.00000000000E+00 0. -1.
         22   -1    0    0    0    0 -0.00000000000E+00 -0.00000000000E+00 -0.21372564016E+03  0.21372564016E+03  0.00000000000E+00 0. -1.
         24    2    1    2    0    0  0.85970593240E+02 -0.11912140344E+01 -0.13844048389E+03  0.18172361007E+03  0.80407344092E+02 0.  0.
         25    2    1    2    0    0 -0.11749216581E+03 -0.30993711979E+02  0.99200804631E+02  0.20063240749E+03  0.12509014385E+03 0.  0.
        -24    2    1    2    0    0  0.31521572565E+02  0.32184926014E+02  0.67428963421E+03  0.68014521772E+03  0.76821399266E+02 0.  0.
        -11    1    3    3    0    0 -0.91180413691E+01 -0.78296414784E+01 -0.50917067279E+02  0.52316247041E+02  0.00000000000E+00 0.  1.
         12    1    3    3    0    0  0.95088634609E+02  0.66384274440E+01 -0.87523416611E+02  0.12940736303E+03  0.00000000000E+00 0. -1.
         11    1    5    5    0    0  0.50929729420E+02  0.42865053089E+02  0.47907888382E+03  0.48368153473E+03  0.00000000000E+00 0. -1.
        -12    1    5    5    0    0 -0.19408156855E+02 -0.10680127075E+02  0.19521075038E+03  0.19646368299E+03  0.00000000000E+00 0.  1.
          5    1    4    4  501    0 -0.50357026413E+02  0.39429288025E+02  0.36466793822E+01  0.64197114685E+02  0.41800000000E+01 0. -1.
         -5    1    4    4    0  501 -0.67135139392E+02 -0.70423000004E+02  0.95554125249E+02  0.13643529281E+03  0.41800000000E+01 0. -1.
</event>
<event>
11    1  0.8328696E-009  0.1314215E+03  0.7561462E-02  0.1117535E+00
         22   -1    0    0    0    0  0.00000000000E+00  0.00000000000E+00  0.64853456379E+02  0.64853456379E+02  0.00000000000E+00 0.  1.
         22   -1    0    0    0    0 -0.00000000000E+00 -0.00000000000E+00 -0.82781279636E+03  0.82781279636E+03  0.00000000000E+00 0.  1.
        -24    2    1    2    0    0 -0.12338724167E+02 -0.31937169556E+02 -0.37269984387E+03  0.38412233810E+03  0.86444028694E+02 0.  0.
         25    2    1    2    0    0  0.48153026310E+02  0.33084263634E+02 -0.39649211176E+03  0.41984006748E+03  0.12508559121E+03 0.  0.
         24    2    1    2    0    0 -0.35814302143E+02 -0.11470940778E+01  0.62326156484E+01  0.88703847157E+02  0.80904554506E+02 0.  0.
        -11    1    5    5    0    0  0.10135165930E+02  0.17525311032E+02  0.27989061753E+02  0.34543388557E+02  0.00000000000E+00 0.  1.
         12    1    5    5    0    0 -0.45949468072E+02 -0.18672405109E+02 -0.21756446105E+02  0.54160458600E+02  0.00000000000E+00 0. -1.
         13    1    3    3    0    0  0.10985097724E+02 -0.41751617304E+02 -0.85227763644E+02  0.95538691718E+02  0.00000000000E+00 0. -1.
        -14    1    3    3    0    0 -0.23323821891E+02  0.98144477476E+01 -0.28747208022E+03  0.28858364639E+03  0.00000000000E+00 0.  1.
          5    1    4    4  501    0  0.90062374720E+02  0.16215331361E+02 -0.23941539719E+03  0.25634229679E+03  0.41800000000E+01 0.  1.
         -5    1    4    4    0  501 -0.41909348410E+02  0.16868932272E+02 -0.15707671457E+03  0.16349777069E+03  0.41800000000E+01 0.  1.
</event>
<event>
11    1  0.8328696E-009  0.1315994E+03  0.7561462E-02  0.1117319E+00
         22   -1    0    0    0    0  0.00000000000E+00  0.00000000000E+00  0.92950632530E+02  0.92950632530E+02  0.00000000000E+00 0. -1.
         22   -1    0    0    0    0 -0.00000000000E+00 -0.00000000000E+00 -0.71253916216E+03  0.71253916216E+03  0.00000000000E+00 0. -1.
         24    2    1    2    0    0 -0.53150493107E+02 -0.21957770127E+02 -0.51856983870E+03  0.52678226045E+03  0.72648150197E+02 0.  0.
         25    2    1    2    0    0  0.48620953383E+01  0.33310297876E+02 -0.12459946199E+03  0.17973800301E+03  0.12508999913E+03 0.  0.
        -24    2    1    2    0    0  0.48288397769E+02 -0.11352527750E+02  0.23580771066E+02  0.98969531223E+02  0.82330225926E+02 0.  0.
        -13    1    3    3    0    0 -0.54322232368E+02 -0.35225283631E+01 -0.18868437919E+03  0.19638000939E+03  0.00000000000E+00 0.  1.
         14    1    3    3    0    0  0.11717392611E+01 -0.18435241764E+02 -0.32988545951E+03  0.33040225107E+03  0.00000000000E+00 0. -1.
         13    1    5    5    0    0  0.35638038294E+02 -0.18924314063E+02  0.52674402747E+02  0.66353539023E+02  0.00000000000E+00 0. -1.
        -14    1    5    5    0    0  0.12650359475E+02  0.75717863137E+01 -0.29093631680E+02  0.32615992200E+02  0.00000000000E+00 0.  1.
          5    1    4    4  501    0  0.58263249250E+02  0.16776422031E+02 -0.25552797294E+02  0.65927781693E+02  0.41800000000E+01 0.  1.
         -5    1    4    4    0  501 -0.53401153912E+02  0.16533875846E+02 -0.99046664695E+02  0.11381022132E+03  0.41800000000E+01 0.  1.
</event>
<event>
11    1  0.8328696E-009  0.1298198E+03  0.7561462E-02  0.1119491E+00
         22   -1    0    0    0    0  0.00000000000E+00  0.00000000000E+00  0.24767903380E+03  0.24767903380E+03  0.00000000000E+00 0.  1.
         22   -1    0    0    0    0 -0.00000000000E+00 -0.00000000000E+00 -0.93551377885E+03  0.93551377885E+03  0.00000000000E+00 0. -1.
        -24    2    1    2    0    0 -0.16510032513E+02  0.43567067683E+01 -0.76592208179E+03  0.77032753713E+03  0.80475567823E+02 0.  0.
         25    2    1    2    0    0  0.29863856824E+02 -0.35789450965E+02 -0.13022620487E+03  0.18649135704E+03  0.12508967611E+03 0.  0.
         24    2    1    2    0    0 -0.13353824311E+02  0.31432744196E+02  0.20831354161E+03  0.22637391848E+03  0.81757429759E+02 0.  0.
        -11    1    5    5    0    0 -0.24946471398E+02  0.56066558555E+02  0.14253216529E+03  0.15518119592E+03  0.00000000000E+00 0.  1.
         12    1    5    5    0    0  0.11592647087E+02 -0.24633814359E+02  0.65781376312E+02  0.71192722562E+02  0.00000000000E+00 0. -1.
         11    1    3    3    0    0  0.21747165339E+02  0.21997289688E+02 -0.51207341541E+03  0.51300682522E+03  0.00000000000E+00 0. -1.
        -12    1    3    3    0    0 -0.38257197852E+02 -0.17640582920E+02 -0.25384866639E+03  0.25732071191E+03  0.00000000000E+00 0.  1.
          5    1    4    4  501    0  0.40317981226E+02  0.38577076197E+02 -0.73015105102E+02  0.91991349545E+02  0.41800000000E+01 0.  1.
         -5    1    4    4    0  501 -0.10454124402E+02 -0.74366527162E+02 -0.57211099769E+02  0.94500007492E+02  0.41800000000E+01 0.  1.
</event>
<event>
11    1  0.8328696E-009  0.1728385E+03  0.7561462E-02  0.1075588E+00
         22   -1    0    0    0    0  0.00000000000E+00  0.00000000000E+00  0.59450764087E+03  0.59450764087E+03  0.00000000000E+00 0. -1.
         22   -1    0    0    0    0 -0.00000000000E+00 -0.00000000000E+00 -0.99823089261E+03  0.99823089261E+03  0.00000000000E+00 0. -1.
        -24    2    1    2    0    0 -0.87969977691E+02  0.14196744001E+02 -0.94679199326E+03  0.95422995906E+03  0.78736724245E+02 0.  0.
         25    2    1    2    0    0 -0.48291177648E+02 -0.63685969136E+02  0.14407661186E+03  0.20686746229E+03  0.12509251123E+03 0.  0.
         24    2    1    2    0    0  0.13626115534E+03  0.49489225135E+02  0.39899212965E+03  0.43164111213E+03  0.78121983455E+02 0.  0.
        -11    1    5    5    0    0 -0.63208853443E+01  0.15473632011E+02  0.26338826400E+02  0.31194881876E+02  0.00000000000E+00 0.  1.
         12    1    5    5    0    0  0.14258204068E+03  0.34015593124E+02  0.37265330325E+03  0.40044623026E+03  0.00000000000E+00 0. -1.
         13    1    3    3    0    0 -0.67467208418E+02  0.28474551282E+02 -0.87787361020E+03  0.88092264120E+03  0.00000000000E+00 0. -1.
        -14    1    3    3    0    0 -0.20502769272E+02 -0.14277807281E+02 -0.68918383057E+02  0.73307317860E+02  0.00000000000E+00 0.  1.
          5    1    4    4  501    0 -0.54768696002E+01 -0.94517858466E+02  0.10221154945E+03  0.13938541857E+03  0.41800000000E+01 0.  1.
         -5    1    4    4    0  501 -0.42814308048E+02  0.30831889331E+02  0.41865062409E+02  0.67482043714E+02  0.41800000000E+01 0.  1.
</event>
<event>
11    1  0.8328696E-009  0.8754883E+03  0.7561462E-02  0.8807391E-01
         22   -1    0    0    0    0  0.00000000000E+00  0.00000000000E+00  0.18454571378E+04  0.18454571378E+04  0.00000000000E+00 0.  1.
         22   -1    0    0    0    0 -0.00000000000E+00 -0.00000000000E+00 -0.67779038420E+03  0.67779038420E+03  0.00000000000E+00 0.  1.
        -24    2    1    2    0    0  0.35029555375E+02  0.71602161737E+02 -0.23498424059E+03  0.26147235857E+03  0.82439442339E+02 0.  0.
         25    2    1    2    0    0  0.84452157948E+03 -0.14315675498E+03  0.87368166863E+03  0.12299084204E+04  0.12507801459E+03 0.  0.
         24    2    1    2    0    0 -0.87955113485E+03  0.71554593248E+02  0.52896932551E+03  0.10318667430E+04  0.78804627691E+02 0.  0.
        -13    1    5    5    0    0 -0.28635991346E+03  0.28874430919E+01  0.13611913457E+03  0.31707847003E+03  0.00000000000E+00 0.  1.
         14    1    5    5    0    0 -0.59319122140E+03  0.68667150156E+02  0.39285019093E+03  0.71478827297E+03  0.00000000000E+00 0. -1.
         11    1    3    3    0    0 -0.12069225591E+02 -0.11380046947E+02 -0.58974191810E+02  0.61262769890E+02  0.00000000000E+00 0. -1.
        -12    1    3    3    0    0  0.47098780966E+02  0.82982208684E+02 -0.17601004878E+03  0.20020958868E+03  0.00000000000E+00 0.  1.
          5    1    4    4  501    0  0.61052622835E+03 -0.54993129861E+02  0.66228822162E+03  0.90244649743E+03  0.41800000000E+01 0. -1.
         -5    1    4    4    0  501  0.23399535113E+03 -0.88163625123E+02  0.21139344702E+03  0.32746192296E+03  0.41800000000E+01 0. -1.
</event>
<event>
11    1  0.8328696E-009  0.1383533E+03  0.7561462E-02  0.1109411E+00
         22   -1    0    0    0    0  0.00000000000E+00  0.00000000000E+00  0.38077815850E+03  0.38077815850E+03  0.00000000000E+00 0. -1.
         22   -1    0    0    0    0 -0.00000000000E+00 -0.00000000000E+00 -0.75365109534E+03  0.75365109534E+03  0.00000000000E+00 0.  1.
         24    2    1    2    0    0  0.11203093107E+01  0.92750725663E+01 -0.62018538909E+03  0.62532421268E+03  0.79455472123E+02 0.  0.
         25    2    1    2    0    0 -0.38370795147E+01  0.50295167329E+02 -0.86874538606E+02  0.16042972430E+03  0.12508470708E+03 0.  0.
        -24    2    1    2    0    0  0.27167702040E+01 -0.59570239895E+02  0.33418699085E+03  0.34867531687E+03  0.79608651637E+02 0.  0.
        -13    1    3    3    0    0 -0.10650228515E+02 -0.32139604531E+02 -0.36130507836E+03  0.36288805601E+03  0.00000000000E+00 0.  1.
         14    1    3    3    0    0  0.11770537826E+02  0.41414677097E+02 -0.25888031074E+03  0.26243615667E+03  0.00000000000E+00 0. -1.
         13    1    5    5    0    0 -0.23512426048E+02 -0.36007010569E+02  0.28460018672E+03  0.28783086226E+03  0.00000000000E+00 0. -1.
        -14    1    5    5    0    0  0.26229196252E+02 -0.23563229327E+02  0.49586804139E+02  0.60844454612E+02  0.00000000000E+00 0.  1.
          5    1    4    4  501    0  0.57508087229E+02  0.29200580296E+02 -0.65452624806E+02  0.91985718894E+02  0.41800000000E+01 0. -1.
         -5    1    4    4    0  501 -0.61345166744E+02  0.21094587033E+02 -0.21421913800E+02  0.68444005404E+02  0.41800000000E+01 0. -1.
</event>
<event>
11    1  0.8328696E-009  0.4820809E+03  0.7561462E-02  0.9434478E-01
         22   -1    0    0    0    0  0.00000000000E+00  0.00000000000E+00  0.18871410435E+04  0.18871410435E+04  0.00000000000E+00 0. -1.
         22   -1    0    0    0    0 -0.00000000000E+00 -0.00000000000E+00 -0.11360326600E+04  0.11360326600E+04  0.00000000000E+00 0.  1.
        -24    2    1    2    0    0 -0.52761150946E+02 -0.11019124104E+02 -0.46754335451E+03  0.47793436695E+03  0.83182393707E+02 0.  0.
         25    2    1    2    0    0  0.51523190624E+03  0.34466231317E+02 -0.52044138949E+03  0.74374580398E+03  0.12508694073E+03 0.  0.
         24    2    1    2    0    0 -0.46247075529E+03 -0.23447107214E+02  0.17390931275E+04  0.18014935326E+04  0.80654048824E+02 0.  0.
        -11    1    5    5    0    0 -0.15662044654E+03 -0.18201453609E+02  0.45781725114E+03  0.48420852185E+03  0.00000000000E+00 0.  1.
         12    1    5    5    0    0 -0.30585030875E+03 -0.52456536045E+01  0.12812758764E+04  0.13172850108E+04  0.00000000000E+00 0. -1.
         13    1    3    3    0    0  0.22335605823E+02 -0.40179578064E+01 -0.13936710075E+03  0.14120273384E+03  0.00000000000E+00 0. -1.
        -14    1    3    3    0    0 -0.75096756769E+02 -0.70011662973E+01 -0.32817625376E+03  0.33673163311E+03  0.00000000000E+00 0.  1.
          5    1    4    4  501    0  0.48278357702E+03  0.30163737677E+02 -0.52072373152E+03  0.71074644585E+03  0.41800000000E+01 0.  1.
         -5    1    4    4    0  501  0.32448329211E+02  0.43024936402E+01  0.28234203243E+00  0.32999358133E+02  0.41800000000E+01 0.  1.
</event>
<event>
11    1  0.8328696E-009  0.1408780E+03  0.7561462E-02  0.1106582E+00
         22   -1    0    0    0    0  0.00000000000E+00  0.00000000000E+00  0.27354958748E+03  0.27354958748E+03  0.00000000000E+00 0. -1.
         22   -1    0    0    0    0 -0.00000000000E+00 -0.00000000000E+00 -0.71089127603E+03  0.71089127603E+03  0.00000000000E+00 0.  1.
         24    2    1    2    0    0 -0.36942952148E+02  0.54213919803E+02 -0.55513931466E+03  0.56479080053E+03  0.80653945203E+02 0.  0.
         25    2    1    2    0    0  0.14060016876E+02 -0.61323702328E+02 -0.10881338248E+03  0.17733057661E+03  0.12508997023E+03 0.  0.
        -24    2    1    2    0    0  0.22882935272E+02  0.71097825250E+01  0.22661100859E+03  0.24231948636E+03  0.82413630678E+02 0.  0.
        -13    1    3    3    0    0 -0.16685238465E+02  0.47298681766E+02 -0.13353542567E+03  0.14264386559E+03  0.00000000000E+00 0.  1.
         14    1    3    3    0    0 -0.20257713683E+02  0.69152380374E+01 -0.42160388898E+03  0.42214693495E+03  0.00000000000E+00 0. -1.
         13    1    5    5    0    0  0.10590923411E+01 -0.25661874335E+02  0.17762055459E+03  0.17946786588E+03  0.00000000000E+00 0. -1.
        -14    1    5    5    0    0  0.21823842931E+02  0.32771656860E+02  0.48990453994E+02  0.62851620474E+02  0.00000000000E+00 0.  1.
          5    1    4    4  501    0  0.56574708863E+02  0.66909971021E+01 -0.62269826353E+02  0.84501306494E+02  0.41800000000E+01 0.  1.
         -5    1    4    4    0  501 -0.42514691987E+02 -0.68014699430E+02 -0.46543556130E+02  0.92829270118E+02  0.41800000000E+01 0.  1.
</event>
<event>
11    1  0.8328696E-009  0.1745376E+03  0.7561462E-02  0.1074149E+00
         22   -1    0    0    0    0  0.00000000000E+00  0.00000000000E+00  0.17795271173E+03  0.17795271173E+03  0.00000000000E+00 0. -1.
         22   -1    0    0    0    0 -0.00000000000E+00 -0.00000000000E+00 -0.89731349803E+03  0.89731349803E+03  0.00000000000E+00 0.  1.
        -24    2    1    2    0    0  0.10199522431E+03  0.47538536666E+02 -0.64261622590E+03  0.65905157066E+03  0.93436720571E+02 0.  0.
         25    2    1    2    0    0 -0.17913650292E+03 -0.58168753706E+02 -0.16001498747E+03  0.27699023157E+03  0.12508117998E+03 0.  0.
         24    2    1    2    0    0  0.77141278611E+02  0.10630217040E+02  0.83270427072E+02  0.13922440753E+03  0.79910532767E+02 0.  0.
        -11    1    5    5    0    0  0.10896649104E+02 -0.13313454811E+02 -0.11829650107E+02  0.20878832878E+02  0.00000000000E+00 0.  1.
         12    1    5    5    0    0  0.66244629507E+02  0.23943671851E+02  0.95100077179E+02  0.11834557465E+03  0.00000000000E+00 0. -1.
         13    1    3    3    0    0  0.18519769462E+02  0.53091601688E+02 -0.16915220562E+03  0.17825310291E+03  0.00000000000E+00 0. -1.
        -14    1    3    3    0    0  0.83475454851E+02 -0.55530650215E+01 -0.47346402028E+03  0.48079846775E+03  0.00000000000E+00 0.  1.
          5    1    4    4  501    0 -0.12980911049E+03 -0.81200252312E+02 -0.16121531087E+03  0.22237746064E+03  0.41800000000E+01 0. -1.
         -5    1    4    4    0  501 -0.49327392438E+02  0.23031498606E+02  0.12003234029E+01  0.54612770934E+02  0.41800000000E+01 0. -1.
</event>
<event>
11    1  0.8328696E-009  0.2339403E+03  0.7561462E-02  0.1032820E+00
         22   -1    0    0    0    0  0.00000000000E+00  0.00000000000E+00  0.80315945135E+03  0.80315945135E+03  0.00000000000E+00 0. -1.
         22   -1    0    0    0    0 -0.00000000000E+00 -0.00000000000E+00 -0.72092242678E+03  0.72092242678E+03  0.00000000000E+00 0. -1.
        -24    2    1    2    0    0  0.17545342080E+03  0.13579857736E+03 -0.62441939985E+03  0.66771160924E+03  0.81939305130E+02 0.  0.
         25    2    1    2    0    0 -0.86100318517E+02 -0.41344481594E+02  0.26709898906E+02  0.15964109863E+03  0.12509688511E+03 0.  0.
         24    2    1    2    0    0 -0.89353102280E+02 -0.94454095763E+02  0.67994652552E+03  0.69672917026E+03  0.78731861634E+02 0.  0.
        -13    1    5    5    0    0 -0.70002916059E+01 -0.28747666759E+02  0.50520390147E+02  0.58546923465E+02  0.00000000000E+00 0.  1.
         14    1    5    5    0    0 -0.82352810675E+02 -0.65706429005E+02  0.62942613537E+03  0.63818224680E+03  0.00000000000E+00 0. -1.
         11    1    3    3    0    0  0.14984923103E+03  0.69010397927E+02 -0.43843616997E+03  0.46844797171E+03  0.00000000000E+00 0. -1.
        -12    1    3    3    0    0  0.25604189767E+02  0.66788179430E+02 -0.18598322988E+03  0.19926363753E+03  0.00000000000E+00 0.  1.
          5    1    4    4  501    0 -0.63180377930E+02  0.15844421465E+02 -0.33524306283E+02  0.73376817583E+02  0.41800000000E+01 0.  1.
         -5    1    4    4    0  501 -0.22919940588E+02 -0.57188903059E+02  0.60234205189E+02  0.86264281046E+02  0.41800000000E+01 0.  1.
</event>
<event>
11    1  0.8328696E-009  0.1293304E+03  0.7561462E-02  0.1120094E+00
         22   -1    0    0    0    0  0.00000000000E+00  0.00000000000E+00  0.26268471113E+03  0.26268471113E+03  0.00000000000E+00 0. -1.
         22   -1    0    0    0    0 -0.00000000000E+00 -0.00000000000E+00 -0.77244573674E+03  0.77244573674E+03  0.00000000000E+00 0. -1.
        -24    2    1    2    0    0 -0.22148529890E+02  0.26011235222E+02 -0.63321464900E+03  0.63921650265E+03  0.80435090701E+02 0.  0.
         25    2    1    2    0    0  0.57472754331E+01 -0.19825658407E+02 -0.97659364657E+02  0.16003838141E+03  0.12509534010E+03 0.  0.
         24    2    1    2    0    0  0.16401254457E+02 -0.61855768148E+01  0.22111298804E+03  0.23587556381E+03  0.80243788630E+02 0.  0.
        -11    1    5    5    0    0  0.38536258362E+02  0.17387163280E+02  0.73767175610E+02  0.85023248897E+02  0.00000000000E+00 0.  1.
         12    1    5    5    0    0 -0.22135003906E+02 -0.23572740095E+02  0.14734581243E+03  0.15085231491E+03  0.00000000000E+00 0. -1.
         13    1    3    3    0    0  0.10659106151E+02  0.43999508081E+02 -0.44654481731E+03  0.44883387475E+03  0.00000000000E+00 0. -1.
        -14    1    3    3    0    0 -0.32807636040E+02 -0.17988272859E+02 -0.18666983169E+03  0.19038262790E+03  0.00000000000E+00 0.  1.
          5    1    4    4  501    0  0.39620383372E+02  0.40850993651E+02 -0.40709274711E+02  0.70094906436E+02  0.41800000000E+01 0. -1.
         -5    1    4    4    0  501 -0.33873107939E+02 -0.60676652057E+02 -0.56950089945E+02  0.89943474978E+02  0.41800000000E+01 0. -1.
</event>
<event>
11    1  0.8328696E-009  0.1302337E+03  0.7561462E-02  0.1118982E+00
         22   -1    0    0    0    0  0.00000000000E+00  0.00000000000E+00  0.51800659354E+03  0.51800659354E+03  0.00000000000E+00 0. -1.
         22   -1    0    0    0    0 -0.00000000000E+00 -0.00000000000E+00 -0.53470296362E+03  0.53470296362E+03  0.00000000000E+00 0.  1.
        -24    2    1    2    0    0  0.35855266832E+02  0.85242802653E+01 -0.44667326647E+03  0.45514175042E+03  0.79238516431E+02 0.  0.
         25    2    1    2    0    0 -0.21353423034E+02 -0.42061682055E+02 -0.22868949281E+02  0.13562925980E+03  0.12508858261E+03 0.  0.
         24    2    1    2    0    0 -0.14501843798E+02  0.33537401789E+02  0.45284584567E+03  0.46193854694E+03  0.83563152251E+02 0.  0.
        -11    1    5    5    0    0  0.11687951876E+02  0.92236409456E+00  0.60579276752E+01  0.13196873202E+02  0.00000000000E+00 0.  1.
         12    1    5    5    0    0 -0.26189795675E+02  0.32615037695E+02  0.44678791799E+03  0.44874167373E+03  0.00000000000E+00 0. -1.
         13    1    3    3    0    0  0.62559525339E+01 -0.20364254906E+02 -0.32196216995E+02  0.38606168014E+02  0.00000000000E+00 0. -1.
        -14    1    3    3    0    0  0.29599314298E+02  0.28888535171E+02 -0.41447704947E+03  0.41653558241E+03  0.00000000000E+00 0.  1.
          5    1    4    4  501    0 -0.55295583204E+02  0.16938016162E+02 -0.32954148669E+02  0.66692924871E+02  0.41800000000E+01 0.  1.
         -5    1    4    4    0  501  0.33942160170E+02 -0.58999698217E+02  0.10085199388E+02  0.68936334929E+02  0.41800000000E+01 0.  1.
</event>
<event>
11    1  0.8328696E-009  0.3311833E+03  0.7561462E-02  0.9877942E-01
         22   -1    0    0    0    0  0.00000000000E+00  0.00000000000E+00  0.77954817353E+03  0.77954817353E+03  0.00000000000E+00 0. -1.
         22   -1    0    0    0    0 -0.00000000000E+00 -0.00000000000E+00 -0.26617189126E+03  0.26617189126E+03  0.00000000000E+00 0. -1.
         24    2    1    2    0    0 -0.59511968179E+02 -0.24464770215E+03  0.12454388622E+03  0.29224269468E+03  0.80625309183E+02 0.  0.
         25    2    1    2    0    0  0.36092617173E+02  0.36613180073E+03  0.60313305844E+02  0.39324368531E+03  0.12509088159E+03 0.  0.
        -24    2    1    2    0    0  0.23419351006E+02 -0.12148409858E+03  0.32851909021E+03  0.36023368479E+03  0.80849630894E+02 0.  0.
        -13    1    3    3    0    0 -0.37104173937E+01 -0.59848906656E+02 -0.43577522193E+01  0.60121949649E+02  0.00000000000E+00 0.  1.
         14    1    3    3    0    0 -0.55801550786E+02 -0.18479879549E+03  0.12890163844E+03  0.23212074504E+03  0.00000000000E+00 0. -1.
         11    1    5    5    0    0 -0.25300429316E+02 -0.15011975098E+02  0.86767593908E+02  0.91619247282E+02  0.00000000000E+00 0. -1.
        -12    1    5    5    0    0  0.48719780322E+02 -0.10647212349E+03  0.24175149630E+03  0.26861443751E+03  0.00000000000E+00 0.  1.
          5    1    4    4  501    0  0.45616335151E+02  0.35914096548E+02  0.94485834690E+01  0.58969657393E+02  0.41800000000E+01 0.  1.
         -5    1    4    4    0  501 -0.95237179780E+01  0.33021770418E+03  0.50864722375E+02  0.33427402792E+03  0.41800000000E+01 0.  1.
</event>
<event>
11    1  0.8328696E-009  0.3396161E+03  0.7561462E-02  0.9846919E-01
         22   -1    0    0    0    0  0.00000000000E+00  0.00000000000E+00  0.12824185777E+04  0.12824185777E+04  0.00000000000E+00 0. -1.
         22   -1    0    0    0    0 -0.00000000000E+00 -0.00000000000E+00 -0.15120331779E+03  0.15120331779E+03  0.00000000000E+00 0.  1.
        -24    2    1    2    0    0 -0.58111990545E+02  0.34442755468E+02  0.30058857233E+02  0.10907055769E+03  0.80184442429E+02 0.  0.
         25    2    1    2    0    0  0.30870965915E+03 -0.19342989462E+03  0.38143469864E+03  0.54208457496E+03  0.12508588767E+03 0.  0.
         24    2    1    2    0    0 -0.25059766861E+03  0.15898713915E+03  0.71972170407E+03  0.78246676288E+03  0.78605354630E+02 0.  0.
        -11    1    5    5    0    0 -0.57751863478E+01 -0.21670573635E+01  0.63058517131E+02  0.63359494140E+02  0.00000000000E+00 0.  1.
         12    1    5    5    0    0 -0.24482248226E+03  0.16115419651E+03  0.65666318694E+03  0.71910726874E+03  0.00000000000E+00 0. -1.
         13    1    3    3    0    0 -0.65268529434E+02 -0.16891542259E+01  0.71189327143E+01  0.65677342969E+02  0.00000000000E+00 0. -1.
        -14    1    3    3    0    0  0.71565388892E+01  0.36131909694E+02  0.22939924518E+02  0.43393214722E+02  0.00000000000E+00 0.  1.
          5    1    4    4  501    0  0.27926924380E+02 -0.65268275767E+02  0.11029347908E+03  0.13123256019E+03  0.41800000000E+01 0.  1.
         -5    1    4    4    0  501  0.28078273477E+03 -0.12816161885E+03  0.27114121957E+03  0.41085201477E+03  0.41800000000E+01 0.  1.
</event>
<event>
11    1  0.8328696E-009  0.2551883E+03  0.7561462E-02  0.1021171E+00
         22   -1    0    0    0    0  0.00000000000E+00  0.00000000000E+00  0.82242803160E+03  0.82242803160E+03  0.00000000000E+00 0.  1.
         22   -1    0    0    0    0 -0.00000000000E+00 -0.00000000000E+00 -0.26443960458E+03  0.26443960458E+03  0.00000000000E+00 0. -1.
         24    2    1    2    0    0  0.17657024115E+03 -0.12210094826E+03 -0.12454192430E+03  0.26076832418E+03  0.80023348864E+02 0.  0.
         25    2    1    2    0    0 -0.19447387727E+03  0.17122993317E+03  0.24338541291E+03  0.37686056246E+03  0.12509054864E+03 0.  0.
        -24    2    1    2    0    0  0.17903636128E+02 -0.49128984909E+02  0.43914493841E+03  0.44923874954E+03  0.78949222990E+02 0.  0.
        -11    1    3    3    0    0  0.13988616568E+03 -0.55152204712E+02 -0.64369227513E+02  0.16356436802E+03  0.00000000000E+00 0.  1.
         12    1    3    3    0    0  0.36684075464E+02 -0.66948743551E+02 -0.60172696788E+02  0.97203956166E+02  0.00000000000E+00 0. -1.
         13    1    5    5    0    0 -0.23059067075E+02  0.79900442582E+01  0.11451221728E+03  0.11708377039E+03  0.00000000000E+00 0. -1.
        -14    1    5    5    0    0  0.40962703203E+02 -0.57119029167E+02  0.32463272113E+03  0.33215497915E+03  0.00000000000E+00 0.  1.
          5    1    4    4  501    0 -0.10933270744E+03  0.12425576043E+03  0.22246013126E+03  0.27730690095E+03  0.41800000000E+01 0.  1.
         -5    1    4    4    0  501 -0.85141169838E+02  0.46974172744E+02  0.20925281649E+02  0.99553661502E+02  0.41800000000E+01 0.  1.
</event>
<event>
11    1  0.8328696E-009  0.1491683E+03  0.7561462E-02  0.1097732E+00
         22   -1    0    0    0    0  0.00000000000E+00  0.00000000000E+00  0.24092393031E+03  0.24092393031E+03  0.00000000000E+00 0.  1.
         22   -1    0    0    0    0 -0.00000000000E+00 -0.00000000000E+00 -0.76885004983E+03  0.76885004983E+03  0.00000000000E+00 0. -1.
        -24    2    1    2    0    0 -0.24588050681E+02 -0.61046142333E+02 -0.59652462696E+03  0.60576535100E+03  0.82333627239E+02 0.  0.
         25    2    1    2    0    0  0.53809778638E+02 -0.19992981182E+02 -0.11915520389E+03  0.18204563514E+03  0.12508972414E+03 0.  0.
         24    2    1    2    0    0 -0.29221727956E+02  0.81039123515E+02  0.18775371133E+03  0.22196299400E+03  0.81208778236E+02 0.  0.
        -11    1    5    5    0    0 -0.29379454621E+02  0.80139227395E+02  0.89394186257E+02  0.12359922596E+03  0.00000000000E+00 0.  1.
         12    1    5    5    0    0  0.15772666436E+00  0.89989612073E+00  0.98359525070E+02  0.98363768039E+02  0.00000000000E+00 0. -1.
         11    1    3    3    0    0 -0.45770139851E+02 -0.57752428589E+02 -0.54499959805E+03  0.54995891718E+03  0.00000000000E+00 0. -1.
        -12    1    3    3    0    0  0.21182089170E+02 -0.32937137441E+01 -0.51525028910E+02  0.55806433822E+02  0.00000000000E+00 0.  1.
          5    1    4    4  501    0  0.37237676591E+02 -0.71664879390E+02 -0.87222299370E+02  0.11894411042E+03  0.41800000000E+01 0.  1.
         -5    1    4    4    0  501  0.16572102047E+02  0.51671898208E+02 -0.31932904516E+02  0.63101524716E+02  0.41800000000E+01 0.  1.
</event>
<event>
11    1  0.8328696E-009  0.1467722E+03  0.7561462E-02  0.1100223E+00
         22   -1    0    0    0    0  0.00000000000E+00  0.00000000000E+00  0.40680815994E+03  0.40680815994E+03  0.00000000000E+00 0. -1.
         22   -1    0    0    0    0 -0.00000000000E+00 -0.00000000000E+00 -0.13168170576E+03  0.13168170576E+03  0.00000000000E+00 0. -1.
        -24    2    1    2    0    0 -0.25229681348E+02  0.61573333796E+02 -0.36788905161E+02  0.11151443681E+03  0.81573487232E+02 0.  0.
         25    2    1    2    0    0  0.65616203184E+02 -0.11236470812E+03  0.14884388877E+03  0.23395158243E+03  0.12509007133E+03 0.  0.
         24    2    1    2    0    0 -0.40386521836E+02  0.50791374324E+02  0.16307147058E+03  0.19302384647E+03  0.80343424986E+02 0.  0.
        -11    1    5    5    0    0  0.43453648702E+01 -0.13408475311E+02  0.23805547195E+01  0.14294629999E+02  0.00000000000E+00 0.  1.
         12    1    5    5    0    0 -0.44731886706E+02  0.64199849635E+02  0.16069091586E+03  0.17872921647E+03  0.00000000000E+00 0. -1.
         13    1    3    3    0    0 -0.28918183871E+01  0.75288604600E+02 -0.39660695142E+02  0.85145213226E+02  0.00000000000E+00 0. -1.
        -14    1    3    3    0    0 -0.22337862961E+02 -0.13715270804E+02  0.28717899802E+01  0.26369223587E+02  0.00000000000E+00 0.  1.
          5    1    4    4  501    0  0.24092373967E+02 -0.61747462626E+01  0.11086923970E+03  0.11370149817E+03  0.41800000000E+01 0. -1.
         -5    1    4    4    0  501  0.41523829217E+02 -0.10618996186E+03  0.37974649072E+02  0.12025008426E+03  0.41800000000E+01 0. -1.
</event>
<event>
11    1  0.8328696E-009  0.1555687E+03  0.7561462E-02  0.1091321E+00
         22   -1    0    0    0    0  0.00000000000E+00  0.00000000000E+00  0.91598706138E+03  0.91598706138E+03  0.00000000000E+00 0. -1.
         22   -1    0    0    0    0 -0.00000000000E+00 -0.00000000000E+00 -0.64720814493E+03  0.64720814493E+03  0.00000000000E+00 0.  1.
        -24    2    1    2    0    0 -0.23072415351E+02 -0.69778850657E+02 -0.61843705150E+03  0.62797802939E+03  0.80564225160E+02 0.  0.
         25    2    1    2    0    0  0.10458269661E+03  0.68502018066E+02  0.48503626921E+03  0.51627103537E+03  0.12508210345E+03 0.  0.
         24    2    1    2    0    0 -0.81510281260E+02  0.12768325911E+01  0.40217969874E+03  0.41894614155E+03  0.84390776681E+02 0.  0.
        -13    1    5    5    0    0  0.13419805662E+02  0.32187897926E+01  0.15384120985E+02  0.20666953578E+02  0.00000000000E+00 0.  1.
         14    1    5    5    0    0 -0.94930086921E+02 -0.19419572015E+01  0.38679557776E+03  0.39827918798E+03  0.00000000000E+00 0. -1.
         13    1    3    3    0    0  0.62693355210E+01  0.10651964712E+02 -0.20464032400E+02  0.23907018680E+02  0.00000000000E+00 0. -1.
        -14    1    3    3    0    0 -0.29341750872E+02 -0.80430815368E+02 -0.59797301910E+03  0.60407101071E+03  0.00000000000E+00 0.  1.
          5    1    4    4  501    0  0.71707885136E+02 -0.13748596503E+02  0.32678511131E+03  0.33486866989E+03  0.41800000000E+01 0.  1.
         -5    1    4    4    0  501  0.32874811475E+02  0.82250614569E+02  0.15825115790E+03  0.18140236548E+03  0.41800000000E+01 0.  1.
</event>
<event>
11    1  0.8328696E-009  0.1452397E+03  0.7561462E-02  0.1101845E+00
         22   -1    0    0    0    0  0.00000000000E+00  0.00000000000E+00  0.26312452461E+03  0.26312452461E+03  0.00000000000E+00 0. -1.
         22   -1    0    0    0    0 -0.00000000000E+00 -0.00000000000E+00 -0.96313170732E+03  0.96313170732E+03  0.00000000000E+00 0.  1.
        -24    2    1    2    0    0  0.49570445873E+02 -0.56712363153E+02 -0.78135073027E+03  0.78906107026E+03  0.80217751536E+02 0.  0.
         25    2    1    2    0    0 -0.19523448777E+02  0.64919383345E+02 -0.13995811580E+03  0.19956665479E+03  0.12507151610E+03 0.  0.
         24    2    1    2    0    0 -0.30046997096E+02 -0.82070201919E+01  0.22130166337E+03  0.23762850688E+03  0.80763258092E+02 0.  0.
        -13    1    5    5    0    0  0.17630573004E+02 -0.29109038943E+02  0.75622264790E+02  0.82927077512E+02  0.00000000000E+00 0.  1.
         14    1    5    5    0    0 -0.47677570100E+02  0.20902018751E+02  0.14567939858E+03  0.15470142937E+03  0.00000000000E+00 0. -1.
         13    1    3    3    0    0  0.11579115200E+02  0.19672472443E+02 -0.11257845870E+03  0.11486945392E+03  0.00000000000E+00 0. -1.
        -14    1    3    3    0    0  0.37991330673E+02 -0.76384835596E+02 -0.66877227157E+03  0.67419161633E+03  0.00000000000E+00 0.  1.
          5    1    4    4  501    0  0.35142811731E+02  0.77487827807E+02 -0.73611448491E+02  0.11258551605E+03  0.41800000000E+01 0.  1.
         -5    1    4    4    0  501 -0.54666260508E+02 -0.12568444463E+02 -0.66346667308E+02  0.86981138743E+02  0.41800000000E+01 0.  1.
</event>
<event>
11    1  0.8328696E-009  0.1297160E+03  0.7561462E-02  0.1119618E+00
         22   -1    0    0    0    0  0.00000000000E+00  0.00000000000E+00  0.63380930736E+03  0.63380930736E+03  0.00000000000E+00 0.  1.
         22   -1    0    0    0    0 -0.00000000000E+00 -0.00000000000E+00 -0.73112347199E+03  0.73112347199E+03  0.00000000000E+00 0. -1.
         24    2    1    2    0    0 -0.30298806543E+02  0.16670077798E+02 -0.70084516482E+03  0.70684949293E+03  0.85184220522E+02 0.  0.
         25    2    1    2    0    0  0.16681552306E+02 -0.10996423180E+02  0.14605909321E+03  0.19334001635E+03  0.12509159726E+03 0.  0.
        -24    2    1    2    0    0  0.13617254237E+02 -0.56736546184E+01  0.45747190698E+03  0.46474327006E+03  0.80549000131E+02 0.  0.
        -11    1    3    3    0    0 -0.30650188942E+02 -0.13935054273E+02 -0.10603013230E+03  0.11124751132E+03  0.00000000000E+00 0.  1.
         12    1    3    3    0    0  0.35138239876E+00  0.30605132071E+02 -0.59481503252E+03  0.59560198161E+03  0.00000000000E+00 0. -1.
         11    1    5    5    0    0 -0.42380282159E+01 -0.38671354997E+02  0.14887447452E+03  0.15387346666E+03  0.00000000000E+00 0. -1.
        -12    1    5    5    0    0  0.17855282453E+02  0.32997700379E+02  0.30859743247E+03  0.31086980340E+03  0.00000000000E+00 0.  1.
          5    1    4    4  501    0  0.64331087936E+02  0.20237548475E+02  0.61982014960E+02  0.91691274513E+02  0.41800000000E+01 0. -1.
         -5    1    4    4    0  501 -0.47649535630E+02 -0.31233971655E+02  0.84077078246E+02  0.10164874184E+03  0.41800000000E+01 0. -1.
</event>
<event>
11    1  0.8328696E-009  0.1824313E+03  0.7561462E-02  0.1067693E+00
         22   -1    0    0    0    0  0.00000000000E+00  0.00000000000E+00  0.57982990024E+03  0.57982990024E+03  0.00000000000E+00 0.  1.
         22   -1    0    0    0    0 -0.00000000000E+00 -0.00000000000E+00 -0.85945088498E+03  0.85945088498E+03  0.00000000000E+00 0.  1.
        -24    2    1    2    0    0  0.77433907880E+02 -0.84631322426E+02 -0.71499633744E+03  0.72948809459E+03  0.88173957471E+02 0.  0.
         25    2    1    2    0    0 -0.18866949852E+03  0.13718096933E+03  0.15838060096E+02  0.26516778692E+03  0.12509321746E+03 0.  0.
         24    2    1    2    0    0  0.11123559064E+03 -0.52549646904E+02  0.41953729261E+03  0.44462490370E+03  0.80900822555E+02 0.  0.
        -11    1    5    5    0    0  0.88464379865E+02 -0.74463895169E+02  0.32796663199E+03  0.34775412274E+03  0.00000000000E+00 0.  1.
         12    1    5    5    0    0  0.22771210773E+02  0.21914248265E+02  0.91570660618E+02  0.96870780957E+02  0.00000000000E+00 0. -1.
         11    1    3    3    0    0  0.45494727979E+02 -0.39487614680E+02 -0.14784383902E+03  0.15964599188E+03  0.00000000000E+00 0. -1.
        -12    1    3    3    0    0  0.31939179902E+02 -0.45143707746E+02 -0.56715249842E+03  0.56984210271E+03  0.00000000000E+00 0.  1.
          5    1    4    4  501    0 -0.15753455239E+03  0.89989032856E+02 -0.39743788139E+02  0.18577460086E+03  0.41800000000E+01 0.  1.
         -5    1    4    4    0  501 -0.31134946131E+02  0.47191936473E+02  0.55581848235E+02  0.79393186055E+02  0.41800000000E+01 0.  1.
</event>
<event>
11    1  0.8328696E-009  0.3329399E+03  0.7561462E-02  0.9871399E-01
         22   -1    0    0    0    0  0.00000000000E+00  0.00000000000E+00  0.11245759711E+04  0.11245759711E+04  0.00000000000E+00 0. -1.
         22   -1    0    0    0    0 -0.00000000000E+00 -0.00000000000E+00 -0.51078914345E+03  0.51078914345E+03  0.00000000000E+00 0. -1.
         24    2    1    2    0    0  0.37908101875E+02  0.18065010752E+02 -0.28268821308E+03  0.29675437858E+03  0.79919750945E+02 0.  0.
         25    2    1    2    0    0 -0.65354304329E+02  0.29094913288E+03 -0.60903897757E+02  0.32906689343E+03  0.12511255960E+03 0.  0.
        -24    2    1    2    0    0  0.27446202454E+02 -0.30901414363E+03  0.95737893852E+03  0.10095438426E+04  0.79757778044E+02 0.  0.
        -13    1    3    3    0    0  0.13407078050E+02  0.44519974378E+02 -0.21594653614E+03  0.22089518857E+03  0.00000000000E+00 0.  1.
         14    1    3    3    0    0  0.24501023825E+02 -0.26454963626E+02 -0.66741676934E+02  0.75859190009E+02  0.00000000000E+00 0. -1.
         13    1    5    5    0    0  0.23971654986E+02 -0.19039453693E+03  0.70511505857E+03  0.73076122349E+03  0.00000000000E+00 0. -1.
        -14    1    5    5    0    0  0.34745474678E+01 -0.11861960670E+03  0.25226387995E+03  0.27878261908E+03  0.00000000000E+00 0.  1.
          5    1    4    4  501    0  0.24063976453E+02  0.78580082207E+02 -0.54144183217E+02  0.98503650991E+02  0.41800000000E+01 0. -1.
         -5    1    4    4    0  501 -0.89418280782E+02  0.21236905068E+03 -0.67597145405E+01  0.23056324244E+03  0.41800000000E+01 0. -1.
</event>
<event>
11    1  0.8328696E-009  0.1598840E+03  0.7561462E-02  0.1087186E+00
         22   -1    0    0    0    0  0.00000000000E+00  0.00000000000E+00  0.82029817504E+03  0.82029817504E+03  0.00000000000E+00 0. -1.
         22   -1    0    0    0    0 -0.00000000000E+00 -0.00000000000E+00 -0.26557188434E+03  0.26557188434E+03  0.00000000000E+00 0.  1.
         24    2    1    2    0    0  0.61248851552E+02  0.76478862014E+02 -0.19780563370E+03  0.23285350160E+03  0.74116437672E+02 0.  0.
         25    2    1    2    0    0 -0.57276796203E+02 -0.99119040488E+02  0.10354102018E+03  0.19867912687E+03  0.12508971591E+03 0.  0.
        -24    2    1    2    0    0 -0.39720553482E+01  0.22640178473E+02  0.64899090422E+03  0.65433743091E+03  0.80249142143E+02 0.  0.
        -13    1    3    3    0    0  0.78448626917E+02  0.62986804702E+02 -0.16921231422E+03  0.19686119962E+03  0.00000000000E+00 0.  1.
         14    1    3    3    0    0 -0.17199775365E+02  0.13492057312E+02 -0.28593319480E+02  0.35992301983E+02  0.00000000000E+00 0. -1.
         13    1    5    5    0    0 -0.23819159542E+01  0.39409886231E+02  0.15145802923E+03  0.15651947889E+03  0.00000000000E+00 0. -1.
        -14    1    5    5    0    0 -0.15901393940E+01 -0.16769707758E+02  0.49753287500E+03  0.49781795201E+03  0.00000000000E+00 0.  1.
          5    1    4    4  501    0  0.18179355454E+02 -0.12896311501E+02  0.77980194750E+02  0.81210756605E+02  0.41800000000E+01 0.  1.
         -5    1    4    4    0  501 -0.75456151658E+02 -0.86222728987E+02  0.25560825425E+02  0.11746837027E+03  0.41800000000E+01 0.  1.
</event>
<event>
11    1  0.8328696E-009  0.1752226E+03  0.7561462E-02  0.1073574E+00
         22   -1    0    0    0    0  0.00000000000E+00  0.00000000000E+00  0.29168829695E+03  0.29168829695E+03  0.00000000000E+00 0.  1.
         22   -1    0    0    0    0 -0.00000000000E+00 -0.00000000000E+00 -0.79053406376E+03  0.79053406376E+03  0.00000000000E+00 0. -1.
        -24    2    1    2    0    0  0.93309773706E+02  0.89579778047E+02 -0.58098742854E+03  0.60026425247E+03  0.77714414150E+02 0.  0.
         25    2    1    2    0    0 -0.86586188314E+02 -0.52678657487E+02 -0.15789187032E+03  0.22549882568E+03  0.12509064198E+03 0.  0.
         24    2    1    2    0    0 -0.67235853917E+01 -0.36901120559E+02  0.24003353205E+03  0.25645928255E+03  0.82148449768E+02 0.  0.
        -11    1    5    5    0    0 -0.61438481748E+01 -0.46539312544E+02  0.24207973422E+03  0.24658923781E+03  0.00000000000E+00 0.  1.
         12    1    5    5    0    0 -0.57973721697E+00  0.96381919843E+01 -0.20462021680E+01  0.98700447456E+01  0.00000000000E+00 0. -1.
         11    1    3    3    0    0  0.67695062392E+02  0.45931022254E+02 -0.48401586332E+03  0.49088047040E+03  0.00000000000E+00 0. -1.
        -12    1    3    3    0    0  0.25614711314E+02  0.43648755793E+02 -0.96971565225E+02  0.10938378207E+03  0.00000000000E+00 0.  1.
          5    1    4    4  501    0 -0.90769949176E+02 -0.21274081626E+02 -0.16783079519E+03  0.19203233696E+03  0.41800000000E+01 0. -1.
         -5    1    4    4    0  501  0.41837608611E+01 -0.31404575862E+02  0.99389248737E+01  0.33466488726E+02  0.41800000000E+01 0. -1.
</event>
<event>
11    1  0.8328696E-009  0.1359288E+03  0.7561462E-02  0.1112192E+00
         22   -1    0    0    0    0  0.00000000000E+00  0.00000000000E+00  0.47403940887E+02  0.47403940887E+02  0.00000000000E+00 0. -1.
         22   -1    0    0    0    0 -0.00000000000E+00 -0.00000000000E+00 -0.14514625443E+04  0.14514625443E+04  0.00000000000E+00 0. -1.
         24    2    1    2    0    0  0.36104878029E+02 -0.27525531127E+02 -0.10150818965E+04  0.10194016976E+04  0.82020407473E+02 0.  0.
         25    2    1    2    0    0  0.23361114796E+02  0.25941133795E+02 -0.34578614331E+03  0.36936943467E+03  0.12508812196E+03 0.  0.
        -24    2    1    2    0    0 -0.59465992825E+02  0.15843973327E+01 -0.43190563581E+02  0.11009535297E+03  0.81956374644E+02 0.  0.
        -13    1    3    3    0    0  0.43911967449E+01 -0.11229910386E+01 -0.12111834493E+01  0.46915544410E+01  0.00000000000E+00 0.  1.
         14    1    3    3    0    0  0.31713681284E+02 -0.26402540089E+02 -0.10138707131E+04  0.10147101431E+04  0.00000000000E+00 0. -1.
         11    1    5    5    0    0 -0.14702388679E+02  0.27582807880E+02  0.12858931714E+02  0.33798278776E+02  0.00000000000E+00 0. -1.
        -12    1    5    5    0    0 -0.44763604147E+02 -0.25998410548E+02 -0.56049495295E+02  0.76297074190E+02  0.00000000000E+00 0.  1.
          5    1    4    4  501    0  0.46360237816E+02  0.66603213933E+02 -0.18923309031E+03  0.20594148350E+03  0.41800000000E+01 0.  1.
         -5    1    4    4    0  501 -0.22999123020E+02 -0.40662080138E+02 -0.15655305300E+03  0.16342795117E+03  0.41800000000E+01 0.  1.
</event>
<event>
11    1  0.8328696E-009  0.1462579E+03  0.7561462E-02  0.1100765E+00
         22   -1    0    0    0    0  0.00000000000E+00  0.00000000000E+00  0.12829538283E+04  0.12829538283E+04  0.00000000000E+00 0.  1.
         22   -1    0    0    0    0 -0.00000000000E+00 -0.00000000000E+00 -0.28779639482E+03  0.28779639482E+03  0.00000000000E+00 0.  1.
         24    2    1    2    0    0  0.15821005341E+02 -0.81042591894E+02 -0.25603708607E+03  0.27764627478E+03  0.68660458391E+02 0.  0.
         25    2    1    2    0    0 -0.50350482821E+02  0.12621101328E+01  0.24390031718E+03  0.27869584146E+03  0.12508894149E+03 0.  0.
        -24    2    1    2    0    0  0.34529477481E+02  0.79780481761E+02  0.10072942023E+04  0.10144081068E+04  0.82613480075E+02 0.  0.
        -11    1    3    3    0    0  0.15481413204E+02 -0.71791045898E+02 -0.25794298112E+03  0.26819435105E+03  0.00000000000E+00 0.  1.
         12    1    3    3    0    0  0.33959213626E+00 -0.92515459959E+01  0.19058950579E+01  0.94519237251E+01  0.00000000000E+00 0. -1.
         11    1    5    5    0    0 -0.26201265702E+02  0.11933908990E+02  0.22671618827E+03  0.22853698723E+03  0.00000000000E+00 0. -1.
        -12    1    5    5    0    0  0.60730743183E+02  0.67846572771E+02  0.78057801406E+03  0.78587111961E+03  0.00000000000E+00 0.  1.
          5    1    4    4  501    0 -0.82255698555E+02 -0.63467745348E+01  0.22699738727E+03  0.24156069158E+03  0.41800000000E+01 0. -1.
         -5    1    4    4    0  501  0.31905215734E+02  0.76088846675E+01  0.16902929917E+02  0.37135149881E+02  0.41800000000E+01 0. -1.
</event>
<event>
11    1  0.8328696E-009  0.1342401E+03  0.7561462E-02  0.1114166E+00
         22   -1    0    0    0    0  0.00000000000E+00  0.00000000000E+00  0.52004950958E+03  0.52004950958E+03  0.00000000000E+00 0.  1.
         22   -1    0    0    0    0 -0.00000000000E+00 -0.00000000000E+00 -0.11592078407E+04  0.11592078407E+04  0.00000000000E+00 0. -1.
        -24    2    1    2    0    0  0.26383974186E+02  0.11378400565E+02 -0.10456266764E+04  0.10491648524E+04  0.81155153258E+02 0.  0.
         25    2    1    2    0    0 -0.60605663606E+02  0.22589858752E+02 -0.60819888506E+02  0.15340460411E+03  0.12510222039E+03 0.  0.
         24    2    1    2    0    0  0.34221689420E+02 -0.33968259317E+02  0.46728823386E+03  0.47668789376E+03  0.80920256328E+02 0.  0.
        -11    1    5    5    0    0  0.45642187125E+02 -0.51299882988E+02  0.41096556434E+03  0.41666243209E+03  0.00000000000E+00 0.  1.
         12    1    5    5    0    0 -0.11420497705E+02  0.17331623671E+02  0.56322669520E+02  0.60025461670E+02  0.00000000000E+00 0. -1.
         13    1    3    3    0    0  0.14921511136E+02 -0.84644010632E+01 -0.96978677754E+03  0.96993849881E+03  0.00000000000E+00 0. -1.
        -14    1    3    3    0    0  0.11462463050E+02  0.19842801628E+02 -0.75839898909E+02  0.79226353583E+02  0.00000000000E+00 0.  1.
          5    1    4    4  501    0 -0.82211290204E+02  0.34898580892E+02 -0.20266983535E+01  0.89432584059E+02  0.41800000000E+01 0.  1.
         -5    1    4    4    0  501  0.21605626598E+02 -0.12308722140E+02 -0.58793190152E+02  0.63972020053E+02  0.41800000000E+01 0.  1.
</event>
<event>
11    1  0.8328696E-009  0.2256433E+03  0.7561462E-02  0.1037739E+00
         22   -1    0    0    0    0  0.00000000000E+00  0.00000000000E+00  0.21297173520E+03  0.21297173520E+03  0.00000000000E+00 0. -1.
         22   -1    0    0    0    0 -0.00000000000E+00 -0.00000000000E+00 -0.13320568190E+04  0.13320568190E+04  0.00000000000E+00 0. -1.
        -24    2    1    2    0    0 -0.12270244929E+03 -0.15048360318E+02 -0.70529667084E+03  0.72123387209E+03  0.86328211721E+02 0.  0.
         25    2    1    2    0    0 -0.60473187169E+02  0.90330274577E+02 -0.54716943774E+03  0.57171557729E+03  0.12509093832E+03 0.  0.
         24    2    1    2    0    0  0.18317563646E+03 -0.75281914260E+02  0.13338102473E+03  0.25207910487E+03  0.80825100976E+02 0.  0.
        -13    1    5    5    0    0 -0.50823906328E+01  0.17232468996E+01 -0.39466565804E+01  0.66615593208E+01  0.00000000000E+00 0.  1.
         14    1    5    5    0    0  0.18825802710E+03 -0.77005161159E+02  0.13732768131E+03  0.24541754555E+03  0.00000000000E+00 0. -1.
         11    1    3    3    0    0 -0.42281099642E+02 -0.19427805353E+02 -0.96497418332E+02  0.10713021400E+03  0.00000000000E+00 0. -1.
        -12    1    3    3    0    0 -0.80421349651E+02  0.43794450349E+01 -0.60879925251E+03  0.61410365808E+03  0.00000000000E+00 0.  1.
          5    1    4    4  501    0 -0.88786959610E+02  0.96524909390E+02 -0.49270115995E+03  0.50987458041E+03  0.41800000000E+01 0. -1.
         -5    1    4    4    0  501  0.28313772441E+02 -0.61946348130E+01 -0.54468277787E+02  0.61840996882E+02  0.41800000000E+01 0. -1.
</event>
<event>
11    1  0.8328696E-009  0.1620293E+03  0.7561462E-02  0.1085184E+00
         22   -1    0    0    0    0  0.00000000000E+00  0.00000000000E+00  0.13306132015E+04  0.13306132015E+04  0.00000000000E+00 0. -1.
         22   -1    0    0    0    0 -0.00000000000E+00 -0.00000000000E+00 -0.17241039496E+03  0.17241039496E+03  0.00000000000E+00 0.  1.
         24    2    1    2    0    0 -0.12547394133E+02  0.11611593049E+03 -0.68909657270E+02  0.15748913201E+03  0.80087074012E+02 0.  0.
         25    2    1    2    0    0 -0.14148161568E+02 -0.75001189758E+02  0.36403682364E+02  0.15098317036E+03  0.12508133635E+03 0.  0.
        -24    2    1    2    0    0  0.26695555702E+02 -0.41114740734E+02  0.11907087814E+04  0.11945512941E+04  0.82233310736E+02 0.  0.
        -11    1    3    3    0    0  0.22072737047E+02  0.57170793704E+02 -0.64523380512E+02  0.88988606047E+02  0.00000000000E+00 0.  1.
         12    1    3    3    0    0 -0.34620131180E+02  0.58945136787E+02 -0.43862767576E+01  0.68500525966E+02  0.00000000000E+00 0. -1.
         11    1    5    5    0    0  0.88336840143E+01 -0.19742713213E+02  0.10855750535E+04  0.10857904980E+04  0.00000000000E+00 0. -1.
        -12    1    5    5    0    0  0.17861871687E+02 -0.21372027521E+02  0.10513372794E+03  0.10876079611E+03  0.00000000000E+00 0.  1.
          5    1    4    4  501    0 -0.61366336018E+02 -0.16618204237E+02 -0.70912555751E+01  0.64107333542E+02  0.41800000000E+01 0.  1.
         -5    1    4    4    0  501  0.47218174449E+02 -0.58382985521E+02  0.43494937939E+02  0.86875836819E+02  0.41800000000E+01 0.  1.
</event>
<event>
11    1  0.8328696E-009  0.1351434E+03  0.7561462E-02  0.1113106E+00
         22   -1    0    0    0    0  0.00000000000E+00  0.00000000000E+00  0.66102164008E+03  0.66102164008E+03  0.00000000000E+00 0.  1.
         22   -1    0    0    0    0 -0.00000000000E+00 -0.00000000000E+00 -0.78512344132E+03  0.78512344132E+03  0.00000000000E+00 0. -1.
        -24    2    1    2    0    0 -0.13035130895E+02  0.11218715775E+02 -0.51483827168E+03  0.52129788791E+03  0.79982921555E+02 0.  0.
         25    2    1    2    0    0 -0.37223132236E+02 -0.21532032448E+02 -0.24655753197E+03  0.27979796177E+03  0.12508834015E+03 0.  0.
         24    2    1    2    0    0  0.50258263131E+02  0.10313316673E+02  0.63729400241E+03  0.64504923171E+03  0.85513790177E+02 0.  0.
        -11    1    5    5    0    0  0.26701107954E+02  0.31732895040E+02  0.55889557380E+03  0.56043214416E+03  0.00000000000E+00 0.  1.
         12    1    5    5    0    0  0.23557155177E+02 -0.21419578366E+02  0.78398428615E+02  0.84617087558E+02  0.00000000000E+00 0. -1.
         11    1    3    3    0    0  0.23508636956E+01  0.26894459973E+02 -0.47531620894E+03  0.47608227967E+03  0.00000000000E+00 0. -1.
        -12    1    3    3    0    0 -0.15385994591E+02 -0.15675744198E+02 -0.39522062733E+02  0.45215608239E+02  0.00000000000E+00 0.  1.
          5    1    4    4  501    0 -0.68121838281E+02  0.43153136042E+01 -0.67029188792E+02  0.95757983126E+02  0.41800000000E+01 0.  1.
         -5    1    4    4    0  501  0.30898706045E+02 -0.25847346053E+02 -0.17952834318E+03  0.18403997864E+03  0.41800000000E+01 0.  1.
</event>
<event>
11    1  0.8328696E-009  0.1261024E+03  0.7561462E-02  0.1124153E+00
         22   -1    0    0    0    0  0.00000000000E+00  0.00000000000E+00  0.72161329722E+02  0.72161329722E+02  0.00000000000E+00 0. -1.
         22   -1    0    0    0    0 -0.00000000000E+00 -0.00000000000E+00 -0.19125096541E+04  0.19125096541E+04  0.00000000000E+00 0. -1.
         24    2    1    2    0    0  0.15338780492E+02  0.10057717787E+01 -0.14446778930E+04  0.14486534941E+04  0.10614349593E+03 0.  0.
         25    2    1    2    0    0 -0.15652578953E+02  0.29878495248E+02 -0.40992149970E+03  0.42990854147E+03  0.12509192783E+03 0.  0.
        -24    2    1    2    0    0  0.31379846069E+00 -0.30884267027E+02  0.14251068386E+02  0.10610894817E+03  0.10050910164E+03 0.  0.
        -11    1    3    3    0    0  0.26804672571E+02  0.35623124440E+02 -0.29061407525E+03  0.29401367009E+03  0.00000000000E+00 0.  1.
         12    1    3    3    0    0 -0.11465892079E+02 -0.34617352661E+02 -0.11540638178E+04  0.11546398241E+04  0.00000000000E+00 0. -1.
         13    1    5    5    0    0  0.42419789448E+02 -0.38817897416E+02  0.23766318295E+02  0.62218209408E+02  0.00000000000E+00 0. -1.
        -14    1    5    5    0    0 -0.42105990988E+02  0.79336303897E+01 -0.95152499087E+01  0.43890738762E+02  0.00000000000E+00 0.  1.
          5    1    4    4  501    0  0.50255358568E+02 -0.28677756022E+01 -0.22983351311E+03  0.23531838294E+03  0.41800000000E+01 0.  1.
         -5    1    4    4    0  501 -0.65907937521E+02  0.32746270850E+02 -0.18008798659E+03  0.19459015853E+03  0.41800000000E+01 0.  1.
</event>
<event>
11    1  0.8328696E-009  0.1552869E+03  0.7561462E-02  0.1091596E+00
         22   -1    0    0    0    0  0.00000000000E+00  0.00000000000E+00  0.93378154793E+02  0.93378154793E+02  0.00000000000E+00 0.  1.
         22   -1    0    0    0    0 -0.00000000000E+00 -0.00000000000E+00 -0.15850863284E+04  0.15850863284E+04  0.00000000000E+00 0.  1.
         24    2    1    2    0    0  0.85848998628E+02  0.35342991222E+02 -0.13809720740E+04  0.13859745352E+04  0.72265934670E+02 0.  0.
         25    2    1    2    0    0 -0.92232387266E+02  0.18968312551E+02 -0.11537956294E+03  0.19449020877E+03  0.12508951843E+03 0.  0.
        -24    2    1    2    0    0  0.63833886376E+01 -0.54311303774E+02  0.46434633523E+01  0.97999739258E+02  0.81190650783E+02 0.  0.
        -11    1    3    3    0    0  0.35734012083E+02 -0.11338826722E+02 -0.23630991667E+03  0.23926526144E+03  0.00000000000E+00 0.  1.
         12    1    3    3    0    0  0.50114986545E+02  0.46681817944E+02 -0.11446621574E+04  0.11467092738E+04  0.00000000000E+00 0. -1.
         11    1    5    5    0    0  0.16573947651E+02 -0.29583016731E+02 -0.35929637463E+02  0.49404346649E+02  0.00000000000E+00 0. -1.
        -12    1    5    5    0    0 -0.10190559014E+02 -0.24728287043E+02  0.40573100815E+02  0.48595392609E+02  0.00000000000E+00 0.  1.
          5    1    4    4  501    0 -0.11405650257E+03 -0.15710003593E+02 -0.80901173974E+02  0.14077699508E+03  0.41800000000E+01 0.  1.
         -5    1    4    4    0  501  0.21824115306E+02  0.34678316145E+02 -0.34478388964E+02  0.53713213692E+02  0.41800000000E+01 0.  1.
</event>
<event>
11    1  0.8328696E-009  0.1328662E+03  0.7561462E-02  0.1115797E+00
         22   -1    0    0    0    0  0.00000000000E+00  0.00000000000E+00  0.46162296884E+02  0.46162296884E+02  0.00000000000E+00 0. -1.
         22   -1    0    0    0    0 -0.00000000000E+00 -0.00000000000E+00 -0.70280467290E+03  0.70280467290E+03  0.00000000000E+00 0. -1.
        -24    2    1    2    0    0 -0.43403180495E+02 -0.18350029309E+02 -0.29532674496E+03  0.30984157875E+03  0.81014554135E+02 0.  0.
         25    2    1    2    0    0  0.44119856947E+02 -0.29880530444E+02 -0.24940234438E+03  0.28406029854E+03  0.12509722598E+03 0.  0.
         24    2    1    2    0    0 -0.71667645243E+00  0.48230559753E+02 -0.11191328668E+03  0.15506509250E+03  0.95884819738E+02 0.  0.
        -13    1    5    5    0    0 -0.29977810553E+02  0.16908148142E+02  0.85206124274E+00  0.34427904489E+02  0.00000000000E+00 0.  1.
         14    1    5    5    0    0  0.29261134101E+02  0.31322411611E+02 -0.11276534793E+03  0.12063718801E+03  0.00000000000E+00 0. -1.
         13    1    3    3    0    0 -0.63676826879E+02 -0.29360068045E+02 -0.23563410193E+03  0.24584584981E+03  0.00000000000E+00 0. -1.
        -14    1    3    3    0    0  0.20273646384E+02  0.11010038736E+02 -0.59692643027E+02  0.63995728937E+02  0.00000000000E+00 0.  1.
          5    1    4    4  501    0 -0.22138857662E+02 -0.30482692247E+02 -0.15558545273E+02  0.40973946310E+02  0.41800000000E+01 0. -1.
         -5    1    4    4    0  501  0.66258714610E+02  0.60216180302E+00 -0.23384379910E+03  0.24308635223E+03  0.41800000000E+01 0. -1.
</event>
<event>
11    1  0.8328696E-009  0.1544276E+03  0.7561462E-02  0.1092439E+00
         22   -1    0    0    0    0  0.00000000000E+00  0.00000000000E+00  0.56718655384E+03  0.56718655384E+03  0.00000000000E+00 0. -1.
         22   -1    0    0    0    0 -0.00000000000E+00 -0.00000000000E+00 -0.10617583451E+04  0.10617583451E+04  0.00000000000E+00 0.  1.
        -24    2    1    2    0    0  0.41442552745E+02  0.81193651867E+02 -0.10263356467E+04  0.10333273342E+04  0.78042460517E+02 0.  0.
         25    2    1    2    0    0 -0.18551340450E+02 -0.57699547595E+02  0.15122318016E+03  0.20540026581E+03  0.12508968364E+03 0.  0.
         24    2    1    2    0    0 -0.22891212294E+02 -0.23494104271E+02  0.38054067529E+03  0.39021729891E+03  0.79889638119E+02 0.  0.
        -13    1    5    5    0    0  0.24331397501E+02 -0.16730264587E+02  0.69106620150E+02  0.75150805758E+02  0.00000000000E+00 0.  1.
         14    1    5    5    0    0 -0.47222609795E+02 -0.67638396844E+01  0.31143405514E+03  0.31506649315E+03  0.00000000000E+00 0. -1.
         11    1    3    3    0    0 -0.12756040506E+02 -0.83535817954E+01 -0.11825839240E+03  0.11923735267E+03  0.00000000000E+00 0. -1.
        -12    1    3    3    0    0  0.54198593251E+02  0.89547233662E+02 -0.90807725433E+03  0.91408998156E+03  0.00000000000E+00 0.  1.
          5    1    4    4  501    0 -0.63986131599E+02 -0.66596641052E+02  0.97653373746E+02  0.13447301380E+03  0.41800000000E+01 0. -1.
         -5    1    4    4    0  501  0.45434791149E+02  0.88970934571E+01  0.53569806417E+02  0.70927252014E+02  0.41800000000E+01 0. -1.
</event>
<event>
11    1  0.8328696E-009  0.1283836E+03  0.7561462E-02  0.1121271E+00
         22   -1    0    0    0    0  0.00000000000E+00  0.00000000000E+00  0.41057646703E+03  0.41057646703E+03  0.00000000000E+00 0. -1.
         22   -1    0    0    0    0 -0.00000000000E+00 -0.00000000000E+00 -0.41983826477E+03  0.41983826477E+03  0.00000000000E+00 0. -1.
        -24    2    1    2    0    0  0.27780580177E+02 -0.25865991228E+02 -0.38355848939E+03  0.39387032185E+03  0.81091957171E+02 0.  0.
         25    2    1    2    0    0 -0.15811667981E+02 -0.10264698927E+02  0.15905909546E+03  0.20323184416E+03  0.12509202110E+03 0.  0.
         24    2    1    2    0    0 -0.11968912196E+02  0.36130690155E+02  0.21523759618E+03  0.23331256579E+03  0.81601770293E+02 0.  0.
        -13    1    5    5    0    0 -0.27695884262E+02 -0.96814156426E+00  0.20555135825E+02  0.34503810107E+02  0.00000000000E+00 0.  1.
         14    1    5    5    0    0  0.15726972065E+02  0.37098831719E+02  0.19468246036E+03  0.19880875569E+03  0.00000000000E+00 0. -1.
         13    1    3    3    0    0  0.41176232708E+02  0.16870192154E+02 -0.20591453775E+03  0.21066770607E+03  0.00000000000E+00 0. -1.
        -14    1    3    3    0    0 -0.13395652531E+02 -0.42736183381E+02 -0.17764395163E+03  0.18320261578E+03  0.00000000000E+00 0.  1.
          5    1    4    4  501    0  0.97302180397E+00 -0.47085194689E+02  0.94826054779E+01  0.48221930042E+02  0.41800000000E+01 0.  1.
         -5    1    4    4    0  501 -0.16784689785E+02  0.36820495762E+02  0.14957648999E+03  0.15500991412E+03  0.41800000000E+01 0.  1.
</event>
<event>
11    1  0.8328696E-009  0.2677613E+03  0.7561462E-02  0.1014841E+00
         22   -1    0    0    0    0  0.00000000000E+00  0.00000000000E+00  0.13364623528E+04  0.13364623528E+04  0.00000000000E+00 0.  1.
         22   -1    0    0    0    0 -0.00000000000E+00 -0.00000000000E+00 -0.21384330451E+03  0.21384330451E+03  0.00000000000E+00 0.  1.
         24    2    1    2    0    0 -0.21387369397E+03  0.91659453686E+02 -0.87488964505E+01  0.24556229715E+03  0.77980037005E+02 0.  0.
         25    2    1    2    0    0  0.21515593174E+03 -0.11729810037E+03  0.13686507914E+03  0.30729585628E+03  0.12509106319E+03 0.  0.
        -24    2    1    2    0    0 -0.12822377691E+01  0.25638646681E+02  0.99450286556E+03  0.99744750382E+03  0.72156697134E+02 0.  0.
        -13    1    3    3    0    0 -0.19069628617E+03  0.53199053174E+02  0.66543935359E+01  0.19808961045E+03  0.00000000000E+00 0.  1.
         14    1    3    3    0    0 -0.23177407805E+02  0.38460400512E+02 -0.15403289986E+02  0.47472686700E+02  0.00000000000E+00 0. -1.
         13    1    5    5    0    0 -0.11165529757E+02  0.22392597513E+02  0.10711747578E+03  0.11000114134E+03  0.00000000000E+00 0. -1.
        -14    1    5    5    0    0  0.98832919879E+01  0.32460491671E+01  0.88738538978E+03  0.88744636248E+03  0.00000000000E+00 0.  1.
          5    1    4    4  501    0  0.19895276380E+03 -0.64894926986E+02  0.14061536455E+03  0.25215809905E+03  0.41800000000E+01 0. -1.
         -5    1    4    4    0  501  0.16203167943E+02 -0.52403173381E+02 -0.37502854130E+01  0.55137757231E+02  0.41800000000E+01 0. -1.
</event>
<event>
11    1  0.8328696E-009  0.1476306E+03  0.7561462E-02  0.1099325E+00
         22   -1    0    0    0    0  0.00000000000E+00  0.00000000000E+00  0.14958938140E+04  0.14958938140E+04  0.00000000000E+00 0.  1.
         22   -1    0    0    0    0 -0.00000000000E+00 -0.00000000000E+00 -0.35325567127E+03  0.35325567127E+03  0.00000000000E+00 0. -1.
        -24    2    1    2    0    0  0.60517010459E+02 -0.12172873020E+02 -0.33111948536E+03  0.34587585071E+03  0.78609815708E+02 0.  0.
         25    2    1    2    0    0 -0.12169647838E+03 -0.12067214468E+02  0.66690432914E+03  0.68946673505E+03  0.12508934409E+03 0.  0.
         24    2    1    2    0    0  0.61179467921E+02  0.24240087488E+02  0.80685329892E+03  0.81380689948E+03  0.83300147204E+02 0.  0.
        -11    1    5    5    0    0  0.65096179340E+02 -0.14701893475E+02  0.47933493856E+03  0.48395830560E+03  0.00000000000E+00 0.  1.
         12    1    5    5    0    0 -0.39167114191E+01  0.38941980963E+02  0.32751836036E+03  0.32984859388E+03  0.00000000000E+00 0. -1.
         11    1    3    3    0    0  0.25203219558E+02  0.33511872499E+02 -0.15213084573E+03  0.15780380888E+03  0.00000000000E+00 0. -1.
        -12    1    3    3    0    0  0.35313790901E+02 -0.45684745519E+02 -0.17898863963E+03  0.18807204183E+03  0.00000000000E+00 0.  1.
          5    1    4    4  501    0 -0.60981129221E+02  0.48193406282E+02  0.19698022809E+03  0.21180175917E+03  0.41800000000E+01 0. -1.
         -5    1    4    4    0  501 -0.60715349159E+02 -0.60260620751E+02  0.46992410105E+03  0.47766497588E+03  0.41800000000E+01 0. -1.
</event>
<event>
11    1  0.8328696E-009  0.1299258E+03  0.7561462E-02  0.1119360E+00
         22   -1    0    0    0    0  0.00000000000E+00  0.00000000000E+00  0.54923037866E+03  0.54923037866E+03  0.00000000000E+00 0. -1.
         22   -1    0    0    0    0 -0.00000000000E+00 -0.00000000000E+00 -0.37311173809E+03  0.37311173809E+03  0.00000000000E+00 0.  1.
         24    2    1    2    0    0  0.19578337147E+02 -0.28466916370E+02 -0.32812454336E+03  0.33952077691E+03  0.80093479049E+02 0.  0.
         25    2    1    2    0    0 -0.25373325691E+02  0.40613411219E+02  0.91452922753E+02  0.16218536257E+03  0.12508876817E+03 0.  0.
        -24    2    1    2    0    0  0.57949885437E+01 -0.12146494849E+02  0.41279026118E+03  0.42063597728E+03  0.79735227016E+02 0.  0.
        -11    1    3    3    0    0 -0.57618736602E+01 -0.44199635084E+02 -0.27505872338E+03  0.27864692397E+03  0.00000000000E+00 0.  1.
         12    1    3    3    0    0  0.25340210808E+02  0.15732718714E+02 -0.53065819976E+02  0.60873852938E+02  0.00000000000E+00 0. -1.
         11    1    5    5    0    0 -0.64535344378E+01 -0.29719272189E+02  0.38153466613E+03  0.38274480363E+03  0.00000000000E+00 0. -1.
        -12    1    5    5    0    0  0.12248522982E+02  0.17572777340E+02  0.31255595051E+02  0.37891173651E+02  0.00000000000E+00 0.  1.
          5    1    4    4  501    0 -0.32766028116E+02 -0.29790364684E+02 -0.24096079690E+01  0.44546122582E+02  0.41800000000E+01 0. -1.
         -5    1    4    4    0  501  0.73927024252E+01  0.70403775902E+02  0.93862530722E+02  0.11763923998E+03  0.41800000000E+01 0. -1.
</event>
<event>
11    1  0.8328696E-009  0.2266711E+03  0.7561462E-02  0.1037117E+00
         22   -1    0    0    0    0  0.00000000000E+00  0.00000000000E+00  0.11487578402E+04  0.11487578402E+04  0.00000000000E+00 0. -1.
         22   -1    0    0    0    0 -0.00000000000E+00 -0.00000000000E+00 -0.14572958091E+04  0.14572958091E+04  0.00000000000E+00 0.  1.
        -24    2    1    2    0    0  0.31422041052E+02  0.32272351592E+02 -0.13873382657E+04  0.13903846260E+04  0.80206580490E+02 0.  0.
         25    2    1    2    0    0  0.15764214661E+03  0.17172959219E+02  0.12184313132E+03  0.23587998423E+03  0.12509061275E+03 0.  0.
         24    2    1    2    0    0 -0.18906418766E+03 -0.49445310811E+02  0.95695716538E+03  0.97978903902E+03  0.77649460929E+02 0.  0.
        -11    1    5    5    0    0 -0.67660908464E+02  0.14492035186E+01  0.19177640156E+03  0.20336736936E+03  0.00000000000E+00 0.  1.
         12    1    5    5    0    0 -0.12140327920E+03 -0.50894514330E+02  0.76518076382E+03  0.77642166965E+03  0.00000000000E+00 0. -1.
         13    1    3    3    0    0 -0.20581905186E+02  0.34068517537E+02 -0.64102834119E+03  0.64226288459E+03  0.00000000000E+00 0. -1.
        -14    1    3    3    0    0  0.52003946238E+02 -0.17961659446E+01 -0.74630992446E+03  0.74812174142E+03  0.00000000000E+00 0.  1.
          5    1    4    4  501    0  0.15892532400E+02 -0.14856092649E+02  0.82279585520E+02  0.85209616055E+02  0.41800000000E+01 0. -1.
         -5    1    4    4    0  501  0.14174961421E+03  0.32029051867E+02  0.39563545795E+02  0.15067036818E+03  0.41800000000E+01 0. -1.
</event>
<event>
11    1  0.8328696E-009  0.1386383E+03  0.7561462E-02  0.1109089E+00
         22   -1    0    0    0    0  0.00000000000E+00  0.00000000000E+00  0.83952392034E+03  0.83952392034E+03  0.00000000000E+00 0.  1.
         22   -1    0    0    0    0 -0.00000000000E+00 -0.00000000000E+00 -0.10236356979E+04  0.10236356979E+04  0.00000000000E+00 0.  1.
        -24    2    1    2    0    0  0.43857853496E+01 -0.31510119773E+02 -0.99814360113E+03  0.10018748198E+04  0.80314278088E+02 0.  0.
         25    2    1    2    0    0 -0.16992518029E+02  0.84332459733E+02  0.27531242887E+03  0.31439481436E+03  0.12508579606E+03 0.  0.
         24    2    1    2    0    0  0.12606732680E+02 -0.52822339960E+02  0.53871939472E+03  0.54688998408E+03  0.76947638911E+02 0.  0.
        -11    1    5    5    0    0  0.35429078620E+02 -0.77160197134E+01  0.12687073601E+03  0.13195052189E+03  0.00000000000E+00 0.  1.
         12    1    5    5    0    0 -0.22822345941E+02 -0.45106320247E+02  0.41184865871E+03  0.41493946219E+03  0.00000000000E+00 0. -1.
         13    1    3    3    0    0  0.34361529037E+02 -0.20165313287E+02 -0.81313753941E+03  0.81411302197E+03  0.00000000000E+00 0. -1.
        -14    1    3    3    0    0 -0.29975743687E+02 -0.11344806487E+02 -0.18500606172E+03  0.18776179781E+03  0.00000000000E+00 0.  1.
          5    1    4    4  501    0  0.19374702357E+02  0.10021968456E+03  0.24102552999E+03  0.26178262504E+03  0.41800000000E+01 0. -1.
         -5    1    4    4    0  501 -0.36367220386E+02 -0.15887224825E+02  0.34286898878E+02  0.52612189328E+02  0.41800000000E+01 0. -1.
</event>
<event>
11    1  0.8328696E-009  0.1562392E+03  0.7561462E-02  0.1090669E+00
         22   -1    0    0    0    0  0.00000000000E+00  0.00000000000E+00  0.18693136273E+03  0.18693136273E+03  0.00000000000E+00 0. -1.
         22   -1    0    0    0    0 -0.00000000000E+00 -0.00000000000E+00 -0.26304231070E+04  0.26304231070E+04  0.00000000000E+00 0.  1.
        -24    2    1    2    0    0 -0.70957627304E+02  0.15673114822E+02 -0.14229783979E+04  0.14270864491E+04  0.80172194375E+02 0.  0.
         25    2    1    2    0    0  0.55359035848E+02  0.77117909676E+02 -0.11785699684E+04  0.11889854168E+04  0.12508939256E+03 0.  0.
         24    2    1    2    0    0  0.15598591456E+02 -0.92791024498E+02  0.15805662203E+03  0.20128260388E+03  0.81726988060E+02 0.  0.
        -11    1    5    5    0    0  0.33907007771E+01 -0.71786636159E+02  0.43128094994E+02  0.83814381586E+02  0.00000000000E+00 0.  1.
         12    1    5    5    0    0  0.12207890679E+02 -0.21004388339E+02  0.11492852703E+03  0.11746822230E+03  0.00000000000E+00 0. -1.
         13    1    3    3    0    0 -0.18851718979E+02  0.43579145017E+02 -0.75827237233E+03  0.75975754015E+03  0.00000000000E+00 0. -1.
        -14    1    3    3    0    0 -0.52105908325E+02 -0.27906030195E+02 -0.66470602559E+03  0.66732890890E+03  0.00000000000E+00 0.  1.
          5    1    4    4  501    0  0.82986271299E+02  0.95800236221E+01 -0.66549849731E+03  0.67073409068E+03  0.41800000000E+01 0.  1.
         -5    1    4    4    0  501 -0.27627235452E+02  0.67537886054E+02 -0.51307147104E+03  0.51825132609E+03  0.41800000000E+01 0.  1.
</event>
<event>
11    1  0.8328696E-009  0.1460214E+03  0.7561462E-02  0.1101015E+00
         22   -1    0    0    0    0  0.00000000000E+00  0.00000000000E+00  0.16172937325E+04  0.16172937325E+04  0.00000000000E+00 0.  1.
         22   -1    0    0    0    0 -0.00000000000E+00 -0.00000000000E+00 -0.43349228978E+03  0.43349228978E+03  0.00000000000E+00 0. -1.
         24    2    1    2    0    0 -0.55527946182E+02  0.53524731596E+02 -0.38776700890E+03  0.40358089941E+03  0.81031101916E+02 0.  0.
         25    2    1    2    0    0 -0.67764104020E+01 -0.67905194521E+02  0.10498687864E+03  0.17699556088E+03  0.12509256054E+03 0.  0.
        -24    2    1    2    0    0  0.62304356584E+02  0.14380462926E+02  0.14665815730E+04  0.14702095620E+04  0.81030953432E+02 0.  0.
        -11    1    3    3    0    0  0.49404934940E+01  0.36073063954E+02 -0.62936461570E+02  0.72709508414E+02  0.00000000000E+00 0.  1.
         12    1    3    3    0    0 -0.60468439676E+02  0.17451667642E+02 -0.32483054733E+03  0.33087139100E+03  0.00000000000E+00 0. -1.
         11    1    5    5    0    0  0.17822412967E+02 -0.22765357404E+02  0.17861101570E+03  0.18093588597E+03  0.00000000000E+00 0. -1.
        -12    1    5    5    0    0  0.44481943617E+02  0.37145820330E+02  0.12879705573E+04  0.12892736760E+04  0.00000000000E+00 0.  1.
          5    1    4    4  501    0  0.10917504612E+02 -0.52266221225E+01 -0.26929167019E+02  0.29818818255E+02  0.41800000000E+01 0. -1.
         -5    1    4    4    0  501 -0.17693915014E+02 -0.62678572399E+02  0.13191604566E+03  0.14717674262E+03  0.41800000000E+01 0. -1.
</event>
<event>
11    1  0.8328696E-009  0.1423308E+03  0.7561462E-02  0.1104983E+00
         22   -1    0    0    0    0  0.00000000000E+00  0.00000000000E+00  0.72946373059E+03  0.72946373059E+03  0.00000000000E+00 0. -1.
         22   -1    0    0    0    0 -0.00000000000E+00 -0.00000000000E+00 -0.15497686433E+03  0.15497686433E+03  0.00000000000E+00 0.  1.
         24    2    1    2    0    0  0.43874126369E+01 -0.20816345962E+02 -0.10045739446E+03  0.13105393550E+03  0.81430192558E+02 0.  0.
         25    2    1    2    0    0  0.15444727526E+02  0.83307100613E+02  0.13209695716E+03  0.20068848151E+03  0.12509055879E+03 0.  0.
        -24    2    1    2    0    0 -0.19832140163E+02 -0.62490754651E+02  0.54284730357E+03  0.55269817791E+03  0.80583327510E+02 0.  0.
        -11    1    3    3    0    0 -0.10922447495E+02 -0.26348629566E+01 -0.10604383897E+03  0.10663741438E+03  0.00000000000E+00 0.  1.
         12    1    3    3    0    0  0.15309860132E+02 -0.18181483005E+02  0.55864445089E+01  0.24416521124E+02  0.00000000000E+00 0. -1.
         11    1    5    5    0    0 -0.67660299913E+01 -0.68927606636E+02  0.52551069446E+03  0.53005498215E+03  0.00000000000E+00 0. -1.
        -12    1    5    5    0    0 -0.13066110172E+02  0.64368519845E+01  0.17336609110E+02  0.22643195754E+02  0.00000000000E+00 0.  1.
          5    1    4    4  501    0 -0.41041701238E+02  0.80457678372E+02  0.10262802836E+03  0.13677662028E+03  0.41800000000E+01 0.  1.
         -5    1    4    4    0  501  0.56486428764E+02  0.28494222415E+01  0.29468928801E+02  0.63911861234E+02  0.41800000000E+01 0.  1.
</event>
<event>
11    1  0.8328696E-009  0.1384616E+03  0.7561462E-02  0.1109288E+00
         22   -1    0    0    0    0  0.00000000000E+00  0.00000000000E+00  0.51864072424E+03  0.51864072424E+03  0.00000000000E+00 0. -1.
         22   -1    0    0    0    0 -0.00000000000E+00 -0.00000000000E+00 -0.17436169019E+03  0.17436169019E+03  0.00000000000E+00 0.  1.
        -24    2    1    2    0    0 -0.18364755956E+02 -0.22847255559E+02 -0.85243334359E+02  0.11932498719E+03  0.78184174662E+02 0.  0.
         25    2    1    2    0    0  0.66946424498E+01  0.79485033860E+02  0.16771144058E+02  0.14930467381E+03  0.12509166840E+03 0.  0.
         24    2    1    2    0    0  0.11670113506E+02 -0.56637778301E+02  0.41275122435E+03  0.42437275343E+03  0.79903887084E+02 0.  0.
        -13    1    5    5    0    0  0.34279490042E+02 -0.66197670180E+01  0.82382374555E+02  0.89474914865E+02  0.00000000000E+00 0.  1.
         14    1    5    5    0    0 -0.22609376536E+02 -0.50018011283E+02  0.33036884979E+03  0.33489783856E+03  0.00000000000E+00 0. -1.
         11    1    3    3    0    0  0.16869090276E+02  0.55725477119E+01  0.49216277252E+01  0.18434801713E+02  0.00000000000E+00 0. -1.
        -12    1    3    3    0    0 -0.35233846231E+02 -0.28419803271E+02 -0.90164962084E+02  0.10089018548E+03  0.00000000000E+00 0.  1.
          5    1    4    4  501    0 -0.37282549612E+02 -0.12698366399E+02 -0.14857263846E+02  0.42301864069E+02  0.41800000000E+01 0. -1.
         -5    1    4    4    0  501  0.43977192062E+02  0.92183400259E+02  0.31628407904E+02  0.10700280974E+03  0.41800000000E+01 0. -1.
</event>
<event>
11    1  0.8328696E-009  0.1756702E+03  0.7561462E-02  0.1073200E+00
         22   -1    0    0    0    0  0.00000000000E+00  0.00000000000E+00  0.11767498632E+03  0.11767498632E+03  0.00000000000E+00 0. -1.
         22   -1    0    0    0    0 -0.00000000000E+00 -0.00000000000E+00 -0.10652495023E+04  0.10652495023E+04  0.00000000000E+00 0.  1.
         24    2    1    2    0    0  0.80062537420E+00  0.22625499985E+02 -0.83415860352E+03  0.83827064635E+03  0.79778107649E+02 0.  0.
         25    2    1    2    0    0  0.33060123313E+02  0.10603647531E+03 -0.73641360506E+02  0.18277549050E+03  0.12508846510E+03 0.  0.
        -24    2    1    2    0    0 -0.33860748687E+02 -0.12866197530E+03 -0.39774551971E+02  0.16187835178E+03  0.83199348552E+02 0.  0.
        -13    1    3    3    0    0 -0.17252534122E+02  0.18153930424E+01 -0.73901867530E+03  0.73922225888E+03  0.00000000000E+00 0.  1.
         14    1    3    3    0    0  0.18053159496E+02  0.20810106942E+02 -0.95139928218E+02  0.99048387469E+02  0.00000000000E+00 0. -1.
         11    1    5    5    0    0 -0.10628113505E+02 -0.13147845885E+03 -0.25154804522E+02  0.13428442251E+03  0.00000000000E+00 0. -1.
        -12    1    5    5    0    0 -0.23232635182E+02  0.28164835467E+01 -0.14619747449E+02  0.27593929270E+02  0.00000000000E+00 0.  1.
          5    1    4    4  501    0  0.60229021213E+02  0.11989300661E+03 -0.47507901049E+02  0.14239501780E+03  0.41800000000E+01 0.  1.
         -5    1    4    4    0  501 -0.27168897900E+02 -0.13856531301E+02 -0.26133459457E+02  0.40380472706E+02  0.41800000000E+01 0.  1.
</event>
<event>
11    1  0.8328696E-009  0.1406100E+03  0.7561462E-02  0.1106879E+00
         22   -1    0    0    0    0  0.00000000000E+00  0.00000000000E+00  0.67545524364E+03  0.67545524364E+03  0.00000000000E+00 0. -1.
         22   -1    0    0    0    0 -0.00000000000E+00 -0.00000000000E+00 -0.30982536899E+03  0.30982536899E+03  0.00000000000E+00 0. -1.
         24    2    1    2    0    0  0.42685882460E+01 -0.36508041073E+02 -0.26332034290E+03  0.27754603938E+03  0.79643851475E+02 0.  0.
         25    2    1    2    0    0  0.57334097889E+02  0.51755946400E+02  0.12297133964E+03  0.19166161609E+03  0.12508536262E+03 0.  0.
        -24    2    1    2    0    0 -0.61602686135E+02 -0.15247905327E+02  0.50597887792E+03  0.51607295716E+03  0.79304997687E+02 0.  0.
        -11    1    3    3    0    0  0.29342273728E+02  0.99065922611E+01 -0.60354578278E+02  0.67836455663E+02  0.00000000000E+00 0.  1.
         12    1    3    3    0    0 -0.25073685482E+02 -0.46414633334E+02 -0.20296576463E+03  0.20970958371E+03  0.00000000000E+00 0. -1.
         11    1    5    5    0    0 -0.31968963711E+02  0.20087171140E+01  0.44469499845E+03  0.44584716130E+03  0.00000000000E+00 0. -1.
        -12    1    5    5    0    0 -0.29633722425E+02 -0.17256622441E+02  0.61283879462E+02  0.70225795864E+02  0.00000000000E+00 0.  1.
          5    1    4    4  501    0 -0.28286925034E+02 -0.20149536066E+02  0.32953038333E+02  0.48057559935E+02  0.41800000000E+01 0. -1.
         -5    1    4    4    0  501  0.85621022924E+02  0.71905482466E+02  0.90018301304E+02  0.14360405616E+03  0.41800000000E+01 0. -1.
</event>
<event>
11    1  0.8328696E-009  0.1388335E+03  0.7561462E-02  0.1108868E+00
         22   -1    0    0    0    0  0.00000000000E+00  0.00000000000E+00  0.61979860471E+03  0.61979860471E+03  0.00000000000E+00 0.  1.
         22   -1    0    0    0    0 -0.00000000000E+00 -0.00000000000E+00 -0.16364012878E+03  0.16364012878E+03  0.00000000000E+00 0.  1.
        -24    2    1    2    0    0  0.46873829646E+02 -0.38263164988E+02 -0.11367351407E+03  0.15361477245E+03  0.83753237636E+02 0.  0.
         25    2    1    2    0    0 -0.61710548245E+02  0.14492931409E+02  0.16714918700E+03  0.21818315011E+03  0.12508716742E+03 0.  0.
         24    2    1    2    0    0  0.14836718599E+02  0.23770233579E+02  0.40268280301E+03  0.41164081093E+03  0.80681876266E+02 0.  0.
        -13    1    5    5    0    0  0.33505499981E+02 -0.19086926967E+02  0.19205849823E+03  0.19589128631E+03  0.00000000000E+00 0.  1.
         14    1    5    5    0    0 -0.18668781382E+02  0.42857160546E+02  0.21062430478E+03  0.21574952461E+03  0.00000000000E+00 0. -1.
         13    1    3    3    0    0  0.15445980043E+02 -0.45535951386E+02 -0.15880749849E+02  0.50638911756E+02  0.00000000000E+00 0. -1.
        -14    1    3    3    0    0  0.31427849603E+02  0.72727863977E+01 -0.97792764219E+02  0.10297586070E+03  0.00000000000E+00 0.  1.
          5    1    4    4  501    0 -0.87657938500E+02  0.11483538168E+02  0.57865823655E+02  0.10574361342E+03  0.41800000000E+01 0. -1.
         -5    1    4    4    0  501  0.25947390254E+02  0.30093932406E+01  0.10928336334E+03  0.11243953669E+03  0.41800000000E+01 0. -1.
</event>
<event>
11    1  0.8328696E-009  0.3199991E+03  0.7561462E-02  0.9920652E-01
         22   -1    0    0    0    0  0.00000000000E+00  0.00000000000E+00  0.18848194775E+04  0.18848194775E+04  0.00000000000E+00 0. -1.
         22   -1    0    0    0    0 -0.00000000000E+00 -0.00000000000E+00 -0.32899148806E+03  0.32899148806E+03  0.00000000000E+00 0. -1.
        -24    2    1    2    0    0  0.52083725753E+02 -0.24568333394E+03 -0.41836739045E+02  0.26619541539E+03  0.77696019039E+02 0.  0.
         25    2    1    2    0    0  0.39248041805E+02  0.41146994573E+03  0.10953597438E+03  0.44552597069E+03  0.12508931150E+03 0.  0.
         24    2    1    2    0    0 -0.91331767558E+02 -0.16578661178E+03  0.14881287541E+04  0.15020895795E+04  0.76936490495E+02 0.  0.
        -11    1    5    5    0    0 -0.28741837993E+01 -0.49174294197E+01  0.48156517114E+01  0.74587228140E+01  0.00000000000E+00 0.  1.
         12    1    5    5    0    0 -0.88457583759E+02 -0.16086918236E+03  0.14833131024E+04  0.14946308567E+04  0.00000000000E+00 0. -1.
         13    1    3    3    0    0  0.56043102693E+02 -0.20363103725E+03 -0.60968523895E+02  0.21982627140E+03  0.00000000000E+00 0. -1.
        -14    1    3    3    0    0 -0.39593769399E+01 -0.42052296696E+02  0.19131784850E+02  0.46369143993E+02  0.00000000000E+00 0.  1.
          5    1    4    4  501    0  0.33166125300E+02  0.14354138908E+03 -0.18402524074E+02  0.14852692530E+03  0.41800000000E+01 0. -1.
         -5    1    4    4    0  501  0.60819165051E+01  0.26792855664E+03  0.12793849846E+03  0.29699904538E+03  0.41800000000E+01 0. -1.
</event>
<event>
11    1  0.8328696E-009  0.1318094E+03  0.7561462E-02  0.1117066E+00
         22   -1    0    0    0    0  0.00000000000E+00  0.00000000000E+00  0.93976882293E+03  0.93976882293E+03  0.00000000000E+00 0.  1.
         22   -1    0    0    0    0 -0.00000000000E+00 -0.00000000000E+00 -0.16199560138E+03  0.16199560138E+03  0.00000000000E+00 0.  1.
         24    2    1    2    0    0 -0.44859435014E+02  0.35421038421E+01 -0.10077134652E+03  0.13625001081E+03  0.79901725608E+02 0.  0.
         25    2    1    2    0    0  0.76719567406E+01 -0.26490219173E+02  0.59512445420E+02  0.14124543946E+03  0.12509177581E+03 0.  0.
        -24    2    1    2    0    0  0.37187478274E+02  0.22948115331E+02  0.81903212266E+03  0.82426897404E+03  0.81830306622E+02 0.  0.
        -11    1    3    3    0    0 -0.12013921043E+02 -0.11247503485E+02 -0.98814133026E+02  0.10017521410E+03  0.00000000000E+00 0.  1.
         12    1    3    3    0    0 -0.32845513971E+02  0.14789607327E+02 -0.19572134965E+01  0.36074796709E+02  0.00000000000E+00 0. -1.
         11    1    5    5    0    0  0.18014103612E+02 -0.29180341095E+02  0.41872822960E+03  0.42013013520E+03  0.00000000000E+00 0. -1.
        -12    1    5    5    0    0  0.19173374662E+02  0.52128456427E+02  0.40030389305E+03  0.40413883884E+03  0.00000000000E+00 0.  1.
          5    1    4    4  501    0  0.27285543952E+02 -0.23849805771E+02 -0.31386126708E+02  0.48123544070E+02  0.41800000000E+01 0. -1.
         -5    1    4    4    0  501 -0.19613587212E+02 -0.26404134023E+01  0.90898572128E+02  0.93121895391E+02  0.41800000000E+01 0. -1.
</event>
<event>
11    1  0.8328696E-009  0.1331217E+03  0.7561462E-02  0.1115492E+00
         22   -1    0    0    0    0  0.00000000000E+00  0.00000000000E+00  0.11254062209E+04  0.11254062209E+04  0.00000000000E+00 0.  1.
         22   -1    0    0    0    0 -0.00000000000E+00 -0.00000000000E+00 -0.17659421225E+03  0.17659421225E+03  0.00000000000E+00 0.  1.
        -24    2    1    2    0    0 -0.30209997218E+02  0.31875609117E+02 -0.11212679944E+03  0.14502959742E+03  0.80823675900E+02 0.  0.
         25    2    1    2    0    0  0.19108066886E+02 -0.57284586935E+02  0.58369201011E+02  0.15067521433E+03  0.12509761975E+03 0.  0.
         24    2    1    2    0    0  0.11101930332E+02  0.25408977817E+02  0.10025696070E+04  0.10062956214E+04  0.81952373944E+02 0.  0.
        -11    1    5    5    0    0 -0.20974952951E+02 -0.10458151136E+01  0.75249865225E+03  0.75279164715E+03  0.00000000000E+00 0.  1.
         12    1    5    5    0    0  0.32076883283E+02  0.26454792931E+02  0.25007095478E+03  0.25350397420E+03  0.00000000000E+00 0. -1.
         13    1    3    3    0    0  0.20129402813E+02  0.21431086776E+02 -0.10648245062E+02  0.31270904382E+02  0.00000000000E+00 0. -1.
        -14    1    3    3    0    0 -0.50339400031E+02  0.10444522341E+02 -0.10147855438E+03  0.11375869303E+03  0.00000000000E+00 0.  1.
          5    1    4    4  501    0 -0.50110290414E+02 -0.41642162921E+02  0.13674158128E+02  0.66705066813E+02  0.41800000000E+01 0.  1.
         -5    1    4    4    0  501  0.69218357300E+02 -0.15642424014E+02  0.44695042883E+02  0.83970147521E+02  0.41800000000E+01 0.  1.
</event>
<event>
11    1  0.8328696E-009  0.1332526E+03  0.7561462E-02  0.1115336E+00
         22   -1    0    0    0    0  0.00000000000E+00  0.00000000000E+00  0.65706195238E+03  0.65706195238E+03  0.00000000000E+00 0. -1.
         22   -1    0    0    0    0 -0.00000000000E+00 -0.00000000000E+00 -0.28877727765E+03  0.28877727765E+03  0.00000000000E+00 0.  1.
         24    2    1    2    0    0 -0.47373433893E+02  0.17230507177E+02 -0.20498225903E+03  0.22579421173E+03  0.80150900921E+02 0.  0.
         25    2    1    2    0    0  0.15260319757E+02 -0.18371496068E+02 -0.11370621590E+02  0.12785279848E+03  0.12508660127E+03 0.  0.
        -24    2    1    2    0    0  0.32113114136E+02  0.11409888915E+01  0.58463755535E+03  0.59219221982E+03  0.88645361599E+02 0.  0.
        -13    1    3    3    0    0 -0.34444727410E+02  0.37612891462E+02 -0.59693810253E+02  0.78514456204E+02  0.00000000000E+00 0.  1.
         14    1    3    3    0    0 -0.12928706483E+02 -0.20382384285E+02 -0.14528844878E+03  0.14727975553E+03  0.00000000000E+00 0. -1.
         13    1    5    5    0    0 -0.60362747083E+01  0.15486571937E+02  0.47391505506E+03  0.47420644232E+03  0.00000000000E+00 0. -1.
        -14    1    5    5    0    0  0.38149388844E+02 -0.14345583046E+02  0.11072250029E+03  0.11798577750E+03  0.00000000000E+00 0.  1.
          5    1    4    4  501    0  0.35916068338E+02 -0.65840066070E+02 -0.10987390890E+02  0.75914909099E+02  0.41800000000E+01 0. -1.
         -5    1    4    4    0  501 -0.20655748581E+02  0.47468570001E+02 -0.38323069973E+00  0.51937889379E+02  0.41800000000E+01 0. -1.
</event>
<event>
11    1  0.8328696E-009  0.1530737E+03  0.7561462E-02  0.1093779E+00
         22   -1    0    0    0    0  0.00000000000E+00  0.00000000000E+00  0.18388560451E+04  0.18388560451E+04  0.00000000000E+00 0.  1.
         22   -1    0    0    0    0 -0.00000000000E+00 -0.00000000000E+00 -0.13900302609E+03  0.13900302609E+03  0.00000000000E+00 0.  1.
        -24    2    1    2    0    0  0.49421211724E+02  0.68554332679E+02 -0.87537477000E+02  0.14553548482E+03  0.79847446829E+02 0.  0.
         25    2    1    2    0    0 -0.11922639544E+03 -0.10137923076E+03  0.48024607682E+03  0.52036133521E+03  0.12508774154E+03 0.  0.
         24    2    1    2    0    0  0.69805183716E+02  0.32824898080E+02  0.13071444192E+04  0.13119622512E+04  0.81658914177E+02 0.  0.
        -11    1    5    5    0    0  0.33934036278E+02  0.15539825199E+02  0.11203249408E+04  0.11209464653E+04  0.00000000000E+00 0.  1.
         12    1    5    5    0    0  0.35871147438E+02  0.17285072882E+02  0.18681947840E+03  0.19101578593E+03  0.00000000000E+00 0. -1.
         11    1    3    3    0    0 -0.33664844396E+01  0.10799263873E+02 -0.62304439640E+02  0.63322985689E+02  0.00000000000E+00 0. -1.
        -12    1    3    3    0    0  0.52787696164E+02  0.57755068806E+02 -0.25233037359E+02  0.82212499131E+02  0.00000000000E+00 0.  1.
          5    1    4    4  501    0 -0.10589060298E+03 -0.10824873049E+02  0.21945696845E+03  0.24394431962E+03  0.41800000000E+01 0.  1.
         -5    1    4    4    0  501 -0.13335792458E+02 -0.90554357710E+02  0.26078910837E+03  0.27641701559E+03  0.41800000000E+01 0.  1.
</event>
<event>
11    1  0.8328696E-009  0.1410996E+03  0.7561462E-02  0.1106337E+00
         22   -1    0    0    0    0  0.00000000000E+00  0.00000000000E+00  0.30309971882E+03  0.30309971882E+03  0.00000000000E+00 0. -1.
         22   -1    0    0    0    0 -0.00000000000E+00 -0.00000000000E+00 -0.35074461857E+03  0.35074461857E+03  0.00000000000E+00 0. -1.
        -24    2    1    2    0    0 -0.34185256239E+02 -0.78872812617E+01 -0.27629258174E+03  0.28977575166E+03  0.80009715512E+02 0.  0.
         25    2    1    2    0    0  0.92289632225E+02  0.13876477279E+02  0.57627119589E+02  0.16636987120E+03  0.12509243100E+03 0.  0.
         24    2    1    2    0    0 -0.58104375986E+02 -0.59891960178E+01  0.17102056240E+03  0.19769871453E+03  0.80154600526E+02 0.  0.
        -11    1    5    5    0    0  0.11941091266E+02 -0.20161490545E+02  0.20745670396E+02  0.31296296934E+02  0.00000000000E+00 0.  1.
         12    1    5    5    0    0 -0.70045467252E+02  0.14172294528E+02  0.15027489201E+03  0.16640241760E+03  0.00000000000E+00 0. -1.
         11    1    3    3    0    0 -0.32560111818E+02  0.27350125192E+02 -0.21404537594E+03  0.21822835102E+03  0.00000000000E+00 0. -1.
        -12    1    3    3    0    0 -0.16251444203E+01 -0.35237406454E+02 -0.62247205804E+02  0.71547400640E+02  0.00000000000E+00 0.  1.
          5    1    4    4  501    0  0.20496887360E+02 -0.21573456537E+02 -0.33492911245E+02  0.44997599070E+02  0.41800000000E+01 0. -1.
         -5    1    4    4    0  501  0.71792744865E+02  0.35449933817E+02  0.91120030834E+02  0.12137227213E+03  0.41800000000E+01 0. -1.
</event>
<event>
11    1  0.8328696E-009  0.1442267E+03  0.7561462E-02  0.1102928E+00
         22   -1    0    0    0    0  0.00000000000E+00  0.00000000000E+00  0.84906459417E+03  0.84906459417E+03  0.00000000000E+00 0. -1.
         22   -1    0    0    0    0 -0.00000000000E+00 -0.00000000000E+00 -0.52379677395E+03  0.52379677395E+03  0.00000000000E+00 0. -1.
        -24    2    1    2    0    0 -0.22888179950E+02  0.69457397436E+02 -0.48686051478E+03  0.49874284615E+03  0.79768834083E+02 0.  0.
         25    2    1    2    0    0  0.48400485567E+02 -0.19195062057E+02  0.14128901589E+03  0.19575778298E+03  0.12508983243E+03 0.  0.
         24    2    1    2    0    0 -0.25512305617E+02 -0.50262335379E+02  0.67083931911E+03  0.67836073899E+03  0.83490838070E+02 0.  0.
        -13    1    5    5    0    0  0.30420754224E+02 -0.20091089598E+02  0.20663285517E+03  0.20982423836E+03  0.00000000000E+00 0.  1.
         14    1    5    5    0    0 -0.55933059841E+02 -0.30171245782E+02  0.46420646394E+03  0.46853650063E+03  0.00000000000E+00 0. -1.
         13    1    3    3    0    0  0.29779633451E+01  0.66365482931E+02 -0.44120385810E+03  0.44617719573E+03  0.00000000000E+00 0. -1.
        -14    1    3    3    0    0 -0.25866143296E+02  0.30919145048E+01 -0.45656656688E+02  0.52565650422E+02  0.00000000000E+00 0.  1.
          5    1    4    4  501    0  0.15880574023E+02  0.71709721276E+01 -0.21287536639E+02  0.27825295842E+02  0.41800000000E+01 0. -1.
         -5    1    4    4    0  501  0.32519911544E+02 -0.26366034184E+02  0.16257655253E+03  0.16793248714E+03  0.41800000000E+01 0. -1.
</event>
<event>
11    1  0.8328696E-009  0.1419153E+03  0.7561462E-02  0.1105438E+00
         22   -1    0    0    0    0  0.00000000000E+00  0.00000000000E+00  0.11601530572E+04  0.11601530572E+04  0.00000000000E+00 0.  1.
         22   -1    0    0    0    0 -0.00000000000E+00 -0.00000000000E+00 -0.30989942648E+03  0.30989942648E+03  0.00000000000E+00 0. -1.
        -24    2    1    2    0    0  0.13283603764E+02 -0.67407288476E+02 -0.27048368791E+03  0.29147118539E+03  0.84106062927E+02 0.  0.
         25    2    1    2    0    0 -0.11266083892E+02  0.39962207075E+02  0.13345144107E+03  0.18756452116E+03  0.12508900764E+03 0.  0.
         24    2    1    2    0    0 -0.20175198714E+01  0.27445081401E+02  0.98728587757E+03  0.99101677714E+03  0.81385168475E+02 0.  0.
        -13    1    5    5    0    0 -0.15833488424E+01  0.29823900883E+02  0.98803422608E+03  0.98848551024E+03  0.00000000000E+00 0.  1.
         14    1    5    5    0    0 -0.43417102902E+00 -0.23788194812E+01 -0.74834851109E+00  0.25312668964E+01  0.00000000000E+00 0. -1.
         13    1    3    3    0    0  0.26631570118E+02 -0.30718452416E+02 -0.23570485776E+03  0.23918537543E+03  0.00000000000E+00 0. -1.
        -14    1    3    3    0    0 -0.13347966355E+02 -0.36688836060E+02 -0.34778830143E+02  0.52285809962E+02  0.00000000000E+00 0.  1.
          5    1    4    4  501    0  0.10091067665E+02 -0.41834052121E+02  0.67944206733E+02  0.80534496906E+02  0.41800000000E+01 0.  1.
         -5    1    4    4    0  501 -0.21357151557E+02  0.81796259196E+02  0.65507234339E+02  0.10703002425E+03  0.41800000000E+01 0.  1.
</event>
<event>
11    1  0.8328696E-009  0.1548883E+03  0.7561462E-02  0.1091986E+00
         22   -1    0    0    0    0  0.00000000000E+00  0.00000000000E+00  0.19441830863E+03  0.19441830863E+03  0.00000000000E+00 0.  1.
         22   -1    0    0    0    0 -0.00000000000E+00 -0.00000000000E+00 -0.57302028107E+03  0.57302028107E+03  0.00000000000E+00 0. -1.
        -24    2    1    2    0    0 -0.68516613877E+02 -0.55457093203E+02 -0.39811904022E+03  0.41537933376E+03  0.79190941157E+02 0.  0.
         25    2    1    2    0    0  0.35152110040E+02  0.13049472266E+03 -0.79512054486E+02  0.20058441348E+03  0.12508955447E+03 0.  0.
         24    2    1    2    0    0  0.33364503837E+02 -0.75037629458E+02  0.99029122271E+02  0.15147484247E+03  0.79962646857E+02 0.  0.
        -11    1    5    5    0    0  0.26650773867E+02 -0.73126678003E+02  0.11220934104E+03  0.13656028339E+03  0.00000000000E+00 0.  1.
         12    1    5    5    0    0  0.67137299698E+01 -0.19109514551E+01 -0.13180218771E+02  0.14914559076E+02  0.00000000000E+00 0. -1.
         13    1    3    3    0    0 -0.55893968649E+02 -0.75924760473E+02 -0.30795055561E+03  0.32205938844E+03  0.00000000000E+00 0. -1.
        -14    1    3    3    0    0 -0.12622645228E+02  0.20467667270E+02 -0.90168484615E+02  0.93319945316E+02  0.00000000000E+00 0.  1.
          5    1    4    4  501    0  0.37045976120E+02  0.87058764421E+02  0.15545146985E+02  0.95972687802E+02  0.41800000000E+01 0.  1.
         -5    1    4    4    0  501 -0.18938660797E+01  0.43435958241E+02 -0.95057201470E+02  0.10461172567E+03  0.41800000000E+01 0.  1.
</event>
<event>
11    1  0.8328696E-009  0.1432478E+03  0.7561462E-02  0.1103985E+00
         22   -1    0    0    0    0  0.00000000000E+00  0.00000000000E+00  0.80359421376E+03  0.80359421376E+03  0.00000000000E+00 0. -1.
         22   -1    0    0    0    0 -0.00000000000E+00 -0.00000000000E+00 -0.17616608676E+03  0.17616608676E+03  0.00000000000E+00 0. -1.
         24    2    1    2    0    0 -0.27866803913E+02 -0.24346671169E+01 -0.12937965888E+03  0.15515461906E+03  0.80940554234E+02 0.  0.
         25    2    1    2    0    0  0.93213344773E+02 -0.74912162839E+01  0.17889519871E+03  0.23748007023E+03  0.12509374752E+03 0.  0.
        -24    2    1    2    0    0 -0.65346540860E+02  0.99258834008E+01  0.57791258717E+03  0.58712561123E+03  0.79779893374E+02 0.  0.
        -11    1    3    3    0    0  0.32977834478E+01  0.35803033823E+02 -0.61592000764E+02  0.71318350827E+02  0.00000000000E+00 0.  1.
         12    1    3    3    0    0 -0.31164587361E+02 -0.38237700939E+02 -0.67787658117E+02  0.83836268235E+02  0.00000000000E+00 0. -1.
         13    1    5    5    0    0 -0.46622925373E+02 -0.30155347603E+01  0.54562666096E+03  0.54762326811E+03  0.00000000000E+00 0. -1.
        -14    1    5    5    0    0 -0.18723615487E+02  0.12941418161E+02  0.32285926210E+02  0.39502343122E+02  0.00000000000E+00 0.  1.
          5    1    4    4  501    0  0.16893430129E+02 -0.46079033502E+02  0.12968389058E+03  0.13872292235E+03  0.41800000000E+01 0. -1.
         -5    1    4    4    0  501  0.76319914644E+02  0.38587817218E+02  0.49211308129E+02  0.98757147877E+02  0.41800000000E+01 0. -1.
</event>
<event>
11    1  0.8328696E-009  0.1508327E+03  0.7561462E-02  0.1096031E+00
         22   -1    0    0    0    0  0.00000000000E+00  0.00000000000E+00  0.17023046441E+03  0.17023046441E+03  0.00000000000E+00 0.  1.
         22   -1    0    0    0    0 -0.00000000000E+00 -0.00000000000E+00 -0.73933998091E+03  0.73933998091E+03  0.00000000000E+00 0. -1.
        -24    2    1    2    0    0 -0.10404287273E+02 -0.28553649253E+02 -0.61035831184E+03  0.61636546670E+03  0.80284242695E+02 0.  0.
         25    2    1    2    0    0 -0.44275068020E+02  0.87248521740E+02 -0.23164046367E+02  0.16048876281E+03  0.12508990267E+03 0.  0.
         24    2    1    2    0    0  0.54679355293E+02 -0.58694872487E+02  0.64412841717E+02  0.13271621581E+03  0.83843066550E+02 0.  0.
        -11    1    5    5    0    0  0.31777773389E+02 -0.72874966284E+02  0.69148987539E+02  0.10536683572E+03  0.00000000000E+00 0.  1.
         12    1    5    5    0    0  0.22901581904E+02  0.14180093796E+02 -0.47361458217E+01  0.27349380085E+02  0.00000000000E+00 0. -1.
         11    1    3    3    0    0  0.29064715153E+02  0.17699723900E+01 -0.35562464951E+03  0.35681477241E+03  0.00000000000E+00 0. -1.
        -12    1    3    3    0    0 -0.39469002426E+02 -0.30323621643E+02 -0.25473366233E+03  0.25955069429E+03  0.00000000000E+00 0.  1.
          5    1    4    4  501    0  0.19404793495E+02  0.65422075640E+02  0.29949926157E+02  0.74639563694E+02  0.41800000000E+01 0.  1.
         -5    1    4    4    0  501 -0.63679861516E+02  0.21826446100E+02 -0.53113972524E+02  0.85849199118E+02  0.41800000000E+01 0.  1.
</event>
<event>
11    1  0.8328696E-009  0.1602504E+03  0.7561462E-02  0.1086842E+00
         22   -1    0    0    0    0  0.00000000000E+00  0.00000000000E+00  0.11679094239E+03  0.11679094239E+03  0.00000000000E+00 0. -1.
         22   -1    0    0    0    0 -0.00000000000E+00 -0.00000000000E+00 -0.85647031931E+03  0.85647031931E+03  0.00000000000E+00 0. -1.
         24    2    1    2    0    0 -0.11907025812E+01  0.27877563154E+02 -0.49120211436E+03  0.49777951214E+03  0.75672645344E+02 0.  0.
         25    2    1    2    0    0  0.40443874618E+01  0.76084466661E+02 -0.29492343366E+03  0.32928998421E+03  0.12508740480E+03 0.  0.
        -24    2    1    2    0    0 -0.28536848806E+01 -0.10396202981E+03  0.46446171105E+02  0.14619176534E+03  0.91643539236E+02 0.  0.
        -11    1    3    3    0    0 -0.84324118287E+00  0.37413959760E+02 -0.10517827242E+03  0.11163773748E+03  0.00000000000E+00 0.  1.
         12    1    3    3    0    0 -0.34746139837E+00 -0.95363966062E+01 -0.38602384194E+03  0.38614177466E+03  0.00000000000E+00 0. -1.
         13    1    5    5    0    0  0.18960428668E+02 -0.77678187994E+02  0.68705317853E+02  0.10542210132E+03  0.00000000000E+00 0. -1.
        -14    1    5    5    0    0 -0.21814113549E+02 -0.26283841821E+02 -0.22259146748E+02  0.40769664025E+02  0.00000000000E+00 0.  1.
          5    1    4    4  501    0  0.45011907893E+02 -0.13600807744E+02 -0.10942163296E+03  0.11917054998E+03  0.41800000000E+01 0. -1.
         -5    1    4    4    0  501 -0.40967520431E+02  0.89685274405E+02 -0.18550180070E+03  0.21011943423E+03  0.41800000000E+01 0. -1.
</event>
<event>
11    1  0.8328696E-009  0.1452657E+03  0.7561462E-02  0.1101817E+00
         22   -1    0    0    0    0  0.00000000000E+00  0.00000000000E+00  0.62514701660E+03  0.62514701660E+03  0.00000000000E+00 0.  1.
         22   -1    0    0    0    0 -0.00000000000E+00 -0.00000000000E+00 -0.13303010880E+04  0.13303010880E+04  0.00000000000E+00 0.  1.
        -24    2    1    2    0    0 -0.51684599495E+02 -0.49655168874E+02 -0.11539112313E+04  0.11587767280E+04  0.78201292022E+02 0.  0.
         25    2    1    2    0    0  0.83854180074E+02  0.72388778343E+02 -0.12960590969E+03  0.21146255058E+03  0.12508820778E+03 0.  0.
         24    2    1    2    0    0 -0.32169580579E+02 -0.22733609469E+02  0.57836306960E+03  0.58520882598E+03  0.80086395886E+02 0.  0.
        -11    1    5    5    0    0 -0.64553527711E+01 -0.15029435890E+02  0.52700349353E+03  0.52725727848E+03  0.00000000000E+00 0.  1.
         12    1    5    5    0    0 -0.25714227808E+02 -0.77041735791E+01  0.51359576077E+02  0.57951547496E+02  0.00000000000E+00 0. -1.
         11    1    3    3    0    0 -0.14792140066E+02 -0.28984260479E+02 -0.13062963044E+03  0.13462167400E+03  0.00000000000E+00 0. -1.
        -12    1    3    3    0    0 -0.36892459429E+02 -0.20670908395E+02 -0.10232816009E+04  0.10241550540E+04  0.00000000000E+00 0.  1.
          5    1    4    4  501    0  0.69719190180E+02  0.17379496621E+02 -0.23135673668E+01  0.72011369770E+02  0.41800000000E+01 0. -1.
         -5    1    4    4    0  501  0.14134989894E+02  0.55009281722E+02 -0.12729234232E+03  0.13945118081E+03  0.41800000000E+01 0. -1.
</event>
<event>
11    1  0.8328696E-009  0.1316493E+03  0.7561462E-02  0.1117259E+00
         22   -1    0    0    0    0  0.00000000000E+00  0.00000000000E+00  0.13059156822E+03  0.13059156822E+03  0.00000000000E+00 0.  1.
         22   -1    0    0    0    0 -0.00000000000E+00 -0.00000000000E+00 -0.21017840081E+04  0.21017840081E+04  0.00000000000E+00 0.  1.
        -24    2    1    2    0    0 -0.13068714506E+02 -0.38651450113E+02 -0.18717538381E+04  0.18738522362E+04  0.78708619091E+02 0.  0.
         25    2    1    2    0    0  0.34964656929E+02  0.36292003464E+02 -0.19205426191E+03  0.23467409693E+03  0.12508978976E+03 0.  0.
         24    2    1    2    0    0 -0.21895942423E+02  0.23594466489E+01  0.92615660123E+02  0.12384924321E+03  0.79221053139E+02 0.  0.
        -11    1    5    5    0    0 -0.61075859717E+01 -0.35623041462E+02  0.64786910691E+02  0.74186572143E+02  0.00000000000E+00 0.  1.
         12    1    5    5    0    0 -0.15788356451E+02  0.37982488111E+02  0.27828749432E+02  0.49662671066E+02  0.00000000000E+00 0. -1.
         11    1    3    3    0    0 -0.85758670912E+00  0.22617913738E+02 -0.76651319626E+03  0.76684730261E+03  0.00000000000E+00 0. -1.
        -12    1    3    3    0    0 -0.12211127797E+02 -0.61269363850E+02 -0.11052406418E+04  0.11070049336E+04  0.00000000000E+00 0.  1.
          5    1    4    4  501    0 -0.18969102184E+02  0.34536076196E+02 -0.49893542744E+01  0.39936617943E+02  0.41800000000E+01 0.  1.
         -5    1    4    4    0  501  0.53933759113E+02  0.17559272679E+01 -0.18706490764E+03  0.19473747899E+03  0.41800000000E+01 0.  1.
</event>
<event>
11    1  0.8328696E-009  0.1494795E+03  0.7561462E-02  0.1097412E+00
         22   -1    0    0    0    0  0.00000000000E+00  0.00000000000E+00  0.17996101463E+03  0.17996101463E+03  0.00000000000E+00 0.  1.
         22   -1    0    0    0    0 -0.00000000000E+00 -0.00000000000E+00 -0.19536503828E+04  0.19536503828E+04  0.00000000000E+00 0.  1.
        -24    2    1    2    0    0 -0.33342906986E+02 -0.63499998125E+01 -0.71324438427E+03  0.71850899230E+03  0.79909626278E+02 0.  0.
         25    2    1    2    0    0  0.11375460435E+03 -0.60198213460E+01 -0.12131326840E+04  0.12248726963E+04  0.12508343157E+03 0.  0.
         24    2    1    2    0    0 -0.80411697369E+02  0.12369821159E+02  0.15268770007E+03  0.19022970887E+03  0.79087008001E+02 0.  0.
        -13    1    5    5    0    0 -0.80138638742E+02 -0.24281381194E+01  0.15569595493E+03  0.17512660465E+03  0.00000000000E+00 0.  1.
         14    1    5    5    0    0 -0.27305862703E+00  0.14797959278E+02 -0.30082548596E+01  0.15103104221E+02  0.00000000000E+00 0. -1.
         13    1    3    3    0    0 -0.81262335157E+01 -0.41746638940E+01 -0.62671496005E+01  0.11078838111E+02  0.00000000000E+00 0. -1.
        -14    1    3    3    0    0 -0.25216673470E+02 -0.21753359185E+01 -0.70697723467E+03  0.70743015419E+03  0.00000000000E+00 0.  1.
          5    1    4    4  501    0  0.60097982795E+02  0.91577433928E+01 -0.10616723477E+04  0.10634196152E+04  0.41800000000E+01 0. -1.
         -5    1    4    4    0  501  0.53656621559E+02 -0.15177564739E+02 -0.15146033634E+03  0.16145308109E+03  0.41800000000E+01 0. -1.
</event>
<event>
11    1  0.8328696E-009  0.1914290E+03  0.7561462E-02  0.1060756E+00
         22   -1    0    0    0    0  0.00000000000E+00  0.00000000000E+00  0.53075187406E+03  0.53075187406E+03  0.00000000000E+00 0. -1.
         22   -1    0    0    0    0 -0.00000000000E+00 -0.00000000000E+00 -0.94677567414E+02  0.94677567414E+02  0.00000000000E+00 0. -1.
        -24    2    1    2    0    0  0.45798710124E+02  0.13249264543E+03  0.98268745016E+02  0.18947766666E+03  0.81198626671E+02 0.  0.
         25    2    1    2    0    0 -0.84864143310E+02 -0.13207399492E+03  0.24571571839E+03  0.31728147935E+03  0.12508341184E+03 0.  0.
         24    2    1    2    0    0  0.39065433186E+02 -0.41865050928E+00  0.92089843237E+02  0.11867029546E+03  0.63842121360E+02 0.  0.
        -13    1    5    5    0    0  0.45766911682E+02  0.22255549712E+02  0.57695550983E+02  0.76933063770E+02  0.00000000000E+00 0.  1.
         14    1    5    5    0    0 -0.67014784962E+01 -0.22674200222E+02  0.34394292255E+02  0.41737231693E+02  0.00000000000E+00 0. -1.
         13    1    3    3    0    0  0.29343824026E+02  0.11086167425E+03  0.33866551092E+02  0.11957555816E+03  0.00000000000E+00 0. -1.
        -14    1    3    3    0    0  0.16454886099E+02  0.21630971183E+02  0.64402193924E+02  0.69902108502E+02  0.00000000000E+00 0.  1.
          5    1    4    4  501    0 -0.59805555469E+02 -0.97817209794E+02  0.65542855626E+02  0.13212966859E+03  0.41800000000E+01 0.  1.
         -5    1    4    4    0  501 -0.25058587841E+02 -0.34256785130E+02  0.18017286276E+03  0.18515181076E+03  0.41800000000E+01 0.  1.
</event>
<event>
11    1  0.8328696E-009  0.1625034E+03  0.7561462E-02  0.1084746E+00
         22   -1    0    0    0    0  0.00000000000E+00  0.00000000000E+00  0.16089070757E+03  0.16089070757E+03  0.00000000000E+00 0.  1.
         22   -1    0    0    0    0 -0.00000000000E+00 -0.00000000000E+00 -0.17897425520E+04  0.17897425520E+04  0.00000000000E+00 0.  1.
         24    2    1    2    0    0  0.29894361326E+02  0.98709838057E+02 -0.16680665622E+04  0.16732269573E+04  0.81271703756E+02 0.  0.
         25    2    1    2    0    0 -0.66481487806E+02 -0.10923189815E+03 -0.24853600414E+01  0.17890012817E+03  0.12509069929E+03 0.  0.
        -24    2    1    2    0    0  0.36587126480E+02  0.10522060095E+02  0.41700077808E+02  0.98506174085E+02  0.80717025905E+02 0.  0.
        -13    1    3    3    0    0  0.57580207063E+02  0.57046603873E+02 -0.98240420369E+03  0.98574226585E+03  0.00000000000E+00 0.  1.
         14    1    3    3    0    0 -0.27685845736E+02  0.41663234184E+02 -0.68566235849E+03  0.68748469146E+03  0.00000000000E+00 0. -1.
         13    1    5    5    0    0 -0.12093343570E+02  0.16440128961E+02  0.44943288490E+02  0.49360165916E+02  0.00000000000E+00 0. -1.
        -14    1    5    5    0    0  0.48680470050E+02 -0.59180688657E+01 -0.32432106823E+01  0.49146008168E+02  0.00000000000E+00 0.  1.
          5    1    4    4  501    0 -0.25765459385E+02 -0.10312721226E+03 -0.48586655774E+02  0.11694963157E+03  0.41800000000E+01 0. -1.
         -5    1    4    4    0  501 -0.40716028421E+02 -0.61046858916E+01  0.46101295733E+02  0.61950496596E+02  0.41800000000E+01 0. -1.
</event>
<event>
11    1  0.8328696E-009  0.1681623E+03  0.7561462E-02  0.1079642E+00
         22   -1    0    0    0    0  0.00000000000E+00  0.00000000000E+00  0.23459335355E+04  0.23459335355E+04  0.00000000000E+00 0.  1.
         22   -1    0    0    0    0 -0.00000000000E+00 -0.00000000000E+00 -0.16444209380E+03  0.16444209380E+03  0.00000000000E+00 0.  1.
        -24    2    1    2    0    0 -0.44838766669E+02  0.10427824983E+03 -0.12360926120E+03  0.18463970128E+03  0.76994165036E+02 0.  0.
         25    2    1    2    0    0 -0.63797664815E+02 -0.10025958392E+03  0.11970290960E+04  0.12094004054E+04  0.12509419570E+03 0.  0.
         24    2    1    2    0    0  0.10863643148E+03 -0.40186659162E+01  0.11080716069E+04  0.11163355226E+04  0.81020300237E+02 0.  0.
        -11    1    5    5    0    0  0.85586827158E+02  0.27820384100E+02  0.90730396187E+03  0.91175630405E+03  0.00000000000E+00 0.  1.
         12    1    5    5    0    0  0.23049604327E+02 -0.31839050016E+02  0.20076764507E+03  0.20457921857E+03  0.00000000000E+00 0. -1.
         11    1    3    3    0    0 -0.90544798039E+01  0.49791067344E+01  0.99924722650E+01  0.14374442958E+02  0.00000000000E+00 0. -1.
        -12    1    3    3    0    0 -0.35784286865E+02  0.99299143098E+02 -0.13360173346E+03  0.17026525832E+03  0.00000000000E+00 0.  1.
          5    1    4    4  501    0 -0.11649598456E+02  0.11512987222E+02  0.57493901706E+03  0.57518745445E+03  0.41800000000E+01 0.  1.
         -5    1    4    4    0  501 -0.52148066360E+02 -0.11177257114E+03  0.62209007889E+03  0.63421295094E+03  0.41800000000E+01 0.  1.
</event>
<event>
11    1  0.8328696E-009  0.1436561E+03  0.7561462E-02  0.1103543E+00
         22   -1    0    0    0    0  0.00000000000E+00  0.00000000000E+00  0.13668387875E+03  0.13668387875E+03  0.00000000000E+00 0.  1.
         22   -1    0    0    0    0 -0.00000000000E+00 -0.00000000000E+00 -0.11453754454E+04  0.11453754454E+04  0.00000000000E+00 0.  1.
        -24    2    1    2    0    0 -0.32800320766E+02 -0.57217625025E+02 -0.58721187956E+03  0.59641296714E+03  0.80875943393E+02 0.  0.
         25    2    1    2    0    0  0.81452472713E+02  0.41945235112E+02 -0.52379203567E+03  0.54626035145E+03  0.12509343259E+03 0.  0.
         24    2    1    2    0    0 -0.48652151948E+02  0.15272389913E+02  0.10231234861E+03  0.13938600552E+03  0.79751890724E+02 0.  0.
        -13    1    5    5    0    0 -0.12009542369E+02 -0.20583626342E+02  0.79999562447E+02  0.83473617228E+02  0.00000000000E+00 0.  1.
         14    1    5    5    0    0 -0.36642609578E+02  0.35856016255E+02  0.22312786165E+02  0.55912388295E+02  0.00000000000E+00 0. -1.
         13    1    3    3    0    0  0.53477580866E+01  0.76530429429E+01 -0.78906427519E+01  0.12224149291E+02  0.00000000000E+00 0. -1.
        -14    1    3    3    0    0 -0.38148078852E+02 -0.64870667968E+02 -0.57932123681E+03  0.58418881785E+03  0.00000000000E+00 0.  1.
          5    1    4    4  501    0  0.10138611199E+03  0.23146438684E+02 -0.24629921860E+03  0.26738675885E+03  0.41800000000E+01 0.  1.
         -5    1    4    4    0  501 -0.19933639276E+02  0.18798796428E+02 -0.27749281707E+03  0.27887359260E+03  0.41800000000E+01 0.  1.
</event>
<event>
11    1  0.8328696E-009  0.2214271E+03  0.7561462E-02  0.1040327E+00
         22   -1    0    0    0    0  0.00000000000E+00  0.00000000000E+00  0.16592846034E+04  0.16592846034E+04  0.00000000000E+00 0.  1.
         22   -1    0    0    0    0 -0.00000000000E+00 -0.00000000000E+00 -0.15267910724E+03  0.15267910724E+03  0.00000000000E+00 0. -1.
         24    2    1    2    0    0 -0.73163305091E+02  0.10222759184E+03  0.15396686680E+03  0.21424251912E+03  0.79941923815E+02 0.  0.
         25    2    1    2    0    0  0.17514264927E+03 -0.24451095842E+03  0.11542478994E+03  0.34558830940E+03  0.12509133097E+03 0.  0.
        -24    2    1    2    0    0 -0.10197934418E+03  0.14228336658E+03  0.12372138394E+04  0.12521328821E+04  0.80587387208E+02 0.  0.
        -13    1    3    3    0    0 -0.64214442185E+02  0.43900011439E+02  0.12797710073E+03  0.14976262518E+03  0.00000000000E+00 0.  1.
         14    1    3    3    0    0 -0.89488629060E+01  0.58327580399E+02  0.25989766069E+02  0.64479893943E+02  0.00000000000E+00 0. -1.
         11    1    5    5    0    0 -0.78810465348E+02  0.55024270377E+02  0.47786870994E+03  0.48743949750E+03  0.00000000000E+00 0. -1.
        -12    1    5    5    0    0 -0.23168878830E+02  0.87259096202E+02  0.75934512944E+03  0.76469338458E+03  0.00000000000E+00 0.  1.
          5    1    4    4  501    0  0.55653695404E+02 -0.17106810701E+03  0.95952343897E+02  0.20392634883E+03  0.41800000000E+01 0. -1.
         -5    1    4    4    0  501  0.11948895387E+03 -0.73442851411E+02  0.19472446040E+02  0.14166196058E+03  0.41800000000E+01 0. -1.
</event>
<event>
11    1  0.8328696E-009  0.1500511E+03  0.7561462E-02  0.1096827E+00
         22   -1    0    0    0    0  0.00000000000E+00  0.00000000000E+00  0.56122739850E+03  0.56122739850E+03  0.00000000000E+00 0.  1.
         22   -1    0    0    0    0 -0.00000000000E+00 -0.00000000000E+00 -0.99770019752E+03  0.99770019752E+03  0.00000000000E+00 0.  1.
        -24    2    1    2    0    0  0.12800288263E+02  0.74998782686E+02 -0.67555641134E+03  0.68492698642E+03  0.83425697743E+02 0.  0.
         25    2    1    2    0    0 -0.32813572541E+02 -0.11276933332E+03 -0.29003847995E+03  0.33699300267E+03  0.12509320892E+03 0.  0.
         24    2    1    2    0    0  0.20013284278E+02  0.37770550632E+02  0.52912209228E+03  0.53700760692E+03  0.81116184064E+02 0.  0.
        -13    1    5    5    0    0  0.22987165128E+02  0.61343870455E+02  0.32728418508E+03  0.33377599975E+03  0.00000000000E+00 0.  1.
         14    1    5    5    0    0 -0.29738808504E+01 -0.23573319824E+02  0.20183790720E+03  0.20323160718E+03  0.00000000000E+00 0. -1.
         13    1    3    3    0    0 -0.20994802612E+02  0.11310237013E+02 -0.51898649019E+02  0.57115435461E+02  0.00000000000E+00 0. -1.
        -14    1    3    3    0    0  0.33795090875E+02  0.63688545673E+02 -0.62365776232E+03  0.62781155096E+03  0.00000000000E+00 0.  1.
          5    1    4    4  501    0 -0.52904350171E+02 -0.19395439899E+01 -0.55709536645E+02  0.76965297187E+02  0.41800000000E+01 0. -1.
         -5    1    4    4    0  501  0.20090777630E+02 -0.11082978933E+03 -0.23432894331E+03  0.26002770549E+03  0.41800000000E+01 0. -1.
</event>
<event>
11    1  0.8328696E-009  0.1486560E+03  0.7561462E-02  0.1098260E+00
         22   -1    0    0    0    0  0.00000000000E+00  0.00000000000E+00  0.50108174598E+03  0.50108174598E+03  0.00000000000E+00 0. -1.
         22   -1    0    0    0    0 -0.00000000000E+00 -0.00000000000E+00 -0.51887469476E+03  0.51887469476E+03  0.00000000000E+00 0. -1.
         24    2    1    2    0    0 -0.78312897776E+02  0.74738563630E+01 -0.41586400778E+03  0.43116054020E+03  0.82266457179E+02 0.  0.
         25    2    1    2    0    0  0.92679819882E+02 -0.26728140806E+02 -0.22681368706E+02  0.15958478148E+03  0.12509562530E+03 0.  0.
        -24    2    1    2    0    0 -0.14366922106E+02  0.19254284443E+02  0.42075242770E+03  0.42921111906E+03  0.81316931766E+02 0.  0.
        -13    1    3    3    0    0  0.60025992507E+00 -0.27358059498E+02 -0.89513118750E+02  0.93602468770E+02  0.00000000000E+00 0.  1.
         14    1    3    3    0    0 -0.78913157702E+02  0.34831915861E+02 -0.32635088903E+03  0.33755807144E+03  0.00000000000E+00 0. -1.
         13    1    5    5    0    0 -0.25825460470E+02  0.85031982488E+01  0.40818857449E+03  0.40909310814E+03  0.00000000000E+00 0. -1.
        -14    1    5    5    0    0  0.11458538364E+02  0.10751086194E+02  0.12563853213E+02  0.20118010919E+02  0.00000000000E+00 0.  1.
          5    1    4    4  501    0  0.21936926572E+02  0.24343520468E+00 -0.67777827665E+02  0.71362415395E+02  0.41800000000E+01 0. -1.
         -5    1    4    4    0  501  0.70742893311E+02 -0.26971576011E+02  0.45096458959E+02  0.88222366082E+02  0.41800000000E+01 0. -1.
</event>
<event>
11    1  0.8328696E-009  0.1637251E+03  0.7561462E-02  0.1083625E+00
         22   -1    0    0    0    0  0.00000000000E+00  0.00000000000E+00  0.79786313135E+03  0.79786313135E+03  0.00000000000E+00 0. -1.
         22   -1    0    0    0    0 -0.00000000000E+00 -0.00000000000E+00 -0.50556608298E+03  0.50556608298E+03  0.00000000000E+00 0.  1.
        -24    2    1    2    0    0 -0.11168292781E+02 -0.99933713945E+00 -0.37485174876E+03  0.38335642785E+03  0.79514701712E+02 0.  0.
         25    2    1    2    0    0  0.11624252231E+03 -0.17553440338E+01 -0.60007098972E+02  0.18100676275E+03  0.12508873254E+03 0.  0.
         24    2    1    2    0    0 -0.10507422953E+03  0.27546811732E+01  0.72715589610E+03  0.73906602374E+03  0.80091873700E+02 0.  0.
        -13    1    5    5    0    0 -0.78312996192E+02 -0.11703631315E+02  0.28297219080E+03  0.29384206834E+03  0.00000000000E+00 0.  1.
         14    1    5    5    0    0 -0.26761233340E+02  0.14458312489E+02  0.44418370530E+03  0.44522395540E+03  0.00000000000E+00 0. -1.
         13    1    3    3    0    0 -0.23670425466E+02 -0.56951813704E+00 -0.29722442088E+02  0.38000486264E+02  0.00000000000E+00 0. -1.
        -14    1    3    3    0    0  0.12502132684E+02 -0.42981900241E+00 -0.34512930667E+03  0.34535594158E+03  0.00000000000E+00 0.  1.
          5    1    4    4  501    0  0.96290302467E+02  0.54341658723E+02 -0.45126758045E+02  0.11949366056E+03  0.41800000000E+01 0. -1.
         -5    1    4    4    0  501  0.19952219846E+02 -0.56097002757E+02 -0.14880340927E+02  0.61513102191E+02  0.41800000000E+01 0. -1.
</event>
<event>
11    1  0.8328696E-009  0.1812763E+03  0.7561462E-02  0.1068615E+00
         22   -1    0    0    0    0  0.00000000000E+00  0.00000000000E+00  0.81101400308E+03  0.81101400308E+03  0.00000000000E+00 0.  1.
         22   -1    0    0    0    0 -0.00000000000E+00 -0.00000000000E+00 -0.66380075720E+03  0.66380075720E+03  0.00000000000E+00 0.  1.
         24    2    1    2    0    0  0.61598292251E+02  0.12502705108E+03 -0.55692205025E+03  0.57966958039E+03  0.80178172011E+02 0.  0.
         25    2    1    2    0    0 -0.37246659515E+02 -0.77716320396E+02 -0.29499119930E+02  0.15474173376E+03  0.12509063110E+03 0.  0.
        -24    2    1    2    0    0 -0.24351632736E+02 -0.47310730686E+02  0.73363441606E+03  0.74040344613E+03  0.84536970329E+02 0.  0.
        -13    1    3    3    0    0  0.67797476028E+02  0.11365008117E+03 -0.54844844901E+03  0.56418839046E+03  0.00000000000E+00 0.  1.
         14    1    3    3    0    0 -0.61991837768E+01  0.11376969908E+02 -0.84736012392E+01  0.15481189933E+02  0.00000000000E+00 0. -1.
         11    1    5    5    0    0 -0.16540003825E+02  0.62908066198E+01  0.31085897611E+02  0.35769805769E+02  0.00000000000E+00 0. -1.
        -12    1    5    5    0    0 -0.78116289108E+01 -0.53601537306E+02  0.70254851845E+03  0.70463364036E+03  0.00000000000E+00 0.  1.
          5    1    4    4  501    0  0.19853677432E+02  0.24987394761E+02 -0.17259254795E+02  0.36522495542E+02  0.41800000000E+01 0. -1.
         -5    1    4    4    0  501 -0.57100336947E+02 -0.10270371516E+03 -0.12239865135E+02  0.11821923822E+03  0.41800000000E+01 0. -1.
</event>
<event>
11    1  0.8328696E-009  0.1473671E+03  0.7561462E-02  0.1099600E+00
         22   -1    0    0    0    0  0.00000000000E+00  0.00000000000E+00  0.21580358693E+04  0.21580358693E+04  0.00000000000E+00 0.  1.
         22   -1    0    0    0    0 -0.00000000000E+00 -0.00000000000E+00 -0.16511541647E+03  0.16511541647E+03  0.00000000000E+00 0.  1.
         24    2    1    2    0    0  0.14767578570E+02 -0.13076906033E+02 -0.60970253515E+02  0.10319981658E+03  0.80893408144E+02 0.  0.
         25    2    1    2    0    0  0.61143267659E+02  0.31346253275E+02 -0.19066577723E+02  0.14400385595E+03  0.12510990915E+03 0.  0.
        -24    2    1    2    0    0 -0.75910846229E+02 -0.18269347242E+02  0.20729572841E+04  0.20759476133E+04  0.79437810605E+02 0.  0.
        -11    1    3    3    0    0  0.26491810571E+02 -0.43297744337E+02 -0.34868938096E+02  0.61582087785E+02  0.00000000000E+00 0.  1.
         12    1    3    3    0    0 -0.11724232001E+02  0.30220838304E+02 -0.26101315419E+02  0.41617728799E+02  0.00000000000E+00 0. -1.
         13    1    5    5    0    0  0.97043395153E+01 -0.18093648587E+02  0.71459841679E+03  0.71489331484E+03  0.00000000000E+00 0. -1.
        -14    1    5    5    0    0 -0.85615185744E+02 -0.17569865501E+00  0.13583588673E+04  0.13610542984E+04  0.00000000000E+00 0.  1.
          5    1    4    4  501    0  0.77393668720E+02 -0.14650281066E+02 -0.42636257860E+02  0.89664561437E+02  0.41800000000E+01 0. -1.
         -5    1    4    4    0  501 -0.16250401062E+02  0.45996534341E+02  0.23569680137E+02  0.54339294509E+02  0.41800000000E+01 0. -1.
</event>
<event>
11    1  0.8328696E-009  0.2658828E+03  0.7561462E-02  0.1015763E+00
         22   -1    0    0    0    0  0.00000000000E+00  0.00000000000E+00  0.38733622262E+03  0.38733622262E+03  0.00000000000E+00 0.  1.
         22   -1    0    0    0    0 -0.00000000000E+00 -0.00000000000E+00 -0.81165546901E+03  0.81165546901E+03  0.00000000000E+00 0. -1.
        -24    2    1    2    0    0  0.55896651981E+02  0.10127191269E+03 -0.43992681218E+03  0.46711792714E+03  0.10622203995E+03 0.  0.
         25    2    1    2    0    0 -0.60890896577E+02 -0.32138719458E+03 -0.20856275288E+03  0.40760786825E+03  0.12509325421E+03 0.  0.
         24    2    1    2    0    0  0.49942445957E+01  0.22011528188E+03  0.22417031868E+03  0.32426589624E+03  0.80127148284E+02 0.  0.
        -11    1    5    5    0    0 -0.17460973093E+02  0.12145217117E+03  0.16951369967E+03  0.20926158234E+03  0.00000000000E+00 0.  1.
         12    1    5    5    0    0  0.22455217689E+02  0.98663110710E+02  0.54656619004E+02  0.11500431391E+03  0.00000000000E+00 0. -1.
         13    1    3    3    0    0  0.61863926505E+02  0.18216131153E+02 -0.11665982547E+03  0.13329849105E+03  0.00000000000E+00 0. -1.
        -14    1    3    3    0    0 -0.59672745239E+01  0.83055781541E+02 -0.32326698671E+03  0.33381943609E+03  0.00000000000E+00 0.  1.
          5    1    4    4  501    0  0.12862571652E+02 -0.45107525957E+02  0.94135611617E+01  0.48023142142E+02  0.41800000000E+01 0. -1.
         -5    1    4    4    0  501 -0.73753468228E+02 -0.27627966862E+03 -0.21797631404E+03  0.35958472611E+03  0.41800000000E+01 0. -1.
</event>
<event>
11    1  0.8328696E-009  0.1471164E+03  0.7561462E-02  0.1099862E+00
         22   -1    0    0    0    0  0.00000000000E+00  0.00000000000E+00  0.26843224102E+04  0.26843224102E+04  0.00000000000E+00 0.  1.
         22   -1    0    0    0    0 -0.00000000000E+00 -0.00000000000E+00 -0.11908469974E+03  0.11908469974E+03  0.00000000000E+00 0. -1.
        -24    2    1    2    0    0  0.19244641741E+02 -0.36209654618E+02 -0.83186428772E+02  0.12343908545E+03  0.81459993623E+02 0.  0.
         25    2    1    2    0    0 -0.17329709108E+02  0.11036382472E+03  0.47550252527E+03  0.50421757236E+03  0.12510881709E+03 0.  0.
         24    2    1    2    0    0 -0.19149326333E+01 -0.74154170101E+02  0.21729216139E+04  0.21757504521E+04  0.82457150249E+02 0.  0.
        -13    1    5    5    0    0 -0.22543974473E+02 -0.79996488274E+02  0.13541440570E+04  0.13566922260E+04  0.00000000000E+00 0.  1.
         14    1    5    5    0    0  0.20629041839E+02  0.58423181731E+01  0.81877755689E+03  0.81905822608E+03  0.00000000000E+00 0. -1.
         13    1    3    3    0    0  0.21502354237E+01 -0.52518529111E+02 -0.84787799963E+02  0.99758660952E+02  0.00000000000E+00 0. -1.
        -14    1    3    3    0    0  0.17094406317E+02  0.16308874494E+02  0.16013711908E+01  0.23680424495E+02  0.00000000000E+00 0.  1.
          5    1    4    4  501    0 -0.15770918909E+02  0.80548635589E+01  0.39593527473E+00  0.18199776783E+02  0.41800000000E+01 0.  1.
         -5    1    4    4    0  501 -0.15587901984E+01  0.10230896116E+03  0.47510658999E+03  0.48601779557E+03  0.41800000000E+01 0.  1.
</event>
<event>
11    1  0.8328696E-009  0.1905345E+03  0.7561462E-02  0.1061427E+00
         22   -1    0    0    0    0  0.00000000000E+00  0.00000000000E+00  0.10131037385E+03  0.10131037385E+03  0.00000000000E+00 0. -1.
         22   -1    0    0    0    0 -0.00000000000E+00 -0.00000000000E+00 -0.60688952442E+03  0.60688952442E+03  0.00000000000E+00 0.  1.
         24    2    1    2    0    0  0.92445714833E+01 -0.23661398003E+02 -0.25778144259E+03  0.27116691304E+03  0.80217820506E+02 0.  0.
         25    2    1    2    0    0 -0.87666946317E+02  0.12777783938E+03 -0.92714234087E+02  0.21968809860E+03  0.12511699225E+03 0.  0.
        -24    2    1    2    0    0  0.78422374834E+02 -0.10411644138E+03 -0.15508347389E+03  0.21734488663E+03  0.78724923826E+02 0.  0.
        -11    1    3    3    0    0  0.31414062908E+02  0.18476918712E+02 -0.11782732257E+03  0.12333498213E+03  0.00000000000E+00 0.  1.
         12    1    3    3    0    0 -0.22169491425E+02 -0.42138316714E+02 -0.13995412002E+03  0.14783193091E+03  0.00000000000E+00 0. -1.
         13    1    5    5    0    0  0.56860874713E+02 -0.17838486528E+02 -0.39447354767E+02  0.71466526940E+02  0.00000000000E+00 0. -1.
        -14    1    5    5    0    0  0.21561500121E+02 -0.86277954852E+02 -0.11563611912E+03  0.14587835969E+03  0.00000000000E+00 0.  1.
          5    1    4    4  501    0 -0.52512839735E+02  0.11929893402E+02 -0.81850153453E+02  0.98065491963E+02  0.41800000000E+01 0.  1.
         -5    1    4    4    0  501 -0.35154106582E+02  0.11584794598E+03 -0.10864080634E+02  0.12162260664E+03  0.41800000000E+01 0.  1.
</event>
<event>
11    1  0.8328696E-009  0.2079588E+03  0.7561462E-02  0.1049034E+00
         22   -1    0    0    0    0  0.00000000000E+00  0.00000000000E+00  0.87956590459E+02  0.87956590459E+02  0.00000000000E+00 0. -1.
         22   -1    0    0    0    0 -0.00000000000E+00 -0.00000000000E+00 -0.15997930203E+04  0.15997930203E+04  0.00000000000E+00 0.  1.
        -24    2    1    2    0    0  0.44011628469E+02  0.69255882982E+02 -0.81664487572E+03  0.82470694853E+03  0.80618218466E+02 0.  0.
         25    2    1    2    0    0 -0.29507609201E+02 -0.22321087031E+03 -0.61773154321E+03  0.66927335199E+03  0.12506305840E+03 0.  0.
         24    2    1    2    0    0 -0.14504019269E+02  0.15395498732E+03 -0.77460010918E+02  0.19376931025E+03  0.87372693710E+02 0.  0.
        -11    1    5    5    0    0 -0.35865222577E+02  0.43001375093E+02 -0.55155991069E+02  0.78597810410E+02  0.00000000000E+00 0.  1.
         12    1    5    5    0    0  0.21361203308E+02  0.11095361223E+03 -0.22304019849E+02  0.11517149984E+03  0.00000000000E+00 0. -1.
         13    1    3    3    0    0  0.63398353083E+02  0.55701574335E+02 -0.73100134664E+03  0.73585663369E+03  0.00000000000E+00 0. -1.
        -14    1    3    3    0    0 -0.19386724613E+02  0.13554308646E+02 -0.85643529085E+02  0.88850314846E+02  0.00000000000E+00 0.  1.
          5    1    4    4  501    0 -0.21971236841E+02 -0.14621256948E+03 -0.22702615685E+03  0.27095977380E+03  0.41800000000E+01 0. -1.
         -5    1    4    4    0  501 -0.75363723594E+01 -0.76998300828E+02 -0.39070538636E+03  0.39831357819E+03  0.41800000000E+01 0. -1.
</event>
<event>
11    1  0.8328696E-009  0.1556193E+03  0.7561462E-02  0.1091271E+00
         22   -1    0    0    0    0  0.00000000000E+00  0.00000000000E+00  0.14730475811E+03  0.14730475811E+03  0.00000000000E+00 0. -1.
         22   -1    0    0    0    0 -0.00000000000E+00 -0.00000000000E+00 -0.52288602523E+03  0.52288602523E+03  0.00000000000E+00 0.  1.
         24    2    1    2    0    0  0.16146912819E+02  0.85708657561E+02 -0.33448191471E+03  0.35489746877E+03  0.80419930969E+02 0.  0.
         25    2    1    2    0    0 -0.11732501446E+02 -0.11706044065E+03 -0.10931102712E+03  0.20356107559E+03  0.12508961783E+03 0.  0.
        -24    2    1    2    0    0 -0.44144113729E+01  0.31351783084E+02  0.68211674725E+02  0.11173223898E+03  0.82636791613E+02 0.  0.
        -13    1    3    3    0    0  0.31115956722E+02  0.90593474805E+02 -0.31795515248E+03  0.33207056393E+03  0.00000000000E+00 0.  1.
         14    1    3    3    0    0 -0.14969043903E+02 -0.48848172435E+01 -0.16526762238E+02  0.22826904848E+02  0.00000000000E+00 0. -1.
         11    1    5    5    0    0 -0.24057316986E+02  0.53577026537E+02  0.42756288482E+02  0.72645388552E+02  0.00000000000E+00 0. -1.
        -12    1    5    5    0    0  0.19642905613E+02 -0.22225243453E+02  0.25455386243E+02  0.39086850427E+02  0.00000000000E+00 0.  1.
          5    1    4    4  501    0  0.52321353536E+02 -0.64293928836E+02 -0.80471376480E+02  0.11560427394E+03  0.41800000000E+01 0. -1.
         -5    1    4    4    0  501 -0.64053854982E+02 -0.52766511809E+02 -0.28839650644E+02  0.87956801646E+02  0.41800000000E+01 0. -1.
</event>
<event>
11    1  0.8328696E-009  0.1405699E+03  0.7561462E-02  0.1106924E+00
         22   -1    0    0    0    0  0.00000000000E+00  0.00000000000E+00  0.13151737721E+04  0.13151737721E+04  0.00000000000E+00 0.  1.
         22   -1    0    0    0    0 -0.00000000000E+00 -0.00000000000E+00 -0.10700125827E+04  0.10700125827E+04  0.00000000000E+00 0. -1.
        -24    2    1    2    0    0 -0.17863311674E+02  0.29859611103E+02 -0.10472652017E+04  0.10508860085E+04  0.79914366442E+02 0.  0.
         25    2    1    2    0    0 -0.48412803518E+02 -0.28510619137E+02  0.23762429482E+03  0.27435384600E+03  0.12509225547E+03 0.  0.
         24    2    1    2    0    0  0.66276115192E+02 -0.13489919665E+01  0.10548020962E+04  0.10599465003E+04  0.80528119783E+02 0.  0.
        -13    1    5    5    0    0  0.53131814285E+02  0.35001810796E+02  0.75208813521E+03  0.75477458858E+03  0.00000000000E+00 0.  1.
         14    1    5    5    0    0  0.13144300907E+02 -0.36350802762E+02  0.30271396099E+03  0.30517191169E+03  0.00000000000E+00 0. -1.
         13    1    3    3    0    0 -0.36948457433E+02  0.19461923455E+02 -0.96161497055E+03  0.96252132785E+03  0.00000000000E+00 0. -1.
        -14    1    3    3    0    0  0.19085145760E+02  0.10397687648E+02 -0.85650231099E+02  0.88364680639E+02  0.00000000000E+00 0.  1.
          5    1    4    4  501    0 -0.20689108359E+02 -0.39107123469E+02  0.11032866641E+02  0.45788676079E+02  0.41800000000E+01 0. -1.
         -5    1    4    4    0  501 -0.27723695159E+02  0.10596504332E+02  0.22659142818E+03  0.22856516992E+03  0.41800000000E+01 0. -1.
</event>
<event>
11    1  0.8328696E-009  0.2148663E+03  0.7561462E-02  0.1044482E+00
         22   -1    0    0    0    0  0.00000000000E+00  0.00000000000E+00  0.13799251536E+04  0.13799251536E+04  0.00000000000E+00 0.  1.
         22   -1    0    0    0    0 -0.00000000000E+00 -0.00000000000E+00 -0.11468059531E+04  0.11468059531E+04  0.00000000000E+00 0.  1.
         24    2    1    2    0    0 -0.75025419144E+01  0.15511414805E+02 -0.10296830690E+04  0.10329141327E+04  0.79796559010E+02 0.  0.
         25    2    1    2    0    0 -0.13488884500E+03 -0.11639202127E+03  0.13405239216E+01  0.21770401834E+03  0.12510451421E+03 0.  0.
        -24    2    1    2    0    0  0.14239138691E+03  0.10088060647E+03  0.12614617457E+04  0.12761129557E+04  0.82014242644E+02 0.  0.
        -11    1    3    3    0    0  0.10149062250E+02  0.37307257726E+02 -0.86470859921E+03  0.86557252526E+03  0.00000000000E+00 0.  1.
         12    1    3    3    0    0 -0.17651604165E+02 -0.21795842921E+02 -0.16497446979E+03  0.16734160744E+03  0.00000000000E+00 0. -1.
         13    1    5    5    0    0  0.22250146742E+02 -0.98346386587E+01  0.28908101608E+03  0.29010278007E+03  0.00000000000E+00 0. -1.
        -14    1    5    5    0    0  0.12014124017E+03  0.11071524513E+03  0.97238072959E+03  0.98601017559E+03  0.00000000000E+00 0.  1.
          5    1    4    4  501    0 -0.14034206664E+03 -0.12965149545E+03  0.21827104310E+02  0.19235202319E+03  0.41800000000E+01 0. -1.
         -5    1    4    4    0  501  0.54532216457E+01  0.13259474180E+02 -0.20486580389E+02  0.25351995146E+02  0.41800000000E+01 0. -1.
</event>
<event>
11    1  0.8328696E-009  0.1464304E+03  0.7561462E-02  0.1100583E+00
         22   -1    0    0    0    0  0.00000000000E+00  0.00000000000E+00  0.30747676569E+03  0.30747676569E+03  0.00000000000E+00 0. -1.
         22   -1    0    0    0    0 -0.00000000000E+00 -0.00000000000E+00 -0.39384458473E+03  0.39384458473E+03  0.00000000000E+00 0.  1.
         24    2    1    2    0    0 -0.60803603527E+02 -0.78405534840E+01 -0.13913648058E+03  0.17204552736E+03  0.80511805195E+02 0.  0.
         25    2    1    2    0    0  0.10664058783E+03 -0.50968359908E+02 -0.19400057735E+03  0.25933266742E+03  0.12508884720E+03 0.  0.
        -24    2    1    2    0    0 -0.45836984306E+02  0.58808913392E+02  0.24676923890E+03  0.26994315564E+03  0.80092025739E+02 0.  0.
        -13    1    3    3    0    0 -0.65116793462E+02 -0.61525207393E+01 -0.14813098711E+03  0.16192850164E+03  0.00000000000E+00 0.  1.
         14    1    3    3    0    0  0.43131899354E+01 -0.16880327447E+01  0.89945065208E+01  0.10117025725E+02  0.00000000000E+00 0. -1.
         11    1    5    5    0    0 -0.61219794848E+02  0.37429657717E+02  0.22371275967E+03  0.23493880352E+03  0.00000000000E+00 0. -1.
        -12    1    5    5    0    0  0.15382810542E+02  0.21379255675E+02  0.23056479227E+02  0.35004352125E+02  0.00000000000E+00 0.  1.
          5    1    4    4  501    0 -0.13305103719E+01  0.31172458505E+02 -0.15496417100E+02  0.35087088367E+02  0.41800000000E+01 0. -1.
         -5    1    4    4    0  501  0.10797109820E+03 -0.82140818413E+02 -0.17850416025E+03  0.22424557905E+03  0.41800000000E+01 0. -1.
</event>
<event>
11    1  0.8328696E-009  0.1474731E+03  0.7561462E-02  0.1099489E+00
         22   -1    0    0    0    0  0.00000000000E+00  0.00000000000E+00  0.47799851807E+03  0.47799851807E+03  0.00000000000E+00 0.  1.
         22   -1    0    0    0    0 -0.00000000000E+00 -0.00000000000E+00 -0.22091552811E+03  0.22091552811E+03  0.00000000000E+00 0. -1.
        -24    2    1    2    0    0  0.73910473316E+02  0.26126960544E+02 -0.15733377152E+03  0.19366642852E+03  0.81285876649E+02 0.  0.
         25    2    1    2    0    0 -0.47119129626E+02 -0.85306525139E+02  0.13593047139E+03  0.20885840455E+03  0.12508926609E+03 0.  0.
         24    2    1    2    0    0 -0.26791343690E+02  0.59179564595E+02  0.27848629008E+03  0.29638921311E+03  0.77922749718E+02 0.  0.
        -11    1    5    5    0    0 -0.16536543428E+02  0.55077642528E+02  0.27944704861E+03  0.28530274614E+03  0.00000000000E+00 0.  1.
         12    1    5    5    0    0 -0.10254800262E+02  0.41019220663E+01 -0.96075853063E+00  0.11086466976E+02  0.00000000000E+00 0. -1.
         11    1    3    3    0    0  0.54353124466E+02  0.43788320566E+02 -0.15131359230E+03  0.16663577759E+03  0.00000000000E+00 0. -1.
        -12    1    3    3    0    0  0.19557348849E+02 -0.17661360022E+02 -0.60201792114E+01  0.27030650928E+02  0.00000000000E+00 0.  1.
          5    1    4    4  501    0  0.23271164549E+02 -0.27123497139E+02  0.10712743007E+03  0.11300880439E+03  0.41800000000E+01 0.  1.
         -5    1    4    4    0  501 -0.70390294174E+02 -0.58183028000E+02  0.28803041315E+02  0.95849600157E+02  0.41800000000E+01 0.  1.
</event>
<event>
11    1  0.8328696E-009  0.1315950E+03  0.7561462E-02  0.1117325E+00
         22   -1    0    0    0    0  0.00000000000E+00  0.00000000000E+00  0.41729584060E+03  0.41729584060E+03  0.00000000000E+00 0.  1.
         22   -1    0    0    0    0 -0.00000000000E+00 -0.00000000000E+00 -0.12208655416E+03  0.12208655416E+03  0.00000000000E+00 0. -1.
         24    2    1    2    0    0 -0.36374018758E+02 -0.12319476662E+02 -0.48673201236E+02  0.10341756409E+03  0.82772418700E+02 0.  0.
         25    2    1    2    0    0  0.48547007567E+02  0.16079953526E+02  0.74249665551E+02  0.15419342912E+03  0.12508886401E+03 0.  0.
        -24    2    1    2    0    0 -0.12172988809E+02 -0.37604768637E+01  0.26963282213E+03  0.28177140155E+03  0.80814238359E+02 0.  0.
        -11    1    3    3    0    0 -0.16652666000E+02 -0.55783323670E+01  0.22907223450E+02  0.28864683665E+02  0.00000000000E+00 0.  1.
         12    1    3    3    0    0 -0.19721352758E+02 -0.67411442950E+01 -0.71580424686E+02  0.74552880422E+02  0.00000000000E+00 0. -1.
         13    1    5    5    0    0 -0.11245752710E+02  0.20760384012E+02  0.20021270390E+02  0.30956611028E+02  0.00000000000E+00 0. -1.
        -14    1    5    5    0    0 -0.92723609914E+00 -0.24520860875E+02  0.24961155174E+03  0.25081479052E+03  0.00000000000E+00 0.  1.
          5    1    4    4  501    0  0.58178445113E+02  0.58151364237E+02  0.74161027201E+02  0.11083159745E+03  0.41800000000E+01 0.  1.
         -5    1    4    4    0  501 -0.96314375458E+01 -0.42071410712E+02  0.88638349861E-01  0.43361831664E+02  0.41800000000E+01 0.  1.
</event>
<event>
11    1  0.8328696E-009  0.1330582E+03  0.7561462E-02  0.1115567E+00
         22   -1    0    0    0    0  0.00000000000E+00  0.00000000000E+00  0.32008622971E+03  0.32008622971E+03  0.00000000000E+00 0. -1.
         22   -1    0    0    0    0 -0.00000000000E+00 -0.00000000000E+00 -0.29588692651E+03  0.29588692651E+03  0.00000000000E+00 0.  1.
        -24    2    1    2    0    0 -0.41154715327E+02  0.16217687591E+02 -0.23426634627E+03  0.25194795354E+03  0.81488197385E+02 0.  0.
         25    2    1    2    0    0  0.62907156252E+02 -0.12063595916E+01  0.67969444217E+02  0.15565062252E+03  0.12509398599E+03 0.  0.
         24    2    1    2    0    0 -0.21752440925E+02 -0.15011327999E+02  0.19049620525E+03  0.20837458016E+03  0.80203820296E+02 0.  0.
        -13    1    5    5    0    0  0.30241052422E+02 -0.11411577967E+02  0.71742650552E+02  0.78687694537E+02  0.00000000000E+00 0.  1.
         14    1    5    5    0    0 -0.51993493347E+02 -0.35997500328E+01  0.11875355470E+03  0.12968688563E+03  0.00000000000E+00 0. -1.
         13    1    3    3    0    0 -0.15009621890E+02 -0.21849823567E+02 -0.21225466074E+02  0.33959151185E+02  0.00000000000E+00 0. -1.
        -14    1    3    3    0    0 -0.26145093437E+02  0.38067511158E+02 -0.21304088020E+03  0.21798880235E+03  0.00000000000E+00 0.  1.
          5    1    4    4  501    0 -0.16591651874E+02 -0.63473584583E+01  0.73454750346E+02  0.75687810245E+02  0.41800000000E+01 0.  1.
         -5    1    4    4    0  501  0.79498808126E+02  0.51409988667E+01 -0.54853061285E+01  0.79962812270E+02  0.41800000000E+01 0.  1.
</event>
<event>
11    1  0.8328696E-009  0.1534444E+03  0.7561462E-02  0.1093410E+00
         22   -1    0    0    0    0  0.00000000000E+00  0.00000000000E+00  0.19965443147E+03  0.19965443147E+03  0.00000000000E+00 0. -1.
         22   -1    0    0    0    0 -0.00000000000E+00 -0.00000000000E+00 -0.78335264898E+03  0.78335264898E+03  0.00000000000E+00 0. -1.
        -24    2    1    2    0    0 -0.38553047055E+01 -0.75829654677E+02 -0.58371958496E+03  0.59405292113E+03  0.80033238904E+02 0.  0.
         25    2    1    2    0    0 -0.79740412368E+02  0.34958795651E+02 -0.13616363236E+03  0.20437680198E+03  0.12509473072E+03 0.  0.
         24    2    1    2    0    0  0.83595717074E+02  0.40870859026E+02  0.13618499982E+03  0.18457735734E+03  0.82847906658E+02 0.  0.
        -13    1    5    5    0    0 -0.21276316615E+01  0.27186747112E+02  0.57076601467E+01  0.27860786410E+02  0.00000000000E+00 0.  1.
         14    1    5    5    0    0  0.85723348735E+02  0.13684111914E+02  0.13047733967E+03  0.15671657093E+03  0.00000000000E+00 0. -1.
         13    1    3    3    0    0 -0.15234244837E+02 -0.32320329585E+01 -0.31738452653E+03  0.31776637004E+03  0.00000000000E+00 0. -1.
        -14    1    3    3    0    0  0.11378940131E+02 -0.72597621718E+02 -0.26633505844E+03  0.27628655109E+03  0.00000000000E+00 0.  1.
          5    1    4    4  501    0 -0.54873841458E+02  0.30196217382E+02  0.30219065414E+01  0.62845479867E+02  0.41800000000E+01 0.  1.
         -5    1    4    4    0  501 -0.24866570910E+02  0.47625782688E+01 -0.13918553890E+03  0.14153132211E+03  0.41800000000E+01 0.  1.
</event>
<event>
11    1  0.1482054E-008  0.1821132E+03  0.7561462E-02  0.1067946E+00
         22   -1    0    0    0    0  0.00000000000E+00  0.00000000000E+00  0.74038109189E+03  0.74038109189E+03  0.00000000000E+00 0.  1.
         22   -1    0    0    0    0 -0.00000000000E+00 -0.00000000000E+00 -0.13690045292E+04  0.13690045292E+04  0.00000000000E+00 0. -1.
        -24    2    1    2    0    0  0.53371383767E+02  0.93712717871E+02 -0.10582935598E+04  0.10667233877E+04  0.79265055082E+02 0.  0.
         25    2    1    2    0    0 -0.18286688345E+03 -0.10987046073E+03 -0.24648243824E+03  0.34916224144E+03  0.12509541669E+03 0.  0.
         24    2    1    2    0    0  0.12949549968E+03  0.16157742861E+02  0.67615256081E+03  0.69349999192E+03  0.82035335150E+02 0.  0.
        -13    1    5    5    0    0  0.30673451488E+02  0.38537631790E+02  0.29628466332E+03  0.30035081390E+03  0.00000000000E+00 0.  1.
         14    1    5    5    0    0  0.98822048195E+02 -0.22379888929E+02  0.37986789749E+03  0.39314917803E+03  0.00000000000E+00 0. -1.
         13    1    3    3    0    0  0.28523568417E+02  0.82956699110E+02 -0.97924366446E+03  0.98316507376E+03  0.00000000000E+00 0. -1.
        -14    1    3    3    0    0  0.24847815351E+02  0.10756018761E+02 -0.79049895380E+02  0.83558313930E+02  0.00000000000E+00 0.  1.
          5    1    4    4  501    0 -0.78742315778E+01 -0.33613157000E+01  0.14503154590E+02  0.17352690260E+02  0.41800000000E+01 0.  1.
         -5    1    4    4    0  501 -0.17499265187E+03 -0.10650914503E+03 -0.26098559283E+03  0.33180955118E+03  0.41800000000E+01 0.  1.
</event>
<event>
11    1  0.8328696E-009  0.1991570E+03  0.7561462E-02  0.1055121E+00
         22   -1    0    0    0    0  0.00000000000E+00  0.00000000000E+00  0.14780524250E+03  0.14780524250E+03  0.00000000000E+00 0.  1.
         22   -1    0    0    0    0 -0.00000000000E+00 -0.00000000000E+00 -0.97708384653E+03  0.97708384653E+03  0.00000000000E+00 0. -1.
         24    2    1    2    0    0  0.30113157940E+02  0.15134594167E+03 -0.67146888853E+03  0.69358983779E+03  0.79899927879E+02 0.  0.
         25    2    1    2    0    0 -0.15117347910E+02 -0.15703616724E+03 -0.24068860863E+03  0.31379426332E+03  0.12508773457E+03 0.  0.
        -24    2    1    2    0    0 -0.14995810030E+02  0.56902255687E+01  0.82878893127E+02  0.11750498792E+03  0.81738964235E+02 0.  0.
        -13    1    3    3    0    0 -0.26679405784E+02  0.44892830132E+02 -0.17190911050E+03  0.17966607683E+03  0.00000000000E+00 0.  1.
         14    1    3    3    0    0  0.56792563725E+02  0.10645311154E+03 -0.49955977803E+03  0.51392376096E+03  0.00000000000E+00 0. -1.
         13    1    5    5    0    0 -0.39854089499E+02 -0.15515571689E+02  0.70710780502E+02  0.82638343969E+02  0.00000000000E+00 0. -1.
        -14    1    5    5    0    0  0.24858279469E+02  0.21205797258E+02  0.12168112625E+02  0.34866643950E+02  0.00000000000E+00 0.  1.
          5    1    4    4  501    0 -0.18430800656E+02 -0.44003982544E+02 -0.17821197462E+03  0.18453461787E+03  0.41800000000E+01 0.  1.
         -5    1    4    4    0  501  0.33134527464E+01 -0.11303218470E+03 -0.62476634007E+02  0.12925964546E+03  0.41800000000E+01 0.  1.
</event>
<event>
11    1  0.8328696E-009  0.1923807E+03  0.7561462E-02  0.1060046E+00
         22   -1    0    0    0    0  0.00000000000E+00  0.00000000000E+00  0.33022150310E+03  0.33022150310E+03  0.00000000000E+00 0.  1.
         22   -1    0    0    0    0 -0.00000000000E+00 -0.00000000000E+00 -0.24793030065E+03  0.24793030065E+03  0.00000000000E+00 0. -1.
         24    2    1    2    0    0 -0.14666812126E+03  0.10901029739E+02 -0.13714880277E+03  0.21612108919E+03  0.79171717464E+02 0.  0.
         25    2    1    2    0    0  0.13764725444E+03 -0.51460456383E+02  0.11935661797E+03  0.22691096112E+03  0.12509051442E+03 0.  0.
        -24    2    1    2    0    0  0.90208668204E+01  0.40559426644E+02  0.10008338725E+03  0.13511975345E+03  0.80710719485E+02 0.  0.
        -11    1    3    3    0    0 -0.12524548929E+03  0.34589594002E+01 -0.66346408800E+02  0.14177532559E+03  0.00000000000E+00 0.  1.
         12    1    3    3    0    0 -0.21422631969E+02  0.74420703391E+01 -0.70802393974E+02  0.74345763591E+02  0.00000000000E+00 0. -1.
         13    1    5    5    0    0 -0.49135440402E+01 -0.12340503491E+02 -0.68951616786E+01  0.14965767472E+02  0.00000000000E+00 0. -1.
        -14    1    5    5    0    0  0.13934410861E+02  0.52899930135E+02  0.10697854893E+03  0.12015398598E+03  0.00000000000E+00 0.  1.
          5    1    4    4  501    0  0.11916452690E+03 -0.90083883533E+02  0.99444450920E+02  0.17950476808E+03  0.41800000000E+01 0.  1.
         -5    1    4    4    0  501  0.18482727532E+02  0.38623427150E+02  0.19912167048E+02  0.47406193039E+02  0.41800000000E+01 0.  1.
</event>
<event>
11    1  0.8328696E-009  0.1505731E+03  0.7561462E-02  0.1096295E+00
         22   -1    0    0    0    0  0.00000000000E+00  0.00000000000E+00  0.83004638771E+02  0.83004638771E+02  0.00000000000E+00 0.  1.
         22   -1    0    0    0    0 -0.00000000000E+00 -0.00000000000E+00 -0.10923787300E+04  0.10923787300E+04  0.00000000000E+00 0.  1.
        -24    2    1    2    0    0  0.14777379164E+02 -0.45616218462E+02 -0.66621754218E+03  0.67272301203E+03  0.80070138502E+02 0.  0.
         25    2    1    2    0    0  0.66265474270E+02  0.12298186516E+02 -0.35561784493E+03  0.38295274541E+03  0.12508555117E+03 0.  0.
         24    2    1    2    0    0 -0.81042853434E+02  0.33318031947E+02  0.12461295887E+02  0.11970761133E+03  0.80601445209E+02 0.  0.
        -11    1    5    5    0    0 -0.30176297067E+02 -0.61317335850E+01  0.39332639887E+02  0.49952613764E+02  0.00000000000E+00 0.  1.
         12    1    5    5    0    0 -0.50866556367E+02  0.39449765532E+02 -0.26871344000E+02  0.69754997567E+02  0.00000000000E+00 0. -1.
         13    1    3    3    0    0 -0.13242474954E+02 -0.23586975337E+02 -0.64392201502E+02  0.69843139697E+02  0.00000000000E+00 0. -1.
        -14    1    3    3    0    0  0.28019854118E+02 -0.22029243125E+02 -0.60182534068E+03  0.60287987233E+03  0.00000000000E+00 0.  1.
          5    1    4    4  501    0 -0.17838446623E+01 -0.66611343145E+01  0.86787494385E+01  0.11846767658E+02  0.41800000000E+01 0. -1.
         -5    1    4    4    0  501  0.68049318932E+02  0.18959320830E+02 -0.36429659437E+03  0.37110597775E+03  0.41800000000E+01 0. -1.
</event>
<event>
11    1  0.8328696E-009  0.2008922E+03  0.7561462E-02  0.1053895E+00
         22   -1    0    0    0    0  0.00000000000E+00  0.00000000000E+00  0.30712515778E+03  0.30712515778E+03  0.00000000000E+00 0.  1.
         22   -1    0    0    0    0 -0.00000000000E+00 -0.00000000000E+00 -0.18137353776E+04  0.18137353776E+04  0.00000000000E+00 0.  1.
         24    2    1    2    0    0  0.14161779299E+03 -0.68442654820E+02 -0.16374951603E+04  0.16469684121E+04  0.79840805594E+02 0.  0.
         25    2    1    2    0    0 -0.12801805248E+03  0.92972457209E+02 -0.10179348933E+03  0.22592738140E+03  0.12509503443E+03 0.  0.
        -24    2    1    2    0    0 -0.13599740516E+02 -0.24529802389E+02  0.23267842979E+03  0.24796474187E+03  0.80997514628E+02 0.  0.
        -11    1    3    3    0    0  0.12346593644E+03 -0.31899416293E+02 -0.14172575931E+04  0.14229829569E+04  0.00000000000E+00 0.  1.
         12    1    3    3    0    0  0.18151856551E+02 -0.36543238527E+02 -0.22023756719E+03  0.22398545529E+03  0.00000000000E+00 0. -1.
         11    1    5    5    0    0 -0.54164695440E+01  0.28924655845E+02  0.56946787390E+02  0.64100783553E+02  0.00000000000E+00 0. -1.
        -12    1    5    5    0    0 -0.81832709715E+01 -0.53454458234E+02  0.17573164240E+03  0.18386395832E+03  0.00000000000E+00 0.  1.
          5    1    4    4  501    0  0.21328408109E+02  0.27431611200E+02 -0.35420725399E+02  0.49794522523E+02  0.41800000000E+01 0.  1.
         -5    1    4    4    0  501 -0.14934646059E+03  0.65540846009E+02 -0.66372763933E+02  0.17613285888E+03  0.41800000000E+01 0.  1.
</event>
<event>
11    1  0.8328696E-009  0.1380049E+03  0.7561462E-02  0.1109807E+00
         22   -1    0    0    0    0  0.00000000000E+00  0.00000000000E+00  0.86355574865E+02  0.86355574865E+02  0.00000000000E+00 0. -1.
         22   -1    0    0    0    0 -0.00000000000E+00 -0.00000000000E+00 -0.67181881530E+03  0.67181881530E+03  0.00000000000E+00 0.  1.
         24    2    1    2    0    0  0.14154332472E+02 -0.55524427130E+02 -0.47047126986E+03  0.48052501876E+03  0.79232384516E+02 0.  0.
         25    2    1    2    0    0  0.29836105479E+02  0.73004366119E+02 -0.10934591635E+03  0.18391333790E+03  0.12509098997E+03 0.  0.
        -24    2    1    2    0    0 -0.43990437951E+02 -0.17479938989E+02 -0.56460542307E+01  0.93736033508E+02  0.80708482524E+02 0.  0.
        -11    1    3    3    0    0  0.34851555223E+02 -0.25350115058E+02 -0.38692112190E+03  0.38931377295E+03  0.00000000000E+00 0.  1.
         12    1    3    3    0    0 -0.20697222751E+02 -0.30174312072E+02 -0.83550147960E+02  0.91211245813E+02  0.00000000000E+00 0. -1.
         11    1    5    5    0    0 -0.21291596021E+02 -0.30207524408E+02  0.31378078190E+02  0.48481031166E+02  0.00000000000E+00 0. -1.
        -12    1    5    5    0    0 -0.22698841930E+02  0.12727585419E+02 -0.37024132421E+02  0.45255002343E+02  0.00000000000E+00 0.  1.
          5    1    4    4  501    0 -0.19581096727E+02 -0.21635949177E+02  0.20607942266E+01  0.29550853095E+02  0.41800000000E+01 0.  1.
         -5    1    4    4    0  501  0.49417202207E+02  0.94640315296E+02 -0.11140671057E+03  0.15436248480E+03  0.41800000000E+01 0.  1.
</event>
<event>
11    1  0.8328696E-009  0.1300032E+03  0.7561462E-02  0.1119265E+00
         22   -1    0    0    0    0  0.00000000000E+00  0.00000000000E+00  0.44872580185E+03  0.44872580185E+03  0.00000000000E+00 0. -1.
         22   -1    0    0    0    0 -0.00000000000E+00 -0.00000000000E+00 -0.15856466868E+04  0.15856466868E+04  0.00000000000E+00 0. -1.
         24    2    1    2    0    0  0.11890738854E+02  0.29540018757E+02 -0.15172017796E+04  0.15195095779E+04  0.77421669005E+02 0.  0.
         25    2    1    2    0    0  0.23745766831E+02 -0.34236239814E+02  0.78359993723E+01  0.13207584983E+03  0.12508655268E+03 0.  0.
        -24    2    1    2    0    0 -0.35636505685E+02  0.46962210566E+01  0.37244489531E+03  0.38278706093E+03  0.80738583997E+02 0.  0.
        -11    1    3    3    0    0  0.16976565452E+02 -0.21905199496E+02 -0.32203348577E+03  0.32322377310E+03  0.00000000000E+00 0.  1.
         12    1    3    3    0    0 -0.50858265982E+01  0.51445218254E+02 -0.11951682938E+04  0.11962858048E+04  0.00000000000E+00 0. -1.
         11    1    5    5    0    0 -0.14788367355E+02  0.37644015458E+02  0.27286577275E+03  0.27584687355E+03  0.00000000000E+00 0. -1.
        -12    1    5    5    0    0 -0.20848138330E+02 -0.32947794401E+02  0.99579122555E+02  0.10694018738E+03  0.00000000000E+00 0.  1.
          5    1    4    4  501    0 -0.19277890272E+02 -0.64679089620E+02  0.30958716252E+02  0.74370264215E+02  0.41800000000E+01 0. -1.
         -5    1    4    4    0  501  0.43023657103E+02  0.30442849806E+02 -0.23122716880E+02  0.57705585611E+02  0.41800000000E+01 0. -1.
</event>
<event>
11    1  0.8328696E-009  0.1435011E+03  0.7561462E-02  0.1103711E+00
         22   -1    0    0    0    0  0.00000000000E+00  0.00000000000E+00  0.26883655449E+04  0.26883655449E+04  0.00000000000E+00 0. -1.
         22   -1    0    0    0    0 -0.00000000000E+00 -0.00000000000E+00 -0.15887498650E+03  0.15887498650E+03  0.00000000000E+00 0. -1.
         24    2    1    2    0    0 -0.31478134917E+02 -0.62644832128E+02 -0.13469474493E+03  0.17156791357E+03  0.79860044359E+02 0.  0.
         25    2    1    2    0    0  0.35619709365E+02  0.76562478057E+02  0.12397638712E+04  0.12489167514E+04  0.12509204155E+03 0.  0.
        -24    2    1    2    0    0 -0.41415744482E+01 -0.13917645929E+02  0.14244214321E+04  0.14267558664E+04  0.80280960035E+02 0.  0.
        -11    1    3    3    0    0  0.13717544903E+02  0.71932142691E+01 -0.29642852535E+01  0.15770236420E+02  0.00000000000E+00 0.  1.
         12    1    3    3    0    0 -0.45195679820E+02 -0.69838046397E+02 -0.13173045968E+03  0.15579767715E+03  0.00000000000E+00 0. -1.
         13    1    5    5    0    0 -0.40305040940E+00  0.13337860219E+02  0.12583836587E+04  0.12584544066E+04  0.00000000000E+00 0. -1.
        -14    1    5    5    0    0 -0.37385240388E+01 -0.27255506148E+02  0.16603777339E+03  0.16830145979E+03  0.00000000000E+00 0.  1.
          5    1    4    4  501    0  0.72668421419E+02  0.26025829379E+02  0.90629965673E+03  0.90959033826E+03  0.41800000000E+01 0.  1.
         -5    1    4    4    0  501 -0.37048712054E+02  0.50536648678E+02  0.33346421450E+03  0.33932641317E+03  0.41800000000E+01 0.  1.
</event>
<event>
11    1  0.8328696E-009  0.1404909E+03  0.7561462E-02  0.1107011E+00
         22   -1    0    0    0    0  0.00000000000E+00  0.00000000000E+00  0.16526915279E+04  0.16526915279E+04  0.00000000000E+00 0. -1.
         22   -1    0    0    0    0 -0.00000000000E+00 -0.00000000000E+00 -0.21104283902E+03  0.21104283902E+03  0.00000000000E+00 0. -1.
        -24    2    1    2    0    0 -0.17014903978E+02 -0.18119887334E+01 -0.18914253191E+03  0.20626761736E+03  0.80490013871E+02 0.  0.
         25    2    1    2    0    0  0.52519551851E+02  0.52594235053E+02  0.46689204287E+03  0.48904657945E+03  0.12511562771E+03 0.  0.
         24    2    1    2    0    0 -0.35504647873E+02 -0.50782246319E+02  0.11638991779E+04  0.11684201701E+04  0.81883948405E+02 0.  0.
        -13    1    5    5    0    0 -0.52477299746E+02 -0.34065283283E+02  0.47417349031E+03  0.47828318957E+03  0.00000000000E+00 0.  1.
         14    1    5    5    0    0  0.16972651873E+02 -0.16716963036E+02  0.68972568756E+03  0.69013698050E+03  0.00000000000E+00 0. -1.
         11    1    3    3    0    0  0.59716376775E+01 -0.26557128503E+02 -0.15799731887E+03  0.16032496468E+03  0.00000000000E+00 0. -1.
        -12    1    3    3    0    0 -0.22986541655E+02  0.24745139770E+02 -0.31145213041E+02  0.45942652676E+02  0.00000000000E+00 0.  1.
          5    1    4    4  501    0 -0.57110658387E+01  0.53310711149E+02  0.38347257941E+03  0.38722517965E+03  0.41800000000E+01 0. -1.
         -5    1    4    4    0  501  0.58230617690E+02 -0.71647609658E+00  0.83419463453E+02  0.10182139980E+03  0.41800000000E+01 0. -1.
</event>
<event>
11    1  0.8328696E-009  0.2116387E+03  0.7561462E-02  0.1046585E+00
         22   -1    0    0    0    0  0.00000000000E+00  0.00000000000E+00  0.37127434903E+03  0.37127434903E+03  0.00000000000E+00 0. -1.
         22   -1    0    0    0    0 -0.00000000000E+00 -0.00000000000E+00 -0.10955943214E+04  0.10955943214E+04  0.00000000000E+00 0.  1.
         24    2    1    2    0    0 -0.35181234463E+02  0.15870062768E+03 -0.83151296789E+03  0.85413657516E+03  0.10822136931E+03 0.  0.
         25    2    1    2    0    0  0.18284640174E+03 -0.20395877464E+03 -0.12165179730E+03  0.32477379812E+03  0.12508745652E+03 0.  0.
        -24    2    1    2    0    0 -0.14766516727E+03  0.45258146962E+02  0.22884479285E+03  0.28795829712E+03  0.81833612741E+02 0.  0.
        -13    1    3    3    0    0 -0.45540298160E+02  0.59556840955E+02 -0.55820375702E+03  0.56321609566E+03  0.00000000000E+00 0.  1.
         14    1    3    3    0    0  0.10359063697E+02  0.99143786721E+02 -0.27330921087E+03  0.29092047950E+03  0.00000000000E+00 0. -1.
         13    1    5    5    0    0 -0.55314022794E+02  0.58127319405E+02  0.12346821377E+03  0.14725089538E+03  0.00000000000E+00 0. -1.
        -14    1    5    5    0    0 -0.92351144480E+02 -0.12869172443E+02  0.10537657908E+03  0.14070740174E+03  0.00000000000E+00 0.  1.
          5    1    4    4  501    0  0.12443067303E+03 -0.12391579852E+03 -0.13910875293E+03  0.22406881768E+03  0.41800000000E+01 0.  1.
         -5    1    4    4    0  501  0.58415728702E+02 -0.80042976121E+02  0.17456955626E+02  0.10070498044E+03  0.41800000000E+01 0.  1.
</event>
<event>
11    1  0.8328696E-009  0.1637591E+03  0.7561462E-02  0.1083594E+00
         22   -1    0    0    0    0  0.00000000000E+00  0.00000000000E+00  0.20807556675E+03  0.20807556675E+03  0.00000000000E+00 0.  1.
         22   -1    0    0    0    0 -0.00000000000E+00 -0.00000000000E+00 -0.23617478287E+03  0.23617478287E+03  0.00000000000E+00 0.  1.
        -24    2    1    2    0    0 -0.36927345608E+02 -0.99479992432E+02 -0.31901229837E+01  0.13635588905E+03  0.85573674962E+02 0.  0.
         25    2    1    2    0    0  0.11331657295E+03  0.48925633440E+02 -0.52964015820E+02  0.18354162136E+03  0.12509187219E+03 0.  0.
         24    2    1    2    0    0 -0.76389227341E+02  0.50554358992E+02  0.28054922681E+02  0.12435283920E+03  0.79281099039E+02 0.  0.
        -11    1    5    5    0    0 -0.78807794908E+02  0.27117295005E+02 -0.53048703223E+01  0.83511423624E+02  0.00000000000E+00 0.  1.
         12    1    5    5    0    0  0.24185675669E+01  0.23437063987E+02  0.33359793003E+02  0.40841415581E+02  0.00000000000E+00 0. -1.
         13    1    3    3    0    0  0.11998843823E+01  0.12645669506E+02 -0.12161700501E+02  0.17585779450E+02  0.00000000000E+00 0. -1.
        -14    1    3    3    0    0 -0.38127229991E+02 -0.11212566194E+03  0.89715775177E+01  0.11877010960E+03  0.00000000000E+00 0.  1.
          5    1    4    4  501    0 -0.12462822863E+02 -0.25962241517E+02 -0.11980156267E+02  0.31469929814E+02  0.41800000000E+01 0.  1.
         -5    1    4    4    0  501  0.12577939581E+03  0.74887874957E+02 -0.40983859553E+02  0.15207169155E+03  0.41800000000E+01 0.  1.
</event>
<event>
11    1  0.8328696E-009  0.1255108E+03  0.7561462E-02  0.1124911E+00
         22   -1    0    0    0    0  0.00000000000E+00  0.00000000000E+00  0.24027479702E+03  0.24027479702E+03  0.00000000000E+00 0. -1.
         22   -1    0    0    0    0 -0.00000000000E+00 -0.00000000000E+00 -0.20917907114E+04  0.20917907114E+04  0.00000000000E+00 0.  1.
        -24    2    1    2    0    0 -0.16300066891E+02 -0.14075224458E+02 -0.20167135203E+04  0.20183734744E+04  0.78957299408E+02 0.  0.
         25    2    1    2    0    0  0.38309886568E+01  0.15210132820E+02  0.32233112993E+01  0.12610868198E+03  0.12508791037E+03 0.  0.
         24    2    1    2    0    0  0.12469078235E+02 -0.11349083613E+01  0.16197429458E+03  0.18758335207E+03  0.93782066209E+02 0.  0.
        -11    1    5    5    0    0  0.69290195449E+01  0.29509047222E+02  0.92137392694E+01  0.31681038037E+02  0.00000000000E+00 0.  1.
         12    1    5    5    0    0  0.55400586897E+01 -0.30643955583E+02  0.15276055531E+03  0.15590231404E+03  0.00000000000E+00 0. -1.
         13    1    3    3    0    0  0.62560476546E+01  0.28469266756E+02 -0.46482194313E+03  0.46573498483E+03  0.00000000000E+00 0. -1.
        -14    1    3    3    0    0 -0.22556114546E+02 -0.42544491214E+02 -0.15518915772E+04  0.15526384896E+04  0.00000000000E+00 0.  1.
          5    1    4    4  501    0 -0.57877968384E+02  0.21088888891E+02  0.13325502957E+02  0.63163612056E+02  0.41800000000E+01 0.  1.
         -5    1    4    4    0  501  0.61708957041E+02 -0.58787560710E+01 -0.10102191658E+02  0.62945069929E+02  0.41800000000E+01 0.  1.
</event>
<event>
11    1  0.8328696E-009  0.1437407E+03  0.7561462E-02  0.1103452E+00
         22   -1    0    0    0    0  0.00000000000E+00  0.00000000000E+00  0.31358122341E+03  0.31358122341E+03  0.00000000000E+00 0.  1.
         22   -1    0    0    0    0 -0.00000000000E+00 -0.00000000000E+00 -0.14179244364E+04  0.14179244364E+04  0.00000000000E+00 0.  1.
         24    2    1    2    0    0 -0.19026024581E+02  0.70273231129E+02 -0.12102907994E+04  0.12151625443E+04  0.80720959556E+02 0.  0.
         25    2    1    2    0    0  0.24749096337E+02 -0.47095315355E+02 -0.17842785967E+03  0.22430914431E+03  0.12509038579E+03 0.  0.
        -24    2    1    2    0    0 -0.57230717553E+01 -0.23177915774E+02  0.28437544608E+03  0.29203397121E+03  0.62003844034E+02 0.  0.
        -13    1    3    3    0    0 -0.46703536563E+02  0.37042959553E+02 -0.49703232462E+03  0.50059417985E+03  0.00000000000E+00 0.  1.
         14    1    3    3    0    0  0.27677511982E+02  0.33230271576E+02 -0.71325847481E+03  0.71456836448E+03  0.00000000000E+00 0. -1.
         13    1    5    5    0    0 -0.11405223392E+02  0.18429603704E+02  0.60763546808E+02  0.64513084208E+02  0.00000000000E+00 0. -1.
        -14    1    5    5    0    0  0.56821516365E+01 -0.41607519478E+02  0.22361189927E+03  0.22752088700E+03  0.00000000000E+00 0.  1.
          5    1    4    4  501    0  0.45704747502E+02  0.28344624399E+02 -0.48415834168E+02  0.72483840094E+02  0.41800000000E+01 0. -1.
         -5    1    4    4    0  501 -0.20955651165E+02 -0.75439939754E+02 -0.13001202550E+03  0.15182530421E+03  0.41800000000E+01 0. -1.
</event>
<event>
11    1  0.8328696E-009  0.1458341E+03  0.7561462E-02  0.1101213E+00
         22   -1    0    0    0    0  0.00000000000E+00  0.00000000000E+00  0.88745556199E+02  0.88745556199E+02  0.00000000000E+00 0.  1.
         22   -1    0    0    0    0 -0.00000000000E+00 -0.00000000000E+00 -0.17670345365E+04  0.17670345365E+04  0.00000000000E+00 0.  1.
        -24    2    1    2    0    0  0.73056586002E+02 -0.10763719066E+02 -0.14744697533E+04  0.14785634787E+04  0.81460326852E+02 0.  0.
         25    2    1    2    0    0 -0.86402459483E+02  0.82738078434E+01 -0.25042123692E+03  0.29307267593E+03  0.12508779548E+03 0.  0.
         24    2    1    2    0    0  0.13345873481E+02  0.24899112227E+01  0.46602009914E+02  0.84143938032E+02  0.68732401258E+02 0.  0.
        -13    1    5    5    0    0  0.36738455748E+02 -0.90160893888E+01  0.43877103409E+02  0.57932755865E+02  0.00000000000E+00 0.  1.
         14    1    5    5    0    0 -0.23392582266E+02  0.11506000612E+02  0.27249065057E+01  0.26211182167E+02  0.00000000000E+00 0. -1.
         13    1    3    3    0    0 -0.15216091387E+02  0.15357637099E+00 -0.93303768713E+02  0.94536481206E+02  0.00000000000E+00 0. -1.
        -14    1    3    3    0    0  0.88272677389E+02 -0.10917295437E+02 -0.13811659845E+04  0.13840269975E+04  0.00000000000E+00 0.  1.
          5    1    4    4  501    0 -0.29367739321E+01 -0.49769278359E+02 -0.71965675561E+02  0.87647798423E+02  0.41800000000E+01 0.  1.
         -5    1    4    4    0  501 -0.83465685551E+02  0.58043086202E+02 -0.17845556136E+03  0.20542487751E+03  0.41800000000E+01 0.  1.
</event>
<event>
11    1  0.8328696E-009  0.1417699E+03  0.7561462E-02  0.1105598E+00
         22   -1    0    0    0    0  0.00000000000E+00  0.00000000000E+00  0.10577181718E+04  0.10577181718E+04  0.00000000000E+00 0.  1.
         22   -1    0    0    0    0 -0.00000000000E+00 -0.00000000000E+00 -0.31168889081E+03  0.31168889081E+03  0.00000000000E+00 0. -1.
        -24    2    1    2    0    0  0.48594667558E+02  0.28481893068E+02 -0.25808369727E+03  0.27612758527E+03  0.80415101844E+02 0.  0.
         25    2    1    2    0    0 -0.10268437091E+03 -0.60581253887E+02  0.13806271298E+03  0.22118622453E+03  0.12509142598E+03 0.  0.
         24    2    1    2    0    0  0.54089703353E+02  0.32099360819E+02  0.86605026531E+03  0.87209325284E+03  0.80916714186E+02 0.  0.
        -11    1    5    5    0    0  0.73860407054E+01  0.25088301196E+02  0.66717468524E+03  0.66768708021E+03  0.00000000000E+00 0.  1.
         12    1    5    5    0    0  0.46703662647E+02  0.70110596230E+01  0.19887558007E+03  0.20440617263E+03  0.00000000000E+00 0. -1.
         13    1    3    3    0    0  0.21114619694E+02 -0.14538628650E+02 -0.18623101785E+03  0.18798720940E+03  0.00000000000E+00 0. -1.
        -14    1    3    3    0    0  0.27480047864E+02  0.43020521719E+02 -0.71852679419E+02  0.88140375874E+02  0.00000000000E+00 0.  1.
          5    1    4    4  501    0 -0.33285566580E+02 -0.22529323935E+02 -0.19457626920E+02  0.44850540965E+02  0.41800000000E+01 0.  1.
         -5    1    4    4    0  501 -0.69398804331E+02 -0.38051929952E+02  0.15752033990E+03  0.17633568357E+03  0.41800000000E+01 0.  1.
</event>
<event>
11    1  0.8328696E-009  0.2623034E+03  0.7561462E-02  0.1017542E+00
         22   -1    0    0    0    0  0.00000000000E+00  0.00000000000E+00  0.11633900317E+04  0.11633900317E+04  0.00000000000E+00 0. -1.
         22   -1    0    0    0    0 -0.00000000000E+00 -0.00000000000E+00 -0.13596293942E+03  0.13596293942E+03  0.00000000000E+00 0. -1.
         24    2    1    2    0    0 -0.44987272779E+02 -0.21364121781E+03  0.58985614028E+02  0.23988008065E+03  0.79979533467E+02 0.  0.
         25    2    1    2    0    0  0.71882351583E+02  0.28428664774E+03  0.73035742792E+03  0.79690357865E+03  0.12508945039E+03 0.  0.
        -24    2    1    2    0    0 -0.26895078804E+02 -0.70645429933E+02  0.23808405034E+03  0.26256931183E+03  0.80898123903E+02 0.  0.
        -11    1    3    3    0    0 -0.51815032723E+01 -0.79144874612E+02 -0.15878718603E+02  0.80888150294E+02  0.00000000000E+00 0.  1.
         12    1    3    3    0    0 -0.39805769506E+02 -0.13449634319E+03  0.74864332632E+02  0.15899193036E+03  0.00000000000E+00 0. -1.
         11    1    5    5    0    0  0.21891284695E+02 -0.16185609807E+02  0.12482767941E+03  0.12776209085E+03  0.00000000000E+00 0. -1.
        -12    1    5    5    0    0 -0.48786363500E+02 -0.54459820126E+02  0.11325637093E+03  0.13480722098E+03  0.00000000000E+00 0.  1.
          5    1    4    4  501    0 -0.27663610625E+02  0.15157932150E+02  0.73339479080E+02  0.79944917610E+02  0.41800000000E+01 0.  1.
         -5    1    4    4    0  501  0.99545962207E+02  0.26912871559E+03  0.65701794884E+03  0.71695866104E+03  0.41800000000E+01 0.  1.
</event>
<event>
11    1  0.8328696E-009  0.1440638E+03  0.7561462E-02  0.1103104E+00
         22   -1    0    0    0    0  0.00000000000E+00  0.00000000000E+00  0.53606081804E+02  0.53606081804E+02  0.00000000000E+00 0. -1.
         22   -1    0    0    0    0 -0.00000000000E+00 -0.00000000000E+00 -0.70488032281E+03  0.70488032281E+03  0.00000000000E+00 0. -1.
        -24    2    1    2    0    0 -0.90628028163E+01  0.24826332767E+01 -0.36295630742E+03  0.37177534839E+03  0.79945798595E+02 0.  0.
         25    2    1    2    0    0  0.27163589275E+02 -0.70017316580E+02 -0.20794203979E+03  0.25402319724E+03  0.12509039779E+03 0.  0.
         24    2    1    2    0    0 -0.18100786458E+02  0.67534683303E+02 -0.80375893802E+02  0.13268785899E+03  0.79102539147E+02 0.  0.
        -13    1    5    5    0    0 -0.13580018973E+02 -0.11965004064E+02 -0.38902262179E+02  0.42906459190E+02  0.00000000000E+00 0.  1.
         14    1    5    5    0    0 -0.45207674858E+01  0.79499687367E+02 -0.41473631623E+02  0.89781399800E+02  0.00000000000E+00 0. -1.
         11    1    3    3    0    0  0.13271595691E+02  0.30352613025E+02 -0.27277668302E+03  0.27478088574E+03  0.00000000000E+00 0. -1.
        -12    1    3    3    0    0 -0.22334398507E+02 -0.27869979748E+02 -0.90179624398E+02  0.96994462648E+02  0.00000000000E+00 0.  1.
          5    1    4    4  501    0 -0.34635090997E+02 -0.45332264500E+02 -0.16519801283E+03  0.17482122176E+03  0.41800000000E+01 0. -1.
         -5    1    4    4    0  501  0.61798680271E+02 -0.24685052080E+02 -0.42744026955E+02  0.79201975479E+02  0.41800000000E+01 0. -1.
</event>
<event>
11    1  0.8328696E-009  0.1520089E+03  0.7561462E-02  0.1094844E+00
         22   -1    0    0    0    0  0.00000000000E+00  0.00000000000E+00  0.79835568842E+03  0.79835568842E+03  0.00000000000E+00 0.  1.
         22   -1    0    0    0    0 -0.00000000000E+00 -0.00000000000E+00 -0.72896615208E+03  0.72896615208E+03  0.00000000000E+00 0. -1.
        -24    2    1    2    0    0  0.89479157498E+02 -0.18432943742E+02 -0.64734644093E+03  0.65864071967E+03  0.80024308681E+02 0.  0.
         25    2    1    2    0    0 -0.25556027568E+02  0.35265031070E+02 -0.11186490431E+02  0.13292593053E+03  0.12508969773E+03 0.  0.
         24    2    1    2    0    0 -0.63923129930E+02 -0.16832087328E+02  0.72792246770E+03  0.73575519029E+03  0.84232388955E+02 0.  0.
        -13    1    5    5    0    0 -0.19211746831E+01 -0.27964975309E+02  0.44603261884E+03  0.44691255053E+03  0.00000000000E+00 0.  1.
         14    1    5    5    0    0 -0.62001955247E+02  0.11132887981E+02  0.28188984887E+03  0.28884263976E+03  0.00000000000E+00 0. -1.
         11    1    3    3    0    0  0.92644325108E+02 -0.23674106242E+01 -0.61904695801E+03  0.62594545436E+03  0.00000000000E+00 0. -1.
        -12    1    3    3    0    0 -0.31651676101E+01 -0.16065533118E+02 -0.28299482922E+02  0.32695265315E+02  0.00000000000E+00 0.  1.
          5    1    4    4  501    0 -0.63311180242E+02  0.57504188294E+02  0.56085223891E+01  0.85813548687E+02  0.41800000000E+01 0. -1.
         -5    1    4    4    0  501  0.37755152674E+02 -0.22239157223E+02 -0.16795012821E+02  0.47112381845E+02  0.41800000000E+01 0. -1.
</event>
<event>
11    1  0.8328696E-009  0.1279747E+03  0.7561462E-02  0.1121783E+00
         22   -1    0    0    0    0  0.00000000000E+00  0.00000000000E+00  0.17574489970E+04  0.17574489970E+04  0.00000000000E+00 0. -1.
         22   -1    0    0    0    0 -0.00000000000E+00 -0.00000000000E+00 -0.15651710111E+04  0.15651710111E+04  0.00000000000E+00 0.  1.
         24    2    1    2    0    0  0.11626939107E+02 -0.14985135945E+02 -0.72395988112E+03  0.72860469576E+03  0.79919667118E+02 0.  0.
         25    2    1    2    0    0 -0.95219844234E+01  0.46936295393E+02 -0.83257891343E+03  0.84328543920E+03  0.12509596663E+03 0.  0.
        -24    2    1    2    0    0 -0.21049546838E+01 -0.31951159448E+02  0.17488167804E+04  0.17507298731E+04  0.75297074419E+02 0.  0.
        -13    1    3    3    0    0 -0.13836085963E+02 -0.54497902674E+01 -0.64355793544E+03  0.64372972105E+03  0.00000000000E+00 0.  1.
         14    1    3    3    0    0  0.25463025070E+02 -0.95353456777E+01 -0.80401945682E+02  0.84874974712E+02  0.00000000000E+00 0. -1.
         11    1    5    5    0    0  0.36566392367E+02 -0.16708335947E+02  0.82838798341E+03  0.82936296071E+03  0.00000000000E+00 0. -1.
        -12    1    5    5    0    0 -0.38671347051E+02 -0.15242823501E+02  0.92042879703E+03  0.92136691234E+03  0.00000000000E+00 0.  1.
          5    1    4    4  501    0 -0.42818450076E+02  0.48497459935E+02 -0.76573568418E+03  0.76847513539E+03  0.41800000000E+01 0. -1.
         -5    1    4    4    0  501  0.33296465652E+02 -0.15611645414E+01 -0.66843229248E+02  0.74810303808E+02  0.41800000000E+01 0. -1.
</event>
<event>
11    1  0.8328696E-009  0.1603173E+03  0.7561462E-02  0.1086779E+00
         22   -1    0    0    0    0  0.00000000000E+00  0.00000000000E+00  0.25560619389E+03  0.25560619389E+03  0.00000000000E+00 0.  1.
         22   -1    0    0    0    0 -0.00000000000E+00 -0.00000000000E+00 -0.12158062166E+04  0.12158062166E+04  0.00000000000E+00 0.  1.
        -24    2    1    2    0    0  0.16758115153E+02  0.53401621132E+02 -0.10959897595E+04  0.11010015215E+04  0.88759392682E+02 0.  0.
         25    2    1    2    0    0 -0.44036672049E+02 -0.13842972200E+03  0.31187384986E+01  0.19172544229E+03  0.12508757842E+03 0.  0.
         24    2    1    2    0    0  0.27278556895E+02  0.85028100866E+02  0.13267099824E+03  0.17868544677E+03  0.79705693091E+02 0.  0.
        -13    1    5    5    0    0  0.16501243229E+02  0.96756315876E+02  0.90117997580E+02  0.13324912449E+03  0.00000000000E+00 0.  1.
         14    1    5    5    0    0  0.10777313666E+02 -0.11728215011E+02  0.42553000659E+02  0.45436322280E+02  0.00000000000E+00 0. -1.
         11    1    3    3    0    0  0.14868750345E+02  0.73322886107E+02 -0.60562209881E+03  0.61022573850E+03  0.00000000000E+00 0. -1.
        -12    1    3    3    0    0  0.18893648084E+01 -0.19921264976E+02 -0.49036766069E+03  0.49077578297E+03  0.00000000000E+00 0.  1.
          5    1    4    4  501    0 -0.87568989543E+01 -0.90195651393E+01  0.48332602891E+02  0.50115354302E+02  0.41800000000E+01 0. -1.
         -5    1    4    4    0  501 -0.35279773094E+02 -0.12941015686E+03 -0.45213864393E+02  0.14161008799E+03  0.41800000000E+01 0. -1.
</event>
<event>
11    1  0.8328696E-009  0.1265138E+03  0.7561462E-02  0.1123628E+00
         22   -1    0    0    0    0  0.00000000000E+00  0.00000000000E+00  0.90562981954E+03  0.90562981954E+03  0.00000000000E+00 0.  1.
         22   -1    0    0    0    0 -0.00000000000E+00 -0.00000000000E+00 -0.11835150792E+04  0.11835150792E+04  0.00000000000E+00 0.  1.
         24    2    1    2    0    0 -0.24513768259E+01 -0.18717224546E+02 -0.11621071651E+04  0.11650830718E+04  0.81050337359E+02 0.  0.
         25    2    1    2    0    0  0.16736971893E+02  0.27422847825E+02  0.23643016964E+03  0.26940382051E+03  0.12508818720E+03 0.  0.
        -24    2    1    2    0    0 -0.14285595067E+02 -0.87056232793E+01  0.64779173585E+03  0.65465800643E+03  0.93075809125E+02 0.  0.
        -13    1    3    3    0    0 -0.11704796067E+02 -0.35902368212E+02 -0.10810414125E+04  0.10817007525E+04  0.00000000000E+00 0.  1.
         14    1    3    3    0    0  0.92534192412E+01  0.17185143666E+02 -0.81065752596E+02  0.83382319316E+02  0.00000000000E+00 0. -1.
         13    1    5    5    0    0 -0.24386302761E+02  0.17488607413E+02  0.69708455787E+02  0.75893425011E+02  0.00000000000E+00 0. -1.
        -14    1    5    5    0    0  0.10100707694E+02 -0.26194230692E+02  0.57808328006E+03  0.57876458141E+03  0.00000000000E+00 0.  1.
          5    1    4    4  501    0  0.64896957764E+02  0.36081658069E+02  0.17902442746E+03  0.19385747136E+03  0.41800000000E+01 0.  1.
         -5    1    4    4    0  501 -0.48159985871E+02 -0.86588102445E+01  0.57405742179E+02  0.75546349145E+02  0.41800000000E+01 0.  1.
</event>
<event>
11    1  0.8328696E-009  0.1888445E+03  0.7561462E-02  0.1062705E+00
         22   -1    0    0    0    0  0.00000000000E+00  0.00000000000E+00  0.13692017645E+04  0.13692017645E+04  0.00000000000E+00 0.  1.
         22   -1    0    0    0    0 -0.00000000000E+00 -0.00000000000E+00 -0.15223781811E+03  0.15223781811E+03  0.00000000000E+00 0.  1.
         24    2    1    2    0    0 -0.21267595600E+02 -0.11790602702E+03 -0.68242598164E+02  0.15850899080E+03  0.78191470951E+02 0.  0.
         25    2    1    2    0    0  0.56898172039E+02  0.23089023552E+03  0.54444212515E+03  0.60713089863E+03  0.12507196964E+03 0.  0.
        -24    2    1    2    0    0 -0.35630576439E+02 -0.11298420850E+03  0.74076441945E+03  0.75579969322E+03  0.92012400301E+02 0.  0.
        -11    1    3    3    0    0  0.14015637582E+02 -0.10380336161E+03 -0.45289251429E+02  0.11411701132E+03  0.00000000000E+00 0.  1.
         12    1    3    3    0    0 -0.35283233182E+02 -0.14102665412E+02 -0.22953346734E+02  0.44391979476E+02  0.00000000000E+00 0. -1.
         13    1    5    5    0    0 -0.38572936005E+01 -0.27460447681E+02  0.45456455140E+03  0.45540958081E+03  0.00000000000E+00 0. -1.
        -14    1    5    5    0    0 -0.31773282838E+02 -0.85523760823E+02  0.28619986804E+03  0.30039011241E+03  0.00000000000E+00 0.  1.
          5    1    4    4  501    0  0.13129244929E+02 -0.34397538632E+01  0.16658017251E+01  0.14298820736E+02  0.41800000000E+01 0. -1.
         -5    1    4    4    0  501  0.43768927110E+02  0.23432998939E+03  0.54277632342E+03  0.59283207789E+03  0.41800000000E+01 0. -1.
</event>
<event>
11    1  0.8328696E-009  0.1441946E+03  0.7561462E-02  0.1102963E+00
         22   -1    0    0    0    0  0.00000000000E+00  0.00000000000E+00  0.64872010605E+03  0.64872010605E+03  0.00000000000E+00 0.  1.
         22   -1    0    0    0    0 -0.00000000000E+00 -0.00000000000E+00 -0.44732534707E+03  0.44732534707E+03  0.00000000000E+00 0. -1.
         24    2    1    2    0    0  0.63378786573E+01 -0.12239638014E+02 -0.18503332773E+03  0.20207903390E+03  0.80053895149E+02 0.  0.
         25    2    1    2    0    0  0.55424127080E+01  0.82745573899E+02 -0.22600408526E+03  0.27129946203E+03  0.12509197898E+03 0.  0.
        -24    2    1    2    0    0 -0.11880291365E+02 -0.70505935884E+02  0.61243217197E+03  0.62266695719E+03  0.86768346727E+02 0.  0.
        -11    1    3    3    0    0  0.37155262537E+02 -0.24326061692E+02 -0.74878261840E+02  0.87057595348E+02  0.00000000000E+00 0.  1.
         12    1    3    3    0    0 -0.30817383879E+02  0.12086423678E+02 -0.11015506589E+03  0.11502143855E+03  0.00000000000E+00 0. -1.
         11    1    5    5    0    0  0.31019604175E+02 -0.24749944395E+01  0.13791602375E+03  0.14138306493E+03  0.00000000000E+00 0. -1.
        -12    1    5    5    0    0 -0.42899895541E+02 -0.68030941445E+02  0.47451614822E+03  0.48128389226E+03  0.00000000000E+00 0.  1.
          5    1    4    4  501    0 -0.48468807814E+02  0.81356674046E+02 -0.12754997062E+03  0.15891696306E+03  0.41800000000E+01 0.  1.
         -5    1    4    4    0  501  0.54011220522E+02  0.13888998527E+01 -0.98454114636E+02  0.11238249897E+03  0.41800000000E+01 0.  1.
</event>
<event>
11    1  0.8328696E-009  0.2190387E+03  0.7561462E-02  0.1041821E+00
         22   -1    0    0    0    0  0.00000000000E+00  0.00000000000E+00  0.31640649428E+03  0.31640649428E+03  0.00000000000E+00 0.  1.
         22   -1    0    0    0    0 -0.00000000000E+00 -0.00000000000E+00 -0.10110739715E+04  0.10110739715E+04  0.00000000000E+00 0.  1.
         24    2    1    2    0    0  0.19001292828E+02  0.18071823926E+03 -0.83964627778E+03  0.86290186517E+03  0.81077900790E+02 0.  0.
         25    2    1    2    0    0  0.48554406420E+02 -0.17125300382E+03 -0.67319255544E+02  0.22772456046E+03  0.12506586892E+03 0.  0.
        -24    2    1    2    0    0 -0.67555699247E+02 -0.94652354335E+01  0.21229805606E+03  0.23685404019E+03  0.79849912732E+02 0.  0.
        -11    1    3    3    0    0  0.46274706697E+02  0.15398733407E+03 -0.67663035151E+03  0.69547255886E+03  0.00000000000E+00 0.  1.
         12    1    3    3    0    0 -0.27273413870E+02  0.26730905185E+02 -0.16301592627E+03  0.16742930632E+03  0.00000000000E+00 0. -1.
         11    1    5    5    0    0 -0.23112938839E+02  0.17201662132E+02  0.14262466287E+02  0.32148453563E+02  0.00000000000E+00 0. -1.
        -12    1    5    5    0    0 -0.44442760408E+02 -0.26666897565E+02  0.19803558977E+03  0.20470558662E+03  0.00000000000E+00 0.  1.
          5    1    4    4  501    0 -0.41429962803E+01 -0.37764208491E+02 -0.74753348754E+02  0.83957342806E+02  0.41800000000E+01 0.  1.
         -5    1    4    4    0  501  0.52697402700E+02 -0.13348879533E+03  0.74340932097E+01  0.14376721766E+03  0.41800000000E+01 0.  1.
</event>
<event>
11    1  0.8328696E-009  0.1332189E+03  0.7561462E-02  0.1115376E+00
         22   -1    0    0    0    0  0.00000000000E+00  0.00000000000E+00  0.25684805498E+04  0.25684805498E+04  0.00000000000E+00 0.  1.
         22   -1    0    0    0    0 -0.00000000000E+00 -0.00000000000E+00 -0.70238328403E+03  0.70238328403E+03  0.00000000000E+00 0.  1.
         24    2    1    2    0    0 -0.45809018599E+01 -0.21411669276E+02 -0.68431912107E+03  0.68933981564E+03  0.80107912987E+02 0.  0.
         25    2    1    2    0    0 -0.39369895158E+02  0.33994709574E+02  0.29909742727E+03  0.32834787970E+03  0.12508968853E+03 0.  0.
        -24    2    1    2    0    0  0.43950797018E+02 -0.12583040298E+02  0.22513189596E+04  0.22531761385E+04  0.79218987138E+02 0.  0.
        -13    1    3    3    0    0  0.19999659103E+02 -0.30347656522E+02 -0.59900605386E+03  0.60010767299E+03  0.00000000000E+00 0.  1.
         14    1    3    3    0    0 -0.24580560963E+02  0.89359872465E+01 -0.85313067210E+02  0.89232142651E+02  0.00000000000E+00 0. -1.
         11    1    5    5    0    0  0.32046136161E+02 -0.14686403894E+02  0.34067662085E+03  0.34249555515E+03  0.00000000000E+00 0. -1.
        -12    1    5    5    0    0  0.11904660857E+02  0.21033635954E+01  0.19106423387E+04  0.19106805834E+04  0.00000000000E+00 0.  1.
          5    1    4    4  501    0  0.14461479873E+02  0.68595970606E+02  0.17723525252E+03  0.19064193851E+03  0.41800000000E+01 0. -1.
         -5    1    4    4    0  501 -0.53831375031E+02 -0.34601261032E+02  0.12186217475E+03  0.13770594119E+03  0.41800000000E+01 0. -1.
</event>
<event>
11    1  0.8328696E-009  0.1436500E+03  0.7561462E-02  0.1103550E+00
         22   -1    0    0    0    0  0.00000000000E+00  0.00000000000E+00  0.11921542290E+04  0.11921542290E+04  0.00000000000E+00 0. -1.
         22   -1    0    0    0    0 -0.00000000000E+00 -0.00000000000E+00 -0.22209686327E+03  0.22209686327E+03  0.00000000000E+00 0. -1.
         24    2    1    2    0    0 -0.59965374664E+02  0.35201284408E+02 -0.17730008729E+03  0.20676997311E+03  0.80520334340E+02 0.  0.
         25    2    1    2    0    0  0.89044343495E+02 -0.18084198262E+02  0.18436645384E+03  0.24061269137E+03  0.12509014595E+03 0.  0.
        -24    2    1    2    0    0 -0.29078968831E+02 -0.17117086146E+02  0.96299099921E+03  0.96686842781E+03  0.79651183725E+02 0.  0.
        -13    1    3    3    0    0 -0.17007544992E+02  0.21114508706E+02 -0.36804974645E+01  0.27361014713E+02  0.00000000000E+00 0.  1.
         14    1    3    3    0    0 -0.42957829672E+02  0.14086775702E+02 -0.17361958983E+03  0.17940895840E+03  0.00000000000E+00 0. -1.
         11    1    5    5    0    0 -0.23689513734E+01 -0.45782769856E+02  0.60669073380E+03  0.60842034847E+03  0.00000000000E+00 0. -1.
        -12    1    5    5    0    0 -0.26710017457E+02  0.28665683710E+02  0.35630026540E+03  0.35844807934E+03  0.00000000000E+00 0.  1.
          5    1    4    4  501    0  0.61729354280E+02 -0.47207458900E+02  0.18474155510E+03  0.20046439070E+03  0.41800000000E+01 0.  1.
         -5    1    4    4    0  501  0.27314989215E+02  0.29123260638E+02 -0.37510126594E+00  0.40148300673E+02  0.41800000000E+01 0.  1.
</event>
<event>
11    1  0.8328696E-009  0.1598284E+03  0.7561462E-02  0.1087239E+00
         22   -1    0    0    0    0  0.00000000000E+00  0.00000000000E+00  0.72967490153E+03  0.72967490153E+03  0.00000000000E+00 0. -1.
         22   -1    0    0    0    0 -0.00000000000E+00 -0.00000000000E+00 -0.41238902159E+04  0.41238902159E+04  0.00000000000E+00 0. -1.
         24    2    1    2    0    0 -0.16896083213E+02 -0.87111622769E+02 -0.40564966917E+04  0.40582575979E+04  0.80096245372E+02 0.  0.
         25    2    1    2    0    0  0.11368450122E+03  0.64167182308E+02  0.75875738860E+02  0.19607724745E+03  0.12509023190E+03 0.  0.
        -24    2    1    2    0    0 -0.96788418007E+02  0.22944440461E+02  0.58640563842E+03  0.59923027215E+03  0.72875929346E+02 0.  0.
        -13    1    3    3    0    0 -0.38020611547E+02 -0.31227423815E+02 -0.10333464579E+04  0.10345170955E+04  0.00000000000E+00 0.  1.
         14    1    3    3    0    0  0.21124528334E+02 -0.55884198954E+02 -0.30231502338E+04  0.30237405023E+04  0.00000000000E+00 0. -1.
         11    1    5    5    0    0 -0.10126209949E+03  0.12625764122E+02  0.41153000848E+03  0.42399336150E+03  0.00000000000E+00 0. -1.
        -12    1    5    5    0    0  0.44736814862E+01  0.10318676339E+02  0.17487562994E+03  0.17523691065E+03  0.00000000000E+00 0.  1.
          5    1    4    4  501    0  0.11343752280E+03  0.80537818185E+02  0.23639815042E+02  0.14117621964E+03  0.41800000000E+01 0.  1.
         -5    1    4    4    0  501  0.24697842226E+00 -0.16370635877E+02  0.52235923818E+02  0.54901027809E+02  0.41800000000E+01 0.  1.
</event>
<event>
11    1  0.8328696E-009  0.1356660E+03  0.7561462E-02  0.1112497E+00
         22   -1    0    0    0    0  0.00000000000E+00  0.00000000000E+00  0.50791111995E+03  0.50791111995E+03  0.00000000000E+00 0.  1.
         22   -1    0    0    0    0 -0.00000000000E+00 -0.00000000000E+00 -0.70713596943E+03  0.70713596943E+03  0.00000000000E+00 0. -1.
         24    2    1    2    0    0  0.11602572151E+02  0.82815905493E+01 -0.61202130261E+03  0.61748344008E+03  0.80700182738E+02 0.  0.
         25    2    1    2    0    0  0.24543351119E+02  0.31025681777E+02 -0.37762758505E+02  0.13648742561E+03  0.12505127911E+03 0.  0.
        -24    2    1    2    0    0 -0.36145923270E+02 -0.39307272326E+02  0.45055921164E+03  0.46107622369E+03  0.82073695113E+02 0.  0.
        -13    1    3    3    0    0 -0.13457208968E+02 -0.25473764954E+02 -0.11018171703E+03  0.11388599537E+03  0.00000000000E+00 0.  1.
         14    1    3    3    0    0  0.25059781119E+02  0.33755355503E+02 -0.50183958559E+03  0.50359744471E+03  0.00000000000E+00 0. -1.
         13    1    5    5    0    0 -0.22525670897E+02  0.24119938871E+02  0.15828426397E+03  0.16168823557E+03  0.00000000000E+00 0. -1.
        -14    1    5    5    0    0 -0.13620252373E+02 -0.63427211197E+02  0.29227494767E+03  0.29938798812E+03  0.00000000000E+00 0.  1.
          5    1    4    4  501    0 -0.50396840056E+02  0.22280026830E+02 -0.11153744599E+02  0.56374812654E+02  0.41800000000E+01 0. -1.
         -5    1    4    4    0  501  0.74940191175E+02  0.87456549470E+01 -0.26609013906E+02  0.80112612958E+02  0.41800000000E+01 0. -1.
</event>
<event>
11    1  0.8328696E-009  0.1537576E+03  0.7561462E-02  0.1093100E+00
         22   -1    0    0    0    0  0.00000000000E+00  0.00000000000E+00  0.28891783402E+04  0.28891783402E+04  0.00000000000E+00 0. -1.
         22   -1    0    0    0    0 -0.00000000000E+00 -0.00000000000E+00 -0.12842456414E+03  0.12842456414E+03  0.00000000000E+00 0.  1.
         24    2    1    2    0    0  0.18498363905E+02  0.39719537830E+02 -0.89347986390E+02  0.12887479015E+03  0.81889057336E+02 0.  0.
         25    2    1    2    0    0  0.63420796224E+02 -0.75578407957E+02  0.33703196451E+03  0.37279023794E+03  0.12509086002E+03 0.  0.
        -24    2    1    2    0    0 -0.81919160129E+02  0.35858870127E+02  0.25130697980E+04  0.25159378763E+04  0.80168450409E+02 0.  0.
        -13    1    3    3    0    0 -0.16450562366E+02  0.19397830043E+01 -0.73028381744E+02  0.74883431414E+02  0.00000000000E+00 0.  1.
         14    1    3    3    0    0  0.34948926271E+02  0.37779754826E+02 -0.16319604646E+02  0.53991358734E+02  0.00000000000E+00 0. -1.
         11    1    5    5    0    0 -0.87790828326E+02  0.47836411441E+02  0.24004041338E+04  0.24024852876E+04  0.00000000000E+00 0. -1.
        -12    1    5    5    0    0  0.58716681975E+01 -0.11977541314E+02  0.11266566416E+03  0.11345258862E+03  0.00000000000E+00 0.  1.
          5    1    4    4  501    0 -0.24371165005E+02 -0.55363282293E+02  0.79908267893E+02  0.10030877523E+03  0.41800000000E+01 0. -1.
         -5    1    4    4    0  501  0.87791961228E+02 -0.20215125665E+02  0.25712369661E+03  0.27248146271E+03  0.41800000000E+01 0. -1.
</event>
<event>
11    1  0.8328696E-009  0.1387188E+03  0.7561462E-02  0.1108998E+00
         22   -1    0    0    0    0  0.00000000000E+00  0.00000000000E+00  0.28757658074E+03  0.28757658074E+03  0.00000000000E+00 0. -1.
         22   -1    0    0    0    0 -0.00000000000E+00 -0.00000000000E+00 -0.40697884281E+03  0.40697884281E+03  0.00000000000E+00 0.  1.
        -24    2    1    2    0    0 -0.76183781200E+02 -0.28156092912E+02 -0.33948959506E+03  0.35828174753E+03  0.80721071433E+02 0.  0.
         25    2    1    2    0    0 -0.13246394051E+02  0.11061720199E+02  0.77311880349E+02  0.14806695303E+03  0.12509543208E+03 0.  0.
         24    2    1    2    0    0  0.89430175250E+02  0.17094372713E+02  0.14277545263E+03  0.18820672299E+03  0.82139922581E+02 0.  0.
        -13    1    5    5    0    0  0.10804189904E+02  0.39094153376E+02  0.40220660791E+02  0.57120792205E+02  0.00000000000E+00 0.  1.
         14    1    5    5    0    0  0.78625985347E+02 -0.21999780663E+02  0.10255479184E+03  0.13108593079E+03  0.00000000000E+00 0. -1.
         11    1    3    3    0    0  0.13824530248E+02 -0.17366407460E+02 -0.94108771296E+02  0.96691109102E+02  0.00000000000E+00 0. -1.
        -12    1    3    3    0    0 -0.90008311448E+02 -0.10789685452E+02 -0.24538082376E+03  0.26159063843E+03  0.00000000000E+00 0.  1.
          5    1    4    4  501    0 -0.68810843242E+02  0.62306491699E+01  0.52518814933E+02  0.86887579427E+02  0.41800000000E+01 0.  1.
         -5    1    4    4    0  501  0.55564449192E+02  0.48310710289E+01  0.24793065416E+02  0.61179373599E+02  0.41800000000E+01 0.  1.
</event>
<event>
11    1  0.1008045E-008  0.1563204E+03  0.7561462E-02  0.1090590E+00
         22   -1    0    0    0    0  0.00000000000E+00  0.00000000000E+00  0.15793991248E+04  0.15793991248E+04  0.00000000000E+00 0. -1.
         22   -1    0    0    0    0 -0.00000000000E+00 -0.00000000000E+00 -0.45116394713E+03  0.45116394713E+03  0.00000000000E+00 0.  1.
        -24    2    1    2    0    0 -0.84170201569E+02 -0.25469089686E+01 -0.36475662410E+03  0.38270010101E+03  0.79503854703E+02 0.  0.
         25    2    1    2    0    0  0.25703658838E+02 -0.73002473329E+02 -0.25198647629E+01  0.14711857636E+03  0.12508991407E+03 0.  0.
         24    2    1    2    0    0  0.58466542731E+02  0.75549382298E+02  0.14955116666E+04  0.15007443946E+04  0.80947805683E+02 0.  0.
        -13    1    5    5    0    0  0.34358261634E+02 -0.75173839164E+01  0.28815529797E+03  0.29029377698E+03  0.00000000000E+00 0.  1.
         14    1    5    5    0    0  0.24108281097E+02  0.83066766214E+02  0.12073563686E+04  0.12104506176E+04  0.00000000000E+00 0. -1.
         13    1    3    3    0    0  0.14281238883E+02 -0.65111082814E+00 -0.23370298472E+02  0.27396141700E+02  0.00000000000E+00 0. -1.
        -14    1    3    3    0    0 -0.98451440452E+02 -0.18957981405E+01 -0.34138632563E+03  0.35530395931E+03  0.00000000000E+00 0.  1.
          5    1    4    4  501    0  0.52018763020E+02 -0.11060808775E+02 -0.42958932137E+02  0.68492594105E+02  0.41800000000E+01 0. -1.
         -5    1    4    4    0  501 -0.26315104182E+02 -0.61941664555E+02  0.40439067374E+02  0.78625982258E+02  0.41800000000E+01 0. -1.
</event>
<event>
11    1  0.8328696E-009  0.1958391E+03  0.7561462E-02  0.1057506E+00
         22   -1    0    0    0    0  0.00000000000E+00  0.00000000000E+00  0.42082632207E+03  0.42082632207E+03  0.00000000000E+00 0.  1.
         22   -1    0    0    0    0 -0.00000000000E+00 -0.00000000000E+00 -0.24330855851E+03  0.24330855851E+03  0.00000000000E+00 0. -1.
        -24    2    1    2    0    0  0.33448268761E+01  0.30159339493E+02 -0.13926277471E+03  0.16277595905E+03  0.78620091588E+02 0.  0.
         25    2    1    2    0    0 -0.12078186688E+03 -0.11119015046E+03  0.13257654537E+03  0.24530732163E+03  0.12509049819E+03 0.  0.
         24    2    1    2    0    0  0.11743704000E+03  0.81030810966E+02  0.18420399290E+03  0.25605159990E+03  0.10617843529E+03 0.  0.
        -11    1    5    5    0    0  0.11950364202E+03  0.26326007793E+02  0.13776041047E+03  0.18426098294E+03  0.00000000000E+00 0.  1.
         12    1    5    5    0    0 -0.20666020167E+01  0.54704803173E+02  0.46443582432E+02  0.71790616959E+02  0.00000000000E+00 0. -1.
         11    1    3    3    0    0  0.13694052215E+02  0.44229734241E+02 -0.37660931276E+02  0.59683684552E+02  0.00000000000E+00 0. -1.
        -12    1    3    3    0    0 -0.10349225338E+02 -0.14070394748E+02 -0.10160184343E+03  0.10309227450E+03  0.00000000000E+00 0.  1.
          5    1    4    4  501    0 -0.23138229163E+02 -0.51571904061E+02 -0.14906197339E+02  0.58606365323E+02  0.41800000000E+01 0.  1.
         -5    1    4    4    0  501 -0.97643637713E+02 -0.59618246398E+02  0.14748274270E+03  0.18670095631E+03  0.41800000000E+01 0.  1.
</event>
<event>
11    1  0.8328696E-009  0.1441038E+03  0.7561462E-02  0.1103060E+00
         22   -1    0    0    0    0  0.00000000000E+00  0.00000000000E+00  0.77210175077E+03  0.77210175077E+03  0.00000000000E+00 0.  1.
         22   -1    0    0    0    0 -0.00000000000E+00 -0.00000000000E+00 -0.11660251610E+03  0.11660251610E+03  0.00000000000E+00 0. -1.
        -24    2    1    2    0    0  0.61620656316E+02 -0.26811420229E+02 -0.56759800029E+02  0.11612841506E+03  0.75816728663E+02 0.  0.
         25    2    1    2    0    0 -0.12046546570E+03  0.14433184425E+02  0.28610373820E+03  0.33499733486E+03  0.12509044774E+03 0.  0.
         24    2    1    2    0    0  0.58844809386E+02  0.12378235803E+02  0.42615529651E+03  0.43757851695E+03  0.79061301784E+02 0.  0.
        -13    1    5    5    0    0  0.59429596744E+02 -0.14731060640E+02  0.37209625694E+03  0.37710012668E+03  0.00000000000E+00 0.  1.
         14    1    5    5    0    0 -0.58478735849E+00  0.27109296444E+02  0.54059039570E+02  0.60478390266E+02  0.00000000000E+00 0. -1.
         11    1    3    3    0    0  0.45945206953E+02 -0.33034106936E+02  0.34084860147E+00  0.56589137126E+02  0.00000000000E+00 0. -1.
        -12    1    3    3    0    0  0.15675449363E+02  0.62226867071E+01 -0.57100648630E+02  0.59539277931E+02  0.00000000000E+00 0.  1.
          5    1    4    4  501    0 -0.69663581302E+02  0.67883912217E+02  0.19289638180E+03  0.21607342874E+03  0.41800000000E+01 0.  1.
         -5    1    4    4    0  501 -0.50801884399E+02 -0.53450727791E+02  0.93207356401E+02  0.11892390612E+03  0.41800000000E+01 0.  1.
</event>
<event>
11    1  0.8328696E-009  0.2124018E+03  0.7561462E-02  0.1046084E+00
         22   -1    0    0    0    0  0.00000000000E+00  0.00000000000E+00  0.89593373524E+03  0.89593373524E+03  0.00000000000E+00 0.  1.
         22   -1    0    0    0    0 -0.00000000000E+00 -0.00000000000E+00 -0.65022412400E+03  0.65022412400E+03  0.00000000000E+00 0. -1.
         24    2    1    2    0    0  0.26029869090E+02  0.19020519428E+02 -0.59009883289E+03  0.59642867876E+03  0.80443781761E+02 0.  0.
         25    2    1    2    0    0 -0.12010501108E+03  0.12484352976E+03  0.22911140402E+03  0.31328900262E+03  0.12508734189E+03 0.  0.
        -24    2    1    2    0    0  0.94075141991E+02 -0.14386404919E+03  0.60669704012E+03  0.63644017785E+03  0.86184711534E+02 0.  0.
        -11    1    3    3    0    0 -0.26607051444E+01 -0.18127130097E+02 -0.36466818948E+02  0.40810551106E+02  0.00000000000E+00 0.  1.
         12    1    3    3    0    0  0.28690574235E+02  0.37147649524E+02 -0.55363201395E+03  0.55561812766E+03  0.00000000000E+00 0. -1.
         11    1    5    5    0    0  0.92197087539E+02 -0.77645029291E+02  0.31401336130E+03  0.33635315459E+03  0.00000000000E+00 0. -1.
        -12    1    5    5    0    0  0.18780544525E+01 -0.66219019901E+02  0.29268367882E+03  0.30008702327E+03  0.00000000000E+00 0.  1.
          5    1    4    4  501    0 -0.43453317217E+02  0.55739654091E+02  0.10590327117E+02  0.71587200279E+02  0.41800000000E+01 0.  1.
         -5    1    4    4    0  501 -0.76651693865E+02  0.69103875673E+02  0.21852107690E+03  0.24170180234E+03  0.41800000000E+01 0.  1.
</event>
<event>
11    1  0.8328696E-009  0.1302911E+03  0.7561462E-02  0.1118912E+00
         22   -1    0    0    0    0  0.00000000000E+00  0.00000000000E+00  0.15029395008E+03  0.15029395008E+03  0.00000000000E+00 0.  1.
         22   -1    0    0    0    0 -0.00000000000E+00 -0.00000000000E+00 -0.18334153980E+04  0.18334153980E+04  0.00000000000E+00 0. -1.
         24    2    1    2    0    0  0.29230757002E+02 -0.23078791722E+02 -0.17064626327E+04  0.17087580745E+04  0.80326662427E+02 0.  0.
         25    2    1    2    0    0 -0.18429786971E+02 -0.55166739589E+01 -0.72275753597E+02  0.14574240058E+03  0.12508785725E+03 0.  0.
        -24    2    1    2    0    0 -0.10800970032E+02  0.28595465681E+02  0.95616938355E+02  0.12920887299E+03  0.81350921008E+02 0.  0.
        -13    1    3    3    0    0 -0.25907145511E+02 -0.43575385114E+01 -0.32137358770E+03  0.32244557867E+03  0.00000000000E+00 0.  1.
         14    1    3    3    0    0  0.55137902514E+02 -0.18721253211E+02 -0.13850890450E+04  0.13863124958E+04  0.00000000000E+00 0. -1.
         11    1    5    5    0    0 -0.11149163671E+02 -0.92593141560E+01 -0.96033620462E+01  0.17385721492E+02  0.00000000000E+00 0. -1.
        -12    1    5    5    0    0  0.34819363908E+00  0.37854779837E+02  0.10522030040E+03  0.11182315150E+03  0.00000000000E+00 0.  1.
          5    1    4    4  501    0 -0.50434057646E+02 -0.49858387053E+02 -0.33299385409E+02  0.78458743291E+02  0.41800000000E+01 0. -1.
         -5    1    4    4    0  501  0.32004270676E+02  0.44341713094E+02 -0.38976368188E+02  0.67283657293E+02  0.41800000000E+01 0. -1.
</event>
<event>
11    1  0.8328696E-009  0.1614150E+03  0.7561462E-02  0.1085754E+00
         22   -1    0    0    0    0  0.00000000000E+00  0.00000000000E+00  0.22622850927E+04  0.22622850927E+04  0.00000000000E+00 0.  1.
         22   -1    0    0    0    0 -0.00000000000E+00 -0.00000000000E+00 -0.13026131719E+04  0.13026131719E+04  0.00000000000E+00 0. -1.
         24    2    1    2    0    0 -0.38366522890E+02  0.47773386383E+02 -0.12482110467E+04  0.12522859177E+04  0.80217927645E+02 0.  0.
         25    2    1    2    0    0  0.74672007689E+02 -0.14068888173E+03  0.15330892343E+03  0.25401272014E+03  0.12509822467E+03 0.  0.
        -24    2    1    2    0    0 -0.36305484800E+02  0.92915495347E+02  0.20545740442E+04  0.20585996268E+04  0.81280642702E+02 0.  0.
        -11    1    3    3    0    0 -0.16257307336E+02  0.22149918895E+02 -0.10380898859E+03  0.10738354185E+03  0.00000000000E+00 0.  1.
         12    1    3    3    0    0 -0.22109215553E+02  0.25623467488E+02 -0.11444020582E+04  0.11449023758E+04  0.00000000000E+00 0. -1.
         11    1    5    5    0    0 -0.61868271715E+01 -0.10439212972E+02  0.65508344663E+02  0.66622798038E+02  0.00000000000E+00 0. -1.
        -12    1    5    5    0    0 -0.30118657628E+02  0.10335470832E+03  0.19890656995E+04  0.19919768287E+04  0.00000000000E+00 0.  1.
          5    1    4    4  501    0  0.19213256024E+02 -0.12886862128E+03  0.57227745820E+02  0.14236838851E+03  0.41800000000E+01 0. -1.
         -5    1    4    4    0  501  0.55458751665E+02 -0.11820260455E+02  0.96081177611E+02  0.11164433163E+03  0.41800000000E+01 0. -1.
</event>
<event>
11    1  0.8328696E-009  0.1328211E+03  0.7561462E-02  0.1115851E+00
         22   -1    0    0    0    0  0.00000000000E+00  0.00000000000E+00  0.57088574551E+03  0.57088574551E+03  0.00000000000E+00 0. -1.
         22   -1    0    0    0    0 -0.00000000000E+00 -0.00000000000E+00 -0.52827441525E+03  0.52827441525E+03  0.00000000000E+00 0. -1.
        -24    2    1    2    0    0  0.23350064626E+02 -0.33030196353E+02 -0.34365725892E+03  0.35564872469E+03  0.82155245589E+02 0.  0.
         25    2    1    2    0    0 -0.28126412358E+02  0.59354238156E+02 -0.14689227066E+03  0.20379744169E+03  0.12506813104E+03 0.  0.
         24    2    1    2    0    0  0.47763477322E+01 -0.26324041803E+02  0.53316085984E+03  0.53971399437E+03  0.79466499739E+02 0.  0.
        -11    1    5    5    0    0 -0.12713047735E+02  0.10207042458E+02  0.24412635098E+02  0.29356124589E+02  0.00000000000E+00 0.  1.
         12    1    5    5    0    0  0.17489395467E+02 -0.36531084261E+02  0.50874822474E+03  0.51035786978E+03  0.00000000000E+00 0. -1.
         11    1    3    3    0    0  0.36237099996E+02 -0.51752670959E+02 -0.29827936278E+03  0.30489677701E+03  0.00000000000E+00 0. -1.
        -12    1    3    3    0    0 -0.12887035370E+02  0.18722474605E+02 -0.45377896138E+02  0.50751947686E+02  0.00000000000E+00 0.  1.
          5    1    4    4  501    0  0.29170800823E+02  0.75750634934E+02 -0.90512266744E+02  0.12165129323E+03  0.41800000000E+01 0.  1.
         -5    1    4    4    0  501 -0.57297213181E+02 -0.16396396778E+02 -0.56380003917E+02  0.82146148463E+02  0.41800000000E+01 0.  1.
</event>
<event>
11    1  0.8328696E-009  0.2578811E+03  0.7561462E-02  0.1019783E+00
         22   -1    0    0    0    0  0.00000000000E+00  0.00000000000E+00  0.25101472287E+04  0.25101472287E+04  0.00000000000E+00 0.  1.
         22   -1    0    0    0    0 -0.00000000000E+00 -0.00000000000E+00 -0.22187345764E+03  0.22187345764E+03  0.00000000000E+00 0. -1.
         24    2    1    2    0    0 -0.11137528465E+03 -0.20073840476E+03 -0.13390637143E+03  0.27817522314E+03  0.82159462511E+02 0.  0.
         25    2    1    2    0    0  0.82256561257E+02  0.15902633427E+03  0.81333315756E+03  0.84214866557E+03  0.12509209762E+03 0.  0.
        -24    2    1    2    0    0  0.29118723392E+02  0.41712070498E+02  0.16088469850E+04  0.16116967977E+04  0.81179736858E+02 0.  0.
        -13    1    3    3    0    0  0.44193144670E+01  0.28233610448E+01 -0.14253048415E+02  0.15187201752E+02  0.00000000000E+00 0.  1.
         14    1    3    3    0    0 -0.11579459912E+03 -0.20356176581E+03 -0.11965332301E+03  0.26298802138E+03  0.00000000000E+00 0. -1.
         11    1    5    5    0    0  0.10914919307E+02  0.66253708579E+01  0.33451539099E+02  0.35805536870E+02  0.00000000000E+00 0. -1.
        -12    1    5    5    0    0  0.18203804085E+02  0.35086699640E+02  0.15753954459E+04  0.15758912608E+04  0.00000000000E+00 0.  1.
          5    1    4    4  501    0  0.90484921642E+02  0.10667812808E+03  0.36899390204E+03  0.39464124999E+03  0.41800000000E+01 0. -1.
         -5    1    4    4    0  501 -0.82283603851E+01  0.52348206188E+02  0.44433925552E+03  0.44750741558E+03  0.41800000000E+01 0. -1.
</event>
<event>
11    1  0.8328696E-009  0.1558567E+03  0.7561462E-02  0.1091040E+00
         22   -1    0    0    0    0  0.00000000000E+00  0.00000000000E+00  0.11230052769E+04  0.11230052769E+04  0.00000000000E+00 0. -1.
         22   -1    0    0    0    0 -0.00000000000E+00 -0.00000000000E+00 -0.13975341303E+04  0.13975341303E+04  0.00000000000E+00 0. -1.
        -24    2    1    2    0    0 -0.36982324042E+02 -0.26737009754E+02 -0.13568112979E+04  0.13598488769E+04  0.78546228199E+02 0.  0.
         25    2    1    2    0    0 -0.37212840835E+02  0.84689760732E+02  0.13659484328E+03  0.20703710479E+03  0.12509620480E+03 0.  0.
         24    2    1    2    0    0  0.74195164876E+02 -0.57952750978E+02  0.94568760110E+03  0.95365342552E+03  0.79160427600E+02 0.  0.
        -13    1    5    5    0    0  0.90835237496E+01 -0.32184037448E+02  0.10836113075E+03  0.11340395640E+03  0.00000000000E+00 0.  1.
         14    1    5    5    0    0  0.65111641127E+02 -0.25768713530E+02  0.83732647035E+03  0.84024946912E+03  0.00000000000E+00 0. -1.
         11    1    3    3    0    0 -0.50664037296E+02 -0.26057883040E+02 -0.13054373810E+04  0.13066799967E+04  0.00000000000E+00 0. -1.
        -12    1    3    3    0    0  0.13681713254E+02 -0.67912671380E+00 -0.51373916833E+02  0.53168880197E+02  0.00000000000E+00 0.  1.
          5    1    4    4  501    0 -0.57404411755E+02  0.96947209502E+01  0.11055362528E+03  0.12501532133E+03  0.41800000000E+01 0.  1.
         -5    1    4    4    0  501  0.20191570920E+02  0.74995039782E+02  0.26041217997E+02  0.82021783465E+02  0.41800000000E+01 0.  1.
</event>
<event>
11    1  0.8328696E-009  0.3736869E+03  0.7561462E-02  0.9730754E-01
         22   -1    0    0    0    0  0.00000000000E+00  0.00000000000E+00  0.10177650598E+04  0.10177650598E+04  0.00000000000E+00 0.  1.
         22   -1    0    0    0    0 -0.00000000000E+00 -0.00000000000E+00 -0.21032763732E+03  0.21032763732E+03  0.00000000000E+00 0.  1.
         24    2    1    2    0    0 -0.13101676932E+02  0.34715315690E+03  0.12609838433E+03  0.37838728622E+03  0.81173687583E+02 0.  0.
         25    2    1    2    0    0 -0.41146663625E+02 -0.36173090057E+03  0.41755250091E+03  0.56792592420E+03  0.12508985574E+03 0.  0.
        -24    2    1    2    0    0  0.54248340557E+02  0.14577743669E+02  0.26378653722E+03  0.28177948668E+03  0.81614636134E+02 0.  0.
        -11    1    3    3    0    0 -0.16840019901E+02  0.32645895730E+03  0.13730499308E+03  0.35455845526E+03  0.00000000000E+00 0.  1.
         12    1    3    3    0    0  0.37383429686E+01  0.20694199606E+02 -0.11206608747E+02  0.23828830963E+02  0.00000000000E+00 0. -1.
         13    1    5    5    0    0  0.42921828218E+02 -0.29175392627E+02  0.11265421343E+03  0.12403410288E+03  0.00000000000E+00 0. -1.
        -14    1    5    5    0    0  0.11326512339E+02  0.43753136296E+02  0.15113232379E+03  0.15774538381E+03  0.00000000000E+00 0.  1.
          5    1    4    4  501    0 -0.79785002857E+02 -0.19376275563E+03  0.19380073489E+03  0.28545726369E+03  0.41800000000E+01 0.  1.
         -5    1    4    4    0  501  0.38638339232E+02 -0.16796814494E+03  0.22375176602E+03  0.28246866051E+03  0.41800000000E+01 0.  1.
</event>
<event>
11    1  0.8328696E-009  0.1509829E+03  0.7561462E-02  0.1095879E+00
         22   -1    0    0    0    0  0.00000000000E+00  0.00000000000E+00  0.19531471937E+03  0.19531471937E+03  0.00000000000E+00 0.  1.
         22   -1    0    0    0    0 -0.00000000000E+00 -0.00000000000E+00 -0.62189579187E+03  0.62189579187E+03  0.00000000000E+00 0.  1.
         24    2    1    2    0    0 -0.34968583824E+01 -0.26483793813E+02 -0.32859045846E+03  0.33851239283E+03  0.76846153785E+02 0.  0.
         25    2    1    2    0    0 -0.80591626541E+02  0.14109089179E+02 -0.24703252158E+03  0.28874834353E+03  0.12512578674E+03 0.  0.
        -24    2    1    2    0    0  0.84088484924E+02  0.12374704634E+02  0.14904190754E+03  0.18994977488E+03  0.81507178594E+02 0.  0.
        -13    1    3    3    0    0  0.31992848708E+02 -0.15740698272E+02 -0.23753942492E+03  0.24020052111E+03  0.00000000000E+00 0.  1.
         14    1    3    3    0    0 -0.35489707090E+02 -0.10743095541E+02 -0.91051033541E+02  0.98311871715E+02  0.00000000000E+00 0. -1.
         13    1    5    5    0    0  0.25980180832E+02 -0.32531281931E+02  0.35420418160E+02  0.54661322000E+02  0.00000000000E+00 0. -1.
        -14    1    5    5    0    0  0.58108304091E+02  0.44905986565E+02  0.11362148938E+03  0.13528845288E+03  0.00000000000E+00 0.  1.
          5    1    4    4  501    0 -0.97203214871E+02  0.50104429400E+02 -0.17429600191E+03  0.20580448856E+03  0.41800000000E+01 0.  1.
         -5    1    4    4    0  501  0.16611588330E+02 -0.35995340221E+02 -0.72736519663E+02  0.82943854970E+02  0.41800000000E+01 0.  1.
</event>
<event>
11    1  0.8328696E-009  0.1416346E+03  0.7561462E-02  0.1105747E+00
         22   -1    0    0    0    0  0.00000000000E+00  0.00000000000E+00  0.33982060877E+03  0.33982060877E+03  0.00000000000E+00 0.  1.
         22   -1    0    0    0    0 -0.00000000000E+00 -0.00000000000E+00 -0.72974139398E+03  0.72974139398E+03  0.00000000000E+00 0.  1.
         24    2    1    2    0    0 -0.94694100705E+01 -0.65708073901E+02 -0.65678677512E+03  0.66321789414E+03  0.63889642582E+02 0.  0.
         25    2    1    2    0    0  0.33416888265E+02  0.62838697902E+02  0.17593868552E+02  0.14499766127E+03  0.12509751072E+03 0.  0.
        -24    2    1    2    0    0 -0.23947478195E+02  0.28693759997E+01  0.24927212136E+03  0.26134644734E+03  0.74723891891E+02 0.  0.
        -11    1    3    3    0    0  0.26840022091E+02 -0.37619474028E+02 -0.33601450304E+03  0.33917747252E+03  0.00000000000E+00 0.  1.
         12    1    3    3    0    0 -0.36309432162E+02 -0.28088599873E+02 -0.32077227208E+03  0.32404042162E+03  0.00000000000E+00 0. -1.
         11    1    5    5    0    0 -0.18182472341E+02  0.33558313132E+02  0.73468036016E+02  0.82790790531E+02  0.00000000000E+00 0. -1.
        -12    1    5    5    0    0 -0.57650058538E+01 -0.30688937132E+02  0.17580408535E+03  0.17855565681E+03  0.00000000000E+00 0.  1.
          5    1    4    4  501    0  0.12459024717E+02 -0.38031125500E+02  0.10817887175E+02  0.41666447972E+02  0.41800000000E+01 0. -1.
         -5    1    4    4    0  501  0.20957863548E+02  0.10086982340E+03  0.67759813769E+01  0.10333121330E+03  0.41800000000E+01 0. -1.
</event>
<event>
11    1  0.8328696E-009  0.1544667E+03  0.7561462E-02  0.1092400E+00
         22   -1    0    0    0    0  0.00000000000E+00  0.00000000000E+00  0.11710294078E+04  0.11710294078E+04  0.00000000000E+00 0.  1.
         22   -1    0    0    0    0 -0.00000000000E+00 -0.00000000000E+00 -0.69106448899E+03  0.69106448899E+03  0.00000000000E+00 0. -1.
         24    2    1    2    0    0  0.14697110535E+01 -0.49558730264E+02 -0.50805318260E+03  0.51687388525E+03  0.81131677597E+02 0.  0.
         25    2    1    2    0    0 -0.64365220953E+02  0.11385124303E+03 -0.12855214913E+03  0.22198661186E+03  0.12508962224E+03 0.  0.
        -24    2    1    2    0    0  0.62895509900E+02 -0.64292512764E+02  0.11165702506E+04  0.11232333997E+04  0.82672688243E+02 0.  0.
        -13    1    3    3    0    0 -0.24515311150E+02  0.93333120275E+01 -0.85123483341E+02  0.89073669568E+02  0.00000000000E+00 0.  1.
         14    1    3    3    0    0  0.25985022204E+02 -0.58892042292E+02 -0.42292969925E+03  0.42780021568E+03  0.00000000000E+00 0. -1.
         11    1    5    5    0    0  0.49829310612E+01  0.19139644756E+02  0.13865648787E+03  0.14005990587E+03  0.00000000000E+00 0. -1.
        -12    1    5    5    0    0  0.57912578839E+02 -0.83432157520E+02  0.97791376271E+03  0.98317349384E+03  0.00000000000E+00 0.  1.
          5    1    4    4  501    0 -0.95395424860E+02  0.91967935497E+02 -0.64555256911E+02  0.14745589794E+03  0.41800000000E+01 0. -1.
         -5    1    4    4    0  501  0.31030203907E+02  0.21883307532E+02 -0.63996892223E+02  0.74530713919E+02  0.41800000000E+01 0. -1.
</event>
<event>
11    1  0.8328696E-009  0.1267960E+03  0.7561462E-02  0.1123270E+00
         22   -1    0    0    0    0  0.00000000000E+00  0.00000000000E+00  0.14574219108E+03  0.14574219108E+03  0.00000000000E+00 0.  1.
         22   -1    0    0    0    0 -0.00000000000E+00 -0.00000000000E+00 -0.85727677949E+03  0.85727677949E+03  0.00000000000E+00 0.  1.
         24    2    1    2    0    0  0.30596961923E+01 -0.22144950778E+02 -0.68037804984E+03  0.68550958887E+03  0.80680512751E+02 0.  0.
         25    2    1    2    0    0 -0.91980032053E+01  0.53870506831E+00 -0.13487554377E+03  0.18418327735E+03  0.12508866408E+03 0.  0.
        -24    2    1    2    0    0  0.61383070131E+01  0.21606245710E+02  0.10371900520E+03  0.13332610436E+03  0.80707554778E+02 0.  0.
        -11    1    3    3    0    0 -0.31105681067E+02 -0.33725051231E+02 -0.44874157818E+03  0.45108086466E+03  0.00000000000E+00 0.  1.
         12    1    3    3    0    0  0.34165377259E+02  0.11580100452E+02 -0.23163647166E+03  0.23442872421E+03  0.00000000000E+00 0. -1.
         13    1    5    5    0    0  0.26651456182E+01  0.49094407368E+02  0.38437787760E+02  0.62408552009E+02  0.00000000000E+00 0. -1.
        -14    1    5    5    0    0  0.34731613949E+01 -0.27488161658E+02  0.65281217440E+02  0.70917552354E+02  0.00000000000E+00 0.  1.
          5    1    4    4  501    0  0.13234333588E+02  0.59119708231E+02 -0.50621714461E+02  0.79058951813E+02  0.41800000000E+01 0.  1.
         -5    1    4    4    0  501 -0.22432336793E+02 -0.58581003163E+02 -0.84253829311E+02  0.10512432553E+03  0.41800000000E+01 0.  1.
</event>
<event>
11    1  0.8328696E-009  0.1739132E+03  0.7561462E-02  0.1074676E+00
         22   -1    0    0    0    0  0.00000000000E+00  0.00000000000E+00  0.12188066264E+03  0.12188066264E+03  0.00000000000E+00 0.  1.
         22   -1    0    0    0    0 -0.00000000000E+00 -0.00000000000E+00 -0.87928248568E+03  0.87928248568E+03  0.00000000000E+00 0. -1.
        -24    2    1    2    0    0  0.32887048421E+02  0.60937695978E+02 -0.62484082205E+03  0.63385788473E+03  0.80961746458E+02 0.  0.
         25    2    1    2    0    0  0.59798390152E+02 -0.13025334697E+03 -0.11946289547E+03  0.22464505483E+03  0.12510889419E+03 0.  0.
         24    2    1    2    0    0 -0.92685438573E+02  0.69315650988E+02 -0.13098105528E+02  0.14266020877E+03  0.82371868994E+02 0.  0.
        -11    1    5    5    0    0 -0.89416825309E+02  0.60735682382E+02  0.18579739495E+02  0.10967861452E+03  0.00000000000E+00 0.  1.
         12    1    5    5    0    0 -0.32686132644E+01  0.85799686059E+01 -0.31677845023E+02  0.32981594250E+02  0.00000000000E+00 0. -1.
         11    1    3    3    0    0  0.65821335647E+01  0.71699480451E+02 -0.33633197839E+03  0.34395252531E+03  0.00000000000E+00 0. -1.
        -12    1    3    3    0    0  0.26304914857E+02 -0.10761784473E+02 -0.28850884365E+03  0.28990535942E+03  0.00000000000E+00 0.  1.
          5    1    4    4  501    0 -0.21784816960E+02 -0.90076412812E+02 -0.89242146118E+02  0.12872440110E+03  0.41800000000E+01 0.  1.
         -5    1    4    4    0  501  0.81583207111E+02 -0.40176934154E+02 -0.30220749350E+02  0.95920653729E+02  0.41800000000E+01 0.  1.
</event>
<event>
11    1  0.8328696E-009  0.2344891E+03  0.7561462E-02  0.1032503E+00
         22   -1    0    0    0    0  0.00000000000E+00  0.00000000000E+00  0.39714305496E+03  0.39714305496E+03  0.00000000000E+00 0.  1.
         22   -1    0    0    0    0 -0.00000000000E+00 -0.00000000000E+00 -0.17624731876E+04  0.17624731876E+04  0.00000000000E+00 0. -1.
        -24    2    1    2    0    0 -0.16250666507E+03  0.48727041952E+01 -0.77837055501E+03  0.79999590716E+03  0.87752898122E+02 0.  0.
         25    2    1    2    0    0  0.28702469981E+03  0.97137312261E+02 -0.92217314211E+03  0.97870805238E+03  0.12508921631E+03 0.  0.
         24    2    1    2    0    0 -0.12451803474E+03 -0.10201001646E+03  0.33521356452E+03  0.38091228297E+03  0.82554521621E+02 0.  0.
        -11    1    5    5    0    0 -0.96201927756E+02 -0.11238501662E+03  0.24965408513E+03  0.29019366824E+03  0.00000000000E+00 0.  1.
         12    1    5    5    0    0 -0.28316106985E+02  0.10375000168E+02  0.85559479392E+02  0.90718614722E+02  0.00000000000E+00 0. -1.
         13    1    3    3    0    0 -0.39466776629E+02 -0.11450521714E+02 -0.39272245289E+03  0.39486664319E+03  0.00000000000E+00 0. -1.
        -14    1    3    3    0    0 -0.12303988844E+03  0.16323225909E+02 -0.38564810213E+03  0.40512926397E+03  0.00000000000E+00 0.  1.
          5    1    4    4  501    0  0.31682038653E+02 -0.21070397285E+02 -0.20027482297E+03  0.20389995177E+03  0.41800000000E+01 0. -1.
         -5    1    4    4    0  501  0.25534266116E+03  0.11820770955E+03 -0.72189831914E+03  0.77480810062E+03  0.41800000000E+01 0. -1.
</event>
<event>
11    1  0.8328696E-009  0.1378743E+03  0.7561462E-02  0.1109956E+00
         22   -1    0    0    0    0  0.00000000000E+00  0.00000000000E+00  0.21647154089E+04  0.21647154089E+04  0.00000000000E+00 0.  1.
         22   -1    0    0    0    0 -0.00000000000E+00 -0.00000000000E+00 -0.30327859731E+02  0.30327859731E+02  0.00000000000E+00 0. -1.
         24    2    1    2    0    0  0.18169389266E+02 -0.49128031962E+02  0.97201226720E+02  0.13684029323E+03  0.80830051006E+02 0.  0.
         25    2    1    2    0    0  0.36461055586E+02  0.14880612751E+02  0.47949866181E+03  0.49710857208E+03  0.12508846688E+03 0.  0.
        -24    2    1    2    0    0 -0.54630444852E+02  0.34247419211E+02  0.15576876606E+04  0.15610944033E+04  0.80420872518E+02 0.  0.
        -11    1    3    3    0    0  0.30869503538E+02  0.18079611507E-01  0.45606934909E+01  0.31204591020E+02  0.00000000000E+00 0.  1.
         12    1    3    3    0    0 -0.12700114273E+02 -0.49146111573E+02  0.92640533229E+02  0.10563570221E+03  0.00000000000E+00 0. -1.
         11    1    5    5    0    0 -0.35625716091E+02  0.60773396540E+02  0.10648620055E+04  0.10671896214E+04  0.00000000000E+00 0. -1.
        -12    1    5    5    0    0 -0.19004728761E+02 -0.26525977329E+02  0.49282565514E+03  0.49390478187E+03  0.00000000000E+00 0.  1.
          5    1    4    4  501    0  0.78179466398E+02  0.12231191002E+02  0.39347367526E+03  0.40137343774E+03  0.41800000000E+01 0. -1.
         -5    1    4    4    0  501 -0.41718410812E+02  0.26494217483E+01  0.86024986557E+02  0.95735134347E+02  0.41800000000E+01 0. -1.
</event>
<event>
11    1  0.8328696E-009  0.1409015E+03  0.7561462E-02  0.1106556E+00
         22   -1    0    0    0    0  0.00000000000E+00  0.00000000000E+00  0.78040659467E+03  0.78040659467E+03  0.00000000000E+00 0.  1.
         22   -1    0    0    0    0 -0.00000000000E+00 -0.00000000000E+00 -0.10496864295E+03  0.10496864295E+03  0.00000000000E+00 0. -1.
        -24    2    1    2    0    0 -0.42617919337E+02 -0.48525163440E+02 -0.51802552687E+02  0.11553904058E+03  0.80590240705E+02 0.  0.
         25    2    1    2    0    0  0.47620782927E+02  0.47578714472E+02  0.26119569059E+03  0.29732536020E+03  0.12509079903E+03 0.  0.
         24    2    1    2    0    0 -0.50028635904E+01  0.94644896815E+00  0.46604481381E+03  0.47251083684E+03  0.77735436192E+02 0.  0.
        -13    1    5    5    0    0  0.12904124456E+01  0.17832747283E+02  0.44249986645E+03  0.44286093059E+03  0.00000000000E+00 0.  1.
         14    1    5    5    0    0 -0.62932760360E+01 -0.16886298315E+02  0.23544947367E+02  0.29649906248E+02  0.00000000000E+00 0. -1.
         11    1    3    3    0    0 -0.47795301114E+02 -0.41273887559E+02 -0.70608929861E+02  0.94728800155E+02  0.00000000000E+00 0. -1.
        -12    1    3    3    0    0  0.51773817767E+01 -0.72512758815E+01  0.18806377174E+02  0.20810240421E+02  0.00000000000E+00 0.  1.
          5    1    4    4  501    0  0.76301652867E+02  0.53368921000E+01  0.87795350749E+02  0.11651575284E+03  0.41800000000E+01 0. -1.
         -5    1    4    4    0  501 -0.28680869940E+02  0.42241822372E+02  0.17340033984E+03  0.18080960736E+03  0.41800000000E+01 0. -1.
</event>
<event>
11    1  0.8328696E-009  0.1668415E+03  0.7561462E-02  0.1080813E+00
         22   -1    0    0    0    0  0.00000000000E+00  0.00000000000E+00  0.85800865412E+03  0.85800865412E+03  0.00000000000E+00 0. -1.
         22   -1    0    0    0    0 -0.00000000000E+00 -0.00000000000E+00 -0.62034693344E+03  0.62034693344E+03  0.00000000000E+00 0.  1.
        -24    2    1    2    0    0  0.77426110333E+00 -0.63951363258E+02 -0.56749889012E+03  0.57664875224E+03  0.79864991284E+02 0.  0.
         25    2    1    2    0    0  0.74571553402E+02 -0.26082286168E+02  0.91189038895E+02  0.17379337900E+03  0.12508994980E+03 0.  0.
         24    2    1    2    0    0 -0.75345814505E+02  0.90033649425E+02  0.71397157191E+03  0.72791345633E+03  0.79495563521E+02 0.  0.
        -13    1    5    5    0    0 -0.24523014795E+02  0.77883990885E+02  0.54390552979E+03  0.55000047239E+03  0.00000000000E+00 0.  1.
         14    1    5    5    0    0 -0.50822799710E+02  0.12149658541E+02  0.17006604211E+03  0.17791298394E+03  0.00000000000E+00 0. -1.
         13    1    3    3    0    0  0.25304160931E+02  0.18318093510E+01 -0.26009411463E+03  0.26132853757E+03  0.00000000000E+00 0. -1.
        -14    1    3    3    0    0 -0.24529899828E+02 -0.65783172608E+02 -0.30740477549E+03  0.31532021467E+03  0.00000000000E+00 0.  1.
          5    1    4    4  501    0 -0.79836622207E+01  0.20431885893E+02  0.74132136264E+02  0.77422521598E+02  0.41800000000E+01 0. -1.
         -5    1    4    4    0  501  0.82555215622E+02 -0.46514172061E+02  0.17056902631E+02  0.96370857401E+02  0.41800000000E+01 0. -1.
</event>
<event>
11    1  0.8328696E-009  0.1368941E+03  0.7561462E-02  0.1111077E+00
         22   -1    0    0    0    0  0.00000000000E+00  0.00000000000E+00  0.95004892320E+03  0.95004892320E+03  0.00000000000E+00 0.  1.
         22   -1    0    0    0    0 -0.00000000000E+00 -0.00000000000E+00 -0.55405240670E+02  0.55405240670E+02  0.00000000000E+00 0. -1.
         24    2    1    2    0    0  0.19501044832E+02  0.18189504904E+02  0.93293523251E+01  0.84519044626E+02  0.79657286243E+02 0.  0.
         25    2    1    2    0    0 -0.66530131361E+02 -0.34486159387E+02  0.37736191841E+03  0.40455698702E+03  0.12509510266E+03 0.  0.
        -24    2    1    2    0    0  0.47029086529E+02  0.16296654483E+02  0.50795241179E+03  0.51637813222E+03  0.78443654093E+02 0.  0.
        -13    1    3    3    0    0  0.57921713014E+01 -0.83788273267E+01 -0.31959118958E+02  0.33543095867E+02  0.00000000000E+00 0.  1.
         14    1    3    3    0    0  0.13708873530E+02  0.26568332230E+02  0.41288471283E+02  0.50975948759E+02  0.00000000000E+00 0. -1.
         11    1    5    5    0    0  0.86807029703E+00  0.35166425755E+02  0.31980885139E+03  0.32173767649E+03  0.00000000000E+00 0. -1.
        -12    1    5    5    0    0  0.46161016232E+02 -0.18869771272E+02  0.18814356040E+03  0.19464045573E+03  0.00000000000E+00 0.  1.
          5    1    4    4  501    0 -0.61223154620E+02  0.19483318507E+01  0.62821049473E+02  0.87840920507E+02  0.41800000000E+01 0.  1.
         -5    1    4    4    0  501 -0.53069767407E+01 -0.36434491238E+02  0.31454086894E+03  0.31671606651E+03  0.41800000000E+01 0.  1.
</event>
<event>
11    1  0.8328696E-009  0.1518071E+03  0.7561462E-02  0.1095047E+00
         22   -1    0    0    0    0  0.00000000000E+00  0.00000000000E+00  0.18843107298E+03  0.18843107298E+03  0.00000000000E+00 0.  1.
         22   -1    0    0    0    0 -0.00000000000E+00 -0.00000000000E+00 -0.11365347780E+04  0.11365347780E+04  0.00000000000E+00 0. -1.
         24    2    1    2    0    0  0.26234565755E+02 -0.35161441141E+02 -0.67984549723E+03  0.68570166927E+03  0.77924962314E+02 0.  0.
         25    2    1    2    0    0 -0.90379533753E+02 -0.22365870640E+02 -0.41970880093E+03  0.44774082861E+03  0.12509068602E+03 0.  0.
        -24    2    1    2    0    0  0.64144967998E+02  0.57527311781E+02  0.15145059318E+03  0.19152335306E+03  0.79498075903E+02 0.  0.
        -13    1    3    3    0    0 -0.14688384704E+02  0.11761393712E+02 -0.63775462386E+02  0.66493523217E+02  0.00000000000E+00 0.  1.
         14    1    3    3    0    0  0.40922950459E+02 -0.46922834853E+02 -0.61607003485E+03  0.61920814606E+03  0.00000000000E+00 0. -1.
         13    1    5    5    0    0  0.71682054371E+02  0.14796677749E+02  0.85123305824E+02  0.11226413401E+03  0.00000000000E+00 0. -1.
        -14    1    5    5    0    0 -0.75370863736E+01  0.42730634032E+02  0.66327287356E+02  0.79259219046E+02  0.00000000000E+00 0.  1.
          5    1    4    4  501    0 -0.10753932728E+03  0.16490722289E+02 -0.34413047990E+03  0.36094308476E+03  0.41800000000E+01 0.  1.
         -5    1    4    4    0  501  0.17159793527E+02 -0.38856592929E+02 -0.75578321028E+02  0.86797743850E+02  0.41800000000E+01 0.  1.
</event>
<event>
11    1  0.8328696E-009  0.1299585E+03  0.7561462E-02  0.1119320E+00
         22   -1    0    0    0    0  0.00000000000E+00  0.00000000000E+00  0.98027421928E+02  0.98027421928E+02  0.00000000000E+00 0.  1.
         22   -1    0    0    0    0 -0.00000000000E+00 -0.00000000000E+00 -0.14191509442E+04  0.14191509442E+04  0.00000000000E+00 0.  1.
         24    2    1    2    0    0 -0.85096634830E+00 -0.25691683411E+02 -0.12787766117E+04  0.12813541686E+04  0.77059043445E+02 0.  0.
         25    2    1    2    0    0 -0.34294199836E+02  0.14060583633E+02 -0.60563174764E+02  0.14383437506E+03  0.12508651868E+03 0.  0.
        -24    2    1    2    0    0  0.35145166185E+02  0.11631099778E+02  0.18216264127E+02  0.91989822472E+02  0.82218185163E+02 0.  0.
        -13    1    3    3    0    0  0.26706784953E+02 -0.41515456102E+02 -0.80741401922E+03  0.80892161789E+03  0.00000000000E+00 0.  1.
         14    1    3    3    0    0 -0.27557751301E+02  0.15823772691E+02 -0.47136259243E+03  0.47243255072E+03  0.00000000000E+00 0. -1.
         13    1    5    5    0    0  0.45986259391E+02 -0.99444601259E+01 -0.16363928330E+02  0.49813717893E+02  0.00000000000E+00 0. -1.
        -14    1    5    5    0    0 -0.10841093206E+02  0.21575559904E+02  0.34580192457E+02  0.42176104579E+02  0.00000000000E+00 0.  1.
          5    1    4    4  501    0  0.19523247248E+02 -0.43875651372E+02 -0.38330158650E+02  0.61586552335E+02  0.41800000000E+01 0.  1.
         -5    1    4    4    0  501 -0.53817447084E+02  0.57936235005E+02 -0.22233016114E+02  0.82247822724E+02  0.41800000000E+01 0.  1.
</event>
<event>
11    1  0.8328696E-009  0.1305799E+03  0.7561462E-02  0.1118558E+00
         22   -1    0    0    0    0  0.00000000000E+00  0.00000000000E+00  0.16038222380E+04  0.16038222380E+04  0.00000000000E+00 0. -1.
         22   -1    0    0    0    0 -0.00000000000E+00 -0.00000000000E+00 -0.66262682705E+02  0.66262682705E+02  0.00000000000E+00 0.  1.
         24    2    1    2    0    0  0.16101362188E+02 -0.12372495624E+02 -0.40047320054E+00  0.81829694564E+02  0.79269199702E+02 0.  0.
         25    2    1    2    0    0 -0.25261623765E+02 -0.24295074670E+02  0.15401910643E+03  0.20150894243E+03  0.12512221403E+03 0.  0.
        -24    2    1    2    0    0  0.91602615772E+01  0.36667570294E+02  0.13839409220E+04  0.13867462837E+04  0.79651481693E+02 0.  0.
        -11    1    3    3    0    0  0.37194207455E+02 -0.22973538840E+02 -0.22783890066E+02  0.49298054745E+02  0.00000000000E+00 0.  1.
         12    1    3    3    0    0 -0.21092845267E+02  0.10601043217E+02  0.22383416866E+02  0.32531639819E+02  0.00000000000E+00 0. -1.
         13    1    5    5    0    0  0.37058103461E+01  0.59101387484E+02  0.11834122766E+04  0.11848929586E+04  0.00000000000E+00 0. -1.
        -14    1    5    5    0    0  0.54544512311E+01 -0.22433817190E+02  0.20052864544E+03  0.20185332505E+03  0.00000000000E+00 0.  1.
          5    1    4    4  501    0 -0.45099868141E+02 -0.55149199152E+02  0.14772182339E+03  0.16405682485E+03  0.41800000000E+01 0.  1.
         -5    1    4    4    0  501  0.19838244376E+02  0.30854124481E+02  0.62972830442E+01  0.37452117579E+02  0.41800000000E+01 0.  1.
</event>
<event>
11    1  0.8328696E-009  0.1737767E+03  0.7561462E-02  0.1074791E+00
         22   -1    0    0    0    0  0.00000000000E+00  0.00000000000E+00  0.11768794627E+03  0.11768794627E+03  0.00000000000E+00 0.  1.
         22   -1    0    0    0    0 -0.00000000000E+00 -0.00000000000E+00 -0.24616962921E+04  0.24616962921E+04  0.00000000000E+00 0. -1.
         24    2    1    2    0    0  0.37820468301E+02 -0.11260357617E+03 -0.21103292364E+04  0.21151032051E+04  0.77859674418E+02 0.  0.
         25    2    1    2    0    0 -0.13858432391E+03  0.11065446029E+03 -0.25398536116E+03  0.33408203098E+03  0.12510881394E+03 0.  0.
        -24    2    1    2    0    0  0.10076385561E+03  0.19491158817E+01  0.20306251682E+02  0.13019900237E+03  0.79889190202E+02 0.  0.
        -13    1    3    3    0    0 -0.12330628686E+01  0.33110893655E+01 -0.44847232392E+01  0.57093344057E+01  0.00000000000E+00 0.  1.
         14    1    3    3    0    0  0.39053531170E+02 -0.11591466554E+03 -0.21058445131E+04  0.21093938707E+04  0.00000000000E+00 0. -1.
         13    1    5    5    0    0  0.11620367118E+02  0.79685454252E+01 -0.25994940187E+02  0.29568015887E+02  0.00000000000E+00 0. -1.
        -14    1    5    5    0    0  0.89143488490E+02 -0.60194295436E+01  0.46301191868E+02  0.10063098648E+03  0.00000000000E+00 0.  1.
          5    1    4    4  501    0  0.20189478090E+02  0.34798455881E+02 -0.38433869378E+02  0.55795898349E+02  0.41800000000E+01 0.  1.
         -5    1    4    4    0  501 -0.15877380200E+03  0.75856004411E+02 -0.21555149178E+03  0.27828613263E+03  0.41800000000E+01 0.  1.
</event>
<event>
11    1  0.8328696E-009  0.1481193E+03  0.7561462E-02  0.1098816E+00
         22   -1    0    0    0    0  0.00000000000E+00  0.00000000000E+00  0.43435400648E+02  0.43435400648E+02  0.00000000000E+00 0. -1.
         22   -1    0    0    0    0 -0.00000000000E+00 -0.00000000000E+00 -0.28329473807E+04  0.28329473807E+04  0.00000000000E+00 0. -1.
        -24    2    1    2    0    0  0.82017844634E+02 -0.15824128697E+02 -0.23204805283E+04  0.23233351387E+04  0.79239855358E+02 0.  0.
         25    2    1    2    0    0 -0.51404062696E+02 -0.11694332103E+02 -0.43165450327E+03  0.45249535020E+03  0.12508915499E+03 0.  0.
         24    2    1    2    0    0 -0.30613781938E+02  0.27518460800E+02 -0.37376948546E+02  0.10055229250E+03  0.83781011656E+02 0.  0.
        -13    1    5    5    0    0  0.13921009916E+02  0.42491221127E+02 -0.27648661745E+02  0.52571350432E+02  0.00000000000E+00 0.  1.
         14    1    5    5    0    0 -0.44534791853E+02 -0.14972760327E+02 -0.97282868012E+01  0.47980942064E+02  0.00000000000E+00 0. -1.
         11    1    3    3    0    0  0.87495263350E+02 -0.18156031392E+02 -0.23052679218E+04  0.23069991881E+04  0.00000000000E+00 0. -1.
        -12    1    3    3    0    0 -0.54774187165E+01  0.23319026955E+01 -0.15212606421E+02  0.16335950542E+02  0.00000000000E+00 0.  1.
          5    1    4    4  501    0  0.11745700505E+02 -0.93944883200E+00 -0.34199574906E+03  0.34222420840E+03  0.41800000000E+01 0. -1.
         -5    1    4    4    0  501 -0.63149763201E+02 -0.10754883271E+02 -0.89658754211E+02  0.11027114180E+03  0.41800000000E+01 0. -1.
</event>
<event>
11    1  0.8328696E-009  0.1321421E+03  0.7561462E-02  0.1116665E+00
         22   -1    0    0    0    0  0.00000000000E+00  0.00000000000E+00  0.30174325592E+03  0.30174325592E+03  0.00000000000E+00 0.  1.
         22   -1    0    0    0    0 -0.00000000000E+00 -0.00000000000E+00 -0.14225932799E+04  0.14225932799E+04  0.00000000000E+00 0.  1.
         24    2    1    2    0    0 -0.39911183923E+02  0.17046292234E+02 -0.13131772991E+04  0.13162735100E+04  0.79106608062E+02 0.  0.
         25    2    1    2    0    0  0.13816979475E+02 -0.21617716817E+02 -0.60437501335E+02  0.14127675018E+03  0.12509274148E+03 0.  0.
        -24    2    1    2    0    0  0.26094204449E+02  0.45714245828E+01  0.25276477645E+03  0.26678627570E+03  0.81136177241E+02 0.  0.
        -11    1    3    3    0    0 -0.44604875468E+02  0.10506252724E+01 -0.12539885613E+04  0.12547820570E+04  0.00000000000E+00 0.  1.
         12    1    3    3    0    0  0.46936915447E+01  0.15995666962E+02 -0.59188737812E+02  0.61491452948E+02  0.00000000000E+00 0. -1.
         11    1    5    5    0    0 -0.27368190492E+02 -0.91025404484E+01  0.65706282394E+02  0.71757854201E+02  0.00000000000E+00 0. -1.
        -12    1    5    5    0    0  0.53462394941E+02  0.13673965031E+02  0.18705849406E+03  0.19502842150E+03  0.00000000000E+00 0.  1.
          5    1    4    4  501    0  0.90072021580E+01  0.13048796295E+01 -0.97075940298E+02  0.97591203427E+02  0.41800000000E+01 0. -1.
         -5    1    4    4    0  501  0.48097773166E+01 -0.22922596447E+02  0.36638438963E+02  0.43685546755E+02  0.41800000000E+01 0. -1.
</event>
<event>
11    1  0.8328696E-009  0.1386654E+03  0.7561462E-02  0.1109058E+00
         22   -1    0    0    0    0  0.00000000000E+00  0.00000000000E+00  0.43742628106E+03  0.43742628106E+03  0.00000000000E+00 0.  1.
         22   -1    0    0    0    0 -0.00000000000E+00 -0.00000000000E+00 -0.52685283767E+03  0.52685283767E+03  0.00000000000E+00 0.  1.
        -24    2    1    2    0    0 -0.18714262479E+02  0.14204001076E+02 -0.46919159186E+03  0.47610672708E+03  0.77362060702E+02 0.  0.
         25    2    1    2    0    0 -0.98874497150E+01  0.41695934647E+02  0.47186946180E+02  0.14039263696E+03  0.12508865653E+03 0.  0.
         24    2    1    2    0    0  0.28601712194E+02 -0.55899935724E+02  0.33257808906E+03  0.34777975469E+03  0.79998198041E+02 0.  0.
        -11    1    5    5    0    0 -0.27704506174E+02 -0.11632112873E+02  0.94679729133E+02  0.99333261403E+02  0.00000000000E+00 0.  1.
         12    1    5    5    0    0  0.56306218368E+02 -0.44267822851E+02  0.23789835993E+03  0.24844649328E+03  0.00000000000E+00 0. -1.
         13    1    3    3    0    0  0.96291843058E+00 -0.21266084730E+02 -0.42916982321E+02  0.47906585593E+02  0.00000000000E+00 0. -1.
        -14    1    3    3    0    0 -0.19677180910E+02  0.35470085806E+02 -0.42627460953E+03  0.42820014149E+03  0.00000000000E+00 0.  1.
          5    1    4    4  501    0 -0.61345996259E+02  0.77568782254E+01  0.48338321531E+02  0.78597494522E+02  0.41800000000E+01 0.  1.
         -5    1    4    4    0  501  0.51458546544E+02  0.33939056422E+02 -0.11513753503E+01  0.61795142434E+02  0.41800000000E+01 0.  1.
</event>
<event>
11    1  0.8328696E-009  0.1508389E+03  0.7561462E-02  0.1096025E+00
         22   -1    0    0    0    0  0.00000000000E+00  0.00000000000E+00  0.12190204856E+04  0.12190204856E+04  0.00000000000E+00 0.  1.
         22   -1    0    0    0    0 -0.00000000000E+00 -0.00000000000E+00 -0.87551387919E+03  0.87551387919E+03  0.00000000000E+00 0.  1.
        -24    2    1    2    0    0 -0.38092457040E+02  0.47492168981E+02 -0.73814249457E+03  0.74473646834E+03  0.77919981927E+02 0.  0.
         25    2    1    2    0    0  0.87835404932E+02  0.20979989180E+02 -0.85743413861E+02  0.17650677075E+03  0.12508992284E+03 0.  0.
         24    2    1    2    0    0 -0.49742947892E+02 -0.68472158161E+02  0.11673925149E+04  0.11732911257E+04  0.81510640989E+02 0.  0.
        -13    1    5    5    0    0 -0.13716310874E+02 -0.32502292526E+02  0.92193795939E+03  0.92261266909E+03  0.00000000000E+00 0.  1.
         14    1    5    5    0    0 -0.36026637018E+02 -0.35969865635E+02  0.24545455550E+03  0.25067845664E+03  0.00000000000E+00 0. -1.
         13    1    3    3    0    0 -0.65260682947E+01  0.57466691019E+02 -0.31238464597E+03  0.31769352714E+03  0.00000000000E+00 0. -1.
        -14    1    3    3    0    0 -0.31566388745E+02 -0.99745220382E+01 -0.42575784860E+03  0.42704294120E+03  0.00000000000E+00 0.  1.
          5    1    4    4  501    0 -0.21459459565E+02 -0.26960859617E+02 -0.22606612341E+02  0.41423757406E+02  0.41800000000E+01 0. -1.
         -5    1    4    4    0  501  0.10929486450E+03  0.47940848798E+02 -0.63136801520E+02  0.13508301335E+03  0.41800000000E+01 0. -1.
</event>
<event>
11    1  0.8328696E-009  0.9142677E+03  0.7561462E-02  0.8765126E-01
         22   -1    0    0    0    0  0.00000000000E+00  0.00000000000E+00  0.11795661923E+04  0.11795661923E+04  0.00000000000E+00 0.  1.
         22   -1    0    0    0    0 -0.00000000000E+00 -0.00000000000E+00 -0.17715951869E+03  0.17715951869E+03  0.00000000000E+00 0.  1.
         24    2    1    2    0    0  0.13220992024E+03 -0.16844262534E+02  0.72248812857E+02  0.17161606702E+03  0.80430039863E+02 0.  0.
         25    2    1    2    0    0 -0.41550704615E+03  0.18652511208E+02  0.47927251772E+03  0.64679446736E+03  0.12508763005E+03 0.  0.
        -24    2    1    2    0    0  0.28329712591E+03 -0.18082486741E+01  0.45088534299E+03  0.53831517657E+03  0.78899337682E+02 0.  0.
        -13    1    3    3    0    0  0.12338014672E+03 -0.33011541292E+02  0.80981445082E+02  0.15122968264E+03  0.00000000000E+00 0.  1.
         14    1    3    3    0    0  0.88297735186E+01  0.16167278758E+02 -0.87326322253E+01  0.20386384388E+02  0.00000000000E+00 0. -1.
         11    1    5    5    0    0  0.73900167912E+02  0.22625807336E+02  0.17327709105E+03  0.18973168491E+03  0.00000000000E+00 0. -1.
        -12    1    5    5    0    0  0.20939695800E+03 -0.24434056010E+02  0.27760825194E+03  0.34858349166E+03  0.00000000000E+00 0.  1.
          5    1    4    4  501    0 -0.39988745100E+03  0.43574797034E+02  0.46133295169E+03  0.61209010866E+03  0.41800000000E+01 0. -1.
         -5    1    4    4    0  501 -0.15619595151E+02 -0.24922285826E+02  0.17939566029E+02  0.34704358700E+02  0.41800000000E+01 0. -1.
</event>
<event>
11    1  0.8328696E-009  0.1902388E+03  0.7561462E-02  0.1061649E+00
         22   -1    0    0    0    0  0.00000000000E+00  0.00000000000E+00  0.21011808841E+04  0.21011808841E+04  0.00000000000E+00 0. -1.
         22   -1    0    0    0    0 -0.00000000000E+00 -0.00000000000E+00 -0.26956928002E+02  0.26956928002E+02  0.00000000000E+00 0.  1.
         24    2    1    2    0    0 -0.30084132778E+02  0.15386489390E+03  0.59658123664E+03  0.62211846802E+03  0.80887302572E+02 0.  0.
         25    2    1    2    0    0 -0.36287826370E+02 -0.12851108009E+03  0.84423349821E+03  0.86383438561E+03  0.12509093578E+03 0.  0.
        -24    2    1    2    0    0  0.66371959148E+02 -0.25353813810E+02  0.63340922125E+03  0.64218495847E+03  0.78397872990E+02 0.  0.
        -13    1    3    3    0    0 -0.56140877334E+02  0.78515439742E+02  0.31325518607E+03  0.32778847446E+03  0.00000000000E+00 0.  1.
         14    1    3    3    0    0  0.26056744556E+02  0.75349454162E+02  0.28332605057E+03  0.29432999356E+03  0.00000000000E+00 0. -1.
         13    1    5    5    0    0  0.18234597408E+02 -0.46079769793E+02  0.22281858524E+03  0.22826293535E+03  0.00000000000E+00 0. -1.
        -14    1    5    5    0    0  0.48137361740E+02  0.20725955983E+02  0.41059063601E+03  0.41392202312E+03  0.00000000000E+00 0.  1.
          5    1    4    4  501    0  0.41341843595E+02 -0.83139455544E+02  0.43457185507E+03  0.44440014257E+03  0.41800000000E+01 0.  1.
         -5    1    4    4    0  501 -0.77629669964E+02 -0.45371624550E+02  0.40966164314E+03  0.41943424303E+03  0.41800000000E+01 0.  1.
</event>
<event>
11    1  0.8328696E-009  0.1710117E+03  0.7561462E-02  0.1077155E+00
         22   -1    0    0    0    0  0.00000000000E+00  0.00000000000E+00  0.17125500966E+04  0.17125500966E+04  0.00000000000E+00 0. -1.
         22   -1    0    0    0    0 -0.00000000000E+00 -0.00000000000E+00 -0.29674660355E+03  0.29674660355E+03  0.00000000000E+00 0.  1.
        -24    2    1    2    0    0  0.11529108823E+03  0.28756572947E+02 -0.25265084650E+03  0.29065287119E+03  0.80793971201E+02 0.  0.
         25    2    1    2    0    0 -0.91848189191E+02  0.11530429634E+02  0.23337781303E+03  0.28050266133E+03  0.12508996256E+03 0.  0.
         24    2    1    2    0    0 -0.23442899043E+02 -0.40287002581E+02  0.14350765266E+04  0.14381411677E+04  0.81441813217E+02 0.  0.
        -13    1    5    5    0    0 -0.15738197133E+02  0.17678095464E+02  0.16173449679E+03  0.16345719122E+03  0.00000000000E+00 0.  1.
         14    1    5    5    0    0 -0.77047019096E+01 -0.57965098045E+02  0.12733420298E+04  0.12746839764E+04  0.00000000000E+00 0. -1.
         11    1    3    3    0    0  0.16713789677E+02  0.41071106251E+02 -0.78996592219E+02  0.90590552025E+02  0.00000000000E+00 0. -1.
        -12    1    3    3    0    0  0.98577298557E+02 -0.12314533304E+02 -0.17365425428E+03  0.20006231917E+03  0.00000000000E+00 0.  1.
          5    1    4    4  501    0 -0.19568027529E+02 -0.42900127090E+02  0.25546793643E+02  0.53790702460E+02  0.41800000000E+01 0. -1.
         -5    1    4    4    0  501 -0.72280161663E+02  0.54430556723E+02  0.20783101939E+03  0.22671195887E+03  0.41800000000E+01 0. -1.
</event>
<event>
11    1  0.8328696E-009  0.1402531E+03  0.7561462E-02  0.1107276E+00
         22   -1    0    0    0    0  0.00000000000E+00  0.00000000000E+00  0.86696311050E+03  0.86696311050E+03  0.00000000000E+00 0.  1.
         22   -1    0    0    0    0 -0.00000000000E+00 -0.00000000000E+00 -0.98917977474E+02  0.98917977474E+02  0.00000000000E+00 0.  1.
        -24    2    1    2    0    0 -0.62028587602E+01  0.59458356801E+01 -0.60296291775E+02  0.10112842470E+03  0.80730954797E+02 0.  0.
         25    2    1    2    0    0 -0.28489586846E+02 -0.58391426270E+02  0.38807678674E+03  0.41288318430E+03  0.12509083202E+03 0.  0.
         24    2    1    2    0    0  0.34692445606E+02  0.52445590590E+02  0.44026463807E+03  0.45186947897E+03  0.79993554353E+02 0.  0.
        -13    1    5    5    0    0  0.26569788608E+02  0.31205484492E+02  0.41813474735E+03  0.42013855199E+03  0.00000000000E+00 0.  1.
         14    1    5    5    0    0  0.81226569978E+01  0.21240106098E+02  0.22129890720E+02  0.31730926981E+02  0.00000000000E+00 0. -1.
         11    1    3    3    0    0  0.59434836664E+01 -0.34766957928E+02 -0.42065749513E+02  0.54896207918E+02  0.00000000000E+00 0. -1.
        -12    1    3    3    0    0 -0.12146342427E+02  0.40712793608E+02 -0.18230542262E+02  0.46232216786E+02  0.00000000000E+00 0.  1.
          5    1    4    4  501    0  0.25773845870E+02 -0.70372882845E+02  0.14247016838E+03  0.16103370780E+03  0.41800000000E+01 0.  1.
         -5    1    4    4    0  501 -0.54263432716E+02  0.11981456575E+02  0.24560661836E+03  0.25184947650E+03  0.41800000000E+01 0.  1.
</event>
<event>
11    1  0.8328696E-009  0.1304467E+03  0.7561462E-02  0.1118721E+00
         22   -1    0    0    0    0  0.00000000000E+00  0.00000000000E+00  0.42853231803E+03  0.42853231803E+03  0.00000000000E+00 0. -1.
         22   -1    0    0    0    0 -0.00000000000E+00 -0.00000000000E+00 -0.78589934914E+03  0.78589934914E+03  0.00000000000E+00 0.  1.
         24    2    1    2    0    0  0.58391014135E+01  0.39605947603E+01 -0.64382741603E+03  0.64857733233E+03  0.78032255974E+02 0.  0.
         25    2    1    2    0    0 -0.20900076353E+02 -0.37551303188E+02 -0.10250468868E+03  0.16733236856E+03  0.12508395902E+03 0.  0.
        -24    2    1    2    0    0  0.15060974939E+02  0.33590708427E+02  0.38896507359E+03  0.39852196628E+03  0.78554188155E+02 0.  0.
        -13    1    3    3    0    0  0.35017097451E+02 -0.60605184645E+01 -0.16631811095E+03  0.17007245817E+03  0.00000000000E+00 0.  1.
         14    1    3    3    0    0 -0.29177996038E+02  0.10021113225E+02 -0.47750930507E+03  0.47850487416E+03  0.00000000000E+00 0. -1.
         13    1    5    5    0    0  0.19063962549E+02  0.54622330208E+02  0.19563292666E+03  0.20400802832E+03  0.00000000000E+00 0. -1.
        -14    1    5    5    0    0 -0.40029876095E+01 -0.21031621781E+02  0.19333214692E+03  0.19451393796E+03  0.00000000000E+00 0.  1.
          5    1    4    4  501    0  0.18074299195E+02  0.25907597941E+02  0.90624461323E+01  0.33128299871E+02  0.41800000000E+01 0.  1.
         -5    1    4    4    0  501 -0.38974375548E+02 -0.63458901128E+02 -0.11156713481E+03  0.13420406869E+03  0.41800000000E+01 0.  1.
</event>
<event>
11    1  0.8328696E-009  0.1818100E+03  0.7561462E-02  0.1068188E+00
         22   -1    0    0    0    0  0.00000000000E+00  0.00000000000E+00  0.17561599484E+03  0.17561599484E+03  0.00000000000E+00 0. -1.
         22   -1    0    0    0    0 -0.00000000000E+00 -0.00000000000E+00 -0.88443999950E+03  0.88443999950E+03  0.00000000000E+00 0.  1.
        -24    2    1    2    0    0 -0.12891135862E+02 -0.39903809083E+02 -0.52206190212E+03  0.52981693516E+03  0.79992873258E+02 0.  0.
         25    2    1    2    0    0 -0.89524228436E+01 -0.95048084695E+02 -0.29767952841E+03  0.33671283472E+03  0.12509255433E+03 0.  0.
         24    2    1    2    0    0  0.21843558706E+02  0.13495189378E+03  0.11091742587E+03  0.19352622447E+03  0.80377667952E+02 0.  0.
        -11    1    5    5    0    0 -0.79490408304E+01 -0.80591847303E+01  0.14909462587E+02  0.18719769851E+02  0.00000000000E+00 0.  1.
         12    1    5    5    0    0  0.29792599536E+02  0.14301107851E+03  0.96007963281E+02  0.17480645462E+03  0.00000000000E+00 0. -1.
         13    1    3    3    0    0 -0.44366163047E+01  0.23733131121E+02 -0.98394622882E+02  0.10131360663E+03  0.00000000000E+00 0. -1.
        -14    1    3    3    0    0 -0.84545195574E+01 -0.63636940205E+02 -0.42366727924E+03  0.42850332852E+03  0.00000000000E+00 0.  1.
          5    1    4    4  501    0  0.36452205156E+02 -0.19016395205E+02 -0.20236202385E+03  0.20653873158E+03  0.41800000000E+01 0. -1.
         -5    1    4    4    0  501 -0.45404627999E+02 -0.76031689490E+02 -0.95317504560E+02  0.13017410313E+03  0.41800000000E+01 0. -1.
</event>
<event>
11    1  0.8328696E-009  0.1557327E+03  0.7561462E-02  0.1091161E+00
         22   -1    0    0    0    0  0.00000000000E+00  0.00000000000E+00  0.14476362737E+03  0.14476362737E+03  0.00000000000E+00 0. -1.
         22   -1    0    0    0    0 -0.00000000000E+00 -0.00000000000E+00 -0.10105359663E+04  0.10105359663E+04  0.00000000000E+00 0. -1.
         24    2    1    2    0    0 -0.47574535474E+02 -0.34413879412E+02 -0.77732124248E+03  0.78370239062E+03  0.80706081157E+02 0.  0.
         25    2    1    2    0    0  0.10462510745E+03  0.95968639400E+02 -0.14884020928E+03  0.24074360777E+03  0.12509070280E+03 0.  0.
        -24    2    1    2    0    0 -0.57050571974E+02 -0.61554759989E+02  0.60389112858E+02  0.13085359524E+03  0.80200138370E+02 0.  0.
        -11    1    3    3    0    0 -0.44510967319E+02 -0.29220707576E+02 -0.22011185340E+03  0.22646038057E+03  0.00000000000E+00 0.  1.
         12    1    3    3    0    0 -0.30635681551E+01 -0.51931718358E+01 -0.55720938908E+03  0.55724201005E+03  0.00000000000E+00 0. -1.
         13    1    5    5    0    0 -0.24030237456E+02 -0.38867661619E+02  0.75320644660E+02  0.88098507047E+02  0.00000000000E+00 0. -1.
        -14    1    5    5    0    0 -0.33020334518E+02 -0.22687098369E+02 -0.14931531802E+02  0.42755088189E+02  0.00000000000E+00 0.  1.
          5    1    4    4  501    0  0.10194779091E+03  0.33285766944E+02 -0.39024731002E+02  0.11420024685E+03  0.41800000000E+01 0.  1.
         -5    1    4    4    0  501  0.26773165414E+01  0.62682872456E+02 -0.10981547828E+03  0.12654336092E+03  0.41800000000E+01 0.  1.
</event>
<event>
11    1  0.8328696E-009  0.1472259E+03  0.7561462E-02  0.1099747E+00
         22   -1    0    0    0    0  0.00000000000E+00  0.00000000000E+00  0.50506918890E+03  0.50506918890E+03  0.00000000000E+00 0. -1.
         22   -1    0    0    0    0 -0.00000000000E+00 -0.00000000000E+00 -0.34780777567E+03  0.34780777567E+03  0.00000000000E+00 0. -1.
        -24    2    1    2    0    0 -0.82516011154E+02 -0.59671597392E+01 -0.24358925724E+03  0.27164481716E+03  0.87239219130E+02 0.  0.
         25    2    1    2    0    0  0.55187354035E+02 -0.49637427110E+02 -0.21353760594E+02  0.14701322844E+03  0.12508952006E+03 0.  0.
         24    2    1    2    0    0  0.27328657119E+02  0.55604586849E+02  0.42220443107E+03  0.43421891898E+03  0.80316638413E+02 0.  0.
        -13    1    5    5    0    0  0.29303531314E+02  0.61459514481E+02  0.18828524188E+03  0.20021813399E+03  0.00000000000E+00 0.  1.
         14    1    5    5    0    0 -0.19748741953E+01 -0.58549276315E+01  0.23391918918E+03  0.23400078498E+03  0.00000000000E+00 0. -1.
         13    1    3    3    0    0 -0.44390973368E+02 -0.33290634042E+02 -0.20020543297E+03  0.20775235311E+03  0.00000000000E+00 0. -1.
        -14    1    3    3    0    0 -0.38125037786E+02  0.27323474303E+02 -0.43383824273E+02  0.63892464053E+02  0.00000000000E+00 0.  1.
          5    1    4    4  501    0  0.21195104192E+02  0.42192078696E+02 -0.52543545434E+01  0.47691556780E+02  0.41800000000E+01 0. -1.
         -5    1    4    4    0  501  0.33992249844E+02 -0.91829505806E+02 -0.16099406050E+02  0.99321671659E+02  0.41800000000E+01 0. -1.
</event>
<event>
11    1  0.8328696E-009  0.9589819E+03  0.7561462E-02  0.8719037E-01
         22   -1    0    0    0    0  0.00000000000E+00  0.00000000000E+00  0.25883818815E+04  0.25883818815E+04  0.00000000000E+00 0. -1.
         22   -1    0    0    0    0 -0.00000000000E+00 -0.00000000000E+00 -0.26010354875E+04  0.26010354875E+04  0.00000000000E+00 0.  1.
        -24    2    1    2    0    0  0.89164228674E+03 -0.32390964415E+03 -0.23429702481E+04  0.25288193029E+04  0.73986877571E+02 0.  0.
         25    2    1    2    0    0 -0.10109256209E+04  0.12360193311E+03  0.17234611321E+04  0.20057938247E+04  0.12507015812E+03 0.  0.
         24    2    1    2    0    0  0.11928333421E+03  0.20030771105E+03  0.60685551008E+03  0.65480424142E+03  0.78379152410E+02 0.  0.
        -13    1    5    5    0    0  0.57787620328E+02  0.64175137341E+02  0.13863322768E+03  0.16333104154E+03  0.00000000000E+00 0.  1.
         14    1    5    5    0    0  0.61495713879E+02  0.13613257371E+03  0.46822228241E+03  0.49147319987E+03  0.00000000000E+00 0. -1.
         13    1    3    3    0    0  0.73353196940E+03 -0.25768656124E+03 -0.18430361367E+04  0.20003134042E+04  0.00000000000E+00 0. -1.
        -14    1    3    3    0    0  0.15811031734E+03 -0.66223082912E+02 -0.49993411145E+03  0.52850589869E+03  0.00000000000E+00 0.  1.
          5    1    4    4  501    0 -0.30907098210E+03 -0.18836599956E+02  0.49981448031E+03  0.58797251347E+03  0.41800000000E+01 0. -1.
         -5    1    4    4    0  501 -0.70185463885E+03  0.14243853306E+03  0.12236466517E+04  0.14178213112E+04  0.41800000000E+01 0. -1.
</event>
<event>
11    1  0.8328696E-009  0.1430326E+03  0.7561462E-02  0.1104218E+00
         22   -1    0    0    0    0  0.00000000000E+00  0.00000000000E+00  0.29149994454E+03  0.29149994454E+03  0.00000000000E+00 0.  1.
         22   -1    0    0    0    0 -0.00000000000E+00 -0.00000000000E+00 -0.77466043607E+03  0.77466043607E+03  0.00000000000E+00 0. -1.
         24    2    1    2    0    0  0.53054194448E+02 -0.98609153413E+01 -0.69714580795E+03  0.70382720262E+03  0.80302356219E+02 0.  0.
         25    2    1    2    0    0 -0.10765925828E+03  0.33682352057E+02  0.56948732141E+02  0.17781120703E+03  0.12509456631E+03 0.  0.
        -24    2    1    2    0    0  0.54605063837E+02 -0.23821436715E+02  0.15703658427E+03  0.18452197095E+03  0.76411354646E+02 0.  0.
        -13    1    3    3    0    0  0.56329747020E+02  0.23865259350E+02 -0.38239636471E+03  0.38725904863E+03  0.00000000000E+00 0.  1.
         14    1    3    3    0    0 -0.32755525718E+01 -0.33726174691E+02 -0.31474944324E+03  0.31656815399E+03  0.00000000000E+00 0. -1.
         13    1    5    5    0    0  0.53665729716E+02  0.14712170620E+02  0.11327965343E+03  0.12620910582E+03  0.00000000000E+00 0. -1.
        -14    1    5    5    0    0  0.93933412103E+00 -0.38533607335E+02  0.43756930839E+02  0.58312865127E+02  0.00000000000E+00 0.  1.
          5    1    4    4  501    0 -0.21847065807E+02 -0.45994893898E+02  0.21096345046E+02  0.55275245122E+02  0.41800000000E+01 0.  1.
         -5    1    4    4    0  501 -0.85812192478E+02  0.79677245955E+02  0.35852387095E+02  0.12253596191E+03  0.41800000000E+01 0.  1.
</event>
<event>
11    1  0.8725101E-009  0.1983652E+03  0.7561462E-02  0.1055686E+00
         22   -1    0    0    0    0  0.00000000000E+00  0.00000000000E+00  0.57523286757E+03  0.57523286757E+03  0.00000000000E+00 0. -1.
         22   -1    0    0    0    0 -0.00000000000E+00 -0.00000000000E+00 -0.12854641313E+04  0.12854641313E+04  0.00000000000E+00 0.  1.
         24    2    1    2    0    0 -0.40658239459E+02 -0.33103982409E+02 -0.10707205659E+04  0.10751425962E+04  0.82098147089E+02 0.  0.
         25    2    1    2    0    0  0.18806160581E+03  0.64699328334E+02 -0.12831437103E+03  0.26770439530E+03  0.12509154560E+03 0.  0.
        -24    2    1    2    0    0 -0.14740336636E+03 -0.31595345925E+02  0.48880367322E+03  0.51785000739E+03  0.80706758695E+02 0.  0.
        -13    1    3    3    0    0 -0.30216264008E+02 -0.48301053680E+02 -0.10118334981E+04  0.10134362547E+04  0.00000000000E+00 0.  1.
         14    1    3    3    0    0 -0.10441975450E+02  0.15197071271E+02 -0.58887067774E+02  0.61706341469E+02  0.00000000000E+00 0. -1.
         11    1    5    5    0    0 -0.13673100292E+03 -0.50743932385E+02  0.45269178878E+03  0.47560505618E+03  0.00000000000E+00 0. -1.
        -12    1    5    5    0    0 -0.10672363433E+02  0.19148586460E+02  0.36111884440E+02  0.42244951207E+02  0.00000000000E+00 0.  1.
          5    1    4    4  501    0  0.11768215444E+03 -0.84708243642E+01 -0.11572101773E+03  0.16531687961E+03  0.41800000000E+01 0.  1.
         -5    1    4    4    0  501  0.70379451375E+02  0.73170152698E+02 -0.12593353299E+02  0.10238751569E+03  0.41800000000E+01 0.  1.
</event>
<event>
11    1  0.8328696E-009  0.2025992E+03  0.7561462E-02  0.1052701E+00
         22   -1    0    0    0    0  0.00000000000E+00  0.00000000000E+00  0.95330722732E+03  0.95330722732E+03  0.00000000000E+00 0. -1.
         22   -1    0    0    0    0 -0.00000000000E+00 -0.00000000000E+00 -0.22403807915E+03  0.22403807915E+03  0.00000000000E+00 0.  1.
        -24    2    1    2    0    0  0.86981306141E+02 -0.54247128835E+02 -0.54640558818E+02  0.14407562837E+03  0.85227327881E+02 0.  0.
         25    2    1    2    0    0 -0.23317143085E+03  0.58678489251E+01  0.38046189305E+02  0.26739000332E+03  0.12508618445E+03 0.  0.
         24    2    1    2    0    0  0.14619012471E+03  0.48379279910E+02  0.74586351768E+03  0.76587967478E+03  0.80914658470E+02 0.  0.
        -13    1    5    5    0    0  0.90729372272E+01  0.28303415888E+02  0.71623894862E+02  0.77546011219E+02  0.00000000000E+00 0.  1.
         14    1    5    5    0    0  0.13711718748E+03  0.20075864022E+02  0.67423962282E+03  0.68833366356E+03  0.00000000000E+00 0. -1.
         13    1    3    3    0    0  0.75604950777E+02  0.21140187800E+01 -0.34740235357E+02  0.83231373953E+02  0.00000000000E+00 0. -1.
        -14    1    3    3    0    0  0.11376355364E+02 -0.56361147615E+02 -0.19900323461E+02  0.60844254418E+02  0.00000000000E+00 0.  1.
          5    1    4    4  501    0 -0.22027244485E+03  0.34427931497E+02  0.70239152418E+01  0.22309648185E+03  0.41800000000E+01 0.  1.
         -5    1    4    4    0  501 -0.12898985998E+02 -0.28560082572E+02  0.31022274063E+02  0.44293521471E+02  0.41800000000E+01 0.  1.
</event>
<event>
11    1  0.8328696E-009  0.1614983E+03  0.7561462E-02  0.1085676E+00
         22   -1    0    0    0    0  0.00000000000E+00  0.00000000000E+00  0.56452769292E+03  0.56452769292E+03  0.00000000000E+00 0. -1.
         22   -1    0    0    0    0 -0.00000000000E+00 -0.00000000000E+00 -0.43493565570E+03  0.43493565570E+03  0.00000000000E+00 0. -1.
        -24    2    1    2    0    0  0.83484775747E+00 -0.13266588891E+02 -0.37795911418E+03  0.38379102312E+03  0.65312771212E+02 0.  0.
         25    2    1    2    0    0  0.47145315239E+02 -0.79547941135E+02  0.94875921831E+02  0.18220721741E+03  0.12508986308E+03 0.  0.
         24    2    1    2    0    0 -0.47980162996E+02  0.92814530026E+02  0.41267522957E+03  0.43346510808E+03  0.81697746562E+02 0.  0.
        -11    1    5    5    0    0 -0.57086506392E+02  0.44764133696E+02  0.15430789726E+03  0.17050989424E+03  0.00000000000E+00 0.  1.
         12    1    5    5    0    0  0.91063433953E+01  0.48050396330E+02  0.25836733231E+03  0.26295521383E+03  0.00000000000E+00 0. -1.
         13    1    3    3    0    0 -0.21225850920E+02 -0.27518625671E+02 -0.28760388378E+03  0.28969605705E+03  0.00000000000E+00 0. -1.
        -14    1    3    3    0    0  0.22060698678E+02  0.14252036780E+02 -0.90355230401E+02  0.94094966068E+02  0.00000000000E+00 0.  1.
          5    1    4    4  501    0 -0.38095746945E+02 -0.26484314322E+02  0.40683208744E+01  0.46762468660E+02  0.41800000000E+01 0. -1.
         -5    1    4    4    0  501  0.85241062184E+02 -0.53063626813E+02  0.90807600956E+02  0.13544474875E+03  0.41800000000E+01 0. -1.
</event>
<event>
11    1  0.8328696E-009  0.1751578E+03  0.7561462E-02  0.1073628E+00
         22   -1    0    0    0    0  0.00000000000E+00  0.00000000000E+00  0.56931709333E+03  0.56931709333E+03  0.00000000000E+00 0.  1.
         22   -1    0    0    0    0 -0.00000000000E+00 -0.00000000000E+00 -0.21551404084E+04  0.21551404084E+04  0.00000000000E+00 0.  1.
        -24    2    1    2    0    0 -0.11703144660E+03  0.44619246943E+02 -0.20658100842E+04  0.20711973512E+04  0.81239933743E+02 0.  0.
         25    2    1    2    0    0  0.63070475560E+02 -0.11652328623E+02 -0.20588578872E+02  0.14207254981E+03  0.12508820161E+03 0.  0.
         24    2    1    2    0    0  0.53960971044E+02 -0.32966918320E+02  0.50057534801E+03  0.51118760074E+03  0.82088245315E+02 0.  0.
        -11    1    5    5    0    0  0.29898383304E+02 -0.54708902485E+02  0.41530272478E+03  0.41995634362E+03  0.00000000000E+00 0.  1.
         12    1    5    5    0    0  0.24062587739E+02  0.21741984165E+02  0.85272623229E+02  0.91231257124E+02  0.00000000000E+00 0. -1.
         13    1    3    3    0    0 -0.47574327335E+02 -0.89039861531E+01 -0.11958929329E+04  0.11968719666E+04  0.00000000000E+00 0. -1.
        -14    1    3    3    0    0 -0.69457119268E+02  0.53523233096E+02 -0.86991715137E+03  0.87432538459E+03  0.00000000000E+00 0.  1.
          5    1    4    4  501    0  0.65024457568E+02 -0.60752010289E+02 -0.12362978019E+01  0.89095385225E+02  0.41800000000E+01 0. -1.
         -5    1    4    4    0  501 -0.19539820078E+01  0.49099681665E+02 -0.19352281070E+02  0.52977164589E+02  0.41800000000E+01 0. -1.
</event>
<event>
11    1  0.8328696E-009  0.1416147E+03  0.7561462E-02  0.1105769E+00
         22   -1    0    0    0    0  0.00000000000E+00  0.00000000000E+00  0.91866332643E+03  0.91866332643E+03  0.00000000000E+00 0.  1.
         22   -1    0    0    0    0 -0.00000000000E+00 -0.00000000000E+00 -0.13068989485E+04  0.13068989485E+04  0.00000000000E+00 0. -1.
         24    2    1    2    0    0  0.10678558513E+02  0.65237628156E+02 -0.12362920573E+04  0.12409294688E+04  0.84367741836E+02 0.  0.
         25    2    1    2    0    0 -0.72676011080E+02 -0.67366104101E+02  0.32270254939E+02  0.16280921629E+03  0.12508188113E+03 0.  0.
        -24    2    1    2    0    0  0.61997452567E+02  0.21284759454E+01  0.81578618023E+03  0.82182358990E+03  0.77709114735E+02 0.  0.
        -11    1    3    3    0    0 -0.11167188982E+01  0.72980401505E+02 -0.59194166444E+03  0.59642461398E+03  0.00000000000E+00 0.  1.
         12    1    3    3    0    0  0.11795277412E+02 -0.77427733489E+01 -0.64435039283E+03  0.64450485479E+03  0.00000000000E+00 0. -1.
         11    1    5    5    0    0  0.18538937294E+02 -0.16980413991E+02  0.67446496155E+02  0.71979556117E+02  0.00000000000E+00 0. -1.
        -12    1    5    5    0    0  0.43458515272E+02  0.19108889936E+02  0.74833968408E+03  0.74984403378E+03  0.00000000000E+00 0.  1.
          5    1    4    4  501    0  0.24614727254E+02 -0.17181125964E+02  0.43137793686E+02  0.52720181442E+02  0.41800000000E+01 0. -1.
         -5    1    4    4    0  501 -0.97290738334E+02 -0.50184978137E+02 -0.10867538747E+02  0.11008903485E+03  0.41800000000E+01 0. -1.
</event>
<event>
11    1  0.8328696E-009  0.2915462E+03  0.7561462E-02  0.1003834E+00
         22   -1    0    0    0    0  0.00000000000E+00  0.00000000000E+00  0.19977092411E+04  0.19977092411E+04  0.00000000000E+00 0. -1.
         22   -1    0    0    0    0 -0.00000000000E+00 -0.00000000000E+00 -0.26680243824E+03  0.26680243824E+03  0.00000000000E+00 0. -1.
        -24    2    1    2    0    0  0.17138183604E+03  0.19012774111E+03 -0.13985307760E+03  0.30296170904E+03  0.81893969052E+02 0.  0.
         25    2    1    2    0    0 -0.15763960824E+03 -0.32317592412E+03  0.88689178723E+03  0.96515174971E+03  0.12509170118E+03 0.  0.
         24    2    1    2    0    0 -0.13742227808E+02  0.13304818301E+03  0.98386809324E+03  0.99639822059E+03  0.83200488431E+02 0.  0.
        -13    1    5    5    0    0 -0.34207177025E+02  0.33231692053E+02  0.18458026465E+03  0.19064194296E+03  0.00000000000E+00 0.  1.
         14    1    5    5    0    0  0.20464949217E+02  0.99816490960E+02  0.79928782859E+03  0.80575627763E+03  0.00000000000E+00 0. -1.
         11    1    3    3    0    0  0.16804870094E+03  0.19613218198E+03 -0.12572774241E+03  0.28725539840E+03  0.00000000000E+00 0. -1.
        -12    1    3    3    0    0  0.33331351032E+01 -0.60044408752E+01 -0.14125335189E+02  0.15706310644E+02  0.00000000000E+00 0.  1.
          5    1    4    4  501    0 -0.11840078938E+03 -0.29925479370E+03  0.83914079423E+03  0.89874741915E+03  0.41800000000E+01 0.  1.
         -5    1    4    4    0  501 -0.39238818857E+02 -0.23921130415E+02  0.47750992998E+02  0.66404330566E+02  0.41800000000E+01 0.  1.
</event>
<event>
11    1  0.8328696E-009  0.1268182E+03  0.7561462E-02  0.1123241E+00
         22   -1    0    0    0    0  0.00000000000E+00  0.00000000000E+00  0.52397726987E+03  0.52397726987E+03  0.00000000000E+00 0.  1.
         22   -1    0    0    0    0 -0.00000000000E+00 -0.00000000000E+00 -0.16020968980E+04  0.16020968980E+04  0.00000000000E+00 0. -1.
        -24    2    1    2    0    0  0.14584737275E+01  0.16361207021E+02 -0.15514013068E+04  0.15535751478E+04  0.80497882130E+02 0.  0.
         25    2    1    2    0    0 -0.22191369308E+02 -0.15896462501E+02  0.44177412822E+02  0.13544085744E+03  0.12508967851E+03 0.  0.
         24    2    1    2    0    0  0.20732895580E+02 -0.46474452049E+00  0.42910426582E+03  0.43705816261E+03  0.80369755536E+02 0.  0.
        -13    1    5    5    0    0  0.41233099464E+02 -0.10487603995E+02  0.38552921054E+03  0.38786973394E+03  0.00000000000E+00 0.  1.
         14    1    5    5    0    0 -0.20500203883E+02  0.10022859475E+02  0.43575055283E+02  0.49188428662E+02  0.00000000000E+00 0. -1.
         11    1    3    3    0    0  0.17197047728E+02  0.45326507326E+02 -0.82066420379E+03  0.82209486442E+03  0.00000000000E+00 0. -1.
        -12    1    3    3    0    0 -0.15738574000E+02 -0.28965300305E+02 -0.73073710300E+03  0.73148028342E+03  0.00000000000E+00 0.  1.
          5    1    4    4  501    0 -0.62299363012E+02  0.17030158721E+02 -0.35447944290E+01  0.64817242346E+02  0.41800000000E+01 0. -1.
         -5    1    4    4    0  501  0.40107993704E+02 -0.32926621222E+02  0.47722207251E+02  0.70623615095E+02  0.41800000000E+01 0. -1.
</event>
<event>
11    1  0.8328696E-009  0.3536017E+03  0.7561462E-02  0.9797541E-01
         22   -1    0    0    0    0  0.00000000000E+00  0.00000000000E+00  0.27311972242E+04  0.27311972242E+04  0.00000000000E+00 0. -1.
         22   -1    0    0    0    0 -0.00000000000E+00 -0.00000000000E+00 -0.13269080834E+04  0.13269080834E+04  0.00000000000E+00 0. -1.
         24    2    1    2    0    0  0.19103396455E+03 -0.24158727032E+03 -0.84330222431E+03  0.90122378327E+03  0.78659272857E+02 0.  0.
         25    2    1    2    0    0 -0.34337612817E+03  0.25528381640E+03 -0.34178985015E+03  0.56173303770E+03  0.12508681652E+03 0.  0.
        -24    2    1    2    0    0  0.15234216361E+03 -0.13696546080E+02  0.25893812153E+04  0.25951484866E+04  0.80652707425E+02 0.  0.
        -11    1    3    3    0    0  0.45417530962E+02 -0.10269842855E+03 -0.37663315007E+03  0.39301685597E+03  0.00000000000E+00 0.  1.
         12    1    3    3    0    0  0.14561643359E+03 -0.13888884176E+03 -0.46666907424E+03  0.50820692729E+03  0.00000000000E+00 0. -1.
         13    1    5    5    0    0  0.84355966504E+02  0.31502941438E+02  0.15115702594E+04  0.15142499838E+04  0.00000000000E+00 0. -1.
        -14    1    5    5    0    0  0.67986197109E+02 -0.45199487518E+02  0.10778109559E+04  0.10808985028E+04  0.00000000000E+00 0.  1.
          5    1    4    4  501    0 -0.20639711293E+03  0.10567461021E+03 -0.11992231039E+03  0.26108566486E+03  0.41800000000E+01 0. -1.
         -5    1    4    4    0  501 -0.13697901523E+03  0.14960920619E+03 -0.22186753976E+03  0.30064737283E+03  0.41800000000E+01 0. -1.
</event>
<event>
11    1  0.8328696E-009  0.1358185E+03  0.7561462E-02  0.1112320E+00
         22   -1    0    0    0    0  0.00000000000E+00  0.00000000000E+00  0.71847805014E+02  0.71847805014E+02  0.00000000000E+00 0. -1.
         22   -1    0    0    0    0 -0.00000000000E+00 -0.00000000000E+00 -0.11317020921E+04  0.11317020921E+04  0.00000000000E+00 0.  1.
        -24    2    1    2    0    0  0.47992362770E+02  0.30793246500E+02 -0.81066432151E+03  0.81667372959E+03  0.80795095858E+02 0.  0.
         25    2    1    2    0    0 -0.36462956586E+02 -0.21638032102E+01 -0.26821781832E+03  0.29819929609E+03  0.12509113828E+03 0.  0.
         24    2    1    2    0    0 -0.11529406184E+02 -0.28629443290E+02  0.19027852748E+02  0.88676871433E+02  0.80925620893E+02 0.  0.
        -11    1    5    5    0    0  0.31655564631E+02 -0.46992522062E+01 -0.71539461415E+01  0.32792326676E+02  0.00000000000E+00 0.  1.
         12    1    5    5    0    0 -0.43184970815E+02 -0.23930191084E+02  0.26181798889E+02  0.55884544757E+02  0.00000000000E+00 0. -1.
         11    1    3    3    0    0 -0.20079320113E+02 -0.65304115755E+01 -0.19205302056E+03  0.19321021733E+03  0.00000000000E+00 0. -1.
        -12    1    3    3    0    0  0.68071682883E+02  0.37323658076E+02 -0.61861130095E+03  0.62346351226E+03  0.00000000000E+00 0.  1.
          5    1    4    4  501    0  0.35907852358E+02 -0.31368417196E+02 -0.67022593680E+02  0.82358071383E+02  0.41800000000E+01 0.  1.
         -5    1    4    4    0  501 -0.72370808944E+02  0.29204613986E+02 -0.20119522464E+03  0.21584122471E+03  0.41800000000E+01 0.  1.
</event>
<event>
11    1  0.8328696E-009  0.1499872E+03  0.7561462E-02  0.1096892E+00
         22   -1    0    0    0    0  0.00000000000E+00  0.00000000000E+00  0.15030051951E+04  0.15030051951E+04  0.00000000000E+00 0.  1.
         22   -1    0    0    0    0 -0.00000000000E+00 -0.00000000000E+00 -0.63715110258E+03  0.63715110258E+03  0.00000000000E+00 0.  1.
         24    2    1    2    0    0  0.24240710565E+02 -0.21020215707E+02 -0.60780147094E+03  0.61396570015E+03  0.80633686292E+02 0.  0.
         25    2    1    2    0    0 -0.16579418130E+02  0.10149436030E+03  0.25400209086E+03  0.30123026595E+03  0.12508648483E+03 0.  0.
        -24    2    1    2    0    0 -0.76612924348E+01 -0.80474144590E+02  0.12196534726E+04  0.12249603316E+04  0.80239874026E+02 0.  0.
        -13    1    3    3    0    0  0.53973163639E+02 -0.12285546217E+02 -0.35915401548E+03  0.36339461179E+03  0.00000000000E+00 0.  1.
         14    1    3    3    0    0 -0.29732453074E+02 -0.87346694900E+01 -0.24864745545E+03  0.25057108836E+03  0.00000000000E+00 0. -1.
         11    1    5    5    0    0  0.93471383834E+01 -0.13921400945E+02  0.76162454467E+03  0.76180911090E+03  0.00000000000E+00 0. -1.
        -12    1    5    5    0    0 -0.17008430818E+02 -0.66552743644E+02  0.45802892792E+03  0.46315122068E+03  0.00000000000E+00 0.  1.
          5    1    4    4  501    0  0.30387078775E+02 -0.10701170288E+02  0.21967462964E+02  0.39216468876E+02  0.41800000000E+01 0.  1.
         -5    1    4    4    0  501 -0.46966496906E+02  0.11219553058E+03  0.23203462790E+03  0.26201379708E+03  0.41800000000E+01 0.  1.
</event>
<event>
11    1  0.8328696E-009  0.2470715E+03  0.7561462E-02  0.1025471E+00
         22   -1    0    0    0    0  0.00000000000E+00  0.00000000000E+00  0.24349066781E+04  0.24349066781E+04  0.00000000000E+00 0.  1.
         22   -1    0    0    0    0 -0.00000000000E+00 -0.00000000000E+00 -0.26534336239E+03  0.26534336239E+03  0.00000000000E+00 0.  1.
        -24    2    1    2    0    0  0.10236655548E+03  0.19896340544E+03 -0.18716076728E+03  0.30283117554E+03  0.81315556209E+02 0.  0.
         25    2    1    2    0    0  0.45730600872E+01 -0.13769904552E+03  0.47822484444E+03  0.51315585354E+03  0.12509191885E+03 0.  0.
         24    2    1    2    0    0 -0.10693961557E+03 -0.61264359918E+02  0.18784992385E+04  0.18842630114E+04  0.80612057574E+02 0.  0.
        -13    1    5    5    0    0 -0.30393615457E+02 -0.45738552351E+02  0.40644489075E+03  0.41013806973E+03  0.00000000000E+00 0.  1.
         14    1    5    5    0    0 -0.76546000115E+02 -0.15525807568E+02  0.14720543478E+04  0.14741249417E+04  0.00000000000E+00 0. -1.
         13    1    3    3    0    0  0.11353154107E+02  0.68368847308E+02 -0.20289996497E+02  0.72214107682E+02  0.00000000000E+00 0. -1.
        -14    1    3    3    0    0  0.91013401378E+02  0.13059455813E+03 -0.16687077078E+03  0.23061706785E+03  0.00000000000E+00 0.  1.
          5    1    4    4  501    0 -0.53356657288E+02 -0.10681146651E+03  0.33107919141E+03  0.35197517759E+03  0.41800000000E+01 0.  1.
         -5    1    4    4    0  501  0.57929717375E+02 -0.30887579009E+02  0.14714565303E+03  0.16118067595E+03  0.41800000000E+01 0.  1.
</event>
<event>
11    1  0.8328696E-009  0.2019129E+03  0.7561462E-02  0.1053179E+00
         22   -1    0    0    0    0  0.00000000000E+00  0.00000000000E+00  0.78868949954E+03  0.78868949954E+03  0.00000000000E+00 0. -1.
         22   -1    0    0    0    0 -0.00000000000E+00 -0.00000000000E+00 -0.12682070155E+04  0.12682070155E+04  0.00000000000E+00 0. -1.
         24    2    1    2    0    0  0.91349520671E+02 -0.12754181332E+03 -0.11654425401E+04  0.11792159653E+04  0.87648899576E+02 0.  0.
         25    2    1    2    0    0 -0.13251870023E+03  0.14096262465E+03  0.48923180804E+02  0.23552666557E+03  0.12509062761E+03 0.  0.
        -24    2    1    2    0    0  0.41169179556E+02 -0.13420811327E+02  0.63700184327E+03  0.64215388418E+03  0.68667627863E+02 0.  0.
        -11    1    3    3    0    0  0.24944701724E+02 -0.40145152268E+02 -0.13681578750E+03  0.14474954613E+03  0.00000000000E+00 0.  1.
         12    1    3    3    0    0  0.66404818947E+02 -0.87396661051E+02 -0.10286267526E+04  0.10344664192E+04  0.00000000000E+00 0. -1.
         13    1    5    5    0    0  0.29101038751E+02 -0.35627832869E+02  0.53849433678E+03  0.54045570001E+03  0.00000000000E+00 0. -1.
        -14    1    5    5    0    0  0.12068140805E+02  0.22207021542E+02  0.98507506493E+02  0.10169818417E+03  0.00000000000E+00 0.  1.
          5    1    4    4  501    0 -0.15614148351E+03  0.13136564773E+03  0.48046516214E+02  0.20967364259E+03  0.41800000000E+01 0.  1.
         -5    1    4    4    0  501  0.23622783287E+02  0.95969769160E+01  0.87666458993E+00  0.25853022975E+02  0.41800000000E+01 0.  1.
</event>
<event>
11    1  0.9624233E-009  0.1555758E+03  0.7561462E-02  0.1091314E+00
         22   -1    0    0    0    0  0.00000000000E+00  0.00000000000E+00  0.93578656236E+03  0.93578656236E+03  0.00000000000E+00 0.  1.
         22   -1    0    0    0    0 -0.00000000000E+00 -0.00000000000E+00 -0.63037646522E+03  0.63037646522E+03  0.00000000000E+00 0.  1.
         24    2    1    2    0    0  0.67021027585E+01  0.47765833211E+02 -0.46472767314E+03  0.47406398149E+03  0.80239362955E+02 0.  0.
         25    2    1    2    0    0  0.49443042992E+01  0.45223218224E+02 -0.12870538480E+03  0.18515369660E+03  0.12508888710E+03 0.  0.
        -24    2    1    2    0    0 -0.11646407058E+02 -0.92989051435E+02  0.89884315508E+03  0.90694534949E+03  0.76473832420E+02 0.  0.
        -11    1    3    3    0    0 -0.10444017558E+02  0.21651055641E+02 -0.41254362849E+03  0.41324338000E+03  0.00000000000E+00 0.  1.
         12    1    3    3    0    0  0.17146120317E+02  0.26114777570E+02 -0.52184044649E+02  0.60820601488E+02  0.00000000000E+00 0. -1.
         13    1    5    5    0    0  0.10367439562E+01 -0.32920672952E+02  0.91080062310E+02  0.96852585387E+02  0.00000000000E+00 0. -1.
        -14    1    5    5    0    0 -0.12683151014E+02 -0.60068378483E+02  0.80776309277E+03  0.81009276410E+03  0.00000000000E+00 0.  1.
          5    1    4    4  501    0  0.42451640873E+02  0.47336365713E+02 -0.15184130364E+02  0.65504988715E+02  0.41800000000E+01 0.  1.
         -5    1    4    4    0  501 -0.37507336574E+02 -0.21131474890E+01 -0.11352125444E+03  0.11964870788E+03  0.41800000000E+01 0.  1.
</event>
<event>
11    1  0.8328696E-009  0.3842855E+03  0.7561462E-02  0.9697297E-01
         22   -1    0    0    0    0  0.00000000000E+00  0.00000000000E+00  0.63756758852E+03  0.63756758852E+03  0.00000000000E+00 0.  1.
         22   -1    0    0    0    0 -0.00000000000E+00 -0.00000000000E+00 -0.17805601893E+04  0.17805601893E+04  0.00000000000E+00 0. -1.
        -24    2    1    2    0    0  0.21439840296E+03 -0.27467893811E+03 -0.76005160098E+03  0.84051490626E+03  0.85858472222E+02 0.  0.
         25    2    1    2    0    0 -0.26007109703E+03  0.27607071050E+03 -0.93562450542E+03  0.10172966895E+04  0.12508927437E+03 0.  0.
         24    2    1    2    0    0  0.45672694072E+02 -0.13917723881E+01  0.55268350565E+03  0.56031618207E+03  0.80045202590E+02 0.  0.
        -11    1    5    5    0    0  0.28753506461E+02  0.83965665371E+01  0.52791367228E+03  0.52876281247E+03  0.00000000000E+00 0.  1.
         12    1    5    5    0    0  0.16919187611E+02 -0.97883389252E+01  0.24769833365E+02  0.31553369602E+02  0.00000000000E+00 0. -1.
         13    1    3    3    0    0  0.14147136546E+03 -0.11768756025E+03 -0.43288141629E+03  0.47037307497E+03  0.00000000000E+00 0. -1.
        -14    1    3    3    0    0  0.72927037506E+02 -0.15699137786E+03 -0.32717018469E+03  0.37014183129E+03  0.00000000000E+00 0.  1.
          5    1    4    4  501    0 -0.18771921647E+03  0.11415102520E+03 -0.46371947079E+03  0.51314927729E+03  0.41800000000E+01 0. -1.
         -5    1    4    4    0  501 -0.72351880565E+02  0.16191968530E+03 -0.47190503463E+03  0.50414741219E+03  0.41800000000E+01 0. -1.
</event>
<event>
11    1  0.8328696E-009  0.1558711E+03  0.7561462E-02  0.1091026E+00
         22   -1    0    0    0    0  0.00000000000E+00  0.00000000000E+00  0.37893229845E+03  0.37893229845E+03  0.00000000000E+00 0.  1.
         22   -1    0    0    0    0 -0.00000000000E+00 -0.00000000000E+00 -0.54073608140E+03  0.54073608140E+03  0.00000000000E+00 0. -1.
        -24    2    1    2    0    0 -0.53020284283E+02  0.77626721844E+02 -0.45117037685E+03  0.46613884181E+03  0.69954645334E+02 0.  0.
         25    2    1    2    0    0  0.54205404386E+02 -0.63402480104E+02 -0.19073966291E+01  0.15036462471E+03  0.12509109423E+03 0.  0.
         24    2    1    2    0    0 -0.11851201038E+01 -0.14224241740E+02  0.29127399053E+03  0.30316491333E+03  0.82853446228E+02 0.  0.
        -11    1    5    5    0    0 -0.32523481333E+02 -0.18169961700E+01  0.23734277611E+03  0.23956767663E+03  0.00000000000E+00 0.  1.
         12    1    5    5    0    0  0.31338361229E+02 -0.12407245570E+02  0.53931214413E+02  0.63597236695E+02  0.00000000000E+00 0. -1.
         11    1    3    3    0    0 -0.25612417735E+02  0.79182278613E+02 -0.39433416443E+03  0.40302017620E+03  0.00000000000E+00 0. -1.
        -12    1    3    3    0    0 -0.27407866547E+02 -0.15555567691E+01 -0.56836212425E+02  0.63118665610E+02  0.00000000000E+00 0.  1.
          5    1    4    4  501    0  0.62608564277E+02 -0.89117566626E+02  0.25170420555E+02  0.11186060733E+03  0.41800000000E+01 0.  1.
         -5    1    4    4    0  501 -0.84031598905E+01  0.25715086522E+02 -0.27077817184E+02  0.38504017380E+02  0.41800000000E+01 0.  1.
</event>
<event>
11    1  0.8328696E-009  0.1374381E+03  0.7561462E-02  0.1110453E+00
         22   -1    0    0    0    0  0.00000000000E+00  0.00000000000E+00  0.19286555864E+03  0.19286555864E+03  0.00000000000E+00 0. -1.
         22   -1    0    0    0    0 -0.00000000000E+00 -0.00000000000E+00 -0.61412744407E+03  0.61412744407E+03  0.00000000000E+00 0.  1.
         24    2    1    2    0    0  0.58551371658E+01 -0.14353026434E+01 -0.36638774747E+03  0.37513345842E+03  0.80304342388E+02 0.  0.
         25    2    1    2    0    0  0.37353628285E+02  0.38839392000E+02 -0.20813941747E+03  0.24874343297E+03  0.12508991335E+03 0.  0.
        -24    2    1    2    0    0 -0.43208765451E+02 -0.37404089356E+02  0.15326527951E+03  0.18311611132E+03  0.82311609206E+02 0.  0.
        -11    1    3    3    0    0  0.38665174156E+02 -0.17631541964E+02 -0.16111019073E+03  0.16662040848E+03  0.00000000000E+00 0.  1.
         12    1    3    3    0    0 -0.32810036990E+02  0.16196239320E+02 -0.20527755673E+03  0.20851304994E+03  0.00000000000E+00 0. -1.
         13    1    5    5    0    0  0.14924535793E+02  0.15458363115E+02  0.37078535672E+02  0.42854644630E+02  0.00000000000E+00 0. -1.
        -14    1    5    5    0    0 -0.58133301244E+02 -0.52862452471E+02  0.11618674384E+03  0.14026146669E+03  0.00000000000E+00 0.  1.
          5    1    4    4  501    0  0.57348273232E+02  0.65133733546E+02 -0.86390330468E+02  0.12252342342E+03  0.41800000000E+01 0.  1.
         -5    1    4    4    0  501 -0.19994644947E+02 -0.26294341546E+02 -0.12174908700E+03  0.12622000955E+03  0.41800000000E+01 0.  1.
</event>
<event>
11    1  0.8328696E-009  0.1599279E+03  0.7561462E-02  0.1087145E+00
         22   -1    0    0    0    0  0.00000000000E+00  0.00000000000E+00  0.43425738065E+03  0.43425738065E+03  0.00000000000E+00 0. -1.
         22   -1    0    0    0    0 -0.00000000000E+00 -0.00000000000E+00 -0.46184814191E+03  0.46184814191E+03  0.00000000000E+00 0.  1.
        -24    2    1    2    0    0 -0.86422105040E+02 -0.57703735961E+02 -0.35502950665E+03  0.37804419352E+03  0.77929200434E+02 0.  0.
         25    2    1    2    0    0  0.86603510782E+02  0.33390770608E+01 -0.23545294256E+02  0.15399313688E+03  0.12509271685E+03 0.  0.
         24    2    1    2    0    0 -0.18140574129E+00  0.54364658901E+02  0.35098403964E+03  0.36406819215E+03  0.80001896294E+02 0.  0.
        -11    1    5    5    0    0  0.21335276525E+02 -0.10561905452E+02  0.49563519821E+02  0.54984455696E+02  0.00000000000E+00 0.  1.
         12    1    5    5    0    0 -0.21516682266E+02  0.64926564353E+02  0.30142051982E+03  0.30908373646E+03  0.00000000000E+00 0. -1.
         13    1    3    3    0    0 -0.38791601987E+01 -0.23194086375E+02 -0.18776898554E+02  0.30092946781E+02  0.00000000000E+00 0. -1.
        -14    1    3    3    0    0 -0.82542944842E+02 -0.34509649586E+02 -0.33625260809E+03  0.34795124674E+03  0.00000000000E+00 0.  1.
          5    1    4    4  501    0  0.94272297477E+02 -0.31323610041E+02  0.15977015151E+02  0.10070338639E+03  0.41800000000E+01 0. -1.
         -5    1    4    4    0  501 -0.76687866957E+01  0.34662687102E+02 -0.39522309406E+02  0.53289750490E+02  0.41800000000E+01 0. -1.
</event>
<event>
11    1  0.8328696E-009  0.1594358E+03  0.7561462E-02  0.1087609E+00
         22   -1    0    0    0    0  0.00000000000E+00  0.00000000000E+00  0.37328532859E+03  0.37328532859E+03  0.00000000000E+00 0.  1.
         22   -1    0    0    0    0 -0.00000000000E+00 -0.00000000000E+00 -0.22342033980E+03  0.22342033980E+03  0.00000000000E+00 0. -1.
         24    2    1    2    0    0 -0.63148025320E+02 -0.27821576587E+02 -0.36426788134E+02  0.11244772230E+03  0.80968303254E+02 0.  0.
         25    2    1    2    0    0  0.36867053942E+02  0.12190160232E+03 -0.75349134337E+02  0.19376414242E+03  0.12509144867E+03 0.  0.
        -24    2    1    2    0    0  0.26280971379E+02 -0.94080025729E+02  0.26164091126E+03  0.29049380366E+03  0.79930862764E+02 0.  0.
        -13    1    3    3    0    0 -0.34189125426E+01  0.15718904704E+02 -0.34999737692E+02  0.38519534870E+02  0.00000000000E+00 0.  1.
         14    1    3    3    0    0 -0.59729112778E+02 -0.43540481291E+02 -0.14270504420E+01  0.73928187434E+02  0.00000000000E+00 0. -1.
         13    1    5    5    0    0  0.17405759930E+02 -0.19229100517E+02  0.99853651880E+01  0.27792558417E+02  0.00000000000E+00 0. -1.
        -14    1    5    5    0    0  0.88752114484E+01 -0.74850925212E+02  0.25165554608E+03  0.26270124525E+03  0.00000000000E+00 0.  1.
          5    1    4    4  501    0  0.16346383241E+02 -0.13343061528E+02  0.18044922458E+02  0.28077271279E+02  0.41800000000E+01 0.  1.
         -5    1    4    4    0  501  0.20520670701E+02  0.13524466384E+03 -0.93394056795E+02  0.16568687114E+03  0.41800000000E+01 0.  1.
</event>
<event>
11    1  0.8328696E-009  0.1445019E+03  0.7561462E-02  0.1102633E+00
         22   -1    0    0    0    0  0.00000000000E+00  0.00000000000E+00  0.10579838689E+04  0.10579838689E+04  0.00000000000E+00 0. -1.
         22   -1    0    0    0    0 -0.00000000000E+00 -0.00000000000E+00 -0.15801819448E+04  0.15801819448E+04  0.00000000000E+00 0. -1.
        -24    2    1    2    0    0 -0.42576344976E+02 -0.58353939984E+02 -0.15176598715E+04  0.15214983323E+04  0.80297958666E+02 0.  0.
         25    2    1    2    0    0  0.59713955698E+02  0.52250073263E+02  0.34279277518E+02  0.15204784922E+03  0.12509057888E+03 0.  0.
         24    2    1    2    0    0 -0.17137610722E+02  0.61038667208E+01  0.96118251807E+03  0.96461963214E+03  0.79298466445E+02 0.  0.
        -13    1    5    5    0    0  0.21382073493E+02  0.28271567126E+01  0.88828934099E+02  0.91409875916E+02  0.00000000000E+00 0.  1.
         14    1    5    5    0    0 -0.38519684214E+02  0.32767100082E+01  0.87235358397E+03  0.87320975623E+03  0.00000000000E+00 0. -1.
         11    1    3    3    0    0 -0.63226098885E+02 -0.45667647876E+02 -0.90338929972E+03  0.90674985552E+03  0.00000000000E+00 0. -1.
        -12    1    3    3    0    0  0.20649753909E+02 -0.12686292108E+02 -0.61427057180E+03  0.61474847679E+03  0.00000000000E+00 0.  1.
          5    1    4    4  501    0 -0.29916677097E+02 -0.15431722065E+02  0.18250139351E+02  0.38518639654E+02  0.41800000000E+01 0.  1.
         -5    1    4    4    0  501  0.89630632795E+02  0.67681795328E+02  0.16029138167E+02  0.11352920957E+03  0.41800000000E+01 0.  1.
</event>
<event>
11    1  0.8328696E-009  0.2088666E+03  0.7561462E-02  0.1048425E+00
         22   -1    0    0    0    0  0.00000000000E+00  0.00000000000E+00  0.12945850672E+04  0.12945850672E+04  0.00000000000E+00 0.  1.
         22   -1    0    0    0    0 -0.00000000000E+00 -0.00000000000E+00 -0.43082545460E+03  0.43082545460E+03  0.00000000000E+00 0. -1.
        -24    2    1    2    0    0  0.15611322077E+02  0.32019176723E+02 -0.17822118544E+03  0.19895364177E+03  0.80937133485E+02 0.  0.
         25    2    1    2    0    0  0.15033078147E+03 -0.67565885416E+01 -0.19447424591E+03  0.27588499112E+03  0.12508917083E+03 0.  0.
         24    2    1    2    0    0 -0.16594210354E+03 -0.25262588181E+02  0.12364550440E+04  0.12505718889E+04  0.83270604023E+02 0.  0.
        -11    1    5    5    0    0 -0.16608001881E+03 -0.62990909907E+01  0.11575191799E+04  0.11693899705E+04  0.00000000000E+00 0.  1.
         12    1    5    5    0    0  0.13791526241E+00 -0.18963497190E+02  0.78935864091E+02  0.81181918468E+02  0.00000000000E+00 0. -1.
         11    1    3    3    0    0  0.39581468160E+02 -0.39911107671E+01 -0.11998902671E+03  0.12641197774E+03  0.00000000000E+00 0. -1.
        -12    1    3    3    0    0 -0.23970146083E+02  0.36010287490E+02 -0.58232158738E+02  0.72541664026E+02  0.00000000000E+00 0.  1.
          5    1    4    4  501    0  0.13602704850E+03 -0.53362009665E+02 -0.13624808856E+03  0.19982961752E+03  0.41800000000E+01 0.  1.
         -5    1    4    4    0  501  0.14303732965E+02  0.46605421123E+02 -0.58226157348E+02  0.76055373606E+02  0.41800000000E+01 0.  1.
</event>
<event>
11    1  0.8328696E-009  0.1740708E+03  0.7561462E-02  0.1074542E+00
         22   -1    0    0    0    0  0.00000000000E+00  0.00000000000E+00  0.21466909340E+03  0.21466909340E+03  0.00000000000E+00 0. -1.
         22   -1    0    0    0    0 -0.00000000000E+00 -0.00000000000E+00 -0.83553578721E+03  0.83553578721E+03  0.00000000000E+00 0.  1.
        -24    2    1    2    0    0 -0.14795944929E+02 -0.38388482887E+02 -0.66712701717E+03  0.67333436180E+03  0.81413206159E+02 0.  0.
         25    2    1    2    0    0 -0.36977492637E+02  0.13884429908E+03 -0.42106933072E+02  0.19510434931E+03  0.12509052304E+03 0.  0.
         24    2    1    2    0    0  0.51773437567E+02 -0.10045581620E+03  0.88367256438E+02  0.18176616951E+03  0.11161679319E+03 0.  0.
        -13    1    5    5    0    0  0.24621555670E+02  0.72586044048E+01 -0.15250232387E+02  0.29857627658E+02  0.00000000000E+00 0.  1.
         14    1    5    5    0    0  0.27151881897E+02 -0.10771442060E+03  0.10361748883E+03  0.15190854185E+03  0.00000000000E+00 0. -1.
         11    1    3    3    0    0  0.24963864502E+02 -0.43951815203E+02 -0.40717896543E+03  0.41030435834E+03  0.00000000000E+00 0. -1.
        -12    1    3    3    0    0 -0.39759809431E+02  0.55633323154E+01 -0.25994805175E+03  0.26303000346E+03  0.00000000000E+00 0.  1.
          5    1    4    4  501    0  0.20002959170E+02  0.10231790551E+03 -0.65705867358E+02  0.12330371271E+03  0.41800000000E+01 0. -1.
         -5    1    4    4    0  501 -0.56980451808E+02  0.36526393573E+02  0.23598934286E+02  0.71800636593E+02  0.41800000000E+01 0. -1.
</event>
<event>
11    1  0.8328696E-009  0.1482451E+03  0.7561462E-02  0.1098686E+00
         22   -1    0    0    0    0  0.00000000000E+00  0.00000000000E+00  0.26811571602E+02  0.26811571602E+02  0.00000000000E+00 0. -1.
         22   -1    0    0    0    0 -0.00000000000E+00 -0.00000000000E+00 -0.20190122595E+04  0.20190122595E+04  0.00000000000E+00 0.  1.
        -24    2    1    2    0    0  0.63025149596E+02  0.37980556267E+02 -0.82933269225E+03  0.83612559636E+03  0.76802384909E+02 0.  0.
         25    2    1    2    0    0 -0.47756144917E+02 -0.11124967793E+03 -0.98728093682E+03  0.10025106194E+04  0.12508698370E+03 0.  0.
         24    2    1    2    0    0 -0.15269004679E+02  0.73269121667E+02 -0.17558705884E+03  0.20718761540E+03  0.80587753706E+02 0.  0.
        -11    1    5    5    0    0 -0.31911367646E+02  0.72613713279E+02 -0.17302230981E+03  0.19033603556E+03  0.00000000000E+00 0.  1.
         12    1    5    5    0    0  0.16642362968E+02  0.65540838867E+00 -0.25647490295E+01  0.16851579834E+02  0.00000000000E+00 0. -1.
         13    1    3    3    0    0  0.29072219684E+02 -0.18646778317E+02 -0.42865977581E+03  0.43004895035E+03  0.00000000000E+00 0. -1.
        -14    1    3    3    0    0  0.33952929912E+02  0.56627334584E+02 -0.40067291643E+03  0.40607664601E+03  0.00000000000E+00 0.  1.
          5    1    4    4  501    0 -0.67262190649E+02 -0.60518105229E+02 -0.84984762555E+03  0.85466081131E+03  0.41800000000E+01 0. -1.
         -5    1    4    4    0  501  0.19506045732E+02 -0.50731572705E+02 -0.13743331127E+03  0.14784980804E+03  0.41800000000E+01 0. -1.
</event>
<event>
11    1  0.8328696E-009  0.1314578E+03  0.7561462E-02  0.1117491E+00
         22   -1    0    0    0    0  0.00000000000E+00  0.00000000000E+00  0.80595520397E+03  0.80595520397E+03  0.00000000000E+00 0. -1.
         22   -1    0    0    0    0 -0.00000000000E+00 -0.00000000000E+00 -0.13711483413E+03  0.13711483413E+03  0.00000000000E+00 0.  1.
         24    2    1    2    0    0 -0.99854827885E+01 -0.39633672718E+02 -0.95075125511E+02  0.13098587948E+03  0.80296221905E+02 0.  0.
         25    2    1    2    0    0  0.31466041177E+02  0.28436305310E+02  0.19099385227E+03  0.23220739821E+03  0.12507153542E+03 0.  0.
        -24    2    1    2    0    0 -0.21480558388E+02  0.11197367408E+02  0.57292164308E+03  0.57987676040E+03  0.86203553958E+02 0.  0.
        -11    1    3    3    0    0 -0.73116358841E+01 -0.33127607432E+02 -0.10966306732E+03  0.11479062125E+03  0.00000000000E+00 0.  1.
         12    1    3    3    0    0 -0.26738469045E+01 -0.65060652857E+01  0.14587941809E+02  0.16195258226E+02  0.00000000000E+00 0. -1.
         13    1    5    5    0    0 -0.21875154571E+02 -0.33792352758E+02  0.36064155656E+03  0.36288121722E+03  0.00000000000E+00 0. -1.
        -14    1    5    5    0    0  0.39459618271E+00  0.44989720166E+02  0.21228008653E+03  0.21699554318E+03  0.00000000000E+00 0.  1.
          5    1    4    4  501    0 -0.86867618192E+01  0.67617546230E+02  0.14213930113E+03  0.15769795723E+03  0.41800000000E+01 0.  1.
         -5    1    4    4    0  501  0.40152802996E+02 -0.39181240920E+02  0.48854551142E+02  0.74509440984E+02  0.41800000000E+01 0.  1.
</event>
<event>
11    1  0.8328696E-009  0.4033149E+03  0.7561462E-02  0.9640028E-01
         22   -1    0    0    0    0  0.00000000000E+00  0.00000000000E+00  0.22826075063E+04  0.22826075063E+04  0.00000000000E+00 0.  1.
         22   -1    0    0    0    0 -0.00000000000E+00 -0.00000000000E+00 -0.22904876425E+03  0.22904876425E+03  0.00000000000E+00 0. -1.
        -24    2    1    2    0    0 -0.29980242107E+03  0.31648862196E+03  0.71933511551E+02  0.44909426204E+03  0.80403274809E+02 0.  0.
         25    2    1    2    0    0  0.24716580199E+03 -0.73930312149E+02  0.73849065145E+03  0.79219503963E+03  0.12509162166E+03 0.  0.
         24    2    1    2    0    0  0.52636619075E+02 -0.24255830981E+03  0.12431345791E+04  0.12703669689E+04  0.82725489864E+02 0.  0.
        -11    1    5    5    0    0  0.70857890110E+02 -0.16155171533E+03  0.76497390614E+03  0.78505087376E+03  0.00000000000E+00 0.  1.
         12    1    5    5    0    0 -0.18221271035E+02 -0.81006594488E+02  0.47816067291E+03  0.48531609513E+03  0.00000000000E+00 0. -1.
         13    1    3    3    0    0 -0.29549169469E+03  0.31865013733E+03  0.63235827322E+02  0.43914920188E+03  0.00000000000E+00 0. -1.
        -14    1    3    3    0    0 -0.43107263768E+01 -0.21615153705E+01  0.86976842286E+01  0.99450601574E+01  0.00000000000E+00 0.  1.
          5    1    4    4  501    0  0.17459772587E+03 -0.29922795099E+02  0.32600119910E+03  0.37104446332E+03  0.41800000000E+01 0.  1.
         -5    1    4    4    0  501  0.72568076123E+02 -0.44007517050E+02  0.41248945235E+03  0.42115057631E+03  0.41800000000E+01 0.  1.
</event>
<event>
11    1  0.8328696E-009  0.7516153E+03  0.7561462E-02  0.8959518E-01
         22   -1    0    0    0    0  0.00000000000E+00  0.00000000000E+00  0.90548930066E+03  0.90548930066E+03  0.00000000000E+00 0. -1.
         22   -1    0    0    0    0 -0.00000000000E+00 -0.00000000000E+00 -0.97713419593E+03  0.97713419593E+03  0.00000000000E+00 0. -1.
         24    2    1    2    0    0  0.13854211962E+03  0.82467506784E+01 -0.11452110621E+03  0.19660707014E+03  0.79229593300E+02 0.  0.
         25    2    1    2    0    0 -0.67461612732E+03 -0.47520030676E+03 -0.30742210296E+03  0.88942576579E+03  0.12509033806E+03 0.  0.
        -24    2    1    2    0    0  0.53607400771E+03  0.46695355608E+03  0.35029831389E+03  0.79659066067E+03  0.80167366653E+02 0.  0.
        -13    1    3    3    0    0  0.14831323721E+01  0.16287865865E+02  0.20713903201E+01  0.16485900459E+02  0.00000000000E+00 0.  1.
         14    1    3    3    0    0  0.13705898725E+03 -0.80411151869E+01 -0.11659249653E+03  0.18012116968E+03  0.00000000000E+00 0. -1.
         13    1    5    5    0    0  0.52359128760E+03  0.45390288367E+03  0.32466349907E+03  0.76523333166E+03  0.00000000000E+00 0. -1.
        -14    1    5    5    0    0  0.12482720111E+02  0.13050672407E+02  0.25634814827E+02  0.31357329013E+02  0.00000000000E+00 0.  1.
          5    1    4    4  501    0 -0.65213810701E+03 -0.47163727467E+03 -0.27690610991E+03  0.85112883607E+03  0.41800000000E+01 0.  1.
         -5    1    4    4    0  501 -0.22478020310E+02 -0.35630320858E+01 -0.30515993044E+02  0.38296929722E+02  0.41800000000E+01 0.  1.
</event>
<event>
11    1  0.8328696E-009  0.1763155E+03  0.7561462E-02  0.1072663E+00
         22   -1    0    0    0    0  0.00000000000E+00  0.00000000000E+00  0.74616681819E+03  0.74616681819E+03  0.00000000000E+00 0.  1.
         22   -1    0    0    0    0 -0.00000000000E+00 -0.00000000000E+00 -0.30312685901E+03  0.30312685901E+03  0.00000000000E+00 0. -1.
        -24    2    1    2    0    0 -0.77378653396E+02 -0.62229771428E+02 -0.21842589047E+03  0.25335004684E+03  0.81341109850E+02 0.  0.
         25    2    1    2    0    0  0.19020696731E+03  0.51427864448E+02  0.18026831524E+03  0.29490264796E+03  0.12508953049E+03 0.  0.
         24    2    1    2    0    0 -0.11282831391E+03  0.10801906980E+02  0.48119753441E+03  0.50104098240E+03  0.81511283346E+02 0.  0.
        -11    1    5    5    0    0 -0.66223826339E+02  0.46114359660E+02  0.29841588725E+03  0.30913455178E+03  0.00000000000E+00 0.  1.
         12    1    5    5    0    0 -0.46604487572E+02 -0.35312452680E+02  0.18278164715E+03  0.19190643062E+03  0.00000000000E+00 0. -1.
         11    1    3    3    0    0 -0.35493325845E+02 -0.26283134669E+02 -0.18184857111E+03  0.18713493036E+03  0.00000000000E+00 0. -1.
        -12    1    3    3    0    0 -0.41885327550E+02 -0.35946636759E+02 -0.36577319365E+02  0.66215116478E+02  0.00000000000E+00 0.  1.
          5    1    4    4  501    0  0.18536377161E+03  0.33190064150E+02  0.19461000835E+03  0.27083544069E+03  0.41800000000E+01 0.  1.
         -5    1    4    4    0  501  0.48431956991E+01  0.18237800298E+02 -0.14341693112E+02  0.24067207267E+02  0.41800000000E+01 0.  1.
</event>
<event>
11    1  0.8328696E-009  0.1684394E+03  0.7561462E-02  0.1079398E+00
         22   -1    0    0    0    0  0.00000000000E+00  0.00000000000E+00  0.10477830185E+04  0.10477830185E+04  0.00000000000E+00 0.  1.
         22   -1    0    0    0    0 -0.00000000000E+00 -0.00000000000E+00 -0.85698826115E+03  0.85698826115E+03  0.00000000000E+00 0. -1.
        -24    2    1    2    0    0  0.24892638135E+02 -0.11338146385E+03 -0.67526793475E+03  0.68977132651E+03  0.79515403476E+02 0.  0.
         25    2    1    2    0    0 -0.61955186526E+02  0.82979913575E+02 -0.13415236748E+03  0.21062821514E+03  0.12507308311E+03 0.  0.
         24    2    1    2    0    0  0.37062548391E+02  0.30401550279E+02  0.10002150596E+04  0.10043717380E+04  0.77682275315E+02 0.  0.
        -11    1    5    5    0    0  0.32228245157E+02  0.52871352743E+02  0.86532661566E+03  0.86753915848E+03  0.00000000000E+00 0.  1.
         12    1    5    5    0    0  0.48343032346E+01 -0.22469802464E+02  0.13488844391E+03  0.13683257949E+03  0.00000000000E+00 0. -1.
         13    1    3    3    0    0  0.35857911023E+02 -0.41719201703E+02 -0.44430796669E+03  0.44770062635E+03  0.00000000000E+00 0. -1.
        -14    1    3    3    0    0 -0.10965272889E+02 -0.71662262151E+02 -0.23095996807E+03  0.24207070016E+03  0.00000000000E+00 0.  1.
          5    1    4    4  501    0  0.17769401582E+02  0.75274828376E+02 -0.91174210247E+02  0.11963385990E+03  0.41800000000E+01 0. -1.
         -5    1    4    4    0  501 -0.79724588108E+02  0.77050851989E+01 -0.42978157237E+02  0.90994355245E+02  0.41800000000E+01 0. -1.
</event>
<event>
11    1  0.8328696E-009  0.1473271E+03  0.7561462E-02  0.1099642E+00
         22   -1    0    0    0    0  0.00000000000E+00  0.00000000000E+00  0.26092070318E+03  0.26092070318E+03  0.00000000000E+00 0. -1.
         22   -1    0    0    0    0 -0.00000000000E+00 -0.00000000000E+00 -0.19146939567E+04  0.19146939567E+04  0.00000000000E+00 0.  1.
        -24    2    1    2    0    0  0.25484174723E+00  0.23011792134E+02 -0.17754812341E+04  0.17774583837E+04  0.80592094191E+02 0.  0.
         25    2    1    2    0    0 -0.73118151701E+02  0.67870095144E+01 -0.80416573752E+02  0.16585162278E+03  0.12509039867E+03 0.  0.
         24    2    1    2    0    0  0.72863309954E+02 -0.29798801649E+02  0.20212455428E+03  0.23230465345E+03  0.83150983478E+02 0.  0.
        -11    1    5    5    0    0  0.84093779547E+02 -0.25130310412E+02  0.11671323206E+03  0.14603175955E+03  0.00000000000E+00 0.  1.
         12    1    5    5    0    0 -0.11230469593E+02 -0.46684912368E+01  0.85411322221E+02  0.86272893896E+02  0.00000000000E+00 0. -1.
         13    1    3    3    0    0  0.40273900139E+02  0.79991709249E+01 -0.85584207552E+03  0.85682648885E+03  0.00000000000E+00 0. -1.
        -14    1    3    3    0    0 -0.40019058391E+02  0.15012621209E+02 -0.91963915854E+03  0.92063189481E+03  0.00000000000E+00 0.  1.
          5    1    4    4  501    0 -0.50213722791E+02  0.57768660384E+02 -0.78577512572E+02  0.10977492410E+03  0.41800000000E+01 0.  1.
         -5    1    4    4    0  501 -0.22904428910E+02 -0.50981650870E+02 -0.18390611800E+01  0.56076698683E+02  0.41800000000E+01 0.  1.
</event>
<event>
11    1  0.8328696E-009  0.1455591E+03  0.7561462E-02  0.1101505E+00
         22   -1    0    0    0    0  0.00000000000E+00  0.00000000000E+00  0.77319637865E+03  0.77319637865E+03  0.00000000000E+00 0. -1.
         22   -1    0    0    0    0 -0.00000000000E+00 -0.00000000000E+00 -0.49456766705E+03  0.49456766705E+03  0.00000000000E+00 0. -1.
         24    2    1    2    0    0  0.40203017382E+02 -0.59911011407E+02 -0.43270556914E+03  0.44588777468E+03  0.79851024730E+02 0.  0.
         25    2    1    2    0    0 -0.73881545812E+02  0.10598569224E+03  0.10570652223E+03  0.20859203804E+03  0.12508125247E+03 0.  0.
        -24    2    1    2    0    0  0.33678528430E+02 -0.46074680832E+02  0.60562775851E+03  0.61328423298E+03  0.77945166914E+02 0.  0.
        -13    1    3    3    0    0  0.19374975890E+02 -0.35200605508E+02 -0.62676240364E+02  0.74449871894E+02  0.00000000000E+00 0.  1.
         14    1    3    3    0    0  0.20828041492E+02 -0.24710405900E+02 -0.37002932878E+03  0.37143790279E+03  0.00000000000E+00 0. -1.
         13    1    5    5    0    0  0.28527130139E+02 -0.31172609646E+02  0.58845768878E+03  0.58997286398E+03  0.00000000000E+00 0. -1.
        -14    1    5    5    0    0  0.51513982905E+01 -0.14902071186E+02  0.17170069736E+02  0.23311369002E+02  0.00000000000E+00 0.  1.
          5    1    4    4  501    0 -0.68124136741E+02  0.10732404801E+03  0.27596918635E+02  0.13014765309E+03  0.41800000000E+01 0.  1.
         -5    1    4    4    0  501 -0.57574090705E+01 -0.13383557698E+01  0.78109603594E+02  0.78444384942E+02  0.41800000000E+01 0.  1.
</event>
<event>
11    1  0.8328696E-009  0.2019943E+03  0.7561462E-02  0.1053122E+00
         22   -1    0    0    0    0  0.00000000000E+00  0.00000000000E+00  0.43407584036E+02  0.43407584036E+02  0.00000000000E+00 0. -1.
         22   -1    0    0    0    0 -0.00000000000E+00 -0.00000000000E+00 -0.16840821704E+04  0.16840821704E+04  0.00000000000E+00 0.  1.
        -24    2    1    2    0    0  0.18147236377E+02  0.18400681723E+02 -0.68414660390E+03  0.68943232344E+03  0.81193877200E+02 0.  0.
         25    2    1    2    0    0  0.12280177528E+03  0.70209706027E+02 -0.67112112814E+03  0.69718065729E+03  0.12509045303E+03 0.  0.
         24    2    1    2    0    0 -0.14094901166E+03 -0.88610387750E+02 -0.28540685436E+03  0.34087677374E+03  0.83794257884E+02 0.  0.
        -11    1    5    5    0    0  0.48086329277E+01 -0.71680879056E+01 -0.58639797171E+02  0.59271664791E+02  0.00000000000E+00 0.  1.
         12    1    5    5    0    0 -0.14575764459E+03 -0.81442299844E+02 -0.22676705719E+03  0.28160510895E+03  0.00000000000E+00 0. -1.
         13    1    3    3    0    0  0.40779209152E+02  0.25261943714E+02 -0.24515025365E+03  0.24979943267E+03  0.00000000000E+00 0. -1.
        -14    1    3    3    0    0 -0.22631972774E+02 -0.68612619910E+01 -0.43899635025E+03  0.43963289076E+03  0.00000000000E+00 0.  1.
          5    1    4    4  501    0  0.67058916686E+02  0.69907054259E+02 -0.19486450464E+03  0.21765463954E+03  0.41800000000E+01 0.  1.
         -5    1    4    4    0  501  0.55742858597E+02  0.30265176777E+00 -0.47625662350E+03  0.47952601776E+03  0.41800000000E+01 0.  1.
</event>
<event>
11    1  0.8328696E-009  0.1423641E+03  0.7561462E-02  0.1104947E+00
         22   -1    0    0    0    0  0.00000000000E+00  0.00000000000E+00  0.56151244198E+03  0.56151244198E+03  0.00000000000E+00 0. -1.
         22   -1    0    0    0    0 -0.00000000000E+00 -0.00000000000E+00 -0.28249006723E+03  0.28249006723E+03  0.00000000000E+00 0.  1.
         24    2    1    2    0    0  0.55575562228E+02 -0.42196087692E+02 -0.21135752662E+03  0.23716504022E+03  0.81890776717E+02 0.  0.
         25    2    1    2    0    0 -0.67011946340E+02 -0.14766587278E+00  0.41377116671E+02  0.14781646271E+03  0.12508804142E+03 0.  0.
        -24    2    1    2    0    0  0.11436384112E+02  0.42343753565E+02  0.44900278470E+03  0.45902100628E+03  0.84693560523E+02 0.  0.
        -13    1    3    3    0    0  0.18061121882E+02 -0.11684650692E+02 -0.17587994330E+03  0.17719054614E+03  0.00000000000E+00 0.  1.
         14    1    3    3    0    0  0.37514440346E+02 -0.30511437001E+02 -0.35477583316E+02  0.59974494081E+02  0.00000000000E+00 0. -1.
         13    1    5    5    0    0  0.29299194784E+02  0.33410874226E+02  0.42699845452E+03  0.42930456496E+03  0.00000000000E+00 0. -1.
        -14    1    5    5    0    0 -0.17862810673E+02  0.89328793385E+01  0.22004330180E+02  0.29716441326E+02  0.00000000000E+00 0.  1.
          5    1    4    4  501    0  0.10314862275E+02  0.43973490968E+02 -0.77951869458E+01  0.46025010931E+02  0.41800000000E+01 0. -1.
         -5    1    4    4    0  501 -0.77326808615E+02 -0.44121156841E+02  0.49172303617E+02  0.10179145178E+03  0.41800000000E+01 0. -1.
</event>
<event>
11    1  0.8328696E-009  0.2290981E+03  0.7561462E-02  0.1035663E+00
         22   -1    0    0    0    0  0.00000000000E+00  0.00000000000E+00  0.14799730806E+04  0.14799730806E+04  0.00000000000E+00 0. -1.
         22   -1    0    0    0    0 -0.00000000000E+00 -0.00000000000E+00 -0.13198160015E+04  0.13198160015E+04  0.00000000000E+00 0. -1.
        -24    2    1    2    0    0  0.18404225408E+03  0.25536863938E+02 -0.99416930986E+03  0.10145738632E+04  0.80397913933E+02 0.  0.
         25    2    1    2    0    0 -0.21854013434E+03 -0.49244662417E+02 -0.26157588301E+03  0.36641015031E+03  0.12509847555E+03 0.  0.
         24    2    1    2    0    0  0.34497880265E+02  0.23707798479E+02  0.14159022720E+04  0.14188050686E+04  0.80476180328E+02 0.  0.
        -13    1    5    5    0    0  0.77958475983E+01 -0.23319750578E+02  0.17431980361E+03  0.17604539169E+03  0.00000000000E+00 0.  1.
         14    1    5    5    0    0  0.26702032667E+02  0.47027549057E+02  0.12415824683E+04  0.12427596769E+04  0.00000000000E+00 0. -1.
         13    1    3    3    0    0  0.12505313292E+03  0.28519368790E+02 -0.83510259663E+03  0.84489525229E+03  0.00000000000E+00 0. -1.
        -14    1    3    3    0    0  0.58989121154E+02 -0.29825048523E+01 -0.15906671324E+03  0.16967861094E+03  0.00000000000E+00 0.  1.
          5    1    4    4  501    0  0.25096583154E+01 -0.16593486171E+02 -0.69828329411E+02  0.71938238486E+02  0.41800000000E+01 0.  1.
         -5    1    4    4    0  501 -0.22104979266E+03 -0.32651176246E+02 -0.19174755360E+03  0.29447191183E+03  0.41800000000E+01 0.  1.
</event>
<event>
11    1  0.8328696E-009  0.2366314E+03  0.7561462E-02  0.1031272E+00
         22   -1    0    0    0    0  0.00000000000E+00  0.00000000000E+00  0.10526479667E+04  0.10526479667E+04  0.00000000000E+00 0.  1.
         22   -1    0    0    0    0 -0.00000000000E+00 -0.00000000000E+00 -0.28284500805E+04  0.28284500805E+04  0.00000000000E+00 0.  1.
         24    2    1    2    0    0  0.10175364084E+03 -0.16967835236E+03 -0.24540635516E+04  0.24632849687E+04  0.78742458627E+02 0.  0.
         25    2    1    2    0    0 -0.87323422220E+02  0.21811409099E+03 -0.31934052792E+03  0.41572719848E+03  0.12510633086E+03 0.  0.
        -24    2    1    2    0    0 -0.14430218623E+02 -0.48435738635E+02  0.99760196579E+03  0.10020858800E+04  0.80076068319E+02 0.  0.
        -13    1    3    3    0    0  0.93581169220E+02 -0.17811019245E+03 -0.23216484312E+04  0.23303502127E+04  0.00000000000E+00 0.  1.
         14    1    3    3    0    0  0.81724716238E+01  0.84318400929E+01 -0.13241512049E+03  0.13293475601E+03  0.00000000000E+00 0. -1.
         13    1    5    5    0    0  0.28282591599E+02  0.20063951017E+01  0.26774377226E+03  0.26924089250E+03  0.00000000000E+00 0. -1.
        -14    1    5    5    0    0 -0.42712810222E+02 -0.50442133737E+02  0.72985819353E+03  0.73284498748E+03  0.00000000000E+00 0.  1.
          5    1    4    4  501    0 -0.92446646535E+02  0.15822612562E+03 -0.15284506818E+03  0.23866498811E+03  0.41800000000E+01 0.  1.
         -5    1    4    4    0  501  0.51232243147E+01  0.59887965379E+02 -0.16649545975E+03  0.17706221037E+03  0.41800000000E+01 0.  1.
</event>
<event>
11    1  0.8328696E-009  0.1479258E+03  0.7561462E-02  0.1099017E+00
         22   -1    0    0    0    0  0.00000000000E+00  0.00000000000E+00  0.10232699493E+04  0.10232699493E+04  0.00000000000E+00 0. -1.
         22   -1    0    0    0    0 -0.00000000000E+00 -0.00000000000E+00 -0.57068413153E+03  0.57068413153E+03  0.00000000000E+00 0.  1.
        -24    2    1    2    0    0  0.50324069945E+02 -0.50518275626E+02 -0.52676569559E+03  0.53758212201E+03  0.80173759230E+02 0.  0.
         25    2    1    2    0    0 -0.12359026597E+03  0.35739837590E+02  0.19803210154E+03  0.26723604126E+03  0.12508596514E+03 0.  0.
         24    2    1    2    0    0  0.73266196023E+02  0.14778438036E+02  0.78131941179E+03  0.78913591753E+03  0.81787134581E+02 0.  0.
        -11    1    5    5    0    0  0.47829396227E+02  0.21410462793E+02  0.18612391973E+03  0.19336021451E+03  0.00000000000E+00 0.  1.
         12    1    5    5    0    0  0.25436799796E+02 -0.66320247571E+01  0.59519549206E+03  0.59577570302E+03  0.00000000000E+00 0. -1.
         13    1    3    3    0    0 -0.69030263120E+01  0.12948839954E+02 -0.28652996200E+02  0.32191899907E+02  0.00000000000E+00 0. -1.
        -14    1    3    3    0    0  0.57227096257E+02 -0.63467115580E+02 -0.49811269939E+03  0.50539022211E+03  0.00000000000E+00 0.  1.
          5    1    4    4  501    0 -0.10822561067E+03  0.61881390016E+02  0.20091892896E+03  0.23649096737E+03  0.41800000000E+01 0. -1.
         -5    1    4    4    0  501 -0.15364655302E+02 -0.26141552426E+02 -0.28868274206E+01  0.30745073888E+02  0.41800000000E+01 0. -1.
</event>
<event>
11    1  0.8328696E-009  0.1867336E+03  0.7561462E-02  0.1064323E+00
         22   -1    0    0    0    0  0.00000000000E+00  0.00000000000E+00  0.32112477919E+03  0.32112477919E+03  0.00000000000E+00 0. -1.
         22   -1    0    0    0    0 -0.00000000000E+00 -0.00000000000E+00 -0.13129447598E+04  0.13129447598E+04  0.00000000000E+00 0.  1.
         24    2    1    2    0    0 -0.13890351080E+03  0.66475584933E+01 -0.12139142854E+04  0.12245462082E+04  0.81161248510E+02 0.  0.
         25    2    1    2    0    0  0.13132073474E+03  0.20286373765E+00  0.78197392983E+01  0.18153211285E+03  0.12509029997E+03 0.  0.
        -24    2    1    2    0    0  0.75827760618E+01 -0.68504222310E+01  0.21427456545E+03  0.22799121803E+03  0.77213854488E+02 0.  0.
        -13    1    3    3    0    0 -0.65435384904E+02  0.40062011805E+02 -0.72060536426E+03  0.72467844275E+03  0.00000000000E+00 0.  1.
         14    1    3    3    0    0 -0.73468125900E+02 -0.33414453312E+02 -0.49330892114E+03  0.49986776541E+03  0.00000000000E+00 0. -1.
         11    1    5    5    0    0  0.88428559615E+01 -0.13094279964E+02  0.21930572865E+03  0.21987418878E+03  0.00000000000E+00 0. -1.
        -12    1    5    5    0    0 -0.12600798997E+01  0.62438577331E+01 -0.50311632067E+01  0.81170292569E+01  0.00000000000E+00 0.  1.
          5    1    4    4  501    0  0.75119038460E+02 -0.60460511204E+01 -0.57609914537E+02  0.94951563054E+02  0.41800000000E+01 0.  1.
         -5    1    4    4    0  501  0.56201696281E+02  0.62489148580E+01  0.65429653836E+02  0.86580549795E+02  0.41800000000E+01 0.  1.
</event>
<event>
11    1  0.8328696E-009  0.1554048E+03  0.7561462E-02  0.1091481E+00
         22   -1    0    0    0    0  0.00000000000E+00  0.00000000000E+00  0.40905922744E+03  0.40905922744E+03  0.00000000000E+00 0.  1.
         22   -1    0    0    0    0 -0.00000000000E+00 -0.00000000000E+00 -0.33187621163E+04  0.33187621163E+04  0.00000000000E+00 0. -1.
        -24    2    1    2    0    0  0.44562555368E+02  0.30246898040E+01 -0.31974780351E+04  0.31988114653E+04  0.80833381857E+02 0.  0.
         25    2    1    2    0    0 -0.94771759289E+02 -0.77476448657E+02 -0.40754019308E+02  0.17970180946E+03  0.12509022255E+03 0.  0.
         24    2    1    2    0    0  0.50209203921E+02  0.74451758853E+02  0.32852916547E+03  0.34930806904E+03  0.77593079455E+02 0.  0.
        -11    1    5    5    0    0  0.47030619289E+02  0.63139043618E+02  0.32824406790E+03  0.33755382696E+03  0.00000000000E+00 0.  1.
         12    1    5    5    0    0  0.31785846326E+01  0.11312715235E+02  0.28509756070E+00  0.11754242080E+02  0.00000000000E+00 0. -1.
         11    1    3    3    0    0  0.18898300603E+02  0.39754562812E+02 -0.11478142168E+04  0.11486579332E+04  0.00000000000E+00 0. -1.
        -12    1    3    3    0    0  0.25664254765E+02 -0.36729873008E+02 -0.20496638182E+04  0.20501535321E+04  0.00000000000E+00 0.  1.
          5    1    4    4  501    0  0.98391171241E+01 -0.67446064760E+02 -0.27813527738E+02  0.73734961875E+02  0.41800000000E+01 0.  1.
         -5    1    4    4    0  501 -0.10461087641E+03 -0.10030383897E+02 -0.12940491570E+02  0.10596684759E+03  0.41800000000E+01 0.  1.
</event>
<event>
11    1  0.8328696E-009  0.1585240E+03  0.7561462E-02  0.1088474E+00
         22   -1    0    0    0    0  0.00000000000E+00  0.00000000000E+00  0.12572471851E+04  0.12572471851E+04  0.00000000000E+00 0.  1.
         22   -1    0    0    0    0 -0.00000000000E+00 -0.00000000000E+00 -0.64926261523E+03  0.64926261523E+03  0.00000000000E+00 0. -1.
         24    2    1    2    0    0 -0.84691518670E+02 -0.33032497051E+02 -0.43927019191E+03  0.45652212528E+03  0.84795932529E+02 0.  0.
         25    2    1    2    0    0  0.14326223869E+03 -0.14669695337E+02 -0.15312645247E+03  0.24461277242E+03  0.12509368084E+03 0.  0.
        -24    2    1    2    0    0 -0.58570720020E+02  0.47702192388E+02  0.12003812143E+04  0.12053749027E+04  0.79420199005E+02 0.  0.
        -13    1    3    3    0    0  0.10002904743E+02  0.14447006413E+02 -0.82866511726E+02  0.84709107322E+02  0.00000000000E+00 0.  1.
         14    1    3    3    0    0 -0.94694423413E+02 -0.47479503463E+02 -0.35640368018E+03  0.37181301795E+03  0.00000000000E+00 0. -1.
         11    1    5    5    0    0 -0.29400548060E+02 -0.60747705554E+00  0.84747395272E+03  0.84798399855E+03  0.00000000000E+00 0. -1.
        -12    1    5    5    0    0 -0.29170171960E+02  0.48309669443E+02  0.35290726157E+03  0.35739090414E+03  0.00000000000E+00 0.  1.
          5    1    4    4  501    0  0.12891891724E+03 -0.22440170677E+02 -0.50041822517E+02  0.14016170976E+03  0.41800000000E+01 0.  1.
         -5    1    4    4    0  501  0.14343321451E+02  0.77704753400E+01 -0.10308462995E+03  0.10445106266E+03  0.41800000000E+01 0.  1.
</event>
<event>
11    1  0.8328696E-009  0.1315007E+03  0.7561462E-02  0.1117439E+00
         22   -1    0    0    0    0  0.00000000000E+00  0.00000000000E+00  0.15602156489E+03  0.15602156489E+03  0.00000000000E+00 0. -1.
         22   -1    0    0    0    0 -0.00000000000E+00 -0.00000000000E+00 -0.12037715435E+04  0.12037715435E+04  0.00000000000E+00 0. -1.
        -24    2    1    2    0    0  0.25843773629E+02 -0.21032276880E+02 -0.86000514818E+03  0.86437900229E+03  0.80199422651E+02 0.  0.
         25    2    1    2    0    0 -0.87796602735E+01  0.57418214075E+02 -0.31240055891E+03  0.34149017182E+03  0.12508994563E+03 0.  0.
         24    2    1    2    0    0 -0.17064113356E+02 -0.36385937196E+02  0.12465572847E+03  0.15392393430E+03  0.80860413789E+02 0.  0.
        -13    1    5    5    0    0  0.22524126214E+02  0.97125545661E+01  0.15561977955E+02  0.29049012647E+02  0.00000000000E+00 0.  1.
         14    1    5    5    0    0 -0.39588239570E+02 -0.46098491762E+02  0.10909375052E+03  0.12487492165E+03  0.00000000000E+00 0. -1.
         11    1    3    3    0    0 -0.11662572795E+02  0.62373139587E+01 -0.60794141553E+03  0.60808526080E+03  0.00000000000E+00 0. -1.
        -12    1    3    3    0    0  0.37506346424E+02 -0.27269590838E+02 -0.25206373265E+03  0.25629374148E+03  0.00000000000E+00 0.  1.
          5    1    4    4  501    0  0.46552723613E+02  0.33673965991E+02 -0.65090174814E+02  0.86921201779E+02  0.41800000000E+01 0. -1.
         -5    1    4    4    0  501 -0.55332383887E+02  0.23744248084E+02 -0.24731038410E+03  0.25456897004E+03  0.41800000000E+01 0. -1.
</event>
<event>
11    1  0.8328696E-009  0.1541635E+03  0.7561462E-02  0.1092699E+00
         22   -1    0    0    0    0  0.00000000000E+00  0.00000000000E+00  0.43693636134E+03  0.43693636134E+03  0.00000000000E+00 0.  1.
         22   -1    0    0    0    0 -0.00000000000E+00 -0.00000000000E+00 -0.24074380102E+04  0.24074380102E+04  0.00000000000E+00 0.  1.
        -24    2    1    2    0    0  0.31559297402E+02 -0.84096821106E+02 -0.19601938382E+04  0.19638535183E+04  0.79325238189E+02 0.  0.
         25    2    1    2    0    0 -0.92922729809E+02  0.61421240790E+02 -0.42255583918E+03  0.45454102650E+03  0.12508758937E+03 0.  0.
         24    2    1    2    0    0  0.61363432406E+02  0.22675580316E+02  0.41224802857E+03  0.42597982670E+03  0.85033657535E+02 0.  0.
        -11    1    5    5    0    0  0.57589628382E+02 -0.21513515326E+02  0.20401585712E+03  0.21307713766E+03  0.00000000000E+00 0.  1.
         12    1    5    5    0    0  0.37738040241E+01  0.44189095643E+02  0.20823217145E+03  0.21290268904E+03  0.00000000000E+00 0. -1.
         11    1    3    3    0    0 -0.14257872073E+02 -0.41001913328E+02 -0.39153825542E+03  0.39393736719E+03  0.00000000000E+00 0. -1.
        -12    1    3    3    0    0  0.45817169475E+02 -0.43094907778E+02 -0.15686555828E+04  0.15699161511E+04  0.00000000000E+00 0.  1.
          5    1    4    4  501    0  0.26506355843E+02  0.33875395355E+02 -0.14002835828E+03  0.14654536101E+03  0.41800000000E+01 0.  1.
         -5    1    4    4    0  501 -0.11942908565E+03  0.27545845435E+02 -0.28252748090E+03  0.30799566549E+03  0.41800000000E+01 0.  1.
</event>
<event>
11    1  0.8328696E-009  0.1567689E+03  0.7561462E-02  0.1090156E+00
         22   -1    0    0    0    0  0.00000000000E+00  0.00000000000E+00  0.19896961919E+03  0.19896961919E+03  0.00000000000E+00 0. -1.
         22   -1    0    0    0    0 -0.00000000000E+00 -0.00000000000E+00 -0.17073387436E+04  0.17073387436E+04  0.00000000000E+00 0.  1.
         24    2    1    2    0    0  0.91145898418E+02  0.36034595056E+02 -0.15851303165E+04  0.15901242573E+04  0.79063053293E+02 0.  0.
         25    2    1    2    0    0 -0.35512539034E+02 -0.94403764594E+01 -0.61757107239E+02  0.14425833939E+03  0.12508503928E+03 0.  0.
        -24    2    1    2    0    0 -0.55633359383E+02 -0.26594218597E+02  0.13851829937E+03  0.17192576611E+03  0.81048298270E+02 0.  0.
        -13    1    3    3    0    0  0.64283624377E+02  0.26635109166E+02 -0.14656679876E+04  0.14673188008E+04  0.00000000000E+00 0.  1.
         14    1    3    3    0    0  0.26862274041E+02  0.93994858898E+01 -0.11946232890E+03  0.12280545642E+03  0.00000000000E+00 0. -1.
         11    1    5    5    0    0 -0.34223251975E+02 -0.23569924770E+02  0.14378637375E+03  0.14967061704E+03  0.00000000000E+00 0. -1.
        -12    1    5    5    0    0 -0.21410107409E+02 -0.30242938266E+01 -0.52680743783E+01  0.22255149068E+02  0.00000000000E+00 0.  1.
          5    1    4    4  501    0 -0.60961000612E+02  0.37637066925E+02 -0.15548784736E+02  0.73430439936E+02  0.41800000000E+01 0. -1.
         -5    1    4    4    0  501  0.25448461578E+02 -0.47077443385E+02 -0.46208322503E+02  0.70827899453E+02  0.41800000000E+01 0. -1.
</event>
<event>
11    1  0.8328696E-009  0.1542756E+03  0.7561462E-02  0.1092588E+00
         22   -1    0    0    0    0  0.00000000000E+00  0.00000000000E+00  0.47635052082E+03  0.47635052082E+03  0.00000000000E+00 0. -1.
         22   -1    0    0    0    0 -0.00000000000E+00 -0.00000000000E+00 -0.33219263352E+03  0.33219263352E+03  0.00000000000E+00 0. -1.
         24    2    1    2    0    0  0.70980747876E+02 -0.93795712546E+01 -0.23141307347E+03  0.25557084627E+03  0.81475173919E+02 0.  0.
         25    2    1    2    0    0 -0.11498326017E+03 -0.65454298163E+02  0.26584473962E+02  0.18403030885E+03  0.12511996264E+03 0.  0.
        -24    2    1    2    0    0  0.44002512292E+02  0.74833869417E+02  0.34898648681E+03  0.36894199922E+03  0.82403287049E+02 0.  0.
        -11    1    3    3    0    0 -0.26072758859E+01 -0.70602998251E+01  0.42716994097E+01  0.86540821011E+01  0.00000000000E+00 0.  1.
         12    1    3    3    0    0  0.73588023761E+02 -0.23192714295E+01 -0.23568477288E+03  0.24691676417E+03  0.00000000000E+00 0. -1.
         11    1    5    5    0    0  0.31781646715E+02  0.52684653370E+02  0.33382839193E+03  0.33945123512E+03  0.00000000000E+00 0. -1.
        -12    1    5    5    0    0  0.12220865577E+02  0.22149216048E+02  0.15158094883E+02  0.29490764104E+02  0.00000000000E+00 0.  1.
          5    1    4    4  501    0 -0.10975749195E+03  0.18086155250E+01  0.36401763975E+02  0.11572613771E+03  0.41800000000E+01 0.  1.
         -5    1    4    4    0  501 -0.52257682185E+01 -0.67262913688E+02 -0.98172900128E+01  0.68304171135E+02  0.41800000000E+01 0.  1.
</event>
<event>
11    1  0.8328696E-009  0.1506472E+03  0.7561462E-02  0.1096219E+00
         22   -1    0    0    0    0  0.00000000000E+00  0.00000000000E+00  0.28155478338E+03  0.28155478338E+03  0.00000000000E+00 0. -1.
         22   -1    0    0    0    0 -0.00000000000E+00 -0.00000000000E+00 -0.13214170326E+04  0.13214170326E+04  0.00000000000E+00 0.  1.
        -24    2    1    2    0    0 -0.39285550077E+02  0.73169279408E+02 -0.12117663862E+04  0.12176215839E+04  0.85600519314E+02 0.  0.
         25    2    1    2    0    0  0.82306762626E+02 -0.75974108094E+02 -0.23112323068E+02  0.16949801825E+03  0.12509568514E+03 0.  0.
         24    2    1    2    0    0 -0.43021212549E+02  0.28048286864E+01  0.19501646005E+03  0.21585221385E+03  0.81866151368E+02 0.  0.
        -13    1    5    5    0    0 -0.18656145008E+02  0.42042098089E+02  0.88036021077E+02  0.99327391818E+02  0.00000000000E+00 0.  1.
         14    1    5    5    0    0 -0.24365067541E+02 -0.39237269403E+02  0.10698043897E+03  0.11652482203E+03  0.00000000000E+00 0. -1.
         13    1    3    3    0    0  0.19767993132E+02 -0.46227181482E+01 -0.14896247869E+03  0.15033949293E+03  0.00000000000E+00 0. -1.
        -14    1    3    3    0    0 -0.59053543210E+02  0.77791997556E+02 -0.10628039075E+04  0.10672820910E+04  0.00000000000E+00 0.  1.
          5    1    4    4  501    0  0.10900390937E+03 -0.61536120952E+02 -0.43628803336E+02  0.13262537962E+03  0.41800000000E+01 0.  1.
         -5    1    4    4    0  501 -0.26697146744E+02 -0.14437987142E+02  0.20516480268E+02  0.36872638631E+02  0.41800000000E+01 0.  1.
</event>
<event>
11    1  0.8328696E-009  0.1596531E+03  0.7561462E-02  0.1087404E+00
         22   -1    0    0    0    0  0.00000000000E+00  0.00000000000E+00  0.19537234763E+04  0.19537234763E+04  0.00000000000E+00 0. -1.
         22   -1    0    0    0    0 -0.00000000000E+00 -0.00000000000E+00 -0.76027329893E+02  0.76027329893E+02  0.00000000000E+00 0.  1.
         24    2    1    2    0    0  0.84078430547E+02 -0.47197892496E+02  0.58990329480E+01  0.12473239369E+03  0.78908478036E+02 0.  0.
         25    2    1    2    0    0 -0.11473886288E+03  0.41173479408E+02  0.48277246484E+03  0.51339741093E+03  0.12508951470E+03 0.  0.
        -24    2    1    2    0    0  0.30660432329E+02  0.60244130881E+01  0.13890246486E+04  0.13916210016E+04  0.79013808127E+02 0.  0.
        -11    1    3    3    0    0  0.68857608105E+02 -0.17234035780E+02 -0.28638973285E+02  0.76541315471E+02  0.00000000000E+00 0.  1.
         12    1    3    3    0    0  0.15220822442E+02 -0.29963856716E+02  0.34538006233E+02  0.48191078217E+02  0.00000000000E+00 0. -1.
         11    1    5    5    0    0  0.52607150891E+02  0.97292317879E+01  0.62917435804E+03  0.63144480606E+03  0.00000000000E+00 0. -1.
        -12    1    5    5    0    0 -0.21946718562E+02 -0.37048186998E+01  0.75985029059E+03  0.76017619553E+03  0.00000000000E+00 0.  1.
          5    1    4    4  501    0 -0.14002040426E+03  0.40096075621E+02  0.36804952742E+03  0.39584256457E+03  0.41800000000E+01 0.  1.
         -5    1    4    4    0  501  0.25281541388E+02  0.10774037864E+01  0.11472293742E+03  0.11755484637E+03  0.41800000000E+01 0.  1.
</event>
<event>
11    1  0.8328696E-009  0.1468187E+03  0.7561462E-02  0.1100174E+00
         22   -1    0    0    0    0  0.00000000000E+00  0.00000000000E+00  0.51186143963E+03  0.51186143963E+03  0.00000000000E+00 0. -1.
         22   -1    0    0    0    0 -0.00000000000E+00 -0.00000000000E+00 -0.25098804252E+03  0.25098804252E+03  0.00000000000E+00 0. -1.
         24    2    1    2    0    0 -0.71770843694E+02 -0.14060346537E+02 -0.14028744444E+03  0.17702497894E+03  0.79426247244E+02 0.  0.
         25    2    1    2    0    0  0.94247802186E+02 -0.14075843144E+02 -0.17488549327E+02  0.15822116162E+03  0.12508920437E+03 0.  0.
        -24    2    1    2    0    0 -0.22476958491E+02  0.28136189681E+02  0.41864939089E+03  0.42760334159E+03  0.79249267605E+02 0.  0.
        -11    1    3    3    0    0  0.79143863865E+01  0.18776559004E+02 -0.16656621548E+02  0.26318049345E+02  0.00000000000E+00 0.  1.
         12    1    3    3    0    0 -0.79685230081E+02 -0.32836905541E+02 -0.12363082290E+03  0.15070692960E+03  0.00000000000E+00 0. -1.
         11    1    5    5    0    0 -0.18164782443E+02  0.53011848219E+02  0.20690872142E+03  0.21436285679E+03  0.00000000000E+00 0. -1.
        -12    1    5    5    0    0 -0.43121760485E+01 -0.24875658539E+02  0.21174066947E+03  0.21324048480E+03  0.00000000000E+00 0.  1.
          5    1    4    4  501    0  0.51646666533E+02  0.44450639401E+02 -0.43769514899E+02  0.81095501365E+02  0.41800000000E+01 0. -1.
         -5    1    4    4    0  501  0.42601135652E+02 -0.58526482545E+02  0.26280965572E+02  0.77125660252E+02  0.41800000000E+01 0. -1.
</event>
<event>
11    1  0.8328696E-009  0.1389025E+03  0.7561462E-02  0.1108790E+00
         22   -1    0    0    0    0  0.00000000000E+00  0.00000000000E+00  0.22513748549E+04  0.22513748549E+04  0.00000000000E+00 0.  1.
         22   -1    0    0    0    0 -0.00000000000E+00 -0.00000000000E+00 -0.70381648384E+03  0.70381648384E+03  0.00000000000E+00 0.  1.
         24    2    1    2    0    0 -0.59206576104E+02 -0.97393680999E+01 -0.68504999881E+03  0.69237915285E+03  0.80592285482E+02 0.  0.
         25    2    1    2    0    0  0.11347420008E+03  0.34164031114E+02  0.53083470875E+03  0.55810071369E+03  0.12508934210E+03 0.  0.
        -24    2    1    2    0    0 -0.54267623976E+02 -0.24424663014E+02  0.17017736611E+04  0.17047114722E+04  0.80411880838E+02 0.  0.
        -13    1    3    3    0    0 -0.35484853134E+02  0.19525546781E+01 -0.63298969776E+03  0.63398654933E+03  0.00000000000E+00 0.  1.
         14    1    3    3    0    0 -0.23721722970E+02 -0.11691922778E+02 -0.52060301058E+02  0.58392603514E+02  0.00000000000E+00 0. -1.
         13    1    5    5    0    0  0.16444111756E+02  0.52089472615E+01  0.61251710363E+03  0.61275994009E+03  0.00000000000E+00 0. -1.
        -14    1    5    5    0    0 -0.70711735732E+02 -0.29633610275E+02  0.10892565575E+04  0.10919515321E+04  0.00000000000E+00 0.  1.
          5    1    4    4  501    0 -0.21559808918E+02  0.23014764858E+02  0.16316693038E+03  0.16623905778E+03  0.41800000000E+01 0.  1.
         -5    1    4    4    0  501  0.13503400900E+03  0.11149266256E+02  0.36766777837E+03  0.39186165591E+03  0.41800000000E+01 0.  1.
</event>
<event>
11    1  0.8328696E-009  0.1503655E+03  0.7561462E-02  0.1096506E+00
         22   -1    0    0    0    0  0.00000000000E+00  0.00000000000E+00  0.81039808191E+03  0.81039808191E+03  0.00000000000E+00 0. -1.
         22   -1    0    0    0    0 -0.00000000000E+00 -0.00000000000E+00 -0.33030861342E+04  0.33030861342E+04  0.00000000000E+00 0. -1.
        -24    2    1    2    0    0 -0.14696959538E+01 -0.64171675428E+02 -0.31073763344E+04  0.31090097434E+04  0.77677133242E+02 0.  0.
         25    2    1    2    0    0  0.73562020440E+01  0.14596282355E+03 -0.14198313482E+03  0.23909597260E+03  0.12509362082E+03 0.  0.
         24    2    1    2    0    0 -0.58865060902E+01 -0.81791148123E+02  0.75667141694E+03  0.76537850010E+03  0.80797106000E+02 0.  0.
        -13    1    5    5    0    0 -0.22544118012E+02 -0.27888967095E+02  0.99058791542E+02  0.10535025356E+03  0.00000000000E+00 0.  1.
         14    1    5    5    0    0  0.16657611922E+02 -0.53902181028E+02  0.65761262540E+03  0.66002824655E+03  0.00000000000E+00 0. -1.
         11    1    3    3    0    0 -0.10504288435E+02 -0.71603559713E+02 -0.30184225145E+04  0.30192899639E+04  0.00000000000E+00 0. -1.
        -12    1    3    3    0    0  0.90345924809E+01  0.74318842848E+01 -0.88953819878E+02  0.89719779515E+02  0.00000000000E+00 0.  1.
          5    1    4    4  501    0 -0.34322474835E+01  0.78823681563E+02 -0.15095259644E+03  0.17037931761E+03  0.41800000000E+01 0. -1.
         -5    1    4    4    0  501  0.10788449527E+02  0.67139141988E+02  0.89694616194E+01  0.68716654982E+02  0.41800000000E+01 0. -1.
</event>
<event>
11    1  0.8328696E-009  0.2132290E+03  0.7561462E-02  0.1045544E+00
         22   -1    0    0    0    0  0.00000000000E+00  0.00000000000E+00  0.29248475549E+04  0.29248475549E+04  0.00000000000E+00 0.  1.
         22   -1    0    0    0    0 -0.00000000000E+00 -0.00000000000E+00 -0.50430766274E+03  0.50430766274E+03  0.00000000000E+00 0.  1.
         24    2    1    2    0    0  0.94703090742E+02  0.14742980370E+03 -0.42755535881E+03  0.47040586204E+03  0.88169539974E+02 0.  0.
         25    2    1    2    0    0 -0.73356217823E+02 -0.13308019116E+03  0.12246648553E+03  0.23181239814E+03  0.12508987122E+03 0.  0.
        -24    2    1    2    0    0 -0.21346872919E+02 -0.14349612536E+02  0.27256287655E+04  0.27269369575E+04  0.80445028644E+02 0.  0.
        -11    1    3    3    0    0  0.68945449024E+02  0.40699946432E+02 -0.12395967952E+03  0.14756680767E+03  0.00000000000E+00 0.  1.
         12    1    3    3    0    0  0.25757641717E+02  0.10672985727E+03 -0.30359567929E+03  0.32283905436E+03  0.00000000000E+00 0. -1.
         11    1    5    5    0    0 -0.18242206233E+02  0.15222615832E+02  0.24928785473E+03  0.25041753261E+03  0.00000000000E+00 0. -1.
        -12    1    5    5    0    0 -0.31046666859E+01 -0.29572228368E+02  0.24763409107E+04  0.24765194249E+04  0.00000000000E+00 0.  1.
          5    1    4    4  501    0 -0.81851724866E+02 -0.10421742147E+03  0.32011808877E+02  0.13639356330E+03  0.41800000000E+01 0. -1.
         -5    1    4    4    0  501  0.84955070435E+01 -0.28862769690E+02  0.90454676653E+02  0.95418834841E+02  0.41800000000E+01 0. -1.
</event>
<event>
11    1  0.8328696E-009  0.2666208E+03  0.7561462E-02  0.1015400E+00
         22   -1    0    0    0    0  0.00000000000E+00  0.00000000000E+00  0.30056219791E+04  0.30056219791E+04  0.00000000000E+00 0.  1.
         22   -1    0    0    0    0 -0.00000000000E+00 -0.00000000000E+00 -0.30630431298E+04  0.30630431298E+04  0.00000000000E+00 0. -1.
         24    2    1    2    0    0 -0.21170028478E+02 -0.47536184469E+02 -0.11763550865E+04  0.11805644511E+04  0.84930999820E+02 0.  0.
         25    2    1    2    0    0 -0.21396159835E+03  0.34071129049E+02 -0.18711034838E+04  0.18877547022E+04  0.12509660671E+03 0.  0.
        -24    2    1    2    0    0  0.23513162683E+03  0.13465055420E+02  0.29900374196E+04  0.30003459556E+04  0.79271008230E+02 0.  0.
        -11    1    3    3    0    0 -0.23979197962E+02 -0.28294422105E+02 -0.16900872569E+03  0.17303041819E+03  0.00000000000E+00 0.  1.
         12    1    3    3    0    0  0.28091694846E+01 -0.19241762363E+02 -0.10073463608E+04  0.10075340329E+04  0.00000000000E+00 0. -1.
         13    1    5    5    0    0  0.46407207046E+02 -0.16991821361E+02  0.97788035254E+03  0.97912835458E+03  0.00000000000E+00 0. -1.
        -14    1    5    5    0    0  0.18872441979E+03  0.30456876780E+02  0.20121570671E+04  0.20212176010E+04  0.00000000000E+00 0.  1.
          5    1    4    4  501    0 -0.16676282550E+03 -0.18658385459E+02 -0.15416007467E+04  0.15507121945E+04  0.41800000000E+01 0.  1.
         -5    1    4    4    0  501 -0.47198772850E+02  0.52729514508E+02 -0.32950273711E+03  0.33704250774E+03  0.41800000000E+01 0.  1.
</event>
<event>
11    1  0.8328696E-009  0.2074731E+03  0.7561462E-02  0.1049361E+00
         22   -1    0    0    0    0  0.00000000000E+00  0.00000000000E+00  0.12304153289E+04  0.12304153289E+04  0.00000000000E+00 0. -1.
         22   -1    0    0    0    0 -0.00000000000E+00 -0.00000000000E+00 -0.14190039376E+04  0.14190039376E+04  0.00000000000E+00 0. -1.
        -24    2    1    2    0    0  0.15464193838E+03  0.52743613441E+02 -0.13180456982E+04  0.13305868853E+04  0.80752578244E+02 0.  0.
         25    2    1    2    0    0 -0.28349208114E+03  0.29232566080E+02  0.19132511002E+03  0.36534619472E+03  0.12510092438E+03 0.  0.
         24    2    1    2    0    0  0.12885014276E+03 -0.81976179521E+02  0.93813197948E+03  0.95348618645E+03  0.75642868315E+02 0.  0.
        -13    1    5    5    0    0  0.11805886809E+02 -0.37811949209E+01  0.28909126360E+03  0.28935693371E+03  0.00000000000E+00 0.  1.
         14    1    5    5    0    0  0.11704425596E+03 -0.78194984600E+02  0.64904071588E+03  0.66412925273E+03  0.00000000000E+00 0. -1.
         11    1    3    3    0    0  0.15546057459E+03  0.63503602238E+02 -0.11501694398E+04  0.11623641590E+04  0.00000000000E+00 0. -1.
        -12    1    3    3    0    0 -0.81863621176E+00 -0.10759988797E+02 -0.16787625838E+03  0.16822272632E+03  0.00000000000E+00 0.  1.
          5    1    4    4  501    0 -0.73541530690E+02 -0.46299840380E+02  0.40301940054E+02  0.95884048348E+02  0.41800000000E+01 0.  1.
         -5    1    4    4    0  501 -0.20995055045E+03  0.75532406459E+02  0.15102316997E+03  0.26946214637E+03  0.41800000000E+01 0.  1.
</event>
<event>
11    1  0.8328696E-009  0.1690056E+03  0.7561462E-02  0.1078900E+00
         22   -1    0    0    0    0  0.00000000000E+00  0.00000000000E+00  0.48791959595E+03  0.48791959595E+03  0.00000000000E+00 0. -1.
         22   -1    0    0    0    0 -0.00000000000E+00 -0.00000000000E+00 -0.63210920752E+03  0.63210920752E+03  0.00000000000E+00 0. -1.
        -24    2    1    2    0    0 -0.12618133105E+02  0.28794695888E+02 -0.54192573546E+03  0.54884653174E+03  0.80997906473E+02 0.  0.
         25    2    1    2    0    0 -0.95371257874E+02  0.15934541010E+02  0.10146336664E+02  0.15843353432E+03  0.12509456513E+03 0.  0.
         24    2    1    2    0    0  0.10798939098E+03 -0.44729236898E+02  0.38758978723E+03  0.41274873741E+03  0.80456596204E+02 0.  0.
        -13    1    5    5    0    0  0.14865107067E+02  0.14026593326E+02  0.18441631935E+02  0.27528358412E+02  0.00000000000E+00 0.  1.
         14    1    5    5    0    0  0.93124283912E+02 -0.58755830224E+02  0.36914815529E+03  0.38522037900E+03  0.00000000000E+00 0. -1.
         11    1    3    3    0    0 -0.27760571270E+02  0.52007257496E+02 -0.35002657134E+03  0.35495634210E+03  0.00000000000E+00 0. -1.
        -12    1    3    3    0    0  0.15142438165E+02 -0.23212561608E+02 -0.19189916412E+03  0.19389018964E+03  0.00000000000E+00 0.  1.
          5    1    4    4  501    0 -0.11228991894E+03 -0.15893958893E+02 -0.14729921774E+02  0.11443813534E+03  0.41800000000E+01 0.  1.
         -5    1    4    4    0  501  0.16918661061E+02  0.31828499903E+02  0.24876258438E+02  0.43995398988E+02  0.41800000000E+01 0.  1.
</event>
<event>
11    1  0.8328696E-009  0.1351397E+03  0.7561462E-02  0.1113110E+00
         22   -1    0    0    0    0  0.00000000000E+00  0.00000000000E+00  0.55906913760E+03  0.55906913760E+03  0.00000000000E+00 0. -1.
         22   -1    0    0    0    0 -0.00000000000E+00 -0.00000000000E+00 -0.25435091208E+03  0.25435091208E+03  0.00000000000E+00 0.  1.
         24    2    1    2    0    0 -0.12932926090E+01 -0.12112837420E+02 -0.88443951085E+02  0.11643043469E+03  0.74734999851E+02 0.  0.
         25    2    1    2    0    0 -0.43694006197E+02 -0.12649219295E+02 -0.11717107038E+03  0.17732960097E+03  0.12509020232E+03 0.  0.
        -24    2    1    2    0    0  0.44987298806E+02  0.24762056715E+02  0.51033324699E+03  0.51966001402E+03  0.83483475524E+02 0.  0.
        -11    1    3    3    0    0 -0.49722612707E+01 -0.33398331521E+02 -0.88613243676E+02  0.94828681765E+02  0.00000000000E+00 0.  1.
         12    1    3    3    0    0  0.36789686617E+01  0.21285494101E+02  0.16929259009E+00  0.21601752927E+02  0.00000000000E+00 0. -1.
         13    1    5    5    0    0  0.46099984490E+02 -0.12473136849E+02  0.40746989970E+03  0.41025907287E+03  0.00000000000E+00 0. -1.
        -14    1    5    5    0    0 -0.11126856840E+01  0.37235193563E+02  0.10286334729E+03  0.10940094115E+03  0.00000000000E+00 0.  1.
          5    1    4    4  501    0 -0.76975249961E+02  0.50827979544E+01 -0.31125593815E+02  0.83290449224E+02  0.41800000000E+01 0. -1.
         -5    1    4    4    0  501  0.33281243764E+02 -0.17732017249E+02 -0.86045476570E+02  0.94039151742E+02  0.41800000000E+01 0. -1.
</event>
<event>
11    1  0.8328696E-009  0.1419440E+03  0.7561462E-02  0.1105407E+00
         22   -1    0    0    0    0  0.00000000000E+00  0.00000000000E+00  0.19144619858E+04  0.19144619858E+04  0.00000000000E+00 0. -1.
         22   -1    0    0    0    0 -0.00000000000E+00 -0.00000000000E+00 -0.57986166201E+02  0.57986166201E+02  0.00000000000E+00 0. -1.
         24    2    1    2    0    0 -0.13840610508E+02  0.11696463462E+02 -0.77356158610E+01  0.83466284704E+02  0.81107405166E+02 0.  0.
         25    2    1    2    0    0  0.20632599095E+02 -0.76312989875E+02  0.51544053181E+03  0.53626075826E+03  0.12508909807E+03 0.  0.
        -24    2    1    2    0    0 -0.67919885872E+01  0.64616526413E+02  0.13487709036E+04  0.13527211090E+04  0.80312027046E+02 0.  0.
        -13    1    3    3    0    0 -0.14686830399E+02  0.25993992591E+02  0.30473040945E+02  0.42661421242E+02  0.00000000000E+00 0.  1.
         14    1    3    3    0    0  0.84621989073E+00 -0.14297529129E+02 -0.38208656806E+02  0.40804863462E+02  0.00000000000E+00 0. -1.
         11    1    5    5    0    0 -0.16563351938E+00  0.78709388638E+02  0.12693415860E+04  0.12717795632E+04  0.00000000000E+00 0. -1.
        -12    1    5    5    0    0 -0.66263550678E+01 -0.14092862226E+02  0.79429317614E+02  0.80941545845E+02  0.00000000000E+00 0.  1.
          5    1    4    4  501    0  0.57664410392E+02 -0.89545574453E+02  0.41061255703E+03  0.42422133200E+03  0.41800000000E+01 0. -1.
         -5    1    4    4    0  501 -0.37031811296E+02  0.13232584579E+02  0.10482797477E+03  0.11203942626E+03  0.41800000000E+01 0. -1.
</event>
<event>
11    1  0.8328696E-009  0.1588280E+03  0.7561462E-02  0.1088185E+00
         22   -1    0    0    0    0  0.00000000000E+00  0.00000000000E+00  0.96861010831E+03  0.96861010831E+03  0.00000000000E+00 0.  1.
         22   -1    0    0    0    0 -0.00000000000E+00 -0.00000000000E+00 -0.74910292581E+03  0.74910292581E+03  0.00000000000E+00 0.  1.
         24    2    1    2    0    0  0.10504991628E+03 -0.96097639728E+01 -0.57294002704E+03  0.58808548382E+03  0.80351908656E+02 0.  0.
         25    2    1    2    0    0 -0.56890428114E+02  0.56701406860E+02 -0.13230076472E+03  0.19900512296E+03  0.12509187131E+03 0.  0.
        -24    2    1    2    0    0 -0.48159488162E+02 -0.47091642888E+02  0.92474797426E+03  0.93062242734E+03  0.79764197756E+02 0.  0.
        -13    1    3    3    0    0  0.74690644663E+02 -0.43690387054E+02 -0.35192097369E+03  0.36240297190E+03  0.00000000000E+00 0.  1.
         14    1    3    3    0    0  0.30359271613E+02  0.34080623081E+02 -0.22101905335E+03  0.22568251192E+03  0.00000000000E+00 0. -1.
         13    1    5    5    0    0 -0.73264764956E+01  0.22450858928E+02  0.23027020614E+03  0.23147804682E+03  0.00000000000E+00 0. -1.
        -14    1    5    5    0    0 -0.40833011666E+02 -0.69542501815E+02  0.69447776812E+03  0.69914438052E+03  0.00000000000E+00 0.  1.
          5    1    4    4  501    0 -0.31118434528E+02 -0.37093638662E+02 -0.62679561060E+02  0.79312639418E+02  0.41800000000E+01 0.  1.
         -5    1    4    4    0  501 -0.25771993587E+02  0.93795045523E+02 -0.69621203656E+02  0.11969248354E+03  0.41800000000E+01 0.  1.
</event>
<event>
11    1  0.8328696E-009  0.2357915E+03  0.7561462E-02  0.1031753E+00
         22   -1    0    0    0    0  0.00000000000E+00  0.00000000000E+00  0.11299647531E+04  0.11299647531E+04  0.00000000000E+00 0.  1.
         22   -1    0    0    0    0 -0.00000000000E+00 -0.00000000000E+00 -0.43654949391E+03  0.43654949391E+03  0.00000000000E+00 0. -1.
         24    2    1    2    0    0  0.14307055757E+03  0.65607044467E+02 -0.21538710288E+03  0.27844613402E+03  0.79794590877E+02 0.  0.
         25    2    1    2    0    0 -0.32247765074E+03  0.59337449252E+01 -0.10094137227E+02  0.34608756134E+03  0.12509062295E+03 0.  0.
        -24    2    1    2    0    0  0.17940709317E+03 -0.71540789393E+02  0.91889649934E+03  0.94198055169E+03  0.75177081858E+02 0.  0.
        -11    1    3    3    0    0  0.44187779647E+02  0.48373531211E+02 -0.13423524153E+03  0.14937087554E+03  0.00000000000E+00 0.  1.
         12    1    3    3    0    0  0.98882777923E+02  0.17233513256E+02 -0.81151861355E+02  0.12907525847E+03  0.00000000000E+00 0. -1.
         13    1    5    5    0    0  0.91851053173E+02  0.23226505036E+01  0.45121418137E+03  0.46047393861E+03  0.00000000000E+00 0. -1.
        -14    1    5    5    0    0  0.87556039998E+02 -0.73863439896E+02  0.46768231797E+03  0.48150661308E+03  0.00000000000E+00 0.  1.
          5    1    4    4  501    0 -0.71122380246E+02 -0.47216288445E+02  0.18821276915E+02  0.87518476512E+02  0.41800000000E+01 0. -1.
         -5    1    4    4    0  501 -0.25135527049E+03  0.53150033370E+02 -0.28915414142E+02  0.25856908483E+03  0.41800000000E+01 0. -1.
</event>
<event>
11    1  0.8328696E-009  0.1654476E+03  0.7561462E-02  0.1082063E+00
         22   -1    0    0    0    0  0.00000000000E+00  0.00000000000E+00  0.11093544582E+04  0.11093544582E+04  0.00000000000E+00 0. -1.
         22   -1    0    0    0    0 -0.00000000000E+00 -0.00000000000E+00 -0.34654533874E+03  0.34654533874E+03  0.00000000000E+00 0.  1.
        -24    2    1    2    0    0 -0.19033396666E+02 -0.11309360446E+03 -0.25142512481E+03  0.28716222584E+03  0.78071230307E+02 0.  0.
         25    2    1    2    0    0 -0.32045002646E+02  0.84483622564E+02  0.49770193062E+01  0.15438947288E+03  0.12508786487E+03 0.  0.
         24    2    1    2    0    0  0.51078399312E+02  0.28609981893E+02  0.10092572249E+04  0.10143480982E+04  0.82911906757E+02 0.  0.
        -13    1    5    5    0    0 -0.21136806607E+02 -0.32602959727E+01  0.28525130553E+03  0.28605192087E+03  0.00000000000E+00 0.  1.
         14    1    5    5    0    0  0.72215205920E+02  0.31870277866E+02  0.72400591941E+03  0.72829617734E+03  0.00000000000E+00 0. -1.
         13    1    3    3    0    0 -0.27871418056E+02 -0.87964121165E+02 -0.11152788118E+03  0.14475141048E+03  0.00000000000E+00 0. -1.
        -14    1    3    3    0    0  0.88380213900E+01 -0.25129483293E+02 -0.13989724364E+03  0.14241081535E+03  0.00000000000E+00 0.  1.
          5    1    4    4  501    0 -0.55165078082E+02  0.82802873574E+02  0.43950077142E+02  0.10885119840E+03  0.41800000000E+01 0. -1.
         -5    1    4    4    0  501  0.23120075436E+02  0.16807489904E+01 -0.38973057836E+02  0.45538274478E+02  0.41800000000E+01 0. -1.
</event>
<event>
11    1  0.8328696E-009  0.1429733E+03  0.7561462E-02  0.1104283E+00
         22   -1    0    0    0    0  0.00000000000E+00  0.00000000000E+00  0.15922520421E+04  0.15922520421E+04  0.00000000000E+00 0.  1.
         22   -1    0    0    0    0 -0.00000000000E+00 -0.00000000000E+00 -0.43814618815E+02  0.43814618815E+02  0.00000000000E+00 0.  1.
        -24    2    1    2    0    0 -0.48027579083E+02 -0.17365315576E+02  0.80092031910E+02  0.12471547809E+03  0.80814691492E+02 0.  0.
         25    2    1    2    0    0  0.64635603583E+02  0.81185871842E+02  0.32537355697E+03  0.36370959020E+03  0.12509119629E+03 0.  0.
         24    2    1    2    0    0 -0.16608024500E+02 -0.63820556265E+02  0.11429718344E+04  0.11476415927E+04  0.79672586343E+02 0.  0.
        -11    1    5    5    0    0 -0.42778075875E+02 -0.12004094733E+02  0.57358865055E+03  0.57530687647E+03  0.00000000000E+00 0.  1.
         12    1    5    5    0    0  0.26170051374E+02 -0.51816461532E+02  0.56938318387E+03  0.57233471619E+03  0.00000000000E+00 0. -1.
         13    1    3    3    0    0 -0.46009113937E+02  0.15300145526E+02  0.78100393673E+02  0.91927169598E+02  0.00000000000E+00 0. -1.
        -14    1    3    3    0    0 -0.20184651458E+01 -0.32665461103E+02  0.19916382372E+01  0.32788308487E+02  0.00000000000E+00 0.  1.
          5    1    4    4  501    0  0.69510705079E+02  0.32527903160E+01  0.79674677621E+02  0.10586711208E+03  0.41800000000E+01 0.  1.
         -5    1    4    4    0  501 -0.48751014960E+01  0.77933081526E+02  0.24569887935E+03  0.25784247812E+03  0.41800000000E+01 0.  1.
</event>
<event>
11    1  0.8328696E-009  0.1354708E+03  0.7561462E-02  0.1112724E+00
         22   -1    0    0    0    0  0.00000000000E+00  0.00000000000E+00  0.22619433712E+04  0.22619433712E+04  0.00000000000E+00 0. -1.
         22   -1    0    0    0    0 -0.00000000000E+00 -0.00000000000E+00 -0.73340773563E+03  0.73340773563E+03  0.00000000000E+00 0.  1.
         24    2    1    2    0    0  0.36048623585E+02 -0.37149597330E+02 -0.70106086056E+03  0.70749573928E+03  0.79901783741E+02 0.  0.
         25    2    1    2    0    0 -0.26155998864E+02  0.65842906540E+02  0.15481821203E+03  0.21127248649E+03  0.12509180691E+03 0.  0.
        -24    2    1    2    0    0 -0.98926247215E+01 -0.28693309209E+02  0.20747782841E+04  0.20765828810E+04  0.81057780135E+02 0.  0.
        -13    1    3    3    0    0  0.45424050806E+02 -0.56116577496E+02 -0.59337881589E+03  0.59775482751E+03  0.00000000000E+00 0.  1.
         14    1    3    3    0    0 -0.93754272204E+01  0.18966980166E+02 -0.10768204467E+03  0.10974091177E+03  0.00000000000E+00 0. -1.
         13    1    5    5    0    0 -0.15172066048E+02  0.18223727872E+02  0.13793315923E+04  0.13795354063E+04  0.00000000000E+00 0. -1.
        -14    1    5    5    0    0  0.52794413270E+01 -0.46917037081E+02  0.69544669180E+03  0.69704747472E+03  0.00000000000E+00 0.  1.
          5    1    4    4  501    0 -0.74107431188E+02  0.33793087134E+02  0.64279572811E+02  0.10384228414E+03  0.41800000000E+01 0.  1.
         -5    1    4    4    0  501  0.47951432324E+02  0.32049819405E+02  0.90538639216E+02  0.10743020235E+03  0.41800000000E+01 0.  1.
</event>
<event>
11    1  0.8328696E-009  0.1441709E+03  0.7561462E-02  0.1102988E+00
         22   -1    0    0    0    0  0.00000000000E+00  0.00000000000E+00  0.29318377421E+04  0.29318377421E+04  0.00000000000E+00 0.  1.
         22   -1    0    0    0    0 -0.00000000000E+00 -0.00000000000E+00 -0.81868146820E+02  0.81868146820E+02  0.00000000000E+00 0. -1.
        -24    2    1    2    0    0 -0.96907995865E+01  0.65747944933E+02 -0.38168412237E+02  0.11195625737E+03  0.81612940225E+02 0.  0.
         25    2    1    2    0    0  0.78740893264E+02 -0.43512349838E+02  0.11593478567E+04  0.11695398212E+04  0.12506993067E+03 0.  0.
         24    2    1    2    0    0 -0.69050093677E+02 -0.22235595095E+02  0.17287901508E+04  0.17322098104E+04  0.81074685070E+02 0.  0.
        -11    1    5    5    0    0 -0.16955072761E+02  0.29579336817E+01  0.12228512808E+04  0.12229723950E+04  0.00000000000E+00 0.  1.
         12    1    5    5    0    0 -0.52095020917E+02 -0.25193528777E+02  0.50593886995E+03  0.50923741538E+03  0.00000000000E+00 0. -1.
         11    1    3    3    0    0 -0.29142778920E+02  0.34436426634E+02 -0.55250583517E+02  0.71328788168E+02  0.00000000000E+00 0. -1.
        -12    1    3    3    0    0  0.19451979333E+02  0.31311518299E+02  0.17082171280E+02  0.40627469202E+02  0.00000000000E+00 0.  1.
          5    1    4    4  501    0  0.42146158697E+02 -0.34190996844E+01  0.10045256631E+04  0.10054239251E+04  0.41800000000E+01 0. -1.
         -5    1    4    4    0  501  0.36594734567E+02 -0.40093250153E+02  0.15482219364E+03  0.16411589609E+03  0.41800000000E+01 0. -1.
</event>
<event>
11    1  0.8328696E-009  0.1572161E+03  0.7561462E-02  0.1089725E+00
         22   -1    0    0    0    0  0.00000000000E+00  0.00000000000E+00  0.16103650221E+04  0.16103650221E+04  0.00000000000E+00 0.  1.
         22   -1    0    0    0    0 -0.00000000000E+00 -0.00000000000E+00 -0.36536611459E+03  0.36536611459E+03  0.00000000000E+00 0. -1.
        -24    2    1    2    0    0 -0.84756399605E+02  0.41996239339E+02 -0.33771464183E+03  0.35956855253E+03  0.79316034151E+02 0.  0.
         25    2    1    2    0    0  0.12867767189E+03 -0.27943332037E+02  0.54762835349E+03  0.57696183710E+03  0.12509746152E+03 0.  0.
         24    2    1    2    0    0 -0.43921272281E+02 -0.14052907303E+02  0.10350851959E+04  0.10392007471E+04  0.80064147242E+02 0.  0.
        -11    1    5    5    0    0 -0.63157646047E+02  0.37531395828E+01  0.83715212869E+03  0.83953955290E+03  0.00000000000E+00 0.  1.
         12    1    5    5    0    0  0.19236373766E+02 -0.17806046885E+02  0.19793306720E+03  0.19966119420E+03  0.00000000000E+00 0. -1.
         13    1    3    3    0    0 -0.16184101553E+02 -0.19028062014E+02 -0.13142123732E+03  0.13377418998E+03  0.00000000000E+00 0. -1.
        -14    1    3    3    0    0 -0.68572298052E+02  0.61024301353E+02 -0.20629340451E+03  0.22579436255E+03  0.00000000000E+00 0.  1.
          5    1    4    4  501    0  0.11462952591E+03  0.68639512331E+01  0.51303294089E+03  0.52574453195E+03  0.41800000000E+01 0.  1.
         -5    1    4    4    0  501  0.14048145977E+02 -0.34807283270E+02  0.34595412599E+02  0.51217305151E+02  0.41800000000E+01 0.  1.
</event>
<event>
11    1  0.8328696E-009  0.1769077E+03  0.7561462E-02  0.1072172E+00
         22   -1    0    0    0    0  0.00000000000E+00  0.00000000000E+00  0.18264429694E+03  0.18264429694E+03  0.00000000000E+00 0. -1.
         22   -1    0    0    0    0 -0.00000000000E+00 -0.00000000000E+00 -0.36419397380E+04  0.36419397380E+04  0.00000000000E+00 0.  1.
        -24    2    1    2    0    0  0.56363301867E+02  0.75078168161E+02 -0.28260946982E+04  0.28293076284E+04  0.96730863620E+02 0.  0.
         25    2    1    2    0    0 -0.12460817956E+03 -0.17538837675E+03 -0.76167941844E+03  0.80130597047E+03  0.12508973064E+03 0.  0.
         24    2    1    2    0    0  0.68244877694E+02  0.10031020859E+03  0.12847867560E+03  0.19397043603E+03  0.79989116079E+02 0.  0.
        -11    1    5    5    0    0  0.16912006299E+02  0.27813859382E+02 -0.57049088636E+01  0.33048036491E+02  0.00000000000E+00 0.  1.
         12    1    5    5    0    0  0.51332871396E+02  0.72496349205E+02  0.13418358446E+03  0.16092239954E+03  0.00000000000E+00 0. -1.
         13    1    3    3    0    0  0.22506595308E+02  0.71712592199E+02 -0.97231220264E+03  0.97521293168E+03  0.00000000000E+00 0. -1.
        -14    1    3    3    0    0  0.33856706560E+02  0.33655759616E+01 -0.18537824956E+04  0.18540946967E+04  0.00000000000E+00 0.  1.
          5    1    4    4  501    0 -0.49716341739E+02 -0.14507725515E+03 -0.61445320619E+03  0.63331614506E+03  0.41800000000E+01 0. -1.
         -5    1    4    4    0  501 -0.74891837823E+02 -0.30311121594E+02 -0.14722621225E+03  0.16798982540E+03  0.41800000000E+01 0. -1.
</event>
<event>
11    1  0.8328696E-009  0.1428460E+03  0.7561462E-02  0.1104421E+00
         22   -1    0    0    0    0  0.00000000000E+00  0.00000000000E+00  0.49633517600E+03  0.49633517600E+03  0.00000000000E+00 0.  1.
         22   -1    0    0    0    0 -0.00000000000E+00 -0.00000000000E+00 -0.73058713764E+03  0.73058713764E+03  0.00000000000E+00 0. -1.
        -24    2    1    2    0    0 -0.13859980139E+02 -0.67998816312E+02 -0.68759397721E+03  0.69579006737E+03  0.80761391084E+02 0.  0.
         25    2    1    2    0    0  0.19291525384E+02  0.52128904817E+02  0.10204474571E+03  0.17073399501E+03  0.12508949298E+03 0.  0.
         24    2    1    2    0    0 -0.54315452451E+01  0.15869911496E+02  0.35129726985E+03  0.36039825127E+03  0.78713225940E+02 0.  0.
        -11    1    5    5    0    0 -0.26071683428E+02  0.36756581879E+01  0.31946629682E+03  0.32054946255E+03  0.00000000000E+00 0.  1.
         12    1    5    5    0    0  0.20640138182E+02  0.12194253308E+02  0.31830973033E+02  0.39848788716E+02  0.00000000000E+00 0. -1.
         13    1    3    3    0    0 -0.38126928231E+02 -0.44976746800E+02 -0.58308148753E+03  0.58605510962E+03  0.00000000000E+00 0. -1.
        -14    1    3    3    0    0  0.24266948092E+02 -0.23022069513E+02 -0.10451248968E+03  0.10973495775E+03  0.00000000000E+00 0.  1.
          5    1    4    4  501    0  0.29774861429E+02 -0.31119207339E+02  0.66888539706E+02  0.79664901824E+02  0.41800000000E+01 0. -1.
         -5    1    4    4    0  501 -0.10483336045E+02  0.83248112156E+02  0.35156206008E+02  0.91069093182E+02  0.41800000000E+01 0. -1.
</event>
<event>
11    1  0.8328696E-009  0.1722730E+03  0.7561462E-02  0.1076070E+00
         22   -1    0    0    0    0  0.00000000000E+00  0.00000000000E+00  0.37758877453E+02  0.37758877453E+02  0.00000000000E+00 0. -1.
         22   -1    0    0    0    0 -0.00000000000E+00 -0.00000000000E+00 -0.27142059904E+04  0.27142059904E+04  0.00000000000E+00 0. -1.
         24    2    1    2    0    0  0.25896746829E+02  0.11013709092E+03 -0.19023424437E+04  0.19074496515E+04  0.81587864298E+02 0.  0.
         25    2    1    2    0    0  0.66490043592E+02  0.17794495880E+02 -0.48481098305E+03  0.50539522858E+03  0.12508028544E+03 0.  0.
        -24    2    1    2    0    0 -0.92386790420E+02 -0.12793158680E+03 -0.28929368623E+03  0.33911998780E+03  0.80060722542E+02 0.  0.
        -13    1    3    3    0    0  0.49412374403E+00  0.28023332585E+02 -0.11285492851E+04  0.11288972673E+04  0.00000000000E+00 0.  1.
         14    1    3    3    0    0  0.25402623085E+02  0.82113758332E+02 -0.77379315864E+03  0.77855238419E+03  0.00000000000E+00 0. -1.
         13    1    5    5    0    0 -0.57839599495E+02 -0.75695235189E+02 -0.93214266937E+02  0.13328198476E+03  0.00000000000E+00 0. -1.
        -14    1    5    5    0    0 -0.34547190926E+02 -0.52236351607E+02 -0.19607941929E+03  0.20583800305E+03  0.00000000000E+00 0.  1.
          5    1    4    4  501    0  0.17916333745E+02  0.47612786699E+02 -0.39927423996E+03  0.40252374286E+03  0.41800000000E+01 0.  1.
         -5    1    4    4    0  501  0.48573709847E+02 -0.29818290819E+02 -0.85536743091E+02  0.10287148572E+03  0.41800000000E+01 0.  1.
</event>
<event>
11    1  0.8328696E-009  0.2163014E+03  0.7561462E-02  0.1043559E+00
         22   -1    0    0    0    0  0.00000000000E+00  0.00000000000E+00  0.51274293915E+03  0.51274293915E+03  0.00000000000E+00 0.  1.
         22   -1    0    0    0    0 -0.00000000000E+00 -0.00000000000E+00 -0.22797257349E+03  0.22797257349E+03  0.00000000000E+00 0.  1.
        -24    2    1    2    0    0 -0.64406367044E+02  0.15149833067E+03 -0.85324338862E+02  0.20199100130E+03  0.80126134882E+02 0.  0.
         25    2    1    2    0    0  0.14089169714E+03 -0.19011706523E+03  0.20627277089E+03  0.33792901695E+03  0.12511033398E+03 0.  0.
         24    2    1    2    0    0 -0.76485330092E+02  0.38618734562E+02  0.16382193364E+03  0.20079549439E+03  0.78356826435E+02 0.  0.
        -11    1    5    5    0    0 -0.28011244528E+02  0.27109109995E+02  0.14045912154E+03  0.14576796112E+03  0.00000000000E+00 0.  1.
         12    1    5    5    0    0 -0.48474085563E+02  0.11509624567E+02  0.23362812094E+02  0.55027533270E+02  0.00000000000E+00 0. -1.
         13    1    3    3    0    0 -0.76428358913E+00 -0.50118310896E+01 -0.20352105427E+02  0.20974050052E+02  0.00000000000E+00 0. -1.
        -14    1    3    3    0    0 -0.63642083455E+02  0.15651016176E+03 -0.64972233435E+02  0.18101695125E+03  0.00000000000E+00 0.  1.
          5    1    4    4  501    0  0.12692669095E+03 -0.20503139609E+03  0.20583309308E+03  0.31706938178E+03  0.41800000000E+01 0. -1.
         -5    1    4    4    0  501  0.13965006190E+02  0.14914330855E+02  0.43967781594E+00  0.20859635168E+02  0.41800000000E+01 0. -1.
</event>
<event>
11    1  0.8328696E-009  0.1430557E+03  0.7561462E-02  0.1104193E+00
         22   -1    0    0    0    0  0.00000000000E+00  0.00000000000E+00  0.94433206685E+03  0.94433206685E+03  0.00000000000E+00 0. -1.
         22   -1    0    0    0    0 -0.00000000000E+00 -0.00000000000E+00 -0.34144550162E+03  0.34144550162E+03  0.00000000000E+00 0. -1.
         24    2    1    2    0    0  0.51434224597E+01  0.22899582123E+02 -0.31233247808E+03  0.32386597803E+03  0.82381728584E+02 0.  0.
         25    2    1    2    0    0  0.18401678330E+02 -0.84333103705E+02  0.28368933034E+03  0.32183483887E+03  0.12508930096E+03 0.  0.
        -24    2    1    2    0    0 -0.23545100790E+02  0.61433521582E+02  0.63152971297E+03  0.64007675157E+03  0.80870391321E+02 0.  0.
        -11    1    3    3    0    0  0.37377577324E+02  0.34646058706E+02 -0.17131470403E+03  0.17873488883E+03  0.00000000000E+00 0.  1.
         12    1    3    3    0    0 -0.32234154864E+02 -0.11746476583E+02 -0.14101777405E+03  0.14513108919E+03  0.00000000000E+00 0. -1.
         11    1    5    5    0    0  0.25695854959E+02  0.41729220119E+02  0.23833477383E+03  0.24332091811E+03  0.00000000000E+00 0. -1.
        -12    1    5    5    0    0 -0.49240955748E+02  0.19704301464E+02  0.39319493914E+03  0.39675583346E+03  0.00000000000E+00 0.  1.
          5    1    4    4  501    0 -0.26996334134E+02  0.83888346151E+01  0.11696708070E+02  0.30878147331E+02  0.41800000000E+01 0.  1.
         -5    1    4    4    0  501  0.45398012464E+02 -0.92721938320E+02  0.27199262227E+03  0.29095669154E+03  0.41800000000E+01 0.  1.
</event>
<event>
11    1  0.8328696E-009  0.1493055E+03  0.7561462E-02  0.1097591E+00
         22   -1    0    0    0    0  0.00000000000E+00  0.00000000000E+00  0.21859560454E+04  0.21859560454E+04  0.00000000000E+00 0. -1.
         22   -1    0    0    0    0 -0.00000000000E+00 -0.00000000000E+00 -0.85145150445E+02  0.85145150445E+02  0.00000000000E+00 0. -1.
         24    2    1    2    0    0 -0.10483318792E+02  0.29064668995E+02 -0.44903618836E+02  0.97234497489E+02  0.80520541234E+02 0.  0.
         25    2    1    2    0    0 -0.20160794432E+02  0.51073547096E+02  0.37266419411E+03  0.39691423919E+03  0.12508935547E+03 0.  0.
        -24    2    1    2    0    0  0.30644113224E+02 -0.80138216091E+02  0.17730503197E+04  0.17769524592E+04  0.80569291140E+02 0.  0.
        -11    1    3    3    0    0  0.70374212090E+01 -0.18859896480E+02  0.98322402731E+01  0.22402989562E+02  0.00000000000E+00 0.  1.
         12    1    3    3    0    0 -0.17520740001E+02  0.47924565475E+02 -0.54735859109E+02  0.74831507927E+02  0.00000000000E+00 0. -1.
         13    1    5    5    0    0  0.25490669590E+02 -0.93375876025E+02  0.16837037035E+04  0.16864836168E+04  0.00000000000E+00 0. -1.
        -14    1    5    5    0    0  0.51534436343E+01  0.13237659934E+02  0.89346616175E+02  0.90468842392E+02  0.00000000000E+00 0.  1.
          5    1    4    4  501    0 -0.50200392912E+02 -0.17624564648E+02  0.22511339754E+03  0.23135301788E+03  0.41800000000E+01 0.  1.
         -5    1    4    4    0  501  0.30039598480E+02  0.68698111744E+02  0.14755079657E+03  0.16556122131E+03  0.41800000000E+01 0.  1.
</event>
<event>
11    1  0.8328696E-009  0.1676302E+03  0.7561462E-02  0.1080113E+00
         22   -1    0    0    0    0  0.00000000000E+00  0.00000000000E+00  0.52436986964E+03  0.52436986964E+03  0.00000000000E+00 0. -1.
         22   -1    0    0    0    0 -0.00000000000E+00 -0.00000000000E+00 -0.49370328750E+03  0.49370328750E+03  0.00000000000E+00 0.  1.
        -24    2    1    2    0    0  0.42717148119E+02 -0.10619897341E+03 -0.41480740160E+03  0.43772528518E+03  0.80220123197E+02 0.  0.
         25    2    1    2    0    0 -0.92851507587E+02  0.50915609328E+02  0.51609934057E+02  0.17181390184E+03  0.12507049946E+03 0.  0.
         24    2    1    2    0    0  0.50134359469E+02  0.55283364084E+02  0.39386404968E+03  0.40853397012E+03  0.78749036620E+02 0.  0.
        -13    1    5    5    0    0  0.66811580290E+01  0.11910415934E+00 -0.16101861968E+01  0.68734822323E+01  0.00000000000E+00 0.  1.
         14    1    5    5    0    0  0.43453201440E+02  0.55164259925E+02  0.39547423588E+03  0.40166048789E+03  0.00000000000E+00 0. -1.
         13    1    3    3    0    0 -0.23596935894E+02 -0.36007914708E+02 -0.11825619522E+03  0.12584877041E+03  0.00000000000E+00 0. -1.
        -14    1    3    3    0    0  0.66314084013E+02 -0.70191058705E+02 -0.29655120638E+03  0.31187651477E+03  0.00000000000E+00 0.  1.
          5    1    4    4  501    0 -0.81030230694E+02  0.78216954707E+02  0.70187102321E+00  0.11270206437E+03  0.41800000000E+01 0.  1.
         -5    1    4    4    0  501 -0.11821276894E+02 -0.27301345379E+02  0.50908063033E+02  0.59111837467E+02  0.41800000000E+01 0.  1.
</event>
<event>
11    1  0.8328696E-009  0.1553017E+03  0.7561462E-02  0.1091581E+00
         22   -1    0    0    0    0  0.00000000000E+00  0.00000000000E+00  0.70642175358E+03  0.70642175358E+03  0.00000000000E+00 0.  1.
         22   -1    0    0    0    0 -0.00000000000E+00 -0.00000000000E+00 -0.11301099688E+03  0.11301099688E+03  0.00000000000E+00 0. -1.
        -24    2    1    2    0    0  0.80294209506E+02  0.42529691204E+02 -0.41420988337E+02  0.12938430905E+03  0.82271905524E+02 0.  0.
         25    2    1    2    0    0 -0.11663937258E+03  0.48130409191E+01  0.37344829515E+03  0.41077424940E+03  0.12507576194E+03 0.  0.
         24    2    1    2    0    0  0.36345163078E+02 -0.47342732123E+02  0.26138344989E+03  0.27927419201E+03  0.78169439582E+02 0.  0.
        -13    1    5    5    0    0  0.50864174280E+02 -0.36395668591E+02  0.10789357296E+03  0.12471099391E+03  0.00000000000E+00 0.  1.
         14    1    5    5    0    0 -0.14519011202E+02 -0.10947063532E+02  0.15348987693E+03  0.15456319810E+03  0.00000000000E+00 0. -1.
         13    1    3    3    0    0  0.51819025427E+02 -0.54053583784E+01 -0.50891152353E+02  0.72830890995E+02  0.00000000000E+00 0. -1.
        -14    1    3    3    0    0  0.28475184079E+02  0.47935049583E+02  0.94701640155E+01  0.56553418051E+02  0.00000000000E+00 0.  1.
          5    1    4    4  501    0 -0.71523572071E+02  0.61673916153E+02  0.25298588353E+03  0.27007151453E+03  0.41800000000E+01 0.  1.
         -5    1    4    4    0  501 -0.45115800513E+02 -0.56860875234E+02  0.12046241162E+03  0.14070273487E+03  0.41800000000E+01 0.  1.
</event>
<event>
11    1  0.8328696E-009  0.2441160E+03  0.7561462E-02  0.1027081E+00
         22   -1    0    0    0    0  0.00000000000E+00  0.00000000000E+00  0.12068171560E+04  0.12068171560E+04  0.00000000000E+00 0. -1.
         22   -1    0    0    0    0 -0.00000000000E+00 -0.00000000000E+00 -0.30594958015E+03  0.30594958015E+03  0.00000000000E+00 0.  1.
        -24    2    1    2    0    0  0.14148036653E+03  0.15875904568E+03 -0.10303229039E+03  0.24760157670E+03  0.73957820564E+02 0.  0.
         25    2    1    2    0    0 -0.13623792630E+03 -0.15310334213E+03 -0.17131695385E+02  0.24071748311E+03  0.12509998302E+03 0.  0.
         24    2    1    2    0    0 -0.52424402234E+01 -0.56557035455E+01  0.10210315616E+04  0.10244476764E+04  0.83235338415E+02 0.  0.
        -13    1    5    5    0    0  0.81755551977E+01 -0.35115467826E+02  0.23499305846E+03  0.23774287226E+03  0.00000000000E+00 0.  1.
         14    1    5    5    0    0 -0.13417995421E+02  0.29459764280E+02  0.78603850318E+03  0.78670480410E+03  0.00000000000E+00 0. -1.
         13    1    3    3    0    0  0.55561428063E+02  0.32423156257E+02 -0.18599559643E+01  0.64356761775E+02  0.00000000000E+00 0. -1.
        -14    1    3    3    0    0  0.85918938466E+02  0.12633588942E+03 -0.10117233442E+03  0.18324481492E+03  0.00000000000E+00 0.  1.
          5    1    4    4  501    0  0.16353936143E+02 -0.37455141150E+01  0.17227039645E+02  0.24407445550E+02  0.41800000000E+01 0. -1.
         -5    1    4    4    0  501 -0.15259186245E+03 -0.14935782802E+03 -0.34358735030E+02  0.21631003756E+03  0.41800000000E+01 0. -1.
</event>
<event>
11    1  0.8328696E-009  0.1948038E+03  0.7561462E-02  0.1058260E+00
         22   -1    0    0    0    0  0.00000000000E+00  0.00000000000E+00  0.48076834947E+03  0.48076834947E+03  0.00000000000E+00 0.  1.
         22   -1    0    0    0    0 -0.00000000000E+00 -0.00000000000E+00 -0.44335439933E+03  0.44335439933E+03  0.00000000000E+00 0.  1.
        -24    2    1    2    0    0  0.47568934036E+02  0.12445633106E+03 -0.32232161265E+03  0.35803525889E+03  0.80906382948E+02 0.  0.
         25    2    1    2    0    0 -0.18243671585E+03 -0.12604643851E+03  0.12672201467E+03  0.28438926349E+03  0.12509166333E+03 0.  0.
         24    2    1    2    0    0  0.13486778181E+03  0.15901074452E+01  0.23301354811E+03  0.28169822642E+03  0.82865735703E+02 0.  0.
        -11    1    5    5    0    0  0.13098555334E+03  0.17392478847E+02  0.16305894963E+03  0.20987599805E+03  0.00000000000E+00 0.  1.
         12    1    5    5    0    0  0.38822284767E+01 -0.15802371401E+02  0.69954598475E+02  0.71822228367E+02  0.00000000000E+00 0. -1.
         11    1    3    3    0    0 -0.13059317166E+02  0.21201761536E+02 -0.12314779072E+03  0.12564011627E+03  0.00000000000E+00 0. -1.
        -12    1    3    3    0    0  0.60628251202E+02  0.10325456953E+03 -0.19917382192E+03  0.23239514262E+03  0.00000000000E+00 0.  1.
          5    1    4    4  501    0 -0.14339847656E+03 -0.31162831747E+02  0.46218213150E+02  0.15390854684E+03  0.41800000000E+01 0.  1.
         -5    1    4    4    0  501 -0.39038239289E+02 -0.94883606763E+02  0.80503801522E+02  0.13048071665E+03  0.41800000000E+01 0.  1.
</event>
<event>
11    1  0.8328696E-009  0.1339240E+03  0.7561462E-02  0.1114540E+00
         22   -1    0    0    0    0  0.00000000000E+00  0.00000000000E+00  0.64461529758E+03  0.64461529758E+03  0.00000000000E+00 0.  1.
         22   -1    0    0    0    0 -0.00000000000E+00 -0.00000000000E+00 -0.80717438359E+03  0.80717438359E+03  0.00000000000E+00 0.  1.
         24    2    1    2    0    0 -0.37480067408E+02  0.28755665085E+02 -0.76536674298E+03  0.77178912848E+03  0.87410318897E+02 0.  0.
         25    2    1    2    0    0  0.45404389981E+02 -0.69254371052E+02  0.13017137280E+03  0.19861941618E+03  0.12508940662E+03 0.  0.
        -24    2    1    2    0    0 -0.79243225726E+01  0.40498705967E+02  0.47263628417E+03  0.48138113652E+03  0.81484976559E+02 0.  0.
        -11    1    3    3    0    0 -0.46425790630E+01  0.47318977328E+02 -0.61228765197E+03  0.61413093710E+03  0.00000000000E+00 0.  1.
         12    1    3    3    0    0 -0.32837488345E+02 -0.18563312243E+02 -0.15307909101E+03  0.15765819137E+03  0.00000000000E+00 0. -1.
         11    1    5    5    0    0 -0.16060173071E+02 -0.10658102572E+02  0.29572005622E+02  0.35299119337E+02  0.00000000000E+00 0. -1.
        -12    1    5    5    0    0  0.81358504987E+01  0.51156808539E+02  0.44306427855E+03  0.44608201718E+03  0.00000000000E+00 0.  1.
          5    1    4    4  501    0 -0.25947601973E+02  0.21879989977E+02  0.29543380592E+02  0.45191766356E+02  0.41800000000E+01 0.  1.
         -5    1    4    4    0  501  0.71351991954E+02 -0.91134361029E+02  0.10062799221E+03  0.15342764983E+03  0.41800000000E+01 0.  1.
</event>
<event>
11    1  0.8328696E-009  0.1720801E+03  0.7561462E-02  0.1076236E+00
         22   -1    0    0    0    0  0.00000000000E+00  0.00000000000E+00  0.68341959134E+02  0.68341959134E+02  0.00000000000E+00 0. -1.
         22   -1    0    0    0    0 -0.00000000000E+00 -0.00000000000E+00 -0.11152791469E+04  0.11152791469E+04  0.00000000000E+00 0. -1.
        -24    2    1    2    0    0 -0.10359190286E+03  0.90006760071E+02 -0.77498767915E+03  0.79090839753E+03  0.78087715146E+02 0.  0.
         25    2    1    2    0    0  0.60402309522E+02 -0.38681861721E+02 -0.24459385715E+03  0.28393054620E+03  0.12508267140E+03 0.  0.
         24    2    1    2    0    0  0.43189593334E+02 -0.51324898350E+02 -0.27355651434E+02  0.10878216228E+03  0.81151962400E+02 0.  0.
        -13    1    5    5    0    0  0.49254637593E+02 -0.31752875024E+01 -0.33807393057E+02  0.59825091730E+02  0.00000000000E+00 0.  1.
         14    1    5    5    0    0 -0.60650442592E+01 -0.48149610848E+02  0.64517416230E+01  0.48957070548E+02  0.00000000000E+00 0. -1.
         11    1    3    3    0    0 -0.97355411625E+02  0.82180342511E+02 -0.76848428266E+03  0.77897354099E+03  0.00000000000E+00 0. -1.
        -12    1    3    3    0    0 -0.62364912309E+01  0.78264175600E+01 -0.65033964839E+01  0.11934856536E+02  0.00000000000E+00 0.  1.
          5    1    4    4  501    0 -0.20974660016E+02  0.13588971773E+02 -0.54270814660E+01  0.25913744034E+02  0.41800000000E+01 0.  1.
         -5    1    4    4    0  501  0.81376969537E+02 -0.52270833494E+02 -0.23916677569E+03  0.25801680216E+03  0.41800000000E+01 0.  1.
</event>
<event>
11    1  0.8328696E-009  0.1290325E+03  0.7561462E-02  0.1120464E+00
         22   -1    0    0    0    0  0.00000000000E+00  0.00000000000E+00  0.27004796593E+04  0.27004796593E+04  0.00000000000E+00 0.  1.
         22   -1    0    0    0    0 -0.00000000000E+00 -0.00000000000E+00 -0.12865384529E+03  0.12865384529E+03  0.00000000000E+00 0. -1.
        -24    2    1    2    0    0  0.19949900118E+02 -0.24275098292E+02 -0.10799236628E+03  0.13831136876E+03  0.80500960515E+02 0.  0.
         25    2    1    2    0    0 -0.25432561895E+02  0.27894121165E+02  0.87465484777E+03  0.88436497116E+03  0.12512155003E+03 0.  0.
         24    2    1    2    0    0  0.54826617767E+01 -0.36190228722E+01  0.18051633325E+04  0.18064571647E+04  0.68041706564E+02 0.  0.
        -11    1    5    5    0    0 -0.19856056460E+02 -0.83697181583E+01  0.15143709422E+04  0.15145242374E+04  0.00000000000E+00 0.  1.
         12    1    5    5    0    0  0.25338718237E+02  0.47506952860E+01  0.29079239035E+03  0.29193292729E+03  0.00000000000E+00 0. -1.
         13    1    3    3    0    0  0.29799650235E+02  0.10146688489E+02 -0.95235285472E+02  0.10030321052E+03  0.00000000000E+00 0. -1.
        -14    1    3    3    0    0 -0.98497501175E+01 -0.34421786782E+02 -0.12757080804E+02  0.38008158246E+02  0.00000000000E+00 0.  1.
          5    1    4    4  501    0 -0.40110682930E+02  0.69215339023E+02  0.68466996178E+03  0.68934030711E+03  0.41800000000E+01 0.  1.
         -5    1    4    4    0  501  0.14678121036E+02 -0.41321217858E+02  0.18998488599E+03  0.19502466404E+03  0.41800000000E+01 0.  1.
</event>
<event>
11    1  0.8328696E-009  0.1531080E+03  0.7561462E-02  0.1093745E+00
         22   -1    0    0    0    0  0.00000000000E+00  0.00000000000E+00  0.34134095122E+04  0.34134095122E+04  0.00000000000E+00 0. -1.
         22   -1    0    0    0    0 -0.00000000000E+00 -0.00000000000E+00 -0.11604460569E+03  0.11604460569E+03  0.00000000000E+00 0. -1.
         24    2    1    2    0    0  0.17074798622E+01 -0.58744231698E+02 -0.75886222876E+02  0.12635456772E+03  0.82176381744E+02 0.  0.
         25    2    1    2    0    0 -0.67995298065E+02  0.11211413289E+03  0.58520014153E+03  0.61261703171E+03  0.12508989786E+03 0.  0.
        -24    2    1    2    0    0  0.66287818202E+02 -0.53369901191E+02  0.27880509878E+04  0.27904825184E+04  0.79510714705E+02 0.  0.
        -13    1    3    3    0    0  0.38285345768E+01 -0.16473125543E+02  0.17185380336E+02  0.24111384022E+02  0.00000000000E+00 0.  1.
         14    1    3    3    0    0 -0.21210547145E+01 -0.42271106156E+02 -0.93071603212E+02  0.10224318370E+03  0.00000000000E+00 0. -1.
         13    1    5    5    0    0  0.66017140501E+02 -0.69402086754E+02  0.25948448957E+04  0.25966122054E+04  0.00000000000E+00 0. -1.
        -14    1    5    5    0    0  0.27067770120E+00  0.16032185564E+02  0.19320609214E+03  0.19387031304E+03  0.00000000000E+00 0.  1.
          5    1    4    4  501    0 -0.97138144877E+02  0.83055933980E+02  0.32680552166E+03  0.35093222814E+03  0.41800000000E+01 0. -1.
         -5    1    4    4    0  501  0.29142846813E+02  0.29058198909E+02  0.25839461986E+03  0.26168480357E+03  0.41800000000E+01 0. -1.
</event>
<event>
11    1  0.8328696E-009  0.2052704E+03  0.7561462E-02  0.1050858E+00
         22   -1    0    0    0    0  0.00000000000E+00  0.00000000000E+00  0.22614152586E+03  0.22614152586E+03  0.00000000000E+00 0.  1.
         22   -1    0    0    0    0 -0.00000000000E+00 -0.00000000000E+00 -0.94884117557E+03  0.94884117557E+03  0.00000000000E+00 0.  1.
         24    2    1    2    0    0 -0.50145743061E+01 -0.45914730001E+02 -0.47344842864E+03  0.48244179572E+03  0.80395045195E+02 0.  0.
         25    2    1    2    0    0  0.98060831253E+02 -0.91346909652E+02 -0.40990323601E+03  0.44903090163E+03  0.12509157926E+03 0.  0.
        -24    2    1    2    0    0 -0.93046256947E+02  0.13726163965E+03  0.16065201494E+03  0.24351000407E+03  0.77393078032E+02 0.  0.
        -13    1    3    3    0    0 -0.39424272263E+02 -0.31666245253E+02 -0.19230262993E+03  0.19883995023E+03  0.00000000000E+00 0.  1.
         14    1    3    3    0    0  0.34409697957E+02 -0.14248484748E+02 -0.28114579871E+03  0.28360184548E+03  0.00000000000E+00 0. -1.
         11    1    5    5    0    0 -0.12559900353E+02  0.58444780892E+02  0.19421158921E+02  0.62854792373E+02  0.00000000000E+00 0. -1.
        -12    1    5    5    0    0 -0.80486356594E+02  0.78816858761E+02  0.14123085602E+03  0.18065521170E+03  0.00000000000E+00 0.  1.
          5    1    4    4  501    0  0.61217858401E+02 -0.26528548132E+02 -0.34077936171E+03  0.34727429479E+03  0.41800000000E+01 0.  1.
         -5    1    4    4    0  501  0.36842972851E+02 -0.64818361520E+02 -0.69123874301E+02  0.10175660685E+03  0.41800000000E+01 0.  1.
</event>
<event>
11    1  0.8328696E-009  0.1349669E+03  0.7561462E-02  0.1113313E+00
         22   -1    0    0    0    0  0.00000000000E+00  0.00000000000E+00  0.11892205859E+04  0.11892205859E+04  0.00000000000E+00 0.  1.
         22   -1    0    0    0    0 -0.00000000000E+00 -0.00000000000E+00 -0.33879782784E+03  0.33879782784E+03  0.00000000000E+00 0.  1.
        -24    2    1    2    0    0 -0.27902327858E+02 -0.41981687132E+02 -0.32013384920E+03  0.33406742870E+03  0.81082449142E+02 0.  0.
         25    2    1    2    0    0  0.44312514111E+02  0.64528629481E+02  0.67492729027E+03  0.69086974068E+03  0.12508640413E+03 0.  0.
         24    2    1    2    0    0 -0.16410186254E+02 -0.22546942349E+02  0.49562931698E+03  0.50308124435E+03  0.81637367381E+02 0.  0.
        -13    1    5    5    0    0 -0.20153579829E+02  0.28304239043E+01  0.45208490604E+03  0.45254274975E+03  0.00000000000E+00 0.  1.
         14    1    5    5    0    0  0.37433935751E+01 -0.25377366253E+02  0.43544410935E+02  0.50538494607E+02  0.00000000000E+00 0. -1.
         13    1    3    3    0    0 -0.17509755183E+02 -0.19394313388E+02 -0.19998461845E+02  0.32903941930E+02  0.00000000000E+00 0. -1.
        -14    1    3    3    0    0 -0.10392572675E+02 -0.22587373744E+02 -0.30013538736E+03  0.30116348677E+03  0.00000000000E+00 0.  1.
          5    1    4    4  501    0  0.43545828562E+02  0.69773718162E+02  0.20540763870E+03  0.22130156205E+03  0.41800000000E+01 0.  1.
         -5    1    4    4    0  501  0.76668554937E+00 -0.52450886807E+01  0.46951965157E+03  0.46956817862E+03  0.41800000000E+01 0.  1.
</event>
<event>
11    1  0.8328696E-009  0.2008427E+03  0.7561462E-02  0.1053929E+00
         22   -1    0    0    0    0  0.00000000000E+00  0.00000000000E+00  0.12546830959E+04  0.12546830959E+04  0.00000000000E+00 0.  1.
         22   -1    0    0    0    0 -0.00000000000E+00 -0.00000000000E+00 -0.37543816035E+03  0.37543816035E+03  0.00000000000E+00 0.  1.
         24    2    1    2    0    0  0.52901904657E+02 -0.13365292041E+03 -0.22486625599E+03  0.27878539410E+03  0.80590000796E+02 0.  0.
         25    2    1    2    0    0 -0.50190146906E+02  0.22522366308E+03  0.24120230283E+02  0.26358201401E+03  0.12509573672E+03 0.  0.
        -24    2    1    2    0    0 -0.27117577507E+01 -0.91570742675E+02  0.10799909613E+04  0.10877538482E+04  0.91844451145E+02 0.  0.
        -13    1    3    3    0    0  0.39802460360E+02 -0.13546332696E+03 -0.22491837197E+03  0.26556133538E+03  0.00000000000E+00 0.  1.
         14    1    3    3    0    0  0.13099444297E+02  0.18104065494E+01  0.52115979663E-01  0.13224058713E+02  0.00000000000E+00 0. -1.
         13    1    5    5    0    0  0.11778319008E+02 -0.10024750568E+03  0.68446862856E+03  0.69187108241E+03  0.00000000000E+00 0. -1.
        -14    1    5    5    0    0 -0.14490076758E+02  0.86767630033E+01  0.39552233272E+03  0.39588276575E+03  0.00000000000E+00 0.  1.
          5    1    4    4  501    0  0.27810564883E+02  0.59482089836E+02 -0.30311268763E+02  0.72441645097E+02  0.41800000000E+01 0.  1.
         -5    1    4    4    0  501 -0.78000711789E+02  0.16574157325E+03  0.54431499045E+02  0.19114036892E+03  0.41800000000E+01 0.  1.
</event>
<event>
11    1  0.8328696E-009  0.1288147E+03  0.7561462E-02  0.1120734E+00
         22   -1    0    0    0    0  0.00000000000E+00  0.00000000000E+00  0.17861234496E+04  0.17861234496E+04  0.00000000000E+00 0.  1.
         22   -1    0    0    0    0 -0.00000000000E+00 -0.00000000000E+00 -0.93547285196E+03  0.93547285196E+03  0.00000000000E+00 0. -1.
         24    2    1    2    0    0 -0.45079042789E+01 -0.21493930474E+02 -0.89197802212E+03  0.89578208647E+03  0.79488642164E+02 0.  0.
         25    2    1    2    0    0 -0.26168796318E+02  0.17578879958E+02  0.62209975595E+02  0.14322027631E+03  0.12509253999E+03 0.  0.
        -24    2    1    2    0    0  0.30676700597E+02  0.39150505159E+01  0.16804186442E+04  0.16825939388E+04  0.79744313949E+02 0.  0.
        -11    1    3    3    0    0  0.18998109030E+02 -0.12733325359E+02 -0.74781471149E+02  0.78200601971E+02  0.00000000000E+00 0.  1.
         12    1    3    3    0    0 -0.23506013309E+02 -0.87606051149E+01 -0.81719655098E+03  0.81758148450E+03  0.00000000000E+00 0. -1.
         11    1    5    5    0    0 -0.19019648431E+02  0.16089348991E+02  0.24491701969E+03  0.24618074805E+03  0.00000000000E+00 0. -1.
        -12    1    5    5    0    0  0.49696349028E+02 -0.12174298475E+02  0.14355016245E+04  0.14364131907E+04  0.00000000000E+00 0.  1.
          5    1    4    4  501    0 -0.58645778583E+02  0.45495074366E+02  0.66803139590E+02  0.99946290558E+02  0.41800000000E+01 0. -1.
         -5    1    4    4    0  501  0.32476982265E+02 -0.27916194408E+02 -0.45931639944E+01  0.43273985751E+02  0.41800000000E+01 0. -1.
</event>
<event>
11    1  0.8328696E-009  0.1463932E+03  0.7561462E-02  0.1100622E+00
         22   -1    0    0    0    0  0.00000000000E+00  0.00000000000E+00  0.20630541682E+04  0.20630541682E+04  0.00000000000E+00 0. -1.
         22   -1    0    0    0    0 -0.00000000000E+00 -0.00000000000E+00 -0.31410816394E+03  0.31410816394E+03  0.00000000000E+00 0. -1.
        -24    2    1    2    0    0 -0.33407466253E+02 -0.64521192820E+02 -0.25267270557E+03  0.27493635064E+03  0.80420505097E+02 0.  0.
         25    2    1    2    0    0  0.10258636389E+03  0.93540453166E+02  0.13037604484E+03  0.22784814346E+03  0.12507231898E+03 0.  0.
         24    2    1    2    0    0 -0.69178897637E+02 -0.29019260346E+02  0.18712426650E+04  0.18743778380E+04  0.78200582407E+02 0.  0.
        -11    1    5    5    0    0 -0.23255147149E+01 -0.14198736968E+02  0.55189516778E+02  0.57034155665E+02  0.00000000000E+00 0.  1.
         12    1    5    5    0    0 -0.66853382922E+02 -0.14820523378E+02  0.18160531482E+04  0.18173436824E+04  0.00000000000E+00 0. -1.
         13    1    3    3    0    0 -0.29146364288E+01 -0.72618058819E+02 -0.13755900058E+03  0.15557749263E+03  0.00000000000E+00 0. -1.
        -14    1    3    3    0    0 -0.30492829824E+02  0.80968659991E+01 -0.11511370499E+03  0.11935885801E+03  0.00000000000E+00 0.  1.
          5    1    4    4  501    0 -0.25584222876E+02 -0.18698004580E+01  0.27092894887E+02  0.37543920510E+02  0.41800000000E+01 0. -1.
         -5    1    4    4    0  501  0.12817058677E+03  0.95410253624E+02  0.10328314995E+03  0.19030422295E+03  0.41800000000E+01 0. -1.
</event>
<event>
11    1  0.8328696E-009  0.2179830E+03  0.7561462E-02  0.1042488E+00
         22   -1    0    0    0    0  0.00000000000E+00  0.00000000000E+00  0.87757473376E+02  0.87757473376E+02  0.00000000000E+00 0.  1.
         22   -1    0    0    0    0 -0.00000000000E+00 -0.00000000000E+00 -0.20923898535E+04  0.20923898535E+04  0.00000000000E+00 0. -1.
         24    2    1    2    0    0 -0.75753662766E+02 -0.51907472470E+02 -0.84274020119E+03  0.85156975703E+03  0.80789858662E+02 0.  0.
         25    2    1    2    0    0  0.76069764763E+02  0.22464682652E+03 -0.10951981109E+04  0.11275455285E+04  0.12508881285E+03 0.  0.
        -24    2    1    2    0    0 -0.31610199688E+00 -0.17273935405E+03 -0.66694068073E+02  0.20103204132E+03  0.78273868971E+02 0.  0.
        -13    1    3    3    0    0  0.17429766986E+02 -0.69240176470E+01 -0.11837011321E+03  0.11984666244E+03  0.00000000000E+00 0.  1.
         14    1    3    3    0    0 -0.93183429752E+02 -0.44983454823E+02 -0.72437008799E+03  0.73172309459E+03  0.00000000000E+00 0. -1.
         11    1    5    5    0    0 -0.19164853109E+02 -0.55755585275E+01  0.29470964186E+00  0.19961595661E+02  0.00000000000E+00 0. -1.
        -12    1    5    5    0    0  0.18848751112E+02 -0.16716379552E+03 -0.66988777715E+02  0.18107044566E+03  0.00000000000E+00 0.  1.
          5    1    4    4  501    0  0.10009200330E+03  0.19620617248E+03 -0.10201601900E+04  0.10436759828E+04  0.41800000000E+01 0.  1.
         -5    1    4    4    0  501 -0.24022238541E+02  0.28440654039E+02 -0.75037920813E+02  0.83869545764E+02  0.41800000000E+01 0.  1.
</event>
<event>
11    1  0.8328696E-009  0.2081680E+03  0.7561462E-02  0.1048893E+00
         22   -1    0    0    0    0  0.00000000000E+00  0.00000000000E+00  0.61670311624E+02  0.61670311624E+02  0.00000000000E+00 0. -1.
         22   -1    0    0    0    0 -0.00000000000E+00 -0.00000000000E+00 -0.30147104328E+04  0.30147104328E+04  0.00000000000E+00 0. -1.
        -24    2    1    2    0    0  0.63373357420E+02  0.15012136107E+03 -0.15214070000E+04  0.15318031457E+04  0.72034798217E+02 0.  0.
         25    2    1    2    0    0 -0.33394786011E+02 -0.17055412613E+03 -0.14400174225E+04  0.14558513388E+04  0.12509605116E+03 0.  0.
         24    2    1    2    0    0 -0.29978571408E+02  0.20432765065E+02  0.83843013403E+01  0.88726259835E+02  0.80534713283E+02 0.  0.
        -13    1    5    5    0    0 -0.30976267236E+02 -0.21747013290E+02 -0.14735711334E+02  0.40615303857E+02  0.00000000000E+00 0.  1.
         14    1    5    5    0    0  0.99769582739E+00  0.42179778355E+02  0.23120012674E+02  0.48110955978E+02  0.00000000000E+00 0. -1.
         13    1    3    3    0    0  0.75876193270E+02  0.14015760989E+03 -0.14435545986E+04  0.14523261450E+04  0.00000000000E+00 0. -1.
        -14    1    3    3    0    0 -0.12502835851E+02  0.99637511814E+01 -0.77852401418E+02  0.79477000752E+02  0.00000000000E+00 0.  1.
          5    1    4    4  501    0 -0.60966988359E+02 -0.17181226314E+03 -0.13252611030E+04  0.13377484408E+04  0.41800000000E+01 0.  1.
         -5    1    4    4    0  501  0.27572202348E+02  0.12581370047E+01 -0.11475631951E+03  0.11810289801E+03  0.41800000000E+01 0.  1.
</event>
<event>
11    1  0.8328696E-009  0.1695724E+03  0.7561462E-02  0.1078404E+00
         22   -1    0    0    0    0  0.00000000000E+00  0.00000000000E+00  0.39017611874E+03  0.39017611874E+03  0.00000000000E+00 0. -1.
         22   -1    0    0    0    0 -0.00000000000E+00 -0.00000000000E+00 -0.10276197078E+04  0.10276197078E+04  0.00000000000E+00 0.  1.
         24    2    1    2    0    0  0.81815271601E+02 -0.80465683787E+02 -0.96080705416E+03  0.97163221590E+03  0.88036939454E+02 0.  0.
         25    2    1    2    0    0 -0.47963124458E+02  0.10427581123E+03  0.81988901615E+02  0.18853535483E+03  0.12509793730E+03 0.  0.
        -24    2    1    2    0    0 -0.33852147143E+02 -0.23810127447E+02  0.24137456349E+03  0.25762825581E+03  0.79985925364E+02 0.  0.
        -11    1    3    3    0    0 -0.15775062762E+01 -0.48845374394E+02 -0.21349274024E+03  0.21901486082E+03  0.00000000000E+00 0.  1.
         12    1    3    3    0    0  0.83392777877E+02 -0.31620309393E+02 -0.74731431392E+03  0.75261735508E+03  0.00000000000E+00 0. -1.
         11    1    5    5    0    0 -0.47958156727E+02  0.62381702018E+01  0.19295045819E+03  0.19891902594E+03  0.00000000000E+00 0. -1.
        -12    1    5    5    0    0  0.14106009584E+02 -0.30048297649E+02  0.48424105291E+02  0.58709229864E+02  0.00000000000E+00 0.  1.
          5    1    4    4  501    0 -0.40108556503E+02  0.10460737007E+03  0.62608359196E+01  0.11228565645E+03  0.41800000000E+01 0. -1.
         -5    1    4    4    0  501 -0.78545679552E+01 -0.33155883891E+00  0.75728065695E+02  0.76249698379E+02  0.41800000000E+01 0. -1.
</event>
<event>
11    1  0.8328696E-009  0.1414177E+03  0.7561462E-02  0.1105986E+00
         22   -1    0    0    0    0  0.00000000000E+00  0.00000000000E+00  0.58698253640E+03  0.58698253640E+03  0.00000000000E+00 0.  1.
         22   -1    0    0    0    0 -0.00000000000E+00 -0.00000000000E+00 -0.94444996191E+03  0.94444996191E+03  0.00000000000E+00 0.  1.
        -24    2    1    2    0    0  0.40871332244E+02  0.14950488593E+00 -0.86169298651E+03  0.86698639371E+03  0.86487662278E+02 0.  0.
         25    2    1    2    0    0  0.26619774956E+02  0.11251694192E+02 -0.20391223827E+02  0.12999087787E+03  0.12508642324E+03 0.  0.
         24    2    1    2    0    0 -0.67491107201E+02 -0.11401199078E+02  0.52461678483E+03  0.53445522673E+03  0.75727019998E+02 0.  0.
        -11    1    5    5    0    0 -0.26980616671E+02 -0.30875309450E+02  0.39781634412E+03  0.39992384532E+03  0.00000000000E+00 0.  1.
         12    1    5    5    0    0 -0.40510490530E+02  0.19474110373E+02  0.12680044071E+03  0.13453138141E+03  0.00000000000E+00 0. -1.
         13    1    3    3    0    0 -0.15455943524E+02 -0.18405903121E+02 -0.94639157874E+02  0.97643400510E+02  0.00000000000E+00 0. -1.
        -14    1    3    3    0    0  0.56327275768E+02  0.18555408007E+02 -0.76705382864E+03  0.76934299320E+03  0.00000000000E+00 0.  1.
          5    1    4    4  501    0 -0.45256713438E+01 -0.12584193213E+02 -0.67277557727E+02  0.68721072413E+02  0.41800000000E+01 0.  1.
         -5    1    4    4    0  501  0.31145446300E+02  0.23835887405E+02  0.46886333899E+02  0.61269805452E+02  0.41800000000E+01 0.  1.
</event>
<event>
11    1  0.8328696E-009  0.1488607E+03  0.7561462E-02  0.1098049E+00
         22   -1    0    0    0    0  0.00000000000E+00  0.00000000000E+00  0.39731445991E+03  0.39731445991E+03  0.00000000000E+00 0.  1.
         22   -1    0    0    0    0 -0.00000000000E+00 -0.00000000000E+00 -0.48938157531E+03  0.48938157531E+03  0.00000000000E+00 0.  1.
        -24    2    1    2    0    0 -0.39270454897E+01  0.30452788428E+02 -0.40343818934E+03  0.41485259186E+03  0.91637908874E+02 0.  0.
         25    2    1    2    0    0 -0.71343529423E+02 -0.56803463456E+02  0.16633085283E+02  0.15569408263E+03  0.12508978850E+03 0.  0.
         24    2    1    2    0    0  0.75270574913E+02  0.26350675029E+02  0.29473798866E+03  0.31614936073E+03  0.81975110923E+02 0.  0.
        -11    1    5    5    0    0  0.72917560996E+02  0.14456933981E+02  0.29479687840E+03  0.30402495483E+03  0.00000000000E+00 0.  1.
         12    1    5    5    0    0  0.23530139167E+01  0.11893741047E+02 -0.58889742341E-01  0.12124405907E+02  0.00000000000E+00 0. -1.
         13    1    3    3    0    0 -0.45984292380E+02  0.16355488339E+02 -0.15555390838E+03  0.16303090369E+03  0.00000000000E+00 0. -1.
        -14    1    3    3    0    0  0.42057246891E+02  0.14097300088E+02 -0.24788428096E+03  0.25182168817E+03  0.00000000000E+00 0.  1.
          5    1    4    4  501    0 -0.93254203725E+02 -0.26801949982E+01  0.24709560810E+02  0.96600024602E+02  0.41800000000E+01 0.  1.
         -5    1    4    4    0  501  0.21910674302E+02 -0.54123268458E+02 -0.80764755269E+01  0.59094058025E+02  0.41800000000E+01 0.  1.
</event>
<event>
11    1  0.8328696E-009  0.1967572E+03  0.7561462E-02  0.1056841E+00
         22   -1    0    0    0    0  0.00000000000E+00  0.00000000000E+00  0.13018851624E+04  0.13018851624E+04  0.00000000000E+00 0. -1.
         22   -1    0    0    0    0 -0.00000000000E+00 -0.00000000000E+00 -0.83238785115E+03  0.83238785115E+03  0.00000000000E+00 0. -1.
         24    2    1    2    0    0  0.16386158975E+02 -0.51981337203E+02 -0.73302570352E+03  0.73879233794E+03  0.74275641770E+02 0.  0.
         25    2    1    2    0    0 -0.51211888808E+02  0.19618751146E+03  0.67024097255E+02  0.24749334616E+03  0.12509408289E+03 0.  0.
        -24    2    1    2    0    0  0.34825729833E+02 -0.14420617426E+03  0.11354989175E+04  0.11479873294E+04  0.80677535598E+02 0.  0.
        -11    1    3    3    0    0 -0.19538468401E+02 -0.11626159643E+01 -0.65237998301E+02  0.68110937782E+02  0.00000000000E+00 0.  1.
         12    1    3    3    0    0  0.35924627376E+02 -0.50818721238E+02 -0.66778770522E+03  0.67068140016E+03  0.00000000000E+00 0. -1.
         13    1    5    5    0    0  0.37447229431E+02 -0.80189155492E+02  0.88539092857E+03  0.88980317601E+03  0.00000000000E+00 0. -1.
        -14    1    5    5    0    0 -0.26214995978E+01 -0.64017018763E+02  0.25010798892E+03  0.25818415341E+03  0.00000000000E+00 0.  1.
          5    1    4    4  501    0 -0.65898834136E+02  0.65657372637E+02  0.69263999138E+02  0.11605395684E+03  0.41800000000E+01 0. -1.
         -5    1    4    4    0  501  0.14686945328E+02  0.13053013882E+03 -0.22399018832E+01  0.13143938932E+03  0.41800000000E+01 0. -1.
</event>
<event>
11    1  0.8328696E-009  0.1534577E+03  0.7561462E-02  0.1093397E+00
         22   -1    0    0    0    0  0.00000000000E+00  0.00000000000E+00  0.67648551232E+03  0.67648551232E+03  0.00000000000E+00 0. -1.
         22   -1    0    0    0    0 -0.00000000000E+00 -0.00000000000E+00 -0.86190212021E+02  0.86190212021E+02  0.00000000000E+00 0. -1.
        -24    2    1    2    0    0 -0.80414320063E+02 -0.15265269207E+02  0.94091976458E+02  0.14834838929E+03  0.80339611992E+02 0.  0.
         25    2    1    2    0    0  0.95141525419E+02 -0.46220945402E+02  0.72470955151E+02  0.17912656780E+03  0.12508398099E+03 0.  0.
         24    2    1    2    0    0 -0.14727205356E+02  0.61486214609E+02  0.42373236869E+03  0.43520076725E+03  0.76505832290E+02 0.  0.
        -11    1    5    5    0    0  0.51717416606E+01  0.62814772515E+02  0.18117644712E+03  0.19182634738E+03  0.00000000000E+00 0.  1.
         12    1    5    5    0    0 -0.19898947017E+02 -0.13285579062E+01  0.24255592157E+03  0.24337441987E+03  0.00000000000E+00 0. -1.
         13    1    3    3    0    0 -0.67988126561E+02  0.23922533873E+02  0.71115573617E+02  0.10125264338E+03  0.00000000000E+00 0. -1.
        -14    1    3    3    0    0 -0.12426193502E+02 -0.39187803080E+02  0.22976402841E+02  0.47095745909E+02  0.00000000000E+00 0.  1.
          5    1    4    4  501    0  0.11669379995E+03 -0.21966683223E+02  0.82798342367E+02  0.14482063395E+03  0.41800000000E+01 0. -1.
         -5    1    4    4    0  501 -0.21552274528E+02 -0.24254262178E+02 -0.10327387215E+02  0.34305933858E+02  0.41800000000E+01 0. -1.
</event>
<event>
11    1  0.8328696E-009  0.1254087E+03  0.7561462E-02  0.1125042E+00
         22   -1    0    0    0    0  0.00000000000E+00  0.00000000000E+00  0.47325184021E+02  0.47325184021E+02  0.00000000000E+00 0. -1.
         22   -1    0    0    0    0 -0.00000000000E+00 -0.00000000000E+00 -0.13408745255E+04  0.13408745255E+04  0.00000000000E+00 0.  1.
         24    2    1    2    0    0 -0.88406323129E+01  0.48123156442E+01 -0.91062306799E+03  0.91429448314E+03  0.81232473665E+02 0.  0.
         25    2    1    2    0    0  0.26653587676E+01 -0.65991411244E+01 -0.38234028746E+03  0.40233575840E+03  0.12505724399E+03 0.  0.
        -24    2    1    2    0    0  0.61752735453E+01  0.17868254802E+01 -0.58598599980E+00  0.71569467951E+02  0.71277756800E+02 0.  0.
        -11    1    3    3    0    0  0.45163818161E+01 -0.35444649383E+02 -0.55538700607E+03  0.55653521667E+03  0.00000000000E+00 0.  1.
         12    1    3    3    0    0 -0.13357014129E+02  0.40256965028E+02 -0.35523606192E+03  0.35775926647E+03  0.00000000000E+00 0. -1.
         11    1    5    5    0    0 -0.21258029520E+02  0.88576625978E+01  0.24575091853E+02  0.33679328160E+02  0.00000000000E+00 0. -1.
        -12    1    5    5    0    0  0.27433303065E+02 -0.70708371176E+01 -0.25161077853E+02  0.37890139790E+02  0.00000000000E+00 0.  1.
          5    1    4    4  501    0  0.50936587629E+02  0.31727866099E+02 -0.14271281078E+03  0.15487289048E+03  0.41800000000E+01 0. -1.
         -5    1    4    4    0  501 -0.48271228861E+02 -0.38327007223E+02 -0.23962747668E+03  0.24746286792E+03  0.41800000000E+01 0. -1.
</event>
<event>
11    1  0.8328696E-009  0.1502713E+03  0.7561462E-02  0.1096602E+00
         22   -1    0    0    0    0  0.00000000000E+00  0.00000000000E+00  0.40051849004E+03  0.40051849004E+03  0.00000000000E+00 0. -1.
         22   -1    0    0    0    0 -0.00000000000E+00 -0.00000000000E+00 -0.65159842099E+03  0.65159842099E+03  0.00000000000E+00 0.  1.
        -24    2    1    2    0    0  0.41039309804E+01 -0.25568866578E+02 -0.54602297672E+03  0.55264503467E+03  0.81270130150E+02 0.  0.
         25    2    1    2    0    0 -0.33072028495E+02 -0.54865453868E+02 -0.38620276096E+02  0.14575169128E+03  0.12509217676E+03 0.  0.
         24    2    1    2    0    0  0.28968097515E+02  0.80434320445E+02  0.33356332187E+03  0.35372018508E+03  0.80899005299E+02 0.  0.
        -13    1    5    5    0    0 -0.17671347875E+02  0.59111669789E+02  0.13154941026E+03  0.14529870399E+03  0.00000000000E+00 0.  1.
         14    1    5    5    0    0  0.46639445390E+02  0.21322650656E+02  0.20201391161E+03  0.20842148109E+03  0.00000000000E+00 0. -1.
         13    1    3    3    0    0 -0.31423622129E+02 -0.38564911754E+01 -0.10521474830E+03  0.10987474601E+03  0.00000000000E+00 0. -1.
        -14    1    3    3    0    0  0.35527553110E+02 -0.21712375402E+02 -0.44080822842E+03  0.44277028866E+03  0.00000000000E+00 0.  1.
          5    1    4    4  501    0 -0.34616241890E+02 -0.87263336090E+02  0.15101371624E+01  0.93983652527E+02  0.41800000000E+01 0. -1.
         -5    1    4    4    0  501  0.15442133941E+01  0.32397882222E+02 -0.40130413259E+02  0.51768038748E+02  0.41800000000E+01 0. -1.
</event>
<event>
11    1  0.8328696E-009  0.1430601E+03  0.7561462E-02  0.1104189E+00
         22   -1    0    0    0    0  0.00000000000E+00  0.00000000000E+00  0.17537061439E+04  0.17537061439E+04  0.00000000000E+00 0. -1.
         22   -1    0    0    0    0 -0.00000000000E+00 -0.00000000000E+00 -0.64614248250E+03  0.64614248250E+03  0.00000000000E+00 0. -1.
         24    2    1    2    0    0  0.53598943090E+01  0.73003295143E+02 -0.39937187227E+03  0.41398848243E+03  0.80810653135E+02 0.  0.
         25    2    1    2    0    0 -0.66915502111E+02 -0.45564043315E+02 -0.21441807830E+03  0.26110639045E+03  0.12509064060E+03 0.  0.
        -24    2    1    2    0    0  0.61555607802E+02 -0.27439251827E+02  0.17213536119E+04  0.17247537535E+04  0.84706832557E+02 0.  0.
        -13    1    3    3    0    0 -0.17560434359E+02 -0.84083772574E+01 -0.36256311419E+02  0.41153247511E+02  0.00000000000E+00 0.  1.
         14    1    3    3    0    0  0.22920328668E+02  0.81411672400E+02 -0.36311556085E+03  0.37283523492E+03  0.00000000000E+00 0. -1.
         13    1    5    5    0    0  0.57725089976E+02  0.18570377015E+02  0.11130800646E+04  0.11147305841E+04  0.00000000000E+00 0. -1.
        -14    1    5    5    0    0  0.38305178256E+01 -0.46009628843E+02  0.60827354731E+03  0.61002316937E+03  0.00000000000E+00 0.  1.
          5    1    4    4  501    0  0.15145928563E+01 -0.14903554181E+02  0.13834969585E+02  0.20815587961E+02  0.41800000000E+01 0.  1.
         -5    1    4    4    0  501 -0.68430094967E+02 -0.30660489134E+02 -0.22825304789E+03  0.24029080249E+03  0.41800000000E+01 0.  1.
</event>
<event>
11    1  0.8328696E-009  0.1776783E+03  0.7561462E-02  0.1071536E+00
         22   -1    0    0    0    0  0.00000000000E+00  0.00000000000E+00  0.14254898756E+03  0.14254898756E+03  0.00000000000E+00 0.  1.
         22   -1    0    0    0    0 -0.00000000000E+00 -0.00000000000E+00 -0.29828834071E+04  0.29828834071E+04  0.00000000000E+00 0.  1.
         24    2    1    2    0    0 -0.56236136032E+02 -0.10247723936E+03 -0.17473144473E+04  0.17531028360E+04  0.81226154488E+02 0.  0.
         25    2    1    2    0    0  0.11304761787E+03  0.10995447318E+03 -0.12055531253E+04  0.12222420727E+04  0.12509035306E+03 0.  0.
        -24    2    1    2    0    0 -0.56811481837E+02 -0.74772338174E+01  0.11253315309E+03  0.15008748590E+03  0.81111586018E+02 0.  0.
        -13    1    3    3    0    0 -0.18895489236E+02 -0.20591198894E+01 -0.71324632785E+03  0.71349954708E+03  0.00000000000E+00 0.  1.
         14    1    3    3    0    0 -0.37340646796E+02 -0.10041811947E+03 -0.10340681195E+04  0.10396032889E+04  0.00000000000E+00 0. -1.
         13    1    5    5    0    0 -0.23412332398E+02  0.11901175855E+02 -0.46804599625E+01  0.26677368695E+02  0.00000000000E+00 0. -1.
        -14    1    5    5    0    0 -0.33399149439E+02 -0.19378409672E+02  0.11721361305E+03  0.12341011720E+03  0.00000000000E+00 0.  1.
          5    1    4    4  501    0  0.13714856060E+03  0.69048910495E+02 -0.91241037125E+03  0.92525004063E+03  0.41800000000E+01 0. -1.
         -5    1    4    4    0  501 -0.24100942733E+02  0.40905562682E+02 -0.29314275403E+03  0.29699203212E+03  0.41800000000E+01 0. -1.
</event>
<event>
11    1  0.8328696E-009  0.1521761E+03  0.7561462E-02  0.1094676E+00
         22   -1    0    0    0    0  0.00000000000E+00  0.00000000000E+00  0.11234184361E+03  0.11234184361E+03  0.00000000000E+00 0.  1.
         22   -1    0    0    0    0 -0.00000000000E+00 -0.00000000000E+00 -0.12385479672E+04  0.12385479672E+04  0.00000000000E+00 0. -1.
        -24    2    1    2    0    0  0.88180540021E+01  0.58127186412E+01 -0.10485640665E+04  0.10516090916E+04  0.79268747035E+02 0.  0.
         25    2    1    2    0    0  0.62676167504E+02  0.47984960589E+02 -0.98719749549E+02  0.17782800804E+03  0.12508538314E+03 0.  0.
         24    2    1    2    0    0 -0.71494221506E+02 -0.53797679230E+02  0.21077692475E+02  0.12145271114E+03  0.79378069543E+02 0.  0.
        -11    1    5    5    0    0 -0.78240455651E+02 -0.54785438379E+02  0.38317376736E+02  0.10291372367E+03  0.00000000000E+00 0.  1.
         12    1    5    5    0    0  0.67462341443E+01  0.98775914885E+00 -0.17239684261E+02  0.18538987477E+02  0.00000000000E+00 0. -1.
         13    1    3    3    0    0 -0.53777730943E+01 -0.20541938668E+02 -0.88946229059E+03  0.88971571756E+03  0.00000000000E+00 0. -1.
        -14    1    3    3    0    0  0.14195827096E+02  0.26354657309E+02 -0.15910177593E+03  0.16189337408E+03  0.00000000000E+00 0.  1.
          5    1    4    4  501    0 -0.24387851011E+02  0.47551283522E+02 -0.12120052716E+02  0.54956891464E+02  0.41800000000E+01 0. -1.
         -5    1    4    4    0  501  0.87064018516E+02  0.43367706681E+00 -0.86599696833E+02  0.12287111657E+03  0.41800000000E+01 0. -1.
</event>
<event>
11    1  0.8328696E-009  0.1652302E+03  0.7561462E-02  0.1082259E+00
         22   -1    0    0    0    0  0.00000000000E+00  0.00000000000E+00  0.16265672892E+03  0.16265672892E+03  0.00000000000E+00 0. -1.
         22   -1    0    0    0    0 -0.00000000000E+00 -0.00000000000E+00 -0.21193532158E+04  0.21193532158E+04  0.00000000000E+00 0. -1.
         24    2    1    2    0    0 -0.97223315371E+02 -0.40937308889E+02 -0.18853180612E+04  0.18899536487E+04  0.79827101717E+02 0.  0.
         25    2    1    2    0    0  0.14841904048E+03  0.59162421854E+02 -0.16248074084E+03  0.25995270002E+03  0.12508801447E+03 0.  0.
        -24    2    1    2    0    0 -0.51195725113E+02 -0.18225112965E+02  0.91102315127E+02  0.13210359601E+03  0.78731005621E+02 0.  0.
        -13    1    3    3    0    0 -0.40894595273E+02  0.14826510443E+02 -0.10452016710E+04  0.10461064604E+04  0.00000000000E+00 0.  1.
         14    1    3    3    0    0 -0.56328720097E+02 -0.55763819331E+02 -0.84011639014E+03  0.84384718832E+03  0.00000000000E+00 0. -1.
         13    1    5    5    0    0 -0.41024752990E+02 -0.62483064073E+01  0.10387298420E+03  0.11185556999E+03  0.00000000000E+00 0. -1.
        -14    1    5    5    0    0 -0.10170972123E+02 -0.11976806558E+02 -0.12770669075E+02  0.20248026024E+02  0.00000000000E+00 0.  1.
          5    1    4    4  501    0  0.16274754572E+03  0.66550804746E+02 -0.16717076240E+03  0.24265059129E+03  0.41800000000E+01 0. -1.
         -5    1    4    4    0  501 -0.14328505238E+02 -0.73883828917E+01  0.46900215615E+01  0.17302108726E+02  0.41800000000E+01 0. -1.
</event>
<event>
11    1  0.8328696E-009  0.1999905E+03  0.7561462E-02  0.1054530E+00
         22   -1    0    0    0    0  0.00000000000E+00  0.00000000000E+00  0.10741683267E+04  0.10741683267E+04  0.00000000000E+00 0. -1.
         22   -1    0    0    0    0 -0.00000000000E+00 -0.00000000000E+00 -0.40840270891E+03  0.40840270891E+03  0.00000000000E+00 0. -1.
        -24    2    1    2    0    0 -0.66645621440E+02  0.13831822633E+03 -0.30943764918E+03  0.35622439541E+03  0.87009140697E+02 0.  0.
         25    2    1    2    0    0  0.13024584391E+03 -0.12892032389E+03  0.96527872225E+02  0.24197106413E+03  0.12509171032E+03 0.  0.
         24    2    1    2    0    0 -0.63600222475E+02 -0.93979024375E+01  0.87867539475E+03  0.88437557608E+03  0.76918147063E+02 0.  0.
        -13    1    5    5    0    0  0.12490623979E+02  0.78242199311E+01  0.52646719785E+02  0.54670935688E+02  0.00000000000E+00 0.  1.
         14    1    5    5    0    0 -0.76090846453E+02 -0.17222122369E+02  0.82602867497E+03  0.82970464039E+03  0.00000000000E+00 0. -1.
         11    1    3    3    0    0 -0.74018637731E+02  0.86640531004E+02 -0.26191918739E+03  0.28563438355E+03  0.00000000000E+00 0. -1.
        -12    1    3    3    0    0  0.73730162906E+01  0.51677695325E+02 -0.47518461784E+02  0.70590011854E+02  0.00000000000E+00 0.  1.
          5    1    4    4  501    0  0.80735307122E+02 -0.56174742089E+02 -0.15284809511E+02  0.99623738469E+02  0.41800000000E+01 0.  1.
         -5    1    4    4    0  501  0.49510536793E+02 -0.72745581803E+02  0.11181268174E+03  0.14234732566E+03  0.41800000000E+01 0.  1.
</event>
<event>
11    1  0.8328696E-009  0.2760303E+03  0.7561462E-02  0.1010879E+00
         22   -1    0    0    0    0  0.00000000000E+00  0.00000000000E+00  0.10099068037E+04  0.10099068037E+04  0.00000000000E+00 0.  1.
         22   -1    0    0    0    0 -0.00000000000E+00 -0.00000000000E+00 -0.18750711028E+03  0.18750711028E+03  0.00000000000E+00 0.  1.
         24    2    1    2    0    0  0.34120742931E+01 -0.13477050826E+02 -0.56252202033E+02  0.10127287223E+03  0.83057879014E+02 0.  0.
         25    2    1    2    0    0 -0.21855636023E+03  0.12893447658E+03  0.14333957142E+03  0.31715110880E+03  0.12509041221E+03 0.  0.
        -24    2    1    2    0    0  0.21514428594E+03 -0.11545742576E+03  0.73531232401E+03  0.77898993294E+03  0.80768934888E+02 0.  0.
        -11    1    3    3    0    0 -0.17022616051E+02 -0.34985954036E+02 -0.14253203208E+01  0.38933507099E+02  0.00000000000E+00 0.  1.
         12    1    3    3    0    0  0.20434690344E+02  0.21508903210E+02 -0.54826881712E+02  0.62339365132E+02  0.00000000000E+00 0. -1.
         13    1    5    5    0    0  0.71265931703E+02 -0.60951229453E+02  0.38718208316E+03  0.39837651903E+03  0.00000000000E+00 0. -1.
        -14    1    5    5    0    0  0.14387835424E+03 -0.54506196304E+02  0.34813024085E+03  0.38061341391E+03  0.00000000000E+00 0.  1.
          5    1    4    4  501    0 -0.20983584377E+03  0.14415583671E+03  0.15263609567E+03  0.29686231942E+03  0.41800000000E+01 0. -1.
         -5    1    4    4    0  501 -0.87205164600E+01 -0.15221360128E+02 -0.92965242465E+01  0.20288789381E+02  0.41800000000E+01 0. -1.
</event>
<event>
11    1  0.8328696E-009  0.1315192E+03  0.7561462E-02  0.1117416E+00
         22   -1    0    0    0    0  0.00000000000E+00  0.00000000000E+00  0.16163276518E+03  0.16163276518E+03  0.00000000000E+00 0.  1.
         22   -1    0    0    0    0 -0.00000000000E+00 -0.00000000000E+00 -0.52271204659E+03  0.52271204659E+03  0.00000000000E+00 0. -1.
         24    2    1    2    0    0  0.33283897037E+02  0.16805455988E+02 -0.43047630733E+03  0.43895154842E+03  0.77319916799E+02 0.  0.
         25    2    1    2    0    0 -0.36917031585E+02  0.26250274471E+02  0.21844934560E+01  0.13305883570E+03  0.12509171681E+03 0.  0.
        -24    2    1    2    0    0  0.36331345475E+01 -0.43055730459E+02  0.67212532463E+02  0.11233442766E+03  0.78958872372E+02 0.  0.
        -11    1    3    3    0    0  0.86625320442E+01  0.22595222411E+02 -0.34346392307E+02  0.42014975922E+02  0.00000000000E+00 0.  1.
         12    1    3    3    0    0  0.24621364993E+02 -0.57897664229E+01 -0.39612991502E+03  0.39693657249E+03  0.00000000000E+00 0. -1.
         11    1    5    5    0    0 -0.99139721739E+01  0.36657163759E+00 -0.15229940863E+02  0.18176146944E+02  0.00000000000E+00 0. -1.
        -12    1    5    5    0    0  0.13547106721E+02 -0.43422302097E+02  0.82442473326E+02  0.94158280719E+02  0.00000000000E+00 0.  1.
          5    1    4    4  501    0 -0.37858951534E+02  0.35496764056E+02  0.57060607703E+02  0.77244454954E+02  0.41800000000E+01 0.  1.
         -5    1    4    4    0  501  0.94191994972E+00 -0.92464895847E+01 -0.54876114247E+02  0.55814380743E+02  0.41800000000E+01 0.  1.
</event>
<event>
11    1  0.8328696E-009  0.1533452E+03  0.7561462E-02  0.1093509E+00
         22   -1    0    0    0    0  0.00000000000E+00  0.00000000000E+00  0.45257440832E+03  0.45257440832E+03  0.00000000000E+00 0. -1.
         22   -1    0    0    0    0 -0.00000000000E+00 -0.00000000000E+00 -0.52959521930E+03  0.52959521930E+03  0.00000000000E+00 0. -1.
        -24    2    1    2    0    0 -0.65602970784E+02 -0.66389394910E+02 -0.41012955464E+03  0.42878832561E+03  0.83317915583E+02 0.  0.
         25    2    1    2    0    0  0.71438661635E+02  0.16963627288E+02 -0.54033618167E+02  0.15478905986E+03  0.12509506039E+03 0.  0.
         24    2    1    2    0    0 -0.58356908507E+01  0.49425767622E+02  0.38714236182E+03  0.39859224215E+03  0.80744073417E+02 0.  0.
        -11    1    5    5    0    0 -0.11641756912E+01 -0.90347343653E+01  0.24198535068E+01  0.94253605282E+01  0.00000000000E+00 0.  1.
         12    1    5    5    0    0 -0.46715151595E+01  0.58460501987E+02  0.38472250832E+03  0.38916688162E+03  0.00000000000E+00 0. -1.
         11    1    3    3    0    0 -0.62369995703E+02 -0.68175460436E+02 -0.21991985455E+03  0.23854276807E+03  0.00000000000E+00 0. -1.
        -12    1    3    3    0    0 -0.32329750811E+01  0.17860655263E+01 -0.19020970008E+03  0.19024555754E+03  0.00000000000E+00 0.  1.
          5    1    4    4  501    0  0.86857884013E+02  0.43027489860E+01 -0.82388644041E+02  0.11986728799E+03  0.41800000000E+01 0.  1.
         -5    1    4    4    0  501 -0.15419222379E+02  0.12660878302E+02  0.28355025875E+02  0.34921771869E+02  0.41800000000E+01 0.  1.
</event>
<event>
11    1  0.8328696E-009  0.1349041E+03  0.7561462E-02  0.1113386E+00
         22   -1    0    0    0    0  0.00000000000E+00  0.00000000000E+00  0.15873690719E+04  0.15873690719E+04  0.00000000000E+00 0.  1.
         22   -1    0    0    0    0 -0.00000000000E+00 -0.00000000000E+00 -0.52309422997E+03  0.52309422997E+03  0.00000000000E+00 0.  1.
         24    2    1    2    0    0 -0.54878974199E+02  0.81211852848E+00 -0.38635467032E+03  0.39772089276E+03  0.76808957252E+02 0.  0.
         25    2    1    2    0    0  0.41401658749E+01  0.56580888583E+01 -0.99261970190E+02  0.15983939117E+03  0.12508611953E+03 0.  0.
        -24    2    1    2    0    0  0.50738808324E+02 -0.64702073867E+01  0.15498914824E+04  0.15529030179E+04  0.82023688859E+02 0.  0.
        -11    1    3    3    0    0 -0.43086927397E+02 -0.33068210849E+02 -0.28685656121E+03  0.29195320959E+03  0.00000000000E+00 0.  1.
         12    1    3    3    0    0 -0.11792046802E+02  0.33880329377E+02 -0.99498109109E+02  0.10576768317E+03  0.00000000000E+00 0. -1.
         11    1    5    5    0    0 -0.12715425981E+02 -0.18624220212E+02  0.16860681813E+03  0.17010820896E+03  0.00000000000E+00 0. -1.
        -12    1    5    5    0    0  0.63454234305E+02  0.12154012825E+02  0.13812846643E+04  0.13827948089E+04  0.00000000000E+00 0.  1.
          5    1    4    4  501    0 -0.45506442902E+02 -0.25667743911E+02 -0.10681383632E+02  0.53490501768E+02  0.41800000000E+01 0.  1.
         -5    1    4    4    0  501  0.49646608777E+02  0.31325832769E+02 -0.88580586557E+02  0.10634888940E+03  0.41800000000E+01 0.  1.
</event>
<event>
11    1  0.8328696E-009  0.1975236E+03  0.7561462E-02  0.1056289E+00
         22   -1    0    0    0    0  0.00000000000E+00  0.00000000000E+00  0.28952959481E+03  0.28952959481E+03  0.00000000000E+00 0. -1.
         22   -1    0    0    0    0 -0.00000000000E+00 -0.00000000000E+00 -0.30482453371E+03  0.30482453371E+03  0.00000000000E+00 0. -1.
         24    2    1    2    0    0 -0.14042308685E+02  0.12692140469E+03 -0.11312862611E+03  0.18623381608E+03  0.74690821432E+02 0.  0.
         25    2    1    2    0    0 -0.14589180488E+03 -0.71087677187E+02  0.78106028859E+02  0.21928650120E+03  0.12509253089E+03 0.  0.
        -24    2    1    2    0    0  0.15993411356E+03 -0.55833727499E+02  0.19727658349E+02  0.18883381124E+03  0.81072202118E+02 0.  0.
        -11    1    3    3    0    0  0.42378348972E+01  0.33278474400E+02 -0.77392216922E+02  0.84350289526E+02  0.00000000000E+00 0.  1.
         12    1    3    3    0    0 -0.18280143582E+02  0.93642930286E+02 -0.35736409190E+02  0.10188352656E+03  0.00000000000E+00 0. -1.
         11    1    5    5    0    0  0.11825908679E+03 -0.68814151323E+02 -0.81090727268E+01  0.13706332876E+03  0.00000000000E+00 0. -1.
        -12    1    5    5    0    0  0.41675026776E+02  0.12980423824E+02  0.27836731075E+02  0.51770482482E+02  0.00000000000E+00 0.  1.
          5    1    4    4  501    0  0.56757851393E+01 -0.38506123559E+02  0.46902624394E+02  0.61092263532E+02  0.41800000000E+01 0.  1.
         -5    1    4    4    0  501 -0.15156759002E+03 -0.32581553629E+02  0.31203404466E+02  0.15819423767E+03  0.41800000000E+01 0.  1.
</event>
<event>
11    1  0.8328696E-009  0.1556653E+03  0.7561462E-02  0.1091227E+00
         22   -1    0    0    0    0  0.00000000000E+00  0.00000000000E+00  0.86636279177E+03  0.86636279177E+03  0.00000000000E+00 0. -1.
         22   -1    0    0    0    0 -0.00000000000E+00 -0.00000000000E+00 -0.92319413460E+03  0.92319413460E+03  0.00000000000E+00 0.  1.
        -24    2    1    2    0    0  0.43495712629E+01 -0.92007779320E+02 -0.88470225523E+03  0.89384148533E+03  0.88148569207E+02 0.  0.
         25    2    1    2    0    0  0.64807345137E+02  0.13874432239E+03  0.34053110901E+03  0.39377576937E+03  0.12509173177E+03 0.  0.
         24    2    1    2    0    0 -0.69156916400E+02 -0.46736543073E+02  0.48733980340E+03  0.50193967168E+03  0.86465984531E+02 0.  0.
        -13    1    5    5    0    0 -0.47436419548E+02 -0.56181633071E+02  0.19115321450E+03  0.20480757116E+03  0.00000000000E+00 0.  1.
         14    1    5    5    0    0 -0.21720496852E+02  0.94450899982E+01  0.29618658890E+03  0.29713210051E+03  0.00000000000E+00 0. -1.
         13    1    3    3    0    0 -0.38032173291E+01 -0.32911541009E+02 -0.75574202075E+02  0.82517234641E+02  0.00000000000E+00 0. -1.
        -14    1    3    3    0    0  0.81527885920E+01 -0.59096238311E+02 -0.80912805316E+03  0.81132425069E+03  0.00000000000E+00 0.  1.
          5    1    4    4  501    0  0.20936976704E+02  0.71784266341E+02  0.28884614361E+03  0.29839722680E+03  0.41800000000E+01 0. -1.
         -5    1    4    4    0  501  0.43870368433E+02  0.66960056051E+02  0.51684965403E+02  0.95378542563E+02  0.41800000000E+01 0. -1.
</event>
<event>
11    1  0.8328696E-009  0.2415877E+03  0.7561462E-02  0.1028478E+00
         22   -1    0    0    0    0  0.00000000000E+00  0.00000000000E+00  0.41712650825E+03  0.41712650825E+03  0.00000000000E+00 0.  1.
         22   -1    0    0    0    0 -0.00000000000E+00 -0.00000000000E+00 -0.61856848865E+03  0.61856848865E+03  0.00000000000E+00 0. -1.
         24    2    1    2    0    0  0.17359088791E+03 -0.11361481484E+03 -0.50164933168E+03  0.54857465657E+03  0.78993539915E+02 0.  0.
         25    2    1    2    0    0 -0.15311035949E+03  0.13294089653E+03  0.80311221293E+02  0.25142245330E+03  0.12508914262E+03 0.  0.
        -24    2    1    2    0    0 -0.20480528417E+02 -0.19326081694E+02  0.21989612998E+03  0.23569788703E+03  0.80038968595E+02 0.  0.
        -11    1    3    3    0    0 -0.27403351555E+01 -0.22909166215E+02 -0.66090021299E+02  0.70001644614E+02  0.00000000000E+00 0.  1.
         12    1    3    3    0    0  0.17633122307E+03 -0.90705648621E+02 -0.43555931038E+03  0.47857301196E+03  0.00000000000E+00 0. -1.
         11    1    5    5    0    0 -0.12429112937E+02  0.30118117730E+02  0.61918666523E+02  0.69967886405E+02  0.00000000000E+00 0. -1.
        -12    1    5    5    0    0 -0.80514154798E+01 -0.49444199424E+02  0.15797746345E+03  0.16573000063E+03  0.00000000000E+00 0.  1.
          5    1    4    4  501    0 -0.53185024729E+02  0.12401456086E+03  0.65055822201E+02  0.14985990312E+03  0.41800000000E+01 0.  1.
         -5    1    4    4    0  501 -0.99925334765E+02  0.89263356647E+01  0.15255399092E+02  0.10156255017E+03  0.41800000000E+01 0.  1.
</event>
<event>
11    1  0.8328696E-009  0.1503580E+03  0.7561462E-02  0.1096514E+00
         22   -1    0    0    0    0  0.00000000000E+00  0.00000000000E+00  0.32577122265E+03  0.32577122265E+03  0.00000000000E+00 0. -1.
         22   -1    0    0    0    0 -0.00000000000E+00 -0.00000000000E+00 -0.50525132926E+03  0.50525132926E+03  0.00000000000E+00 0. -1.
        -24    2    1    2    0    0  0.76678498569E+02  0.31830473391E+02 -0.36640971336E+03  0.38393975834E+03  0.79125778416E+02 0.  0.
         25    2    1    2    0    0 -0.67075612967E+02 -0.59680633254E+02 -0.74988690623E+02  0.17126629842E+03  0.12509166803E+03 0.  0.
         24    2    1    2    0    0 -0.96028856016E+01  0.27850159863E+02  0.26191829737E+03  0.27581649516E+03  0.81275443325E+02 0.  0.
        -13    1    5    5    0    0  0.29851971385E+02  0.14070353258E+02  0.50639113693E+02  0.60443650386E+02  0.00000000000E+00 0.  1.
         14    1    5    5    0    0 -0.39454856986E+02  0.13779806605E+02  0.21127918368E+03  0.21537284477E+03  0.00000000000E+00 0. -1.
         13    1    3    3    0    0  0.48113911453E+02  0.47358151818E+02 -0.32141071555E+03  0.32842440697E+03  0.00000000000E+00 0. -1.
        -14    1    3    3    0    0  0.28564587116E+02 -0.15527678427E+02 -0.44998997808E+02  0.55515351374E+02  0.00000000000E+00 0.  1.
          5    1    4    4  501    0  0.21761746161E+02 -0.60633504944E+02 -0.24903378420E+02  0.69192818807E+02  0.41800000000E+01 0. -1.
         -5    1    4    4    0  501 -0.88837359128E+02  0.95287169006E+00 -0.50085312203E+02  0.10207347961E+03  0.41800000000E+01 0. -1.
</event>
<event>
11    1  0.8328696E-009  0.2349771E+03  0.7561462E-02  0.1032221E+00
         22   -1    0    0    0    0  0.00000000000E+00  0.00000000000E+00  0.48519455008E+03  0.48519455008E+03  0.00000000000E+00 0.  1.
         22   -1    0    0    0    0 -0.00000000000E+00 -0.00000000000E+00 -0.69379525554E+03  0.69379525554E+03  0.00000000000E+00 0. -1.
         24    2    1    2    0    0 -0.10394835140E+03  0.16694851211E+03 -0.58975537574E+03  0.62669563655E+03  0.79113539944E+02 0.  0.
         25    2    1    2    0    0  0.14157006556E+03 -0.17687899405E+03  0.13751130282E+03  0.29306198193E+03  0.12509078643E+03 0.  0.
        -24    2    1    2    0    0 -0.37621714159E+02  0.99304819376E+01  0.24364336746E+03  0.25923218714E+03  0.79531305136E+02 0.  0.
        -11    1    3    3    0    0 -0.25290570517E+02  0.95151783380E+02 -0.20410352165E+03  0.22660918425E+03  0.00000000000E+00 0.  1.
         12    1    3    3    0    0 -0.78657780885E+02  0.71796728735E+02 -0.38565185409E+03  0.40008645230E+03  0.00000000000E+00 0. -1.
         13    1    5    5    0    0 -0.22222207662E+02 -0.66153096585E+01  0.11301899829E+02  0.25793832111E+02  0.00000000000E+00 0. -1.
        -14    1    5    5    0    0 -0.15399506498E+02  0.16545791596E+02  0.23234146763E+03  0.23343835503E+03  0.00000000000E+00 0.  1.
          5    1    4    4  501    0  0.24515492636E+02  0.16850690007E+02  0.29962165279E+02  0.42428279261E+02  0.41800000000E+01 0. -1.
         -5    1    4    4    0  501  0.11705457293E+03 -0.19372968406E+03  0.10754913754E+03  0.25063370267E+03  0.41800000000E+01 0. -1.
</event>
<event>
11    1  0.8328696E-009  0.1342981E+03  0.7561462E-02  0.1114098E+00
         22   -1    0    0    0    0  0.00000000000E+00  0.00000000000E+00  0.14642283531E+03  0.14642283531E+03  0.00000000000E+00 0.  1.
         22   -1    0    0    0    0 -0.00000000000E+00 -0.00000000000E+00 -0.21217226996E+03  0.21217226996E+03  0.00000000000E+00 0.  1.
        -24    2    1    2    0    0  0.36112273279E+02 -0.26089949776E+02 -0.77010602086E+02  0.12035072329E+03  0.81048639729E+02 0.  0.
         25    2    1    2    0    0 -0.43071763861E+02 -0.27110279033E+02 -0.24367672622E+02  0.13722751731E+03  0.12508982360E+03 0.  0.
         24    2    1    2    0    0  0.69594905824E+01  0.53200228810E+02  0.35628840056E+02  0.10101686467E+03  0.77822193809E+02 0.  0.
        -11    1    5    5    0    0 -0.13394057468E+02 -0.72936475529E+01  0.33893938641E+02  0.37167151447E+02  0.00000000000E+00 0.  1.
         12    1    5    5    0    0  0.20353548051E+02  0.60493876363E+02  0.17349014152E+01  0.63849713222E+02  0.00000000000E+00 0. -1.
         13    1    3    3    0    0  0.27069384038E+02 -0.47337868819E+01  0.10802152054E+02  0.29527051655E+02  0.00000000000E+00 0. -1.
        -14    1    3    3    0    0  0.90428892407E+01 -0.21356162894E+02 -0.87812754140E+02  0.90823671634E+02  0.00000000000E+00 0.  1.
          5    1    4    4  501    0  0.18172630259E+02  0.29658710612E+01  0.39433435954E+02  0.43720809151E+02  0.41800000000E+01 0. -1.
         -5    1    4    4    0  501 -0.61244394120E+02 -0.30076150095E+02 -0.63801108576E+02  0.93506708161E+02  0.41800000000E+01 0. -1.
</event>
<event>
11    1  0.8328696E-009  0.1650442E+03  0.7561462E-02  0.1082427E+00
         22   -1    0    0    0    0  0.00000000000E+00  0.00000000000E+00  0.27241102672E+04  0.27241102672E+04  0.00000000000E+00 0.  1.
         22   -1    0    0    0    0 -0.00000000000E+00 -0.00000000000E+00 -0.10731000201E+04  0.10731000201E+04  0.00000000000E+00 0.  1.
        -24    2    1    2    0    0 -0.60876161537E+02 -0.88023132238E+02 -0.10354283416E+04  0.10440731985E+04  0.80765181092E+02 0.  0.
         25    2    1    2    0    0  0.76780053991E+02  0.13213845305E+03  0.26849316182E+03  0.33330479592E+03  0.12509101315E+03 0.  0.
         24    2    1    2    0    0 -0.15903892454E+02 -0.44115320816E+02  0.24179454268E+04  0.24198322928E+04  0.83241474350E+02 0.  0.
        -11    1    5    5    0    0 -0.10617890221E+02 -0.46668696835E+02  0.24064388085E+04  0.24069147151E+04  0.00000000000E+00 0.  1.
         12    1    5    5    0    0 -0.52860022328E+01  0.25533760184E+01  0.11506618338E+02  0.12917577725E+02  0.00000000000E+00 0. -1.
         11    1    3    3    0    0  0.13915766065E+02 -0.31569816244E+01 -0.45057183721E+02  0.47262721917E+02  0.00000000000E+00 0. -1.
        -12    1    3    3    0    0 -0.74791927602E+02 -0.84866150614E+02 -0.99037115786E+03  0.99681047661E+03  0.00000000000E+00 0.  1.
          5    1    4    4  501    0  0.28354394922E+02  0.43694676579E+02  0.21054154050E+03  0.21692950272E+03  0.41800000000E+01 0.  1.
         -5    1    4    4    0  501  0.48425659069E+02  0.88443776476E+02  0.57951621318E+02  0.11637529320E+03  0.41800000000E+01 0.  1.
</event>
<event>
11    1  0.8328696E-009  0.4756829E+03  0.7561462E-02  0.9449563E-01
         22   -1    0    0    0    0  0.00000000000E+00  0.00000000000E+00  0.21642375620E+04  0.21642375620E+04  0.00000000000E+00 0.  1.
         22   -1    0    0    0    0 -0.00000000000E+00 -0.00000000000E+00 -0.84286026488E+03  0.84286026488E+03  0.00000000000E+00 0. -1.
         24    2    1    2    0    0  0.11435556823E+03 -0.44187193744E+03 -0.71688001775E+03  0.85365270730E+03  0.80485897766E+02 0.  0.
         25    2    1    2    0    0 -0.13412718624E+03  0.48577371421E+03  0.11689519294E+04  0.12790864970E+04  0.12508976757E+03 0.  0.
        -24    2    1    2    0    0  0.19771618007E+02 -0.43901776767E+02  0.86930538546E+03  0.87435862261E+03  0.80578315085E+02 0.  0.
        -11    1    3    3    0    0 -0.16347125995E+01 -0.13852097602E+03 -0.20384152292E+03  0.24645912349E+03  0.00000000000E+00 0.  1.
         12    1    3    3    0    0  0.11599028083E+03 -0.30335096143E+03 -0.51303849483E+03  0.60719358381E+03  0.00000000000E+00 0. -1.
         11    1    5    5    0    0 -0.11951524469E+02 -0.82604412424E+01  0.26645276486E+02  0.30348716376E+02  0.00000000000E+00 0. -1.
        -12    1    5    5    0    0  0.31723142476E+02 -0.35641335524E+02  0.84266010897E+03  0.84400990624E+03  0.00000000000E+00 0.  1.
          5    1    4    4  501    0 -0.33100021782E+02  0.26322549959E+03  0.72905196373E+03  0.77583343141E+03  0.41800000000E+01 0. -1.
         -5    1    4    4    0  501 -0.10102716446E+03  0.22254821462E+03  0.43989996570E+03  0.50325306557E+03  0.41800000000E+01 0. -1.
</event>
<event>
11    1  0.8328696E-009  0.1631755E+03  0.7561462E-02  0.1084128E+00
         22   -1    0    0    0    0  0.00000000000E+00  0.00000000000E+00  0.63555262453E+03  0.63555262453E+03  0.00000000000E+00 0. -1.
         22   -1    0    0    0    0 -0.00000000000E+00 -0.00000000000E+00 -0.16844999931E+04  0.16844999931E+04  0.00000000000E+00 0. -1.
        -24    2    1    2    0    0 -0.40626837141E+02 -0.58294505240E+02 -0.14092529119E+04  0.14133452635E+04  0.80636683736E+02 0.  0.
         25    2    1    2    0    0  0.83140943302E+02  0.15203959422E+03 -0.22305700810E+03  0.30891782971E+03  0.12508933602E+03 0.  0.
         24    2    1    2    0    0 -0.42514106160E+02 -0.93745088982E+02  0.58336255144E+03  0.59778952447E+03  0.80279874311E+02 0.  0.
        -11    1    5    5    0    0 -0.25185626807E+02 -0.13191551738E+01  0.47912898290E+02  0.54145191758E+02  0.00000000000E+00 0.  1.
         12    1    5    5    0    0 -0.17328479354E+02 -0.92425933808E+02  0.53544965315E+03  0.54364433271E+03  0.00000000000E+00 0. -1.
         13    1    3    3    0    0  0.19840418011E+02 -0.39272553802E+02 -0.60565246563E+03  0.60724861860E+03  0.00000000000E+00 0. -1.
        -14    1    3    3    0    0 -0.60467255153E+02 -0.19021951438E+02 -0.80360044629E+03  0.80609664487E+03  0.00000000000E+00 0.  1.
          5    1    4    4  501    0  0.63933223572E+02  0.12553335391E+03 -0.23483308184E+03  0.27387977061E+03  0.41800000000E+01 0.  1.
         -5    1    4    4    0  501  0.19207719730E+02  0.26506240310E+02  0.11776073747E+02  0.35038059100E+02  0.41800000000E+01 0.  1.
</event>
<event>
11    1  0.8328696E-009  0.1304778E+03  0.7561462E-02  0.1118683E+00
         22   -1    0    0    0    0  0.00000000000E+00  0.00000000000E+00  0.21986527202E+03  0.21986527202E+03  0.00000000000E+00 0.  1.
         22   -1    0    0    0    0 -0.00000000000E+00 -0.00000000000E+00 -0.28628413934E+03  0.28628413934E+03  0.00000000000E+00 0. -1.
         24    2    1    2    0    0 -0.96134304066E+01  0.41078184536E+02 -0.17143242996E+03  0.19538264740E+03  0.83698659320E+02 0.  0.
         25    2    1    2    0    0  0.34578794577E+01 -0.18583353816E+02 -0.50014501271E+02  0.13603615419E+03  0.12508831656E+03 0.  0.
        -24    2    1    2    0    0  0.61555509489E+01 -0.22494830720E+02  0.15502806391E+03  0.17473060977E+03  0.77156834907E+02 0.  0.
        -11    1    3    3    0    0 -0.26824850216E+02 -0.15171089958E+02 -0.33987290227E+02  0.45878867211E+02  0.00000000000E+00 0.  1.
         12    1    3    3    0    0  0.17211419809E+02  0.56249274493E+02 -0.13744513974E+03  0.14950378019E+03  0.00000000000E+00 0. -1.
         11    1    5    5    0    0  0.15220879095E+02 -0.11687729407E+02  0.12940999201E+00  0.19191011596E+02  0.00000000000E+00 0. -1.
        -12    1    5    5    0    0 -0.90653281463E+01 -0.10807101313E+02  0.15489865392E+03  0.15553959817E+03  0.00000000000E+00 0.  1.
          5    1    4    4  501    0  0.62315788500E+02 -0.26303660248E+00 -0.37957119551E+02  0.73085853688E+02  0.41800000000E+01 0. -1.
         -5    1    4    4    0  501 -0.58857909043E+02 -0.18320317214E+02 -0.12057381720E+02  0.62950300505E+02  0.41800000000E+01 0. -1.
</event>
<event>
11    1  0.8328696E-009  0.1415733E+03  0.7561462E-02  0.1105814E+00
         22   -1    0    0    0    0  0.00000000000E+00  0.00000000000E+00  0.88647761736E+03  0.88647761736E+03  0.00000000000E+00 0. -1.
         22   -1    0    0    0    0 -0.00000000000E+00 -0.00000000000E+00 -0.92697329325E+03  0.92697329325E+03  0.00000000000E+00 0. -1.
        -24    2    1    2    0    0  0.35508233057E+02 -0.33278062803E+01 -0.89777360014E+03  0.90225376700E+03  0.82416709763E+02 0.  0.
         25    2    1    2    0    0 -0.20851214045E+02  0.68469777101E+02  0.20416886645E+03  0.24991067383E+03  0.12509010897E+03 0.  0.
         24    2    1    2    0    0 -0.14657019011E+02 -0.65141970821E+02  0.65310905780E+03  0.66128646978E+03  0.79309830169E+02 0.  0.
        -11    1    5    5    0    0 -0.39658098376E+02 -0.81630658050E+01  0.21479088069E+03  0.21857383841E+03  0.00000000000E+00 0.  1.
         12    1    5    5    0    0  0.25001079365E+02 -0.56978905016E+02  0.43831817711E+03  0.44271263137E+03  0.00000000000E+00 0. -1.
         13    1    3    3    0    0  0.51560838184E+02 -0.78887268228E+01 -0.85091584752E+03  0.85251306829E+03  0.00000000000E+00 0. -1.
        -14    1    3    3    0    0 -0.16052605127E+02  0.45609205426E+01 -0.46857752624E+02  0.49740698714E+02  0.00000000000E+00 0.  1.
          5    1    4    4  501    0 -0.55161354371E+02  0.42146997745E+02  0.19286139881E+03  0.20501740410E+03  0.41800000000E+01 0. -1.
         -5    1    4    4    0  501  0.34310140326E+02  0.26322779356E+02  0.11307467641E+02  0.44893269726E+02  0.41800000000E+01 0. -1.
</event>
<event>
11    1  0.8328696E-009  0.1669356E+03  0.7561462E-02  0.1080730E+00
         22   -1    0    0    0    0  0.00000000000E+00  0.00000000000E+00  0.90736709572E+03  0.90736709572E+03  0.00000000000E+00 0.  1.
         22   -1    0    0    0    0 -0.00000000000E+00 -0.00000000000E+00 -0.40662724363E+03  0.40662724363E+03  0.00000000000E+00 0. -1.
         24    2    1    2    0    0  0.89373254215E+02 -0.46968718120E+02 -0.24904918771E+03  0.28043269645E+03  0.80145868819E+02 0.  0.
         25    2    1    2    0    0 -0.14007792552E+03  0.63711518290E+02 -0.68325760986E+02  0.20975625478E+03  0.12509314140E+03 0.  0.
        -24    2    1    2    0    0  0.50704671304E+02 -0.16742800170E+02  0.81811480079E+03  0.82380538813E+03  0.80574221625E+02 0.  0.
        -13    1    3    3    0    0  0.25268068936E+02 -0.40839603823E+00 -0.15682809182E+03  0.15885116455E+03  0.00000000000E+00 0.  1.
         14    1    3    3    0    0  0.64105185279E+02 -0.46560322081E+02 -0.92221095888E+02  0.12158153190E+03  0.00000000000E+00 0. -1.
         13    1    5    5    0    0  0.50154781528E+02  0.23229788456E+02  0.40357832476E+03  0.40734578603E+03  0.00000000000E+00 0. -1.
        -14    1    5    5    0    0  0.54988977597E+00 -0.39972588626E+02  0.41453647603E+03  0.41645960210E+03  0.00000000000E+00 0.  1.
          5    1    4    4  501    0 -0.98037919571E+01 -0.25837145622E+01 -0.62450439837E+02  0.63405991464E+02  0.41800000000E+01 0. -1.
         -5    1    4    4    0  501 -0.13027413356E+03  0.66295232852E+02 -0.58753211485E+01  0.14635026332E+03  0.41800000000E+01 0. -1.
</event>
<event>
11    1  0.8328696E-009  0.1511389E+03  0.7561462E-02  0.1095721E+00
         22   -1    0    0    0    0  0.00000000000E+00  0.00000000000E+00  0.83841235242E+03  0.83841235242E+03  0.00000000000E+00 0.  1.
         22   -1    0    0    0    0 -0.00000000000E+00 -0.00000000000E+00 -0.95281903010E+02  0.95281903010E+02  0.00000000000E+00 0. -1.
         24    2    1    2    0    0  0.79744516742E+02 -0.22465028635E+02 -0.24647072410E+02  0.11928320491E+03  0.82201820736E+02 0.  0.
         25    2    1    2    0    0 -0.95116068996E+02  0.24071635769E+02  0.29674086239E+03  0.33664318444E+03  0.12508790505E+03 0.  0.
        -24    2    1    2    0    0  0.15371552255E+02 -0.16066071335E+01  0.47103665944E+03  0.47776786609E+03  0.78407483884E+02 0.  0.
        -13    1    3    3    0    0  0.13000713777E+01 -0.19371288849E+02  0.20896369854E+02  0.28523591820E+02  0.00000000000E+00 0.  1.
         14    1    3    3    0    0  0.78444445364E+02 -0.30937397862E+01 -0.45543442263E+02  0.90759613086E+02  0.00000000000E+00 0. -1.
         13    1    5    5    0    0  0.34559808581E+01 -0.41953025052E+01 -0.10397329969E+01  0.55340230851E+01  0.00000000000E+00 0. -1.
        -14    1    5    5    0    0  0.11915571397E+02  0.25886953717E+01  0.47207639243E+03  0.47223384300E+03  0.00000000000E+00 0.  1.
          5    1    4    4  501    0  0.18127475234E+02  0.30789742413E+02  0.30323984328E+02  0.47049229768E+02  0.41800000000E+01 0.  1.
         -5    1    4    4    0  501 -0.11324354423E+03 -0.67181066440E+01  0.26641687806E+03  0.28959395467E+03  0.41800000000E+01 0.  1.
</event>
<event>
11    1  0.8328696E-009  0.1435365E+03  0.7561462E-02  0.1103672E+00
         22   -1    0    0    0    0  0.00000000000E+00  0.00000000000E+00  0.65382337802E+03  0.65382337802E+03  0.00000000000E+00 0.  1.
         22   -1    0    0    0    0 -0.00000000000E+00 -0.00000000000E+00 -0.56285983223E+03  0.56285983223E+03  0.00000000000E+00 0.  1.
         24    2    1    2    0    0  0.58348095775E+01 -0.51104821513E+02 -0.42143370833E+03  0.43228176136E+03  0.81335127118E+02 0.  0.
         25    2    1    2    0    0 -0.75466944385E+02  0.58198499010E+02 -0.84341613923E+02  0.17845026194E+03  0.12509461685E+03 0.  0.
        -24    2    1    2    0    0  0.69632134808E+02 -0.70936774977E+01  0.59673886804E+03  0.60595118696E+03  0.78616855019E+02 0.  0.
        -11    1    3    3    0    0  0.32049287572E+01 -0.46658887445E+02 -0.42395981305E+03  0.42653164762E+03  0.00000000000E+00 0.  1.
         12    1    3    3    0    0  0.26298808203E+01 -0.44459340681E+01  0.25261047215E+01  0.57501137320E+01  0.00000000000E+00 0. -1.
         13    1    5    5    0    0  0.69204916174E+02  0.65356142489E+01  0.26604557678E+03  0.27497687831E+03  0.00000000000E+00 0. -1.
        -14    1    5    5    0    0  0.42721863388E+00 -0.13629291747E+02  0.33069329125E+03  0.33097430865E+03  0.00000000000E+00 0.  1.
          5    1    4    4  501    0 -0.95724940727E+02  0.11049554494E+02 -0.24512393224E+02  0.99517268618E+02  0.41800000000E+01 0. -1.
         -5    1    4    4    0  501  0.20257996341E+02  0.47148944516E+02 -0.59829220699E+02  0.78932993319E+02  0.41800000000E+01 0. -1.
</event>
<event>
11    1  0.8328696E-009  0.1998950E+04  0.7561462E-02  0.8067411E-01
         22   -1    0    0    0    0  0.00000000000E+00  0.00000000000E+00  0.95879084651E+03  0.95879084651E+03  0.00000000000E+00 0. -1.
         22   -1    0    0    0    0 -0.00000000000E+00 -0.00000000000E+00 -0.10418859843E+04  0.10418859843E+04  0.00000000000E+00 0. -1.
         24    2    1    2    0    0  0.10907842985E+03  0.19598453311E+02 -0.88649551797E+02  0.16367014802E+03  0.81528958589E+02 0.  0.
         25    2    1    2    0    0 -0.95336455606E+03 -0.16672602615E+03 -0.53527733227E+01  0.97589761518E+03  0.12508380619E+03 0.  0.
        -24    2    1    2    0    0  0.84428612622E+03  0.14712757284E+03  0.10907187373E+02  0.86110906757E+03  0.83212222118E+02 0.  0.
        -11    1    3    3    0    0  0.11220127556E+03  0.34186104102E+02 -0.60891908551E+02  0.13215763496E+03  0.00000000000E+00 0.  1.
         12    1    3    3    0    0 -0.31228457099E+01 -0.14587650792E+02 -0.27757643246E+02  0.31512513063E+02  0.00000000000E+00 0. -1.
         13    1    5    5    0    0  0.29725842669E+03  0.92361243203E+02  0.33301535658E+01  0.31129449306E+03  0.00000000000E+00 0. -1.
        -14    1    5    5    0    0  0.54702769952E+03  0.54766329640E+02  0.75770338069E+01  0.54981457451E+03  0.00000000000E+00 0.  1.
          5    1    4    4  501    0 -0.65723640654E+03 -0.12311827272E+03 -0.60853851442E+02  0.67144505866E+03  0.41800000000E+01 0. -1.
         -5    1    4    4    0  501 -0.29612814952E+03 -0.43607753434E+02  0.55501078119E+02  0.30445255652E+03  0.41800000000E+01 0. -1.
</event>
<event>
11    1  0.8328696E-009  0.1322449E+03  0.7561462E-02  0.1116541E+00
         22   -1    0    0    0    0  0.00000000000E+00  0.00000000000E+00  0.28779587801E+03  0.28779587801E+03  0.00000000000E+00 0.  1.
         22   -1    0    0    0    0 -0.00000000000E+00 -0.00000000000E+00 -0.69479009067E+03  0.69479009067E+03  0.00000000000E+00 0. -1.
         24    2    1    2    0    0  0.25040927041E+02 -0.35822382044E+02 -0.62005415094E+03  0.62683791606E+03  0.80921763657E+02 0.  0.
         25    2    1    2    0    0  0.17762897648E+02  0.42982039171E+02  0.10030136857E+02  0.13383424952E+03  0.12509207199E+03 0.  0.
        -24    2    1    2    0    0 -0.42803824689E+02 -0.71596571276E+01  0.20302980142E+03  0.22191380309E+03  0.78365857617E+02 0.  0.
        -13    1    3    3    0    0 -0.24752062036E+02 -0.30535932983E+02 -0.20141152804E+03  0.20521138225E+03  0.00000000000E+00 0.  1.
         14    1    3    3    0    0  0.49792989077E+02 -0.52864490613E+01 -0.41864262290E+03  0.42162653381E+03  0.00000000000E+00 0. -1.
         11    1    5    5    0    0  0.12497875995E+02 -0.26482872872E+02  0.89377291295E+02  0.94052324050E+02  0.00000000000E+00 0. -1.
        -12    1    5    5    0    0 -0.55301700684E+02  0.19323215744E+02  0.11365251012E+03  0.12786147904E+03  0.00000000000E+00 0.  1.
          5    1    4    4  501    0  0.42779873964E+02  0.46968270719E+01 -0.44832961219E+02  0.62286793244E+02  0.41800000000E+01 0. -1.
         -5    1    4    4    0  501 -0.25016976316E+02  0.38285212100E+02  0.54863098076E+02  0.71547456279E+02  0.41800000000E+01 0. -1.
</event>
<event>
11    1  0.9436404E-009  0.1996542E+03  0.7561462E-02  0.1054768E+00
         22   -1    0    0    0    0  0.00000000000E+00  0.00000000000E+00  0.10944529717E+04  0.10944529717E+04  0.00000000000E+00 0.  1.
         22   -1    0    0    0    0 -0.00000000000E+00 -0.00000000000E+00 -0.66756053722E+03  0.66756053722E+03  0.00000000000E+00 0. -1.
        -24    2    1    2    0    0 -0.12980880719E+01 -0.88470608277E+01 -0.43021310199E+03  0.43786768583E+03  0.81023710434E+02 0.  0.
         25    2    1    2    0    0 -0.93626731013E+02  0.13192249092E+03 -0.18003196641E+03  0.27244122939E+03  0.12507280348E+03 0.  0.
         24    2    1    2    0    0  0.94924819084E+02 -0.12307543009E+03  0.10371375029E+04  0.10517045937E+04  0.79183771880E+02 0.  0.
        -11    1    5    5    0    0  0.28955677994E+01 -0.66094529131E+02  0.38285311676E+03  0.38852719352E+03  0.00000000000E+00 0.  1.
         12    1    5    5    0    0  0.92029251285E+02 -0.56980900961E+02  0.65428438616E+03  0.66317740021E+03  0.00000000000E+00 0. -1.
         13    1    3    3    0    0  0.21255745004E+02 -0.35568887715E+02 -0.30717499133E+03  0.30995713859E+03  0.00000000000E+00 0. -1.
        -14    1    3    3    0    0 -0.22553833075E+02  0.26721826888E+02 -0.12303811067E+03  0.12791054724E+03  0.00000000000E+00 0.  1.
          5    1    4    4  501    0 -0.35746297083E+02 -0.19126677890E+02 -0.52200916668E+02  0.66227152009E+02  0.41800000000E+01 0.  1.
         -5    1    4    4    0  501 -0.57880433930E+02  0.15104916881E+03 -0.12783104974E+03  0.20621407738E+03  0.41800000000E+01 0.  1.
</event>
<event>
11    1  0.8328696E-009  0.2615572E+03  0.7561462E-02  0.1017916E+00
         22   -1    0    0    0    0  0.00000000000E+00  0.00000000000E+00  0.11289219409E+04  0.11289219409E+04  0.00000000000E+00 0. -1.
         22   -1    0    0    0    0 -0.00000000000E+00 -0.00000000000E+00 -0.72544067216E+03  0.72544067216E+03  0.00000000000E+00 0. -1.
        -24    2    1    2    0    0  0.13768385360E+03  0.18345362477E+03 -0.67113973140E+03  0.71361403711E+03  0.78767879948E+02 0.  0.
         25    2    1    2    0    0 -0.16545861412E+03 -0.18209929871E+03  0.95469439691E+03  0.99379337974E+03  0.12508869877E+03 0.  0.
         24    2    1    2    0    0  0.27774760515E+02 -0.13543260652E+01  0.11992660324E+03  0.14695519620E+03  0.80250657358E+02 0.  0.
        -13    1    5    5    0    0  0.19601115854E+02  0.33662090624E+02  0.27225050050E+02  0.47524135322E+02  0.00000000000E+00 0.  1.
         14    1    5    5    0    0  0.81736446614E+01 -0.35016416689E+02  0.92701553185E+02  0.99431060880E+02  0.00000000000E+00 0. -1.
         13    1    3    3    0    0  0.51756896530E+02  0.13336836817E+03 -0.39780003353E+03  0.42274195988E+03  0.00000000000E+00 0. -1.
        -14    1    3    3    0    0  0.85926957070E+02  0.50085256604E+02 -0.27333969787E+03  0.29087207723E+03  0.00000000000E+00 0.  1.
          5    1    4    4  501    0 -0.17027952376E+03 -0.14403300784E+03  0.89741988921E+03  0.92472728602E+03  0.41800000000E+01 0.  1.
         -5    1    4    4    0  501  0.48209096493E+01 -0.38066290863E+02  0.57274507697E+02  0.69066093721E+02  0.41800000000E+01 0.  1.
</event>
<event>
11    1  0.8328696E-009  0.1491155E+03  0.7561462E-02  0.1097786E+00
         22   -1    0    0    0    0  0.00000000000E+00  0.00000000000E+00  0.10410234977E+04  0.10410234977E+04  0.00000000000E+00 0.  1.
         22   -1    0    0    0    0 -0.00000000000E+00 -0.00000000000E+00 -0.80086964886E+03  0.80086964886E+03  0.00000000000E+00 0. -1.
        -24    2    1    2    0    0 -0.13314184054E+02 -0.49061629155E+02 -0.75523852320E+03  0.76096704142E+03  0.78110820290E+02 0.  0.
         25    2    1    2    0    0 -0.32184770353E+02  0.11274621146E+03  0.14920968210E+03  0.22729339551E+03  0.12510471922E+03 0.  0.
         24    2    1    2    0    0  0.45498954408E+02 -0.63684582301E+02  0.84618268993E+03  0.85363270962E+03  0.80856523037E+02 0.  0.
        -11    1    5    5    0    0  0.46927495286E+02 -0.68360630890E+02  0.84434922637E+03  0.84841085668E+03  0.00000000000E+00 0.  1.
         12    1    5    5    0    0 -0.14285408783E+01  0.46760485885E+01  0.18334635622E+01  0.52218529352E+01  0.00000000000E+00 0. -1.
         13    1    3    3    0    0 -0.39427139854E+02 -0.31570917730E+02 -0.62302883147E+03  0.62507291338E+03  0.00000000000E+00 0. -1.
        -14    1    3    3    0    0  0.26112955800E+02 -0.17490711425E+02 -0.13220969173E+03  0.13589412804E+03  0.00000000000E+00 0.  1.
          5    1    4    4  501    0  0.46197919580E+02  0.21616231008E+02  0.45665445099E+02  0.68588005457E+02  0.41800000000E+01 0.  1.
         -5    1    4    4    0  501 -0.78382689933E+02  0.91129980448E+02  0.10354423700E+03  0.15870539006E+03  0.41800000000E+01 0.  1.
</event>
<event>
11    1  0.8374562E-009  0.1957600E+03  0.7561462E-02  0.1057563E+00
         22   -1    0    0    0    0  0.00000000000E+00  0.00000000000E+00  0.24230887458E+04  0.24230887458E+04  0.00000000000E+00 0. -1.
         22   -1    0    0    0    0 -0.00000000000E+00 -0.00000000000E+00 -0.78097842234E+03  0.78097842234E+03  0.00000000000E+00 0. -1.
         24    2    1    2    0    0 -0.99412400308E+01  0.19465421760E+02 -0.68006606818E+03  0.68516222429E+03  0.80496494367E+02 0.  0.
         25    2    1    2    0    0  0.14021825671E+03  0.56129084530E+02  0.57658181688E+01  0.19619136076E+03  0.12508465826E+03 0.  0.
        -24    2    1    2    0    0 -0.13027701668E+03 -0.75594506290E+02  0.23164105735E+04  0.23227135831E+04  0.80955628131E+02 0.  0.
        -11    1    3    3    0    0 -0.24849244672E+01  0.16143035506E+02 -0.23914603781E+02  0.28959984788E+02  0.00000000000E+00 0.  1.
         12    1    3    3    0    0 -0.74563155636E+01  0.33223862537E+01 -0.65615146440E+03  0.65620223950E+03  0.00000000000E+00 0. -1.
         13    1    5    5    0    0 -0.60336306913E+02 -0.39572563543E+02  0.16660753356E+04  0.16676370953E+04  0.00000000000E+00 0. -1.
        -14    1    5    5    0    0 -0.69940709765E+02 -0.36021942747E+02  0.65033523787E+03  0.65507648779E+03  0.00000000000E+00 0.  1.
          5    1    4    4  501    0 -0.18279698729E+02 -0.13313755502E+02 -0.12357019358E+00  0.22997633373E+02  0.41800000000E+01 0. -1.
         -5    1    4    4    0  501  0.15849795544E+03  0.69442840032E+02  0.58893883624E+01  0.17319372738E+03  0.41800000000E+01 0. -1.
</event>
<event>
11    1  0.8328696E-009  0.1342092E+03  0.7561462E-02  0.1114203E+00
         22   -1    0    0    0    0  0.00000000000E+00  0.00000000000E+00  0.78408217717E+03  0.78408217717E+03  0.00000000000E+00 0.  1.
         22   -1    0    0    0    0 -0.00000000000E+00 -0.00000000000E+00 -0.16251889273E+03  0.16251889273E+03  0.00000000000E+00 0. -1.
         24    2    1    2    0    0 -0.46534336894E+02 -0.26780608104E+02 -0.82111274202E+02  0.12773964437E+03  0.81807761932E+02 0.  0.
         25    2    1    2    0    0  0.29860244899E+02  0.11926751184E+02  0.20520190132E+02  0.13077296938E+03  0.12508640893E+03 0.  0.
        -24    2    1    2    0    0  0.16674091995E+02  0.14853856920E+02  0.68315436851E+03  0.68808845615E+03  0.79165458780E+02 0.  0.
        -13    1    3    3    0    0 -0.56086003777E+02  0.70897444858E+01 -0.27735360591E+02  0.62969472951E+02  0.00000000000E+00 0.  1.
         14    1    3    3    0    0  0.95516668832E+01 -0.33870352590E+02 -0.54375913611E+02  0.64770171420E+02  0.00000000000E+00 0. -1.
         11    1    5    5    0    0 -0.20877740684E+02 -0.17246200857E+02  0.13352053986E+03  0.13623893006E+03  0.00000000000E+00 0. -1.
        -12    1    5    5    0    0  0.37551832679E+02  0.32100057777E+02  0.54963382865E+03  0.55184952609E+03  0.00000000000E+00 0.  1.
          5    1    4    4  501    0 -0.36667203132E+02  0.42031589623E+02  0.11138836771E+02  0.57032310109E+02  0.41800000000E+01 0. -1.
         -5    1    4    4    0  501  0.66527448031E+02 -0.30104838439E+02  0.93813533611E+01  0.73740659272E+02  0.41800000000E+01 0. -1.
</event>
<event>
11    1  0.8328696E-009  0.3693294E+03  0.7561462E-02  0.9744856E-01
         22   -1    0    0    0    0  0.00000000000E+00  0.00000000000E+00  0.33033135272E+04  0.33033135272E+04  0.00000000000E+00 0. -1.
         22   -1    0    0    0    0 -0.00000000000E+00 -0.00000000000E+00 -0.83300557327E+02  0.83300557327E+02  0.00000000000E+00 0. -1.
         24    2    1    2    0    0 -0.77199016687E+01  0.61745687628E+02  0.98425148932E+02  0.14156780965E+03  0.80509676209E+02 0.  0.
         25    2    1    2    0    0  0.84668753781E+02 -0.38738802831E+03  0.83555657172E+03  0.93329520995E+03  0.12508749746E+03 0.  0.
        -24    2    1    2    0    0 -0.76948852112E+02  0.32564234068E+03  0.22860312493E+04  0.23117510650E+04  0.79309860167E+02 0.  0.
        -11    1    3    3    0    0  0.28666571677E+02  0.48826576241E+01  0.52189615550E+02  0.59744193429E+02  0.00000000000E+00 0.  1.
         12    1    3    3    0    0 -0.36386473345E+02  0.56863030004E+02  0.46235533382E+02  0.81823616217E+02  0.00000000000E+00 0. -1.
         11    1    5    5    0    0 -0.69652077144E+02  0.17875519054E+03  0.10956235504E+04  0.11122930343E+04  0.00000000000E+00 0. -1.
        -12    1    5    5    0    0 -0.72967749679E+01  0.14688715015E+03  0.11904076989E+04  0.11994580307E+04  0.00000000000E+00 0.  1.
          5    1    4    4  501    0  0.70734370077E+01 -0.63318432235E+02  0.53885621036E+02  0.83548727855E+02  0.41800000000E+01 0. -1.
         -5    1    4    4    0  501  0.77595316773E+02 -0.32406959608E+03  0.78167095068E+03  0.84974648209E+03  0.41800000000E+01 0. -1.
</event>
<event>
11    1  0.8328696E-009  0.1339062E+03  0.7561462E-02  0.1114561E+00
         22   -1    0    0    0    0  0.00000000000E+00  0.00000000000E+00  0.75652596677E+02  0.75652596677E+02  0.00000000000E+00 0. -1.
         22   -1    0    0    0    0 -0.00000000000E+00 -0.00000000000E+00 -0.26174787418E+04  0.26174787418E+04  0.00000000000E+00 0.  1.
         24    2    1    2    0    0 -0.17941813379E+02  0.15351733770E+02 -0.19939259718E+04  0.19957019860E+04  0.80796357697E+02 0.  0.
         25    2    1    2    0    0 -0.10194940649E+02 -0.53844967371E+02 -0.58131463921E+03  0.59714028992E+03  0.12508636518E+03 0.  0.
        -24    2    1    2    0    0  0.28136754028E+02  0.38493233601E+02  0.33414465900E+02  0.10028906257E+03  0.81657599645E+02 0.  0.
        -11    1    3    3    0    0 -0.22219928857E+01  0.45907336842E+02 -0.14236431221E+04  0.14243848356E+04  0.00000000000E+00 0.  1.
         12    1    3    3    0    0 -0.15719820494E+02 -0.30555603072E+02 -0.57028284968E+03  0.57131715034E+03  0.00000000000E+00 0. -1.
         13    1    5    5    0    0 -0.18336204706E+02  0.43328513976E+01  0.38015680317E+02  0.42428551168E+02  0.00000000000E+00 0. -1.
        -14    1    5    5    0    0  0.46472958734E+02  0.34160382204E+02 -0.46012144169E+01  0.57860511404E+02  0.00000000000E+00 0.  1.
          5    1    4    4  501    0 -0.15579986975E+02 -0.44795242941E+02 -0.58363614689E+03  0.58557490907E+03  0.41800000000E+01 0.  1.
         -5    1    4    4    0  501  0.53850463261E+01 -0.90497244303E+01  0.23215076741E+01  0.11565380845E+02  0.41800000000E+01 0.  1.
</event>
<event>
11    1  0.8328696E-009  0.2516884E+03  0.7561462E-02  0.1023004E+00
         22   -1    0    0    0    0  0.00000000000E+00  0.00000000000E+00  0.26119978770E+04  0.26119978770E+04  0.00000000000E+00 0. -1.
         22   -1    0    0    0    0 -0.00000000000E+00 -0.00000000000E+00 -0.19221622386E+03  0.19221622386E+03  0.00000000000E+00 0.  1.
        -24    2    1    2    0    0 -0.15434645690E+02  0.21983145660E+03 -0.98567079674E+02  0.25429978386E+03  0.79930052402E+02 0.  0.
         25    2    1    2    0    0 -0.61900502922E+02 -0.19593792212E+03  0.10276731610E+04  0.10554541584E+04  0.12509201840E+03 0.  0.
         24    2    1    2    0    0  0.77335148612E+02 -0.23893534479E+02  0.14906755718E+04  0.14944601586E+04  0.68890340705E+02 0.  0.
        -11    1    5    5    0    0  0.38540621702E+02 -0.37089339998E+02  0.48317482269E+03  0.48612643205E+03  0.00000000000E+00 0.  1.
         12    1    5    5    0    0  0.38794526910E+02  0.13195805519E+02  0.10075007492E+04  0.10083337266E+04  0.00000000000E+00 0. -1.
         13    1    3    3    0    0 -0.13797908925E+02  0.95357737081E+00 -0.13907218049E+02  0.19613829671E+02  0.00000000000E+00 0. -1.
        -14    1    3    3    0    0 -0.16367367655E+01  0.21887787923E+03 -0.84659861625E+02  0.23468595419E+03  0.00000000000E+00 0.  1.
          5    1    4    4  501    0 -0.77545171231E+02 -0.11465022722E+03  0.82412001050E+03  0.83567289791E+03  0.41800000000E+01 0.  1.
         -5    1    4    4    0  501  0.15644668309E+02 -0.81287694898E+02  0.20355315046E+03  0.21978126046E+03  0.41800000000E+01 0.  1.
</event>
<event>
11    1  0.8328696E-009  0.1571297E+03  0.7561462E-02  0.1089808E+00
         22   -1    0    0    0    0  0.00000000000E+00  0.00000000000E+00  0.70815597578E+03  0.70815597578E+03  0.00000000000E+00 0.  1.
         22   -1    0    0    0    0 -0.00000000000E+00 -0.00000000000E+00 -0.10415047141E+04  0.10415047141E+04  0.00000000000E+00 0.  1.
        -24    2    1    2    0    0 -0.89720914891E+02  0.21006396824E+02 -0.90017769367E+03  0.90851416378E+03  0.81160300111E+02 0.  0.
         25    2    1    2    0    0  0.14055124081E+03 -0.25800951321E+02 -0.66199555686E+02  0.20112193648E+03  0.12508921528E+03 0.  0.
         24    2    1    2    0    0 -0.50830325920E+02  0.47945544966E+01  0.63302851101E+03  0.64002458966E+03  0.79370459494E+02 0.  0.
        -13    1    5    5    0    0 -0.14208758456E+02  0.24069550238E+02  0.49830133102E+03  0.49908461063E+03  0.00000000000E+00 0.  1.
         14    1    5    5    0    0 -0.36621567464E+02 -0.19274995742E+02  0.13472717998E+03  0.14093997904E+03  0.00000000000E+00 0. -1.
         13    1    3    3    0    0 -0.37348853283E+02  0.58312681689E+01 -0.10730244613E+03  0.11376623170E+03  0.00000000000E+00 0. -1.
        -14    1    3    3    0    0 -0.52372061608E+02  0.15175128655E+02 -0.79287524754E+03  0.79474793207E+03  0.00000000000E+00 0.  1.
          5    1    4    4  501    0 -0.11928037894E+02 -0.30324086664E+02  0.40941849045E+01  0.33106843251E+02  0.41800000000E+01 0.  1.
         -5    1    4    4    0  501  0.15247927871E+03  0.45231353430E+01 -0.70293740590E+02  0.16801509323E+03  0.41800000000E+01 0.  1.
</event>
<event>
11    1  0.8328696E-009  0.1489661E+03  0.7561462E-02  0.1097940E+00
         22   -1    0    0    0    0  0.00000000000E+00  0.00000000000E+00  0.13250433095E+04  0.13250433095E+04  0.00000000000E+00 0. -1.
         22   -1    0    0    0    0 -0.00000000000E+00 -0.00000000000E+00 -0.17366343354E+03  0.17366343354E+03  0.00000000000E+00 0.  1.
        -24    2    1    2    0    0 -0.79555936777E+02 -0.33019493845E+02 -0.13474751468E+03  0.17926369233E+03  0.80988546271E+02 0.  0.
         25    2    1    2    0    0  0.17308851899E+02 -0.25440352390E+02  0.30185230654E+03  0.32819157586E+03  0.12509231637E+03 0.  0.
         24    2    1    2    0    0  0.62247084878E+02  0.58459846236E+02  0.98427508411E+03  0.99125147486E+03  0.80559245358E+02 0.  0.
        -11    1    5    5    0    0  0.80601184451E+02  0.55206298753E+02  0.77137359303E+03  0.77753553384E+03  0.00000000000E+00 0.  1.
         12    1    5    5    0    0 -0.18354099573E+02  0.32535474822E+01  0.21290149108E+03  0.21371594102E+03  0.00000000000E+00 0. -1.
         11    1    3    3    0    0  0.11088295905E+02 -0.10042642042E+02  0.34521298642E+00  0.14964094936E+02  0.00000000000E+00 0. -1.
        -12    1    3    3    0    0 -0.90644232682E+02 -0.22976851804E+02 -0.13509272766E+03  0.16429959740E+03  0.00000000000E+00 0.  1.
          5    1    4    4  501    0 -0.34944177457E+02  0.17887064543E+01  0.24033945740E+03  0.24290908216E+03  0.41800000000E+01 0. -1.
         -5    1    4    4    0  501  0.52253029356E+02 -0.27229058844E+02  0.61512849140E+02  0.85282493700E+02  0.41800000000E+01 0. -1.
</event>
<event>
11    1  0.8328696E-009  0.2129856E+03  0.7561462E-02  0.1045703E+00
         22   -1    0    0    0    0  0.00000000000E+00  0.00000000000E+00  0.19048792342E+03  0.19048792342E+03  0.00000000000E+00 0.  1.
         22   -1    0    0    0    0 -0.00000000000E+00 -0.00000000000E+00 -0.93142793278E+03  0.93142793278E+03  0.00000000000E+00 0.  1.
         24    2    1    2    0    0 -0.44034910799E+02 -0.57936412967E+02 -0.27005572644E+03  0.29321026577E+03  0.88013994627E+02 0.  0.
         25    2    1    2    0    0  0.16106940569E+03 -0.70026833070E+02 -0.57287483141E+03  0.61211218339E+03  0.12509453143E+03 0.  0.
        -24    2    1    2    0    0 -0.11703449489E+03  0.12796324604E+03  0.10199054849E+03  0.21659340704E+03  0.80243172044E+02 0.  0.
        -13    1    3    3    0    0 -0.40330236400E+02  0.77566242784E+01 -0.57199298428E+02  0.70416283124E+02  0.00000000000E+00 0.  1.
         14    1    3    3    0    0 -0.37046743989E+01 -0.65693037246E+02 -0.21285642802E+03  0.22279398264E+03  0.00000000000E+00 0. -1.
         11    1    5    5    0    0 -0.64455816611E+01  0.43580481451E+02 -0.84270567640E-01  0.44054636396E+02  0.00000000000E+00 0. -1.
        -12    1    5    5    0    0 -0.11058891323E+03  0.84382764586E+02  0.10207481906E+03  0.17253877064E+03  0.00000000000E+00 0.  1.
          5    1    4    4  501    0  0.38612024427E+02 -0.61991860200E+02 -0.35083995402E+03  0.35838530229E+03  0.41800000000E+01 0.  1.
         -5    1    4    4    0  501  0.12245738126E+03 -0.80349728700E+01 -0.22203487738E+03  0.25372688109E+03  0.41800000000E+01 0.  1.
</event>
<event>
11    1  0.8328696E-009  0.1484922E+03  0.7561462E-02  0.1098429E+00
         22   -1    0    0    0    0  0.00000000000E+00  0.00000000000E+00  0.85664929622E+03  0.85664929622E+03  0.00000000000E+00 0.  1.
         22   -1    0    0    0    0 -0.00000000000E+00 -0.00000000000E+00 -0.35573905084E+03  0.35573905084E+03  0.00000000000E+00 0.  1.
         24    2    1    2    0    0  0.45209410894E+02 -0.70463002032E+02 -0.32098213502E+03  0.34153425540E+03  0.81284630284E+02 0.  0.
         25    2    1    2    0    0 -0.19731645415E+02 -0.64077542334E+01  0.18796111689E+03  0.22672999938E+03  0.12508682589E+03 0.  0.
        -24    2    1    2    0    0 -0.25477765478E+02  0.76870756266E+02  0.63393126351E+03  0.64412409228E+03  0.80428662092E+02 0.  0.
        -13    1    3    3    0    0  0.27844680758E+02 -0.71942394643E+02 -0.31299874869E+03  0.32236508973E+03  0.00000000000E+00 0.  1.
         14    1    3    3    0    0  0.17364730136E+02  0.14793926109E+01 -0.79833863271E+01  0.19169165669E+02  0.00000000000E+00 0. -1.
         13    1    5    5    0    0 -0.30316996800E+02  0.35834961429E+02  0.12507160982E+03  0.13358956672E+03  0.00000000000E+00 0. -1.
        -14    1    5    5    0    0  0.48392313213E+01  0.41035794836E+02  0.50885965370E+03  0.51053452555E+03  0.00000000000E+00 0.  1.
          5    1    4    4  501    0  0.41389877501E+02 -0.37188016860E+02  0.62706607663E+02  0.83938439360E+02  0.41800000000E+01 0.  1.
         -5    1    4    4    0  501 -0.61121522917E+02  0.30780262627E+02  0.12525450923E+03  0.14279156002E+03  0.41800000000E+01 0.  1.
</event>
<event>
11    1  0.8328696E-009  0.1809500E+03  0.7561462E-02  0.1068877E+00
         22   -1    0    0    0    0  0.00000000000E+00  0.00000000000E+00  0.54432592602E+03  0.54432592602E+03  0.00000000000E+00 0.  1.
         22   -1    0    0    0    0 -0.00000000000E+00 -0.00000000000E+00 -0.58767319635E+03  0.58767319635E+03  0.00000000000E+00 0.  1.
         24    2    1    2    0    0  0.19482790658E+02  0.24581020661E+02 -0.37758785472E+03  0.38717631212E+03  0.79681258289E+02 0.  0.
         25    2    1    2    0    0 -0.14906230554E+03 -0.19620620211E+02 -0.14388526227E+03  0.24280019677E+03  0.12507768459E+03 0.  0.
        -24    2    1    2    0    0  0.12957951488E+03 -0.49604004497E+01  0.47812584666E+03  0.50202261348E+03  0.81282980665E+02 0.  0.
        -11    1    3    3    0    0  0.25034179054E+02 -0.16415022756E+02 -0.61568026498E+02  0.68460097720E+02  0.00000000000E+00 0.  1.
         12    1    3    3    0    0 -0.55513883952E+01  0.40996043417E+02 -0.31601982822E+03  0.31871621440E+03  0.00000000000E+00 0. -1.
         11    1    5    5    0    0  0.19454035096E+02  0.13814719190E+02  0.22134291227E+02  0.32545856817E+02  0.00000000000E+00 0. -1.
        -12    1    5    5    0    0  0.11012547978E+03 -0.18775119640E+02  0.45599155544E+03  0.46947675666E+03  0.00000000000E+00 0.  1.
          5    1    4    4  501    0 -0.80520530099E+02  0.43362370945E+02 -0.11123976355E+03  0.14406806855E+03  0.41800000000E+01 0.  1.
         -5    1    4    4    0  501 -0.68541775438E+02 -0.62982991156E+02 -0.32645498718E+02  0.98732128214E+02  0.41800000000E+01 0.  1.
</event>
<event>
11    1  0.8328696E-009  0.1814764E+03  0.7561462E-02  0.1068455E+00
         22   -1    0    0    0    0  0.00000000000E+00  0.00000000000E+00  0.41431027402E+03  0.41431027402E+03  0.00000000000E+00 0.  1.
         22   -1    0    0    0    0 -0.00000000000E+00 -0.00000000000E+00 -0.90276425114E+03  0.90276425114E+03  0.00000000000E+00 0. -1.
        -24    2    1    2    0    0 -0.87927729991E+01  0.85331439773E+02 -0.78392869996E+03  0.79308921149E+03  0.84187429545E+02 0.  0.
         25    2    1    2    0    0 -0.74206878042E+02 -0.17402216941E+03  0.40637011931E+02  0.23041436990E+03  0.12509611873E+03 0.  0.
         24    2    1    2    0    0  0.82999651041E+02  0.88690729639E+02  0.25483771091E+03  0.29357094377E+03  0.80539757428E+02 0.  0.
        -11    1    5    5    0    0  0.52961613512E+02  0.85470214120E+02  0.23937115043E+03  0.25963173471E+03  0.00000000000E+00 0.  1.
         12    1    5    5    0    0  0.30038037530E+02  0.32205155185E+01  0.15466560481E+02  0.33939209065E+02  0.00000000000E+00 0. -1.
         13    1    3    3    0    0  0.11350313880E+02  0.80795616689E+02 -0.38129522104E+03  0.38992666860E+03  0.00000000000E+00 0. -1.
        -14    1    3    3    0    0 -0.20143086879E+02  0.45358230844E+01 -0.40263347892E+03  0.40316254289E+03  0.00000000000E+00 0.  1.
          5    1    4    4  501    0 -0.64757014257E+02 -0.14821449592E+02  0.20288323280E+02  0.69586167627E+02  0.41800000000E+01 0.  1.
         -5    1    4    4    0  501 -0.94498637853E+01 -0.15920071982E+03  0.20348688651E+02  0.16082820227E+03  0.41800000000E+01 0.  1.
</event>
<event>
11    1  0.8328696E-009  0.1366136E+03  0.7561462E-02  0.1111400E+00
         22   -1    0    0    0    0  0.00000000000E+00  0.00000000000E+00  0.65703860412E+03  0.65703860412E+03  0.00000000000E+00 0. -1.
         22   -1    0    0    0    0 -0.00000000000E+00 -0.00000000000E+00 -0.32621231303E+03  0.32621231303E+03  0.00000000000E+00 0. -1.
        -24    2    1    2    0    0  0.26908154456E+02 -0.46848133168E+02 -0.28067604872E+03  0.29588563273E+03  0.76488345361E+02 0.  0.
         25    2    1    2    0    0 -0.29806078824E+02  0.70067500000E+02  0.12101427642E+03  0.18993916817E+03  0.12503829660E+03 0.  0.
         24    2    1    2    0    0  0.28979243674E+01 -0.23219366832E+02  0.49048806338E+03  0.49742611626E+03  0.79414506563E+02 0.  0.
        -13    1    5    5    0    0  0.18682613561E+02 -0.11633183904E+02  0.33894925370E+02  0.40413326800E+02  0.00000000000E+00 0.  1.
         14    1    5    5    0    0 -0.15784689193E+02 -0.11586182928E+02  0.45659313801E+03  0.45701278946E+03  0.00000000000E+00 0. -1.
         13    1    3    3    0    0  0.34497177010E+02 -0.47878865586E+02 -0.28200431250E+03  0.28811260518E+03  0.00000000000E+00 0. -1.
        -14    1    3    3    0    0 -0.75890225543E+01  0.10307324186E+01  0.13282637879E+01  0.77730275529E+01  0.00000000000E+00 0.  1.
          5    1    4    4  501    0  0.44764253651E+02  0.50413281663E+02  0.70606012986E+02  0.97713964420E+02  0.41800000000E+01 0.  1.
         -5    1    4    4    0  501 -0.74570332475E+02  0.19654218337E+02  0.50408263436E+02  0.92225203748E+02  0.41800000000E+01 0.  1.
</event>
<event>
11    1  0.8328696E-009  0.1426821E+03  0.7561462E-02  0.1104600E+00
         22   -1    0    0    0    0  0.00000000000E+00  0.00000000000E+00  0.13034607214E+04  0.13034607214E+04  0.00000000000E+00 0. -1.
         22   -1    0    0    0    0 -0.00000000000E+00 -0.00000000000E+00 -0.14476719621E+04  0.14476719621E+04  0.00000000000E+00 0.  1.
        -24    2    1    2    0    0 -0.18666573047E+02  0.72070117620E+01 -0.14187924807E+04  0.14213060046E+04  0.82086985963E+02 0.  0.
         25    2    1    2    0    0 -0.33522100343E+02 -0.53023044719E+02  0.17013280447E+03  0.22029713303E+03  0.12510188321E+03 0.  0.
         24    2    1    2    0    0  0.52188673390E+02  0.45816032957E+02  0.11044484356E+04  0.11095295459E+04  0.80166699978E+02 0.  0.
        -13    1    5    5    0    0 -0.14202275197E+02 -0.92625237605E+01  0.29764278993E+03  0.29812535847E+03  0.00000000000E+00 0.  1.
         14    1    5    5    0    0  0.66390948587E+02  0.55078556718E+02  0.80680564566E+03  0.81140418740E+03  0.00000000000E+00 0. -1.
         11    1    3    3    0    0  0.21289472521E-01 -0.26816104062E+02 -0.18814014566E+03  0.19004162255E+03  0.00000000000E+00 0. -1.
        -12    1    3    3    0    0 -0.18687862519E+02  0.34023115824E+02 -0.12306523351E+04  0.12312643820E+04  0.00000000000E+00 0.  1.
          5    1    4    4  501    0 -0.41652792576E+02  0.28387204007E+02  0.10158186450E+03  0.11347746946E+03  0.41800000000E+01 0. -1.
         -5    1    4    4    0  501  0.81306922328E+01 -0.81410248726E+02  0.68550939968E+02  0.10681966357E+03  0.41800000000E+01 0. -1.
</event>
<event>
11    1  0.1568147E-008  0.1933022E+03  0.7561462E-02  0.1059364E+00
         22   -1    0    0    0    0  0.00000000000E+00  0.00000000000E+00  0.16303949567E+04  0.16303949567E+04  0.00000000000E+00 0.  1.
         22   -1    0    0    0    0 -0.00000000000E+00 -0.00000000000E+00 -0.10477189400E+04  0.10477189400E+04  0.00000000000E+00 0.  1.
         24    2    1    2    0    0 -0.10520161496E+03 -0.87525809993E+02 -0.74287391856E+03  0.75954016380E+03  0.79444662122E+02 0.  0.
         25    2    1    2    0    0  0.12577210348E+03  0.18956125811E+03 -0.23642699005E+03  0.35113835076E+03  0.12509327384E+03 0.  0.
        -24    2    1    2    0    0 -0.20570488519E+02 -0.10203544812E+03  0.15619769252E+04  0.15674353821E+04  0.79040398184E+02 0.  0.
        -11    1    3    3    0    0 -0.88610062167E+02 -0.99159350549E+02 -0.69410151528E+03  0.70672571301E+03  0.00000000000E+00 0.  1.
         12    1    3    3    0    0 -0.16591552797E+02  0.11633540557E+02 -0.48772403279E+02  0.52814450784E+02  0.00000000000E+00 0. -1.
         13    1    5    5    0    0  0.34518289788E+01 -0.11841555136E+02  0.75155055877E+03  0.75165176773E+03  0.00000000000E+00 0. -1.
        -14    1    5    5    0    0 -0.24022317498E+02 -0.90193892983E+02  0.81042636647E+03  0.81578361441E+03  0.00000000000E+00 0.  1.
          5    1    4    4  501    0  0.38865460740E+02  0.16204490793E+03 -0.13332792640E+03  0.21345464291E+03  0.41800000000E+01 0. -1.
         -5    1    4    4    0  501  0.86906642742E+02  0.27516350182E+02 -0.10309906365E+03  0.13768370784E+03  0.41800000000E+01 0. -1.
</event>
<event>
11    1  0.8328696E-009  0.1784685E+03  0.7561462E-02  0.1070888E+00
         22   -1    0    0    0    0  0.00000000000E+00  0.00000000000E+00  0.33802925286E+03  0.33802925286E+03  0.00000000000E+00 0. -1.
         22   -1    0    0    0    0 -0.00000000000E+00 -0.00000000000E+00 -0.99529770147E+03  0.99529770147E+03  0.00000000000E+00 0. -1.
        -24    2    1    2    0    0 -0.74841305913E+02  0.10328290124E+03 -0.91085218998E+03  0.92336351267E+03  0.81730568272E+02 0.  0.
         25    2    1    2    0    0  0.13759616501E+02 -0.13907421453E+03  0.75910292177E+02  0.20234076352E+03  0.12509375656E+03 0.  0.
         24    2    1    2    0    0  0.61081689412E+02  0.35791313286E+02  0.17767344919E+03  0.20762267814E+03  0.80791899598E+02 0.  0.
        -13    1    5    5    0    0  0.71617078506E+02  0.38386656132E+02  0.98413545677E+02  0.12762353731E+03  0.00000000000E+00 0.  1.
         14    1    5    5    0    0 -0.10535389094E+02 -0.25953428461E+01  0.79259903514E+02  0.79999140826E+02  0.00000000000E+00 0. -1.
         11    1    3    3    0    0 -0.54574390615E+02  0.68987058313E+02 -0.81253193211E+03  0.81727946201E+03  0.00000000000E+00 0. -1.
        -12    1    3    3    0    0 -0.20266915298E+02  0.34295842929E+02 -0.98320257865E+02  0.10608405066E+03  0.00000000000E+00 0.  1.
          5    1    4    4  501    0 -0.30337643750E+02 -0.10689375975E+03  0.93027660151E+02  0.14497677902E+03  0.41800000000E+01 0.  1.
         -5    1    4    4    0  501  0.44097260250E+02 -0.32180454774E+02 -0.17117367974E+02  0.57363984497E+02  0.41800000000E+01 0.  1.
</event>
<event>
11    1  0.8328696E-009  0.1296757E+03  0.7561462E-02  0.1119668E+00
         22   -1    0    0    0    0  0.00000000000E+00  0.00000000000E+00  0.13347190758E+04  0.13347190758E+04  0.00000000000E+00 0.  1.
         22   -1    0    0    0    0 -0.00000000000E+00 -0.00000000000E+00 -0.37892901089E+03  0.37892901089E+03  0.00000000000E+00 0.  1.
         24    2    1    2    0    0  0.23429034382E+02  0.25706500075E+02 -0.36300441886E+03  0.37348699122E+03  0.80688169498E+02 0.  0.
         25    2    1    2    0    0 -0.12892535193E+01  0.10140028778E+02  0.47004287636E+03  0.48650105764E+03  0.12505395279E+03 0.  0.
        -24    2    1    2    0    0 -0.22139780863E+02 -0.35846528853E+02  0.84875160739E+03  0.85366003781E+03  0.81123520500E+02 0.  0.
        -11    1    3    3    0    0 -0.25743415853E+02  0.18051402954E+02 -0.21626586812E+03  0.21853947544E+03  0.00000000000E+00 0.  1.
         12    1    3    3    0    0  0.49172450235E+02  0.76550971206E+01 -0.14673855074E+03  0.15494751578E+03  0.00000000000E+00 0. -1.
         11    1    5    5    0    0  0.94565133566E+01  0.24965372637E+01  0.12209755193E+02  0.15644055262E+02  0.00000000000E+00 0. -1.
        -12    1    5    5    0    0 -0.31596294220E+02 -0.38343066117E+02  0.83654185220E+03  0.83801598255E+03  0.00000000000E+00 0.  1.
          5    1    4    4  501    0 -0.35393631099E+01 -0.48786158520E+02  0.96092937669E+02  0.10790709626E+03  0.41800000000E+01 0. -1.
         -5    1    4    4    0  501  0.22501095906E+01  0.58926187299E+02  0.37394993869E+03  0.37859396137E+03  0.41800000000E+01 0. -1.
</event>
<event>
11    1  0.8328696E-009  0.1524201E+03  0.7561462E-02  0.1094431E+00
         22   -1    0    0    0    0  0.00000000000E+00  0.00000000000E+00  0.11528058971E+04  0.11528058971E+04  0.00000000000E+00 0. -1.
         22   -1    0    0    0    0 -0.00000000000E+00 -0.00000000000E+00 -0.56277268217E+03  0.56277268217E+03  0.00000000000E+00 0. -1.
         24    2    1    2    0    0  0.30592594356E+02 -0.10921778520E+03 -0.53452142081E+03  0.55235804678E+03  0.80757854798E+02 0.  0.
         25    2    1    2    0    0  0.64334097912E+02  0.46992282795E+02  0.43073854746E+03  0.45555477235E+03  0.12508918236E+03 0.  0.
        -24    2    1    2    0    0 -0.94926692268E+02  0.62225502402E+02  0.69381608826E+03  0.70766576013E+03  0.80789687965E+02 0.  0.
        -11    1    3    3    0    0 -0.20573711257E+02 -0.24868181891E+01 -0.70926458892E+02  0.73891978120E+02  0.00000000000E+00 0.  1.
         12    1    3    3    0    0  0.51166305612E+02 -0.10673096701E+03 -0.46359496191E+03  0.47846606866E+03  0.00000000000E+00 0. -1.
         13    1    5    5    0    0 -0.56537755352E+02  0.39803616216E+02  0.59862376046E+03  0.60260372737E+03  0.00000000000E+00 0. -1.
        -14    1    5    5    0    0 -0.38388936916E+02  0.22421886187E+02  0.95192327796E+02  0.10506203277E+03  0.00000000000E+00 0.  1.
          5    1    4    4  501    0 -0.61705724027E+01 -0.14314199617E+02  0.14574551571E+01  0.16203976363E+02  0.41800000000E+01 0.  1.
         -5    1    4    4    0  501  0.70504670315E+02  0.61306482412E+02  0.42928109230E+03  0.43935079598E+03  0.41800000000E+01 0.  1.
</event>
<event>
11    1  0.8328696E-009  0.2050852E+03  0.7561462E-02  0.1050985E+00
         22   -1    0    0    0    0  0.00000000000E+00  0.00000000000E+00  0.20335710815E+03  0.20335710815E+03  0.00000000000E+00 0.  1.
         22   -1    0    0    0    0 -0.00000000000E+00 -0.00000000000E+00 -0.15601209851E+04  0.15601209851E+04  0.00000000000E+00 0. -1.
        -24    2    1    2    0    0  0.42772429968E+02 -0.15320851509E+03 -0.13553558360E+04  0.13670897910E+04  0.81502911032E+02 0.  0.
         25    2    1    2    0    0 -0.10628695360E+03  0.19979314335E+03 -0.65394560183E+02  0.26672858211E+03  0.12511383368E+03 0.  0.
         24    2    1    2    0    0  0.63514523632E+02 -0.46584628251E+02  0.63986519216E+02  0.12965972020E+03  0.80704064958E+02 0.  0.
        -11    1    5    5    0    0  0.15770149363E+02 -0.50111969125E+02  0.62656978217E+02  0.81766765741E+02  0.00000000000E+00 0.  1.
         12    1    5    5    0    0  0.47744374269E+02  0.35273408735E+01  0.13295409992E+01  0.47892954463E+02  0.00000000000E+00 0. -1.
         11    1    3    3    0    0  0.51613647904E+01 -0.12945178073E+03 -0.11285902159E+04  0.11360018832E+04  0.00000000000E+00 0. -1.
        -12    1    3    3    0    0  0.37611065177E+02 -0.23756734363E+02 -0.22676562011E+03  0.23108790776E+03  0.00000000000E+00 0.  1.
          5    1    4    4  501    0 -0.67665113601E+02  0.38142304230E+02 -0.63580233891E+02  0.10046552400E+03  0.41800000000E+01 0.  1.
         -5    1    4    4    0  501 -0.38621839999E+02  0.16165083912E+03 -0.18143262919E+01  0.16626305811E+03  0.41800000000E+01 0.  1.
</event>
<event>
11    1  0.8328696E-009  0.1494217E+03  0.7561462E-02  0.1097471E+00
         22   -1    0    0    0    0  0.00000000000E+00  0.00000000000E+00  0.13333738795E+04  0.13333738795E+04  0.00000000000E+00 0. -1.
         22   -1    0    0    0    0 -0.00000000000E+00 -0.00000000000E+00 -0.55848750134E+03  0.55848750134E+03  0.00000000000E+00 0. -1.
         24    2    1    2    0    0 -0.57159360883E+02  0.38529989794E+02 -0.20613710845E+03  0.23539527253E+03  0.90369653106E+02 0.  0.
         25    2    1    2    0    0  0.10766544637E+03 -0.23403081856E+01 -0.31543374853E+03  0.35600922216E+03  0.12508713430E+03 0.  0.
        -24    2    1    2    0    0 -0.50506085492E+02 -0.36189681608E+02  0.12964572352E+04  0.13004568862E+04  0.80784852976E+02 0.  0.
        -11    1    3    3    0    0 -0.16280279454E+02 -0.21639830034E+02 -0.15162945397E+02  0.31036183015E+02  0.00000000000E+00 0.  1.
         12    1    3    3    0    0 -0.40879081429E+02  0.60169819828E+02 -0.19097416305E+03  0.20435908952E+03  0.00000000000E+00 0. -1.
         11    1    5    5    0    0 -0.31799387136E+02 -0.52458727242E+02  0.11691468240E+04  0.11707550619E+04  0.00000000000E+00 0. -1.
        -12    1    5    5    0    0 -0.18706698356E+02  0.16269045633E+02  0.12731041122E+03  0.12970182425E+03  0.00000000000E+00 0.  1.
          5    1    4    4  501    0  0.59662133103E+02 -0.24464953065E+02 -0.41062486271E+02  0.76561767441E+02  0.41800000000E+01 0.  1.
         -5    1    4    4    0  501  0.48003313271E+02  0.22124644879E+02 -0.27437126226E+03  0.27944745472E+03  0.41800000000E+01 0.  1.
</event>
<event>
11    1  0.8328696E-009  0.1401796E+03  0.7561462E-02  0.1107358E+00
         22   -1    0    0    0    0  0.00000000000E+00  0.00000000000E+00  0.25940849643E+04  0.25940849643E+04  0.00000000000E+00 0. -1.
         22   -1    0    0    0    0 -0.00000000000E+00 -0.00000000000E+00 -0.35463417940E+03  0.35463417940E+03  0.00000000000E+00 0. -1.
         24    2    1    2    0    0 -0.30475499134E+02 -0.28275490078E+02 -0.33640168709E+03  0.34840073541E+03  0.80552578937E+02 0.  0.
         25    2    1    2    0    0  0.90475435707E+02  0.30123609324E+02  0.55171936785E+03  0.57370284644E+03  0.12508980315E+03 0.  0.
        -24    2    1    2    0    0 -0.59999936573E+02 -0.18481192460E+01  0.20241331041E+04  0.20266155619E+04  0.80326859305E+02 0.  0.
        -13    1    3    3    0    0  0.26023865241E+02 -0.17862368707E+02 -0.15257086091E+03  0.15580171173E+03  0.00000000000E+00 0.  1.
         14    1    3    3    0    0 -0.56499364376E+02 -0.10413121371E+02 -0.18383082617E+03  0.19259902368E+03  0.00000000000E+00 0. -1.
         13    1    5    5    0    0 -0.20901933612E+02  0.36981195663E+02  0.11196138742E+04  0.11204194424E+04  0.00000000000E+00 0. -1.
        -14    1    5    5    0    0 -0.39098002961E+02 -0.38829314909E+02  0.90451922996E+03  0.90619611945E+03  0.00000000000E+00 0.  1.
          5    1    4    4  501    0  0.79491557762E+02 -0.47951909693E+01  0.51688037153E+03  0.52299588190E+03  0.41800000000E+01 0. -1.
         -5    1    4    4    0  501  0.10983877946E+02  0.34918800294E+02  0.34838996320E+02  0.50706964544E+02  0.41800000000E+01 0. -1.
</event>
<event>
11    1  0.8328696E-009  0.1296955E+03  0.7561462E-02  0.1119644E+00
         22   -1    0    0    0    0  0.00000000000E+00  0.00000000000E+00  0.62723513739E+03  0.62723513739E+03  0.00000000000E+00 0. -1.
         22   -1    0    0    0    0 -0.00000000000E+00 -0.00000000000E+00 -0.16044194519E+03  0.16044194519E+03  0.00000000000E+00 0.  1.
         24    2    1    2    0    0 -0.29746848355E+02  0.87307574989E+01 -0.84692466410E+02  0.12194405938E+03  0.82075810312E+02 0.  0.
         25    2    1    2    0    0  0.46088890266E+02 -0.16186671566E+02  0.28845657561E+02  0.13735138947E+03  0.12508852100E+03 0.  0.
        -24    2    1    2    0    0 -0.16342041911E+02  0.74559140670E+01  0.52264000105E+03  0.52838163373E+03  0.75577292763E+02 0.  0.
        -11    1    3    3    0    0  0.14380292352E+02 -0.14191972448E+02 -0.65663646836E+02  0.68701669601E+02  0.00000000000E+00 0.  1.
         12    1    3    3    0    0 -0.44127140707E+02  0.22922729947E+02 -0.19028819573E+02  0.53242389781E+02  0.00000000000E+00 0. -1.
         11    1    5    5    0    0 -0.36294095842E+02  0.27417722873E+02  0.23509910205E+03  0.23945893323E+03  0.00000000000E+00 0. -1.
        -12    1    5    5    0    0  0.19952053931E+02 -0.19961808806E+02  0.28754089900E+03  0.28892270050E+03  0.00000000000E+00 0.  1.
          5    1    4    4  501    0 -0.31101623873E+02 -0.39594483340E+02  0.25301624794E+02  0.56503793994E+02  0.41800000000E+01 0.  1.
         -5    1    4    4    0  501  0.77190514140E+02  0.23407811774E+02  0.35440327672E+01  0.80847595471E+02  0.41800000000E+01 0.  1.
</event>
<event>
11    1  0.8328696E-009  0.1554948E+03  0.7561462E-02  0.1091393E+00
         22   -1    0    0    0    0  0.00000000000E+00  0.00000000000E+00  0.18069071848E+04  0.18069071848E+04  0.00000000000E+00 0. -1.
         22   -1    0    0    0    0 -0.00000000000E+00 -0.00000000000E+00 -0.11424921964E+04  0.11424921964E+04  0.00000000000E+00 0. -1.
        -24    2    1    2    0    0 -0.40278783101E+02  0.46883169348E+02 -0.10195357380E+04  0.10246052503E+04  0.80885017047E+02 0.  0.
         25    2    1    2    0    0 -0.30760792392E+02 -0.10593904366E+03 -0.59678244706E+02  0.17713621361E+03  0.12508572245E+03 0.  0.
         24    2    1    2    0    0  0.71039575493E+02  0.59055874314E+02  0.17436289711E+04  0.17476579172E+04  0.74377342660E+02 0.  0.
        -11    1    5    5    0    0  0.17438690846E+02 -0.16781624218E+02  0.48771718857E+03  0.48831730143E+03  0.00000000000E+00 0.  1.
         12    1    5    5    0    0  0.53600884647E+02  0.75837498532E+02  0.12559117825E+04  0.12593406158E+04  0.00000000000E+00 0. -1.
         11    1    3    3    0    0 -0.39253652560E+00  0.50995732318E+02 -0.78595915336E+03  0.78761190287E+03  0.00000000000E+00 0. -1.
        -12    1    3    3    0    0 -0.39886246575E+02 -0.41125629705E+01 -0.23357658464E+03  0.23699334745E+03  0.00000000000E+00 0.  1.
          5    1    4    4  501    0 -0.36317949723E+02 -0.18825145737E+02  0.30776292282E+02  0.51361777137E+02  0.41800000000E+01 0.  1.
         -5    1    4    4    0  501  0.55571573306E+01 -0.87113897925E+02 -0.90454536988E+02  0.12577443648E+03  0.41800000000E+01 0.  1.
</event>
<event>
11    1  0.8328696E-009  0.2063546E+03  0.7561462E-02  0.1050119E+00
         22   -1    0    0    0    0  0.00000000000E+00  0.00000000000E+00  0.63015825375E+03  0.63015825375E+03  0.00000000000E+00 0.  1.
         22   -1    0    0    0    0 -0.00000000000E+00 -0.00000000000E+00 -0.31343223591E+03  0.31343223591E+03  0.00000000000E+00 0.  1.
         24    2    1    2    0    0 -0.48528714734E+02  0.90529508601E+02 -0.22999049653E+03  0.26480058993E+03  0.81689019166E+02 0.  0.
         25    2    1    2    0    0  0.10132279684E+03  0.96717437403E+02  0.20889538421E+03  0.28089025473E+03  0.12506590982E+03 0.  0.
        -24    2    1    2    0    0 -0.52794082109E+02 -0.18724694600E+03  0.33782113017E+03  0.39789964500E+03  0.79701804287E+02 0.  0.
        -11    1    3    3    0    0 -0.62109713853E+02  0.96034417093E+02 -0.18513988064E+03  0.21761663821E+03  0.00000000000E+00 0.  1.
         12    1    3    3    0    0  0.13580999119E+02 -0.55049084912E+01 -0.44850615890E+02  0.47183951724E+02  0.00000000000E+00 0. -1.
         11    1    5    5    0    0  0.45112203249E+01  0.52171798217E+01  0.26874494437E+02  0.27745423502E+02  0.00000000000E+00 0. -1.
        -12    1    5    5    0    0 -0.57305302434E+02 -0.19246412583E+03  0.31094663573E+03  0.37015422149E+03  0.00000000000E+00 0.  1.
          5    1    4    4  501    0 -0.20139254805E+02  0.55056883232E+02  0.75600713460E+02  0.95759021774E+02  0.41800000000E+01 0. -1.
         -5    1    4    4    0  501  0.12146205165E+03  0.41660554170E+02  0.13329467075E+03  0.18513123295E+03  0.41800000000E+01 0. -1.
</event>
<event>
11    1  0.8328696E-009  0.1547808E+03  0.7561462E-02  0.1092091E+00
         22   -1    0    0    0    0  0.00000000000E+00  0.00000000000E+00  0.17662288816E+04  0.17662288816E+04  0.00000000000E+00 0.  1.
         22   -1    0    0    0    0 -0.00000000000E+00 -0.00000000000E+00 -0.25116728116E+03  0.25116728116E+03  0.00000000000E+00 0.  1.
        -24    2    1    2    0    0  0.83247985779E+02 -0.63811560315E+01 -0.21609923333E+03  0.24575637913E+03  0.82014467923E+02 0.  0.
         25    2    1    2    0    0 -0.20054132243E+02 -0.71229071181E+02  0.29544000277E+03  0.32925302543E+03  0.12508801189E+03 0.  0.
         24    2    1    2    0    0 -0.63193853536E+02  0.77610227212E+02  0.14357208310E+04  0.14423867582E+04  0.95751998058E+02 0.  0.
        -13    1    5    5    0    0 -0.74121511265E+02  0.89225302626E+02  0.10600498014E+04  0.10663773885E+04  0.00000000000E+00 0.  1.
         14    1    5    5    0    0  0.10927657728E+02 -0.11615075414E+02  0.37567102959E+03  0.37600936977E+03  0.00000000000E+00 0. -1.
         11    1    3    3    0    0 -0.16164629798E+02 -0.31673566281E+01 -0.43993963920E+02  0.46976550170E+02  0.00000000000E+00 0. -1.
        -12    1    3    3    0    0  0.99412615577E+02 -0.32137994035E+01 -0.17210526941E+03  0.19877982896E+03  0.00000000000E+00 0.  1.
          5    1    4    4  501    0  0.40610060243E+02  0.51986403066E+01  0.13775976104E+03  0.14377561342E+03  0.41800000000E+01 0. -1.
         -5    1    4    4    0  501 -0.60664192486E+02 -0.76427711487E+02  0.15768024173E+03  0.18547741201E+03  0.41800000000E+01 0. -1.
</event>
<event>
11    1  0.8328696E-009  0.1652418E+03  0.7561462E-02  0.1082248E+00
         22   -1    0    0    0    0  0.00000000000E+00  0.00000000000E+00  0.46194740948E+03  0.46194740948E+03  0.00000000000E+00 0. -1.
         22   -1    0    0    0    0 -0.00000000000E+00 -0.00000000000E+00 -0.11161442355E+04  0.11161442355E+04  0.00000000000E+00 0. -1.
         24    2    1    2    0    0  0.38274861511E+02  0.80839024641E+00 -0.10225564509E+04  0.10263574763E+04  0.79513240818E+02 0.  0.
         25    2    1    2    0    0 -0.10577857121E+03  0.79308079043E+02  0.24164670524E+02  0.18360190810E+03  0.12508737677E+03 0.  0.
        -24    2    1    2    0    0  0.67503709699E+02 -0.80116469290E+02  0.34419495429E+03  0.36813226059E+03  0.77947387722E+02 0.  0.
        -11    1    3    3    0    0  0.40525886730E-01  0.21087435578E+02 -0.77710586785E+02  0.80520909583E+02  0.00000000000E+00 0.  1.
         12    1    3    3    0    0  0.38234335624E+02 -0.20279045331E+02 -0.94484586409E+03  0.94583656675E+03  0.00000000000E+00 0. -1.
         11    1    5    5    0    0  0.16396001538E+02 -0.54768975866E+02  0.26144841758E+03  0.26762612847E+03  0.00000000000E+00 0. -1.
        -12    1    5    5    0    0  0.51107708161E+02 -0.25347493423E+02  0.82746536713E+02  0.10050613212E+03  0.00000000000E+00 0.  1.
          5    1    4    4  501    0 -0.38271089096E+02  0.10318030020E+03  0.10985846460E+02  0.11067525393E+03  0.41800000000E+01 0. -1.
         -5    1    4    4    0  501 -0.67507482114E+02 -0.23872221158E+02  0.13178824064E+02  0.72926654168E+02  0.41800000000E+01 0. -1.
</event>
<event>
11    1  0.8328696E-009  0.1786605E+03  0.7561462E-02  0.1070731E+00
         22   -1    0    0    0    0  0.00000000000E+00  0.00000000000E+00  0.82169232018E+02  0.82169232018E+02  0.00000000000E+00 0.  1.
         22   -1    0    0    0    0 -0.00000000000E+00 -0.00000000000E+00 -0.13592297406E+04  0.13592297406E+04  0.00000000000E+00 0.  1.
        -24    2    1    2    0    0 -0.54823584333E+02 -0.27908253410E+02 -0.92669559029E+03  0.93195292890E+03  0.77376020848E+02 0.  0.
         25    2    1    2    0    0 -0.86198057023E+02  0.30253957693E+02 -0.30300921044E+03  0.34030498440E+03  0.12508994287E+03 0.  0.
         24    2    1    2    0    0  0.14102164136E+03 -0.23457042827E+01 -0.47355707886E+02  0.16914105935E+03  0.80458245263E+02 0.  0.
        -11    1    5    5    0    0  0.13845929305E+03  0.11109703153E+02 -0.59237743037E+02  0.15100831611E+03  0.00000000000E+00 0.  1.
         12    1    5    5    0    0  0.25623483080E+01 -0.13455407435E+02  0.11882035151E+02  0.18132743240E+02  0.00000000000E+00 0. -1.
         13    1    3    3    0    0 -0.59624489615E+01  0.57262622871E+01 -0.85494894539E+01  0.11892629958E+02  0.00000000000E+00 0. -1.
        -14    1    3    3    0    0 -0.48861135372E+02 -0.33634515698E+02 -0.91814610084E+03  0.92006029894E+03  0.00000000000E+00 0.  1.
          5    1    4    4  501    0 -0.62492610053E+02  0.77319720518E+02 -0.16718500632E+03  0.19455581264E+03  0.41800000000E+01 0. -1.
         -5    1    4    4    0  501 -0.23705446970E+02 -0.47065762825E+02 -0.13582420412E+03  0.14574917177E+03  0.41800000000E+01 0. -1.
</event>
<event>
11    1  0.8328696E-009  0.1255428E+03  0.7561462E-02  0.1124870E+00
         22   -1    0    0    0    0  0.00000000000E+00  0.00000000000E+00  0.12558619372E+03  0.12558619372E+03  0.00000000000E+00 0.  1.
         22   -1    0    0    0    0 -0.00000000000E+00 -0.00000000000E+00 -0.24139644674E+04  0.24139644674E+04  0.00000000000E+00 0. -1.
         24    2    1    2    0    0 -0.10929085980E+02 -0.22165315855E+01 -0.22389224529E+04  0.22403498836E+04  0.79180129069E+02 0.  0.
         25    2    1    2    0    0 -0.61994537299E+01  0.19588619693E+00 -0.13423161429E+03  0.18358590331E+03  0.12508871260E+03 0.  0.
        -24    2    1    2    0    0  0.17128539710E+02  0.20206453886E+01  0.84775793525E+02  0.11561487421E+03  0.76696767146E+02 0.  0.
        -11    1    3    3    0    0 -0.61260871256E+01  0.17162734228E+02 -0.12387926560E+03  0.12521246277E+03  0.00000000000E+00 0.  1.
         12    1    3    3    0    0 -0.48029988546E+01 -0.19379265813E+02 -0.21150431873E+04  0.21151374208E+04  0.00000000000E+00 0. -1.
         13    1    5    5    0    0  0.27398332587E+01  0.33746974523E+01 -0.14579628644E+02  0.15213837141E+02  0.00000000000E+00 0. -1.
        -14    1    5    5    0    0  0.14388706451E+02 -0.13540520637E+01  0.99355422168E+02  0.10040103707E+03  0.00000000000E+00 0.  1.
          5    1    4    4  501    0  0.53031601285E+02 -0.45376707355E+01 -0.10373153419E+03  0.11666466807E+03  0.41800000000E+01 0.  1.
         -5    1    4    4    0  501 -0.59231055015E+02  0.47335569324E+01 -0.30500080094E+02  0.66921235233E+02  0.41800000000E+01 0.  1.
</event>
<event>
11    1  0.8328696E-009  0.1262548E+03  0.7561462E-02  0.1123958E+00
         22   -1    0    0    0    0  0.00000000000E+00  0.00000000000E+00  0.39362663617E+03  0.39362663617E+03  0.00000000000E+00 0. -1.
         22   -1    0    0    0    0 -0.00000000000E+00 -0.00000000000E+00 -0.24200657005E+03  0.24200657005E+03  0.00000000000E+00 0.  1.
        -24    2    1    2    0    0  0.26274952033E+02  0.51613670401E+01 -0.17997128143E+03  0.19845682270E+03  0.79236579456E+02 0.  0.
         25    2    1    2    0    0 -0.34945328257E+02  0.79203742647E+01  0.43868808335E+02  0.13731722520E+03  0.12509052601E+03 0.  0.
         24    2    1    2    0    0  0.86703762240E+01 -0.13081741305E+02  0.28772253922E+03  0.29985915831E+03  0.82975585965E+02 0.  0.
        -13    1    5    5    0    0 -0.24649079662E+02 -0.24618589121E+02  0.59657643949E+02  0.69084633169E+02  0.00000000000E+00 0.  1.
         14    1    5    5    0    0  0.33319455886E+02  0.11536847816E+02  0.22806489527E+03  0.23077452514E+03  0.00000000000E+00 0. -1.
         11    1    3    3    0    0  0.45632150822E+02 -0.12579053560E+02 -0.64304843564E+02  0.79847596600E+02  0.00000000000E+00 0. -1.
        -12    1    3    3    0    0 -0.19357198789E+02  0.17740420600E+02 -0.11566643787E+03  0.11860922610E+03  0.00000000000E+00 0.  1.
          5    1    4    4  501    0 -0.31825888551E+01  0.19660886888E+01  0.84807874424E+02  0.84993189968E+02  0.41800000000E+01 0.  1.
         -5    1    4    4    0  501 -0.31762739402E+02  0.59542855759E+01 -0.40939066089E+02  0.52324035235E+02  0.41800000000E+01 0.  1.
</event>
<event>
11    1  0.8328696E-009  0.1548551E+03  0.7561462E-02  0.1092019E+00
         22   -1    0    0    0    0  0.00000000000E+00  0.00000000000E+00  0.74757789359E+03  0.74757789359E+03  0.00000000000E+00 0. -1.
         22   -1    0    0    0    0 -0.00000000000E+00 -0.00000000000E+00 -0.92502931133E+03  0.92502931133E+03  0.00000000000E+00 0.  1.
        -24    2    1    2    0    0 -0.17630923279E+02  0.34150475565E+02 -0.73220884170E+03  0.73757093618E+03  0.80024956119E+02 0.  0.
         25    2    1    2    0    0 -0.24626847585E+02 -0.11438280742E+03 -0.14529807556E+03  0.22460782540E+03  0.12508891322E+03 0.  0.
         24    2    1    2    0    0  0.42257770864E+02  0.80232331856E+02  0.70005549952E+03  0.71042844333E+03  0.80049512280E+02 0.  0.
        -13    1    5    5    0    0  0.21681502842E+02  0.23560648807E+02  0.64404102612E+02  0.71924127878E+02  0.00000000000E+00 0.  1.
         14    1    5    5    0    0  0.20576268022E+02  0.56671683049E+02  0.63565139691E+03  0.63850431546E+03  0.00000000000E+00 0. -1.
         11    1    3    3    0    0  0.25960131842E+02 -0.38901015948E+00 -0.39082596813E+03  0.39168739722E+03  0.00000000000E+00 0. -1.
        -12    1    3    3    0    0 -0.43591055121E+02  0.34539485725E+02 -0.34138287356E+03  0.34588353896E+03  0.00000000000E+00 0.  1.
          5    1    4    4  501    0 -0.74387453137E+02 -0.84735732447E+02 -0.88785609202E+02  0.14357574426E+03  0.41800000000E+01 0.  1.
         -5    1    4    4    0  501  0.49760605553E+02 -0.29647074975E+02 -0.56512466362E+02  0.81032081140E+02  0.41800000000E+01 0.  1.
</event>
<event>
11    1  0.8328696E-009  0.1552864E+03  0.7561462E-02  0.1091596E+00
         22   -1    0    0    0    0  0.00000000000E+00  0.00000000000E+00  0.51154987262E+03  0.51154987262E+03  0.00000000000E+00 0.  1.
         22   -1    0    0    0    0 -0.00000000000E+00 -0.00000000000E+00 -0.18517576231E+04  0.18517576231E+04  0.00000000000E+00 0.  1.
         24    2    1    2    0    0  0.88369825085E+02 -0.17493284607E+02 -0.15821397195E+04  0.15866763836E+04  0.79124036678E+02 0.  0.
         25    2    1    2    0    0 -0.10274750136E+03  0.90600944895E+02 -0.22813295088E+03  0.29403644784E+03  0.12508880499E+03 0.  0.
        -24    2    1    2    0    0  0.14377676277E+02 -0.73107660287E+02  0.47006491991E+03  0.48259466429E+03  0.79907030351E+02 0.  0.
        -11    1    3    3    0    0  0.63274531797E+02 -0.48047459032E+02 -0.11444275084E+04  0.11471820024E+04  0.00000000000E+00 0.  1.
         12    1    3    3    0    0  0.25095293288E+02  0.30554174425E+02 -0.43771221111E+03  0.43949438117E+03  0.00000000000E+00 0. -1.
         11    1    5    5    0    0 -0.30234642455E+02 -0.34969472337E+02  0.14242721782E+03  0.14974147714E+03  0.00000000000E+00 0. -1.
        -12    1    5    5    0    0  0.44612318732E+02 -0.38138187951E+02  0.32763770209E+03  0.33285318715E+03  0.00000000000E+00 0.  1.
          5    1    4    4  501    0  0.16776845102E+02  0.32137535539E+02 -0.11056165865E+03  0.11642867553E+03  0.41800000000E+01 0.  1.
         -5    1    4    4    0  501 -0.11952434646E+03  0.58463409356E+02 -0.11757129223E+03  0.17760777232E+03  0.41800000000E+01 0.  1.
</event>
<event>
11    1  0.8328696E-009  0.1472188E+03  0.7561462E-02  0.1099755E+00
         22   -1    0    0    0    0  0.00000000000E+00  0.00000000000E+00  0.21764068486E+03  0.21764068486E+03  0.00000000000E+00 0.  1.
         22   -1    0    0    0    0 -0.00000000000E+00 -0.00000000000E+00 -0.73729662968E+03  0.73729662968E+03  0.00000000000E+00 0.  1.
         24    2    1    2    0    0 -0.52022762740E+02 -0.57948093415E+02 -0.61492339434E+03  0.62501255372E+03  0.80284257679E+02 0.  0.
         25    2    1    2    0    0  0.34140229668E+02  0.69963390755E+02 -0.55985530158E+02  0.15761450558E+03  0.12509005338E+03 0.  0.
        -24    2    1    2    0    0  0.17882533072E+02 -0.12015297339E+02  0.15125297967E+03  0.17231025524E+03  0.79681916649E+02 0.  0.
        -11    1    3    3    0    0 -0.52786381485E+02 -0.39761034004E+02 -0.22101298443E+03  0.23068177470E+03  0.00000000000E+00 0.  1.
         12    1    3    3    0    0  0.76361874573E+00 -0.18187059411E+02 -0.39391040991E+03  0.39433077902E+03  0.00000000000E+00 0. -1.
         11    1    5    5    0    0  0.12288847708E+02  0.12637433789E+02 -0.13017120931E+01  0.17675264217E+02  0.00000000000E+00 0. -1.
        -12    1    5    5    0    0  0.55936853635E+01 -0.24652731128E+02  0.15255469177E+03  0.15463499102E+03  0.00000000000E+00 0.  1.
          5    1    4    4  501    0 -0.31594816322E+02 -0.26190245140E+01 -0.50085100965E+02  0.59422903383E+02  0.41800000000E+01 0. -1.
         -5    1    4    4    0  501  0.65735045990E+02  0.72582415269E+02 -0.59004291933E+01  0.98191602198E+02  0.41800000000E+01 0. -1.
</event>
<event>
11    1  0.8328696E-009  0.4319802E+03  0.7561462E-02  0.9559843E-01
         22   -1    0    0    0    0  0.00000000000E+00  0.00000000000E+00  0.59115733861E+03  0.59115733861E+03  0.00000000000E+00 0.  1.
         22   -1    0    0    0    0 -0.00000000000E+00 -0.00000000000E+00 -0.88060938166E+03  0.88060938166E+03  0.00000000000E+00 0.  1.
        -24    2    1    2    0    0 -0.38148968133E+03 -0.15927559996E+03 -0.60900776197E+03  0.74046366965E+03  0.80578522093E+02 0.  0.
         25    2    1    2    0    0  0.32377143281E+03  0.29077218280E+03  0.33818790766E+03  0.56514735185E+03  0.12507623839E+03 0.  0.
         24    2    1    2    0    0  0.57718248518E+02 -0.13149658284E+03 -0.18632188737E+02  0.16615569878E+03  0.81472757821E+02 0.  0.
        -11    1    5    5    0    0 -0.13723573328E+02 -0.30368626261E+02  0.16865401009E+02  0.37350122852E+02  0.00000000000E+00 0.  1.
         12    1    5    5    0    0  0.71441821846E+02 -0.10112795658E+03 -0.35497589746E+02  0.12880557592E+03  0.00000000000E+00 0. -1.
         13    1    3    3    0    0 -0.14773382589E+03 -0.75238931154E+02 -0.31164227364E+03  0.35299729007E+03  0.00000000000E+00 0. -1.
        -14    1    3    3    0    0 -0.23375585544E+03 -0.84036668805E+02 -0.29736548833E+03  0.38746637958E+03  0.00000000000E+00 0.  1.
          5    1    4    4  501    0  0.13845031083E+03  0.60619867396E+02  0.15964798844E+03  0.21988226282E+03  0.41800000000E+01 0. -1.
         -5    1    4    4    0  501  0.18532112199E+03  0.23015231541E+03  0.17853991923E+03  0.34526508902E+03  0.41800000000E+01 0. -1.
</event>
<event>
11    1  0.8328696E-009  0.1630843E+03  0.7561462E-02  0.1084212E+00
         22   -1    0    0    0    0  0.00000000000E+00  0.00000000000E+00  0.67545646050E+03  0.67545646050E+03  0.00000000000E+00 0. -1.
         22   -1    0    0    0    0 -0.00000000000E+00 -0.00000000000E+00 -0.16860523702E+03  0.16860523702E+03  0.00000000000E+00 0. -1.
         24    2    1    2    0    0  0.29148785012E+02 -0.72802248583E+02 -0.43554117702E+02  0.12553649356E+03  0.87821586071E+02 0.  0.
         25    2    1    2    0    0 -0.12408821876E+03  0.28429630002E+02  0.29017832835E+02  0.18081531007E+03  0.12508401910E+03 0.  0.
        -24    2    1    2    0    0  0.94939433753E+02  0.44372618581E+02  0.52138750834E+03  0.53770989390E+03  0.79401327312E+02 0.  0.
        -13    1    3    3    0    0  0.34798309930E+02 -0.35334018778E+02  0.18414667410E+02  0.52900994630E+02  0.00000000000E+00 0.  1.
         14    1    3    3    0    0 -0.56495249181E+01 -0.37468229805E+02 -0.61968785112E+02  0.72635498930E+02  0.00000000000E+00 0. -1.
         11    1    5    5    0    0  0.89036894451E+02  0.33803930286E+02  0.51554587026E+03  0.52426884193E+03  0.00000000000E+00 0. -1.
        -12    1    5    5    0    0  0.59025393014E+01  0.10568688295E+02  0.58416380801E+01  0.13441051966E+02  0.00000000000E+00 0.  1.
          5    1    4    4  501    0  0.14918778305E+02  0.32804081910E+02 -0.73200388589E+01  0.37009905498E+02  0.41800000000E+01 0. -1.
         -5    1    4    4    0  501 -0.13900699707E+03 -0.43744519074E+01  0.36337871694E+02  0.14380540457E+03  0.41800000000E+01 0. -1.
</event>
<event>
11    1  0.8328696E-009  0.1320596E+03  0.7561462E-02  0.1116764E+00
         22   -1    0    0    0    0  0.00000000000E+00  0.00000000000E+00  0.35143596179E+03  0.35143596179E+03  0.00000000000E+00 0.  1.
         22   -1    0    0    0    0 -0.00000000000E+00 -0.00000000000E+00 -0.19329478044E+03  0.19329478044E+03  0.00000000000E+00 0. -1.
         24    2    1    2    0    0  0.32384233821E+02  0.16730722578E+02 -0.10028676651E+03  0.13403519449E+03  0.81113144102E+02 0.  0.
         25    2    1    2    0    0 -0.68009997014E+02 -0.15728888395E+02  0.58671414815E+01  0.14337256080E+03  0.12509400552E+03 0.  0.
        -24    2    1    2    0    0  0.35625763194E+02 -0.10018341830E+01  0.25256080638E+03  0.26732298694E+03  0.80027618706E+02 0.  0.
        -13    1    3    3    0    0  0.19713946020E+02  0.95719520964E+01  0.90676060701E+01  0.23716732795E+02  0.00000000000E+00 0.  1.
         14    1    3    3    0    0  0.12670287801E+02  0.71587704818E+01 -0.10935437258E+03  0.11031846169E+03  0.00000000000E+00 0. -1.
         11    1    5    5    0    0  0.52695828380E+02  0.16366784773E+02  0.11416031001E+03  0.12679628683E+03  0.00000000000E+00 0. -1.
        -12    1    5    5    0    0 -0.17070065186E+02 -0.17368618956E+02  0.13840049637E+03  0.14052670012E+03  0.00000000000E+00 0.  1.
          5    1    4    4  501    0 -0.88011450595E+02 -0.34928378468E+02 -0.28542772882E+02  0.98985702715E+02  0.41800000000E+01 0. -1.
         -5    1    4    4    0  501  0.20001453580E+02  0.19199490073E+02  0.34409914364E+02  0.44386858088E+02  0.41800000000E+01 0. -1.
</event>
<event>
11    1  0.8328696E-009  0.1970330E+03  0.7561462E-02  0.1056642E+00
         22   -1    0    0    0    0  0.00000000000E+00  0.00000000000E+00  0.17168349830E+03  0.17168349830E+03  0.00000000000E+00 0.  1.
         22   -1    0    0    0    0 -0.00000000000E+00 -0.00000000000E+00 -0.54033436895E+03  0.54033436895E+03  0.00000000000E+00 0. -1.
         24    2    1    2    0    0 -0.65087675741E+02 -0.96993997682E+02 -0.13449944053E+03  0.19588972206E+03  0.81476638291E+02 0.  0.
         25    2    1    2    0    0  0.38610447464E+02  0.23020074685E+03 -0.24643002221E+03  0.36174134115E+03  0.12508353829E+03 0.  0.
        -24    2    1    2    0    0  0.26477228277E+02 -0.13320674917E+03  0.12278592094E+02  0.15438680403E+03  0.72383974695E+02 0.  0.
        -11    1    3    3    0    0  0.69513010319E+01 -0.57643444806E+02 -0.38916419225E+02  0.69896888346E+02  0.00000000000E+00 0.  1.
         12    1    3    3    0    0 -0.72038976772E+02 -0.39350552876E+02 -0.95583021307E+02  0.12599283372E+03  0.00000000000E+00 0. -1.
         11    1    5    5    0    0  0.35453361837E+02 -0.12817470913E+03 -0.63130022765E+01  0.13313733858E+03  0.00000000000E+00 0. -1.
        -12    1    5    5    0    0 -0.89761335601E+01 -0.50320400400E+01  0.18591594370E+02  0.21249465449E+02  0.00000000000E+00 0.  1.
          5    1    4    4  501    0 -0.27943501359E+02  0.16630318814E+03 -0.12908118547E+03  0.21240766111E+03  0.41800000000E+01 0.  1.
         -5    1    4    4    0  501  0.66553948823E+02  0.63897558710E+02 -0.11734883673E+03  0.14933368004E+03  0.41800000000E+01 0.  1.
</event>
<event>
11    1  0.8328696E-009  0.1351430E+03  0.7561462E-02  0.1113107E+00
         22   -1    0    0    0    0  0.00000000000E+00  0.00000000000E+00  0.22755643503E+03  0.22755643503E+03  0.00000000000E+00 0. -1.
         22   -1    0    0    0    0 -0.00000000000E+00 -0.00000000000E+00 -0.15802651688E+04  0.15802651688E+04  0.00000000000E+00 0. -1.
        -24    2    1    2    0    0 -0.30442250353E+02  0.53171453810E+01 -0.90735175808E+03  0.91171019418E+03  0.83506063488E+02 0.  0.
         25    2    1    2    0    0  0.48409171004E+02  0.42447765845E+02 -0.65173311160E+03  0.66674606280E+03  0.12509597453E+03 0.  0.
         24    2    1    2    0    0 -0.17966920651E+02 -0.47764911226E+02  0.20637613592E+03  0.22936534685E+03  0.86099104967E+02 0.  0.
        -13    1    5    5    0    0  0.17738531392E+02 -0.17347923582E+02  0.88437347818E+01  0.26340417488E+02  0.00000000000E+00 0.  1.
         14    1    5    5    0    0 -0.35705452043E+02 -0.30416987644E+02  0.19753240113E+03  0.20302492936E+03  0.00000000000E+00 0. -1.
         13    1    3    3    0    0 -0.21460099531E+02 -0.38531344341E+02 -0.42158928650E+03  0.42388999382E+03  0.00000000000E+00 0. -1.
        -14    1    3    3    0    0 -0.89821508223E+01  0.43848489722E+02 -0.48576247158E+03  0.48782020036E+03  0.00000000000E+00 0.  1.
          5    1    4    4  501    0 -0.61221390487E+01  0.73968212890E+02 -0.42203277406E+03  0.42852994281E+03  0.41800000000E+01 0. -1.
         -5    1    4    4    0  501  0.54531310052E+02 -0.31520447045E+02 -0.22970033754E+03  0.23821611999E+03  0.41800000000E+01 0. -1.
</event>
<event>
11    1  0.8328696E-009  0.1530930E+03  0.7561462E-02  0.1093760E+00
         22   -1    0    0    0    0  0.00000000000E+00  0.00000000000E+00  0.52163310655E+03  0.52163310655E+03  0.00000000000E+00 0. -1.
         22   -1    0    0    0    0 -0.00000000000E+00 -0.00000000000E+00 -0.45112689347E+03  0.45112689347E+03  0.00000000000E+00 0.  1.
         24    2    1    2    0    0  0.31321059306E+02  0.16535200536E+02 -0.38023459578E+03  0.39016630761E+03  0.79981111228E+02 0.  0.
         25    2    1    2    0    0 -0.11537046430E+03 -0.10671976097E+02  0.69951329082E+02  0.18428288081E+03  0.12507100629E+03 0.  0.
        -24    2    1    2    0    0  0.84049404997E+02 -0.58632244388E+01  0.38078947977E+03  0.39831081160E+03  0.80945628981E+02 0.  0.
        -11    1    3    3    0    0  0.20812392104E+02  0.98082800277E+00 -0.36603905213E+03  0.36663156625E+03  0.00000000000E+00 0.  1.
         12    1    3    3    0    0  0.10508667202E+02  0.15554372533E+02 -0.14195543651E+02  0.23534741359E+02  0.00000000000E+00 0. -1.
         13    1    5    5    0    0  0.10035848247E+03 -0.57729532655E+01  0.32659685983E+03  0.34171722351E+03  0.00000000000E+00 0. -1.
        -14    1    5    5    0    0 -0.16309077469E+02 -0.90271173316E-01  0.54192619937E+02  0.56593588085E+02  0.00000000000E+00 0.  1.
          5    1    4    4  501    0 -0.92929021136E+02 -0.63214292608E+02  0.38164317409E+02  0.11876799772E+03  0.41800000000E+01 0.  1.
         -5    1    4    4    0  501 -0.22441443167E+02  0.52542316511E+02  0.31787011673E+02  0.65514883094E+02  0.41800000000E+01 0.  1.
</event>
<event>
11    1  0.8328696E-009  0.1363360E+03  0.7561462E-02  0.1111720E+00
         22   -1    0    0    0    0  0.00000000000E+00  0.00000000000E+00  0.81733992314E+03  0.81733992314E+03  0.00000000000E+00 0.  1.
         22   -1    0    0    0    0 -0.00000000000E+00 -0.00000000000E+00 -0.37258331045E+03  0.37258331045E+03  0.00000000000E+00 0.  1.
        -24    2    1    2    0    0 -0.53708473097E+01  0.25101660863E+02 -0.32137473463E+03  0.33200333686E+03  0.79281500045E+02 0.  0.
         25    2    1    2    0    0  0.56375481033E+02 -0.56850308505E+01  0.68291221152E+02  0.15333315838E+03  0.12504739955E+03 0.  0.
         24    2    1    2    0    0 -0.51004633724E+02 -0.19416630012E+02  0.69784012617E+03  0.70458673835E+03  0.80518022759E+02 0.  0.
        -11    1    5    5    0    0 -0.33549779527E+02  0.77659050059E+01  0.61039143196E+03  0.61136208355E+03  0.00000000000E+00 0.  1.
         12    1    5    5    0    0 -0.17454854197E+02 -0.27182535018E+02  0.87448694201E+02  0.93224654800E+02  0.00000000000E+00 0. -1.
         13    1    3    3    0    0 -0.34457448242E+02 -0.11323217017E+01 -0.75128641628E+02  0.82661421986E+02  0.00000000000E+00 0. -1.
        -14    1    3    3    0    0  0.29086600933E+02  0.26233982564E+02 -0.24624609300E+03  0.24934191488E+03  0.00000000000E+00 0.  1.
          5    1    4    4  501    0  0.37475466105E+02  0.22009176150E+02 -0.27606816007E+02  0.51656781594E+02  0.41800000000E+01 0.  1.
         -5    1    4    4    0  501  0.18900014928E+02 -0.27694207000E+02  0.95898037159E+02  0.10167637679E+03  0.41800000000E+01 0.  1.
</event>
<event>
11    1  0.8328696E-009  0.1371504E+03  0.7561462E-02  0.1110783E+00
         22   -1    0    0    0    0  0.00000000000E+00  0.00000000000E+00  0.14171855314E+04  0.14171855314E+04  0.00000000000E+00 0. -1.
         22   -1    0    0    0    0 -0.00000000000E+00 -0.00000000000E+00 -0.99184031833E+03  0.99184031833E+03  0.00000000000E+00 0. -1.
         24    2    1    2    0    0  0.31321382864E+02  0.27965087130E+02 -0.94675126333E+03  0.95090423510E+03  0.78216587664E+02 0.  0.
         25    2    1    2    0    0  0.22434172323E+02 -0.46921374787E+02  0.69557257389E+02  0.15228340097E+03  0.12508842734E+03 0.  0.
        -24    2    1    2    0    0 -0.53755555187E+02  0.18956287657E+02  0.13025392190E+04  0.13058382137E+04  0.73184852756E+02 0.  0.
        -13    1    3    3    0    0 -0.13913311301E+02  0.89939162867E+01 -0.47318881446E+02  0.50135289995E+02  0.00000000000E+00 0.  1.
         14    1    3    3    0    0  0.45234694165E+02  0.18971170844E+02 -0.89943238188E+03  0.90076894510E+03  0.00000000000E+00 0. -1.
         11    1    5    5    0    0 -0.44720457076E+02 -0.21151743750E+02  0.84870439994E+03  0.85014497236E+03  0.00000000000E+00 0. -1.
        -12    1    5    5    0    0 -0.90350981117E+01  0.40108031407E+02  0.45383481908E+03  0.45569324132E+03  0.00000000000E+00 0.  1.
          5    1    4    4  501    0 -0.25940808206E+01  0.17694762339E+02  0.80001152350E+02  0.82082218823E+02  0.41800000000E+01 0. -1.
         -5    1    4    4    0  501  0.25028253144E+02 -0.64616137126E+02 -0.10443894961E+02  0.70201182145E+02  0.41800000000E+01 0. -1.
</event>
<event>
11    1  0.8328696E-009  0.1352465E+03  0.7561462E-02  0.1112986E+00
         22   -1    0    0    0    0  0.00000000000E+00  0.00000000000E+00  0.24279760857E+03  0.24279760857E+03  0.00000000000E+00 0.  1.
         22   -1    0    0    0    0 -0.00000000000E+00 -0.00000000000E+00 -0.11849765649E+04  0.11849765649E+04  0.00000000000E+00 0. -1.
         24    2    1    2    0    0 -0.65993121668E+01 -0.27296977196E+02 -0.11036133968E+04  0.11064012646E+04  0.73297700071E+02 0.  0.
         25    2    1    2    0    0 -0.41655010129E+02  0.43329143402E+02  0.48891999105E+01  0.13886357568E+03  0.12508650541E+03 0.  0.
        -24    2    1    2    0    0  0.48254322295E+02 -0.16032166206E+02  0.15654524058E+03  0.18250933317E+03  0.78852611715E+02 0.  0.
        -13    1    3    3    0    0 -0.27331751922E+02  0.15145120035E+02 -0.43040721275E+03  0.43153999596E+03  0.00000000000E+00 0.  1.
         14    1    3    3    0    0  0.20732439755E+02 -0.42442097231E+02 -0.67320618407E+03  0.67486126867E+03  0.00000000000E+00 0. -1.
         11    1    5    5    0    0  0.19946344953E+02 -0.40279674688E+02  0.40069973936E+02  0.60215543518E+02  0.00000000000E+00 0. -1.
        -12    1    5    5    0    0  0.28307977343E+02  0.24247508482E+02  0.11647526664E+03  0.12229378966E+03  0.00000000000E+00 0.  1.
          5    1    4    4  501    0  0.11317950953E+02  0.16869654190E+02  0.56510801477E+02  0.60196547491E+02  0.41800000000E+01 0.  1.
         -5    1    4    4    0  501 -0.52972961082E+02  0.26459489212E+02 -0.51621601566E+02  0.78667028185E+02  0.41800000000E+01 0.  1.
</event>
<event>
11    1  0.8328696E-009  0.1526080E+03  0.7561462E-02  0.1094243E+00
         22   -1    0    0    0    0  0.00000000000E+00  0.00000000000E+00  0.42993913656E+03  0.42993913656E+03  0.00000000000E+00 0. -1.
         22   -1    0    0    0    0 -0.00000000000E+00 -0.00000000000E+00 -0.51989274184E+03  0.51989274184E+03  0.00000000000E+00 0. -1.
        -24    2    1    2    0    0 -0.35725406730E+02 -0.77204979641E+02 -0.44398707403E+03  0.45906191038E+03  0.79852376869E+02 0.  0.
         25    2    1    2    0    0  0.39328170994E+02  0.12508124195E+03  0.74786473455E+02  0.19602944551E+03  0.12506999948E+03 0.  0.
         24    2    1    2    0    0 -0.36027642634E+01 -0.47876262313E+02  0.27924699529E+03  0.29474052251E+03  0.81166340467E+02 0.  0.
        -13    1    5    5    0    0  0.31590547523E+02 -0.12530875864E+02  0.52264330621E+02  0.62342167094E+02  0.00000000000E+00 0.  1.
         14    1    5    5    0    0 -0.35193311786E+02 -0.35345386449E+02  0.22698266467E+03  0.23239835541E+03  0.00000000000E+00 0. -1.
         11    1    3    3    0    0 -0.53751127280E+02 -0.76878951301E+02 -0.31043313990E+03  0.32429660989E+03  0.00000000000E+00 0. -1.
        -12    1    3    3    0    0  0.18025720549E+02 -0.32602833943E+00 -0.13355393413E+03  0.13476530050E+03  0.00000000000E+00 0.  1.
          5    1    4    4  501    0  0.24459416734E+02  0.88515420521E+01 -0.29186670946E+02  0.39318532838E+02  0.41800000000E+01 0.  1.
         -5    1    4    4    0  501  0.14868754260E+02  0.11622969990E+03  0.10397314440E+03  0.15671091267E+03  0.41800000000E+01 0.  1.
</event>
<event>
11    1  0.8328696E-009  0.1502621E+03  0.7561462E-02  0.1096611E+00
         22   -1    0    0    0    0  0.00000000000E+00  0.00000000000E+00  0.39929713811E+03  0.39929713811E+03  0.00000000000E+00 0.  1.
         22   -1    0    0    0    0 -0.00000000000E+00 -0.00000000000E+00 -0.64149822043E+03  0.64149822043E+03  0.00000000000E+00 0. -1.
         24    2    1    2    0    0 -0.28713971536E+02  0.25132283671E+02 -0.52778092334E+03  0.53513013393E+03  0.79720971873E+02 0.  0.
         25    2    1    2    0    0  0.72129028538E+02  0.46505190372E+02 -0.43045022418E+02  0.15769031308E+03  0.12509209166E+03 0.  0.
        -24    2    1    2    0    0 -0.43415057001E+02 -0.71637474042E+02  0.32862486344E+03  0.34797491152E+03  0.77945130191E+02 0.  0.
        -13    1    3    3    0    0 -0.34884348085E+02  0.39635062226E+02 -0.19636882964E+03  0.20334348564E+03  0.00000000000E+00 0.  1.
         14    1    3    3    0    0  0.61703765487E+01 -0.14502778555E+02 -0.33141209370E+03  0.33178664829E+03  0.00000000000E+00 0. -1.
         11    1    5    5    0    0 -0.82502268922E+01  0.41435747654E+01  0.15522529563E+03  0.15549960727E+03  0.00000000000E+00 0. -1.
        -12    1    5    5    0    0 -0.35164830109E+02 -0.75781048808E+02  0.17339956780E+03  0.19247530426E+03  0.00000000000E+00 0.  1.
          5    1    4    4  501    0  0.75180041499E+02  0.16611115786E+02 -0.79171145401E+02  0.11051475228E+03  0.41800000000E+01 0. -1.
         -5    1    4    4    0  501 -0.30510129609E+01  0.29894074585E+02  0.36126122983E+02  0.47175560804E+02  0.41800000000E+01 0. -1.
</event>
<event>
11    1  0.8328696E-009  0.1295667E+03  0.7561462E-02  0.1119803E+00
         22   -1    0    0    0    0  0.00000000000E+00  0.00000000000E+00  0.31406955221E+04  0.31406955221E+04  0.00000000000E+00 0. -1.
         22   -1    0    0    0    0 -0.00000000000E+00 -0.00000000000E+00 -0.33660313767E+02  0.33660313767E+02  0.00000000000E+00 0.  1.
         24    2    1    2    0    0 -0.12208242372E+02  0.16881827824E+01  0.48013773206E+02  0.94920458183E+02  0.80948624579E+02 0.  0.
         25    2    1    2    0    0  0.51606519751E+01  0.31613059034E+02  0.42890752927E+03  0.44792336885E+03  0.12509059862E+03 0.  0.
        -24    2    1    2    0    0  0.70475903974E+01 -0.33301241816E+02  0.26301139059E+04  0.26315120089E+04  0.78725177936E+02 0.  0.
        -11    1    3    3    0    0  0.18060604165E+02 -0.30521747952E+02  0.10610814335E+02  0.37018264434E+02  0.00000000000E+00 0.  1.
         12    1    3    3    0    0 -0.30268846538E+02  0.32209930734E+02  0.37402958871E+02  0.57902193749E+02  0.00000000000E+00 0. -1.
         13    1    5    5    0    0 -0.28255322219E+02 -0.40834966233E+02  0.14997729839E+04  0.15005948357E+04  0.00000000000E+00 0. -1.
        -14    1    5    5    0    0  0.35302912616E+02  0.75337244167E+01  0.11303409220E+04  0.11309171731E+04  0.00000000000E+00 0.  1.
          5    1    4    4  501    0 -0.32064313299E+02 -0.30085814665E+02  0.26736581840E+03  0.27098935345E+03  0.41800000000E+01 0. -1.
         -5    1    4    4    0  501  0.37224965274E+02  0.61698873698E+02  0.16154171087E+03  0.17693401540E+03  0.41800000000E+01 0. -1.
</event>
<event>
11    1  0.8328696E-009  0.1604356E+03  0.7561462E-02  0.1086668E+00
         22   -1    0    0    0    0  0.00000000000E+00  0.00000000000E+00  0.18842616506E+03  0.18842616506E+03  0.00000000000E+00 0.  1.
         22   -1    0    0    0    0 -0.00000000000E+00 -0.00000000000E+00 -0.19386320259E+04  0.19386320259E+04  0.00000000000E+00 0. -1.
         24    2    1    2    0    0 -0.35418502363E+02  0.92438490614E+02 -0.17385761419E+04  0.17432145365E+04  0.79690488598E+02 0.  0.
         25    2    1    2    0    0  0.23121630555E+02 -0.12914046941E+03 -0.13900849414E+03  0.22842979631E+03  0.12507973361E+03 0.  0.
        -24    2    1    2    0    0  0.12296871808E+02  0.36701978797E+02  0.12737877527E+03  0.15541385816E+03  0.80186449069E+02 0.  0.
        -13    1    3    3    0    0 -0.37915079935E+02  0.88219419928E+01 -0.35898483158E+03  0.36108930925E+03  0.00000000000E+00 0.  1.
         14    1    3    3    0    0  0.24965775723E+01  0.83616548622E+02 -0.13795913103E+04  0.13821252272E+04  0.00000000000E+00 0. -1.
         13    1    5    5    0    0 -0.63808057282E+01  0.48312871974E+02  0.33852576985E+02  0.59336710801E+02  0.00000000000E+00 0. -1.
        -14    1    5    5    0    0  0.18677677536E+02 -0.11610893177E+02  0.93526198286E+02  0.96077147357E+02  0.00000000000E+00 0.  1.
          5    1    4    4  501    0  0.67332353533E+02 -0.10239558324E+03 -0.12416327543E+03  0.17450642586E+03  0.41800000000E+01 0. -1.
         -5    1    4    4    0  501 -0.44210722978E+02 -0.26744886167E+02 -0.14845218707E+02  0.53923370451E+02  0.41800000000E+01 0. -1.
</event>
<event>
11    1  0.8328696E-009  0.2688428E+03  0.7561462E-02  0.1014314E+00
         22   -1    0    0    0    0  0.00000000000E+00  0.00000000000E+00  0.13042534886E+03  0.13042534886E+03  0.00000000000E+00 0. -1.
         22   -1    0    0    0    0 -0.00000000000E+00 -0.00000000000E+00 -0.10335371476E+04  0.10335371476E+04  0.00000000000E+00 0.  1.
         24    2    1    2    0    0  0.23923819855E+03  0.98957062816E+02 -0.68353968005E+03  0.73640786085E+03  0.89680696931E+02 0.  0.
         25    2    1    2    0    0 -0.15705609279E+03 -0.12398416443E+03 -0.19907228283E+03  0.30873331218E+03  0.12509114657E+03 0.  0.
        -24    2    1    2    0    0 -0.82182105758E+02  0.25027101617E+02 -0.20499835891E+02  0.11882132345E+03  0.79485906378E+02 0.  0.
        -11    1    3    3    0    0  0.22621140704E+03  0.79812953250E+02 -0.66436185288E+03  0.70634154610E+03  0.00000000000E+00 0.  1.
         12    1    3    3    0    0  0.13026791512E+02  0.19144109566E+02 -0.19177827165E+02  0.30066314755E+02  0.00000000000E+00 0. -1.
         11    1    5    5    0    0 -0.90328670035E+02  0.24056764190E+02 -0.36889507538E+02  0.10049294652E+03  0.00000000000E+00 0. -1.
        -12    1    5    5    0    0  0.81465642775E+01  0.97033742670E+00  0.16389671647E+02  0.18328376931E+02  0.00000000000E+00 0.  1.
          5    1    4    4  501    0 -0.36535746217E+02 -0.96794214296E+02 -0.49738073440E+02  0.11487092331E+03  0.41800000000E+01 0.  1.
         -5    1    4    4    0  501 -0.12052034657E+03 -0.27189950137E+02 -0.14933420939E+03  0.19386238887E+03  0.41800000000E+01 0.  1.
</event>
<event>
11    1  0.8328696E-009  0.1459029E+03  0.7561462E-02  0.1101140E+00
         22   -1    0    0    0    0  0.00000000000E+00  0.00000000000E+00  0.19636853889E+03  0.19636853889E+03  0.00000000000E+00 0. -1.
         22   -1    0    0    0    0 -0.00000000000E+00 -0.00000000000E+00 -0.89839194081E+03  0.89839194081E+03  0.00000000000E+00 0.  1.
         24    2    1    2    0    0  0.29113093906E+02  0.63375768102E+02 -0.45840837213E+03  0.47138144414E+03  0.84842029802E+02 0.  0.
         25    2    1    2    0    0 -0.29229910602E+02 -0.81521941542E+02 -0.40992514221E+03  0.43724779024E+03  0.12508714255E+03 0.  0.
        -24    2    1    2    0    0  0.11681669632E+00  0.18146173441E+02  0.16631011242E+03  0.18613124531E+03  0.81587313544E+02 0.  0.
        -13    1    3    3    0    0 -0.19218699165E+01  0.69620968998E+01 -0.30400860777E+03  0.30409438991E+03  0.00000000000E+00 0.  1.
         14    1    3    3    0    0  0.31034963822E+02  0.56413671202E+02 -0.15439976436E+03  0.16728705423E+03  0.00000000000E+00 0. -1.
         11    1    5    5    0    0 -0.12695401103E+02 -0.28677129959E+02  0.93520799567E+02  0.98639195777E+02  0.00000000000E+00 0. -1.
        -12    1    5    5    0    0  0.12812217799E+02  0.46823303399E+02  0.72789312852E+02  0.87492049534E+02  0.00000000000E+00 0.  1.
          5    1    4    4  501    0 -0.69072197256E+02 -0.70865751361E+02 -0.35424172359E+03  0.36782821300E+03  0.41800000000E+01 0.  1.
         -5    1    4    4    0  501  0.39842286654E+02 -0.10656190181E+02 -0.55683418617E+02  0.69419577238E+02  0.41800000000E+01 0.  1.
</event>
<event>
11    1  0.8328696E-009  0.1564083E+03  0.7561462E-02  0.1090505E+00
         22   -1    0    0    0    0  0.00000000000E+00  0.00000000000E+00  0.10933980576E+04  0.10933980576E+04  0.00000000000E+00 0.  1.
         22   -1    0    0    0    0 -0.00000000000E+00 -0.00000000000E+00 -0.58347934441E+03  0.58347934441E+03  0.00000000000E+00 0.  1.
        -24    2    1    2    0    0 -0.65529290247E+02 -0.67044389171E+02 -0.52740590830E+03  0.54144174396E+03  0.78823422905E+02 0.  0.
         25    2    1    2    0    0  0.32237767624E+02  0.10308057955E+03  0.99380071897E+02  0.19284517106E+03  0.12509189330E+03 0.  0.
         24    2    1    2    0    0  0.33291522623E+02 -0.36036190382E+02  0.93794454958E+03  0.94259048697E+03  0.79560766409E+02 0.  0.
        -11    1    5    5    0    0 -0.62481304595E+01 -0.38199902063E+02  0.72255984215E+03  0.72359587972E+03  0.00000000000E+00 0.  1.
         12    1    5    5    0    0  0.39539653082E+02  0.21637116811E+01  0.21538470742E+03  0.21899460725E+03  0.00000000000E+00 0. -1.
         13    1    3    3    0    0  0.10734057326E+02  0.76979158072E+01 -0.31284323096E+02  0.33958603711E+02  0.00000000000E+00 0. -1.
        -14    1    3    3    0    0 -0.76263347572E+02 -0.74742304978E+02 -0.49612158520E+03  0.50748314025E+03  0.00000000000E+00 0.  1.
          5    1    4    4  501    0  0.45052469487E+02  0.54338704826E+02  0.11914590331E+03  0.13854832560E+03  0.41800000000E+01 0. -1.
         -5    1    4    4    0  501 -0.12814701863E+02  0.48741874727E+02 -0.19765831416E+02  0.54296845464E+02  0.41800000000E+01 0. -1.
</event>
<event>
11    1  0.8328696E-009  0.1420653E+03  0.7561462E-02  0.1105274E+00
         22   -1    0    0    0    0  0.00000000000E+00  0.00000000000E+00  0.19920514091E+03  0.19920514091E+03  0.00000000000E+00 0. -1.
         22   -1    0    0    0    0 -0.00000000000E+00 -0.00000000000E+00 -0.24083163234E+04  0.24083163234E+04  0.00000000000E+00 0.  1.
         24    2    1    2    0    0 -0.59844580021E+02  0.36940411203E+02 -0.21733724037E+04  0.21760293373E+04  0.81302544442E+02 0.  0.
         25    2    1    2    0    0  0.30501126565E+02  0.20952349588E+01 -0.20218296192E+03  0.23971168624E+03  0.12509609785E+03 0.  0.
        -24    2    1    2    0    0  0.29343453456E+02 -0.39035646162E+02  0.16644418314E+03  0.19178044081E+03  0.81800069947E+02 0.  0.
        -13    1    3    3    0    0 -0.64920668535E+02  0.53352543169E+02 -0.14357827953E+04  0.14382396957E+04  0.00000000000E+00 0.  1.
         14    1    3    3    0    0  0.50760885139E+01 -0.16412131966E+02 -0.73758960843E+03  0.73778964158E+03  0.00000000000E+00 0. -1.
         11    1    5    5    0    0  0.27878881535E+02 -0.29293021031E+02  0.17445620535E+03  0.17908177099E+03  0.00000000000E+00 0. -1.
        -12    1    5    5    0    0  0.14645719213E+01 -0.97426251315E+01 -0.80120222057E+01  0.12698669820E+02  0.00000000000E+00 0.  1.
          5    1    4    4  501    0 -0.38734642040E+02 -0.20630523612E+02 -0.12911291616E+03  0.13643169909E+03  0.41800000000E+01 0. -1.
         -5    1    4    4    0  501  0.69235768605E+02  0.22725758571E+02 -0.73070045763E+02  0.10327998715E+03  0.41800000000E+01 0. -1.
</event>
<event>
11    1  0.8328696E-009  0.2480479E+03  0.7561462E-02  0.1024944E+00
         22   -1    0    0    0    0  0.00000000000E+00  0.00000000000E+00  0.13596098382E+03  0.13596098382E+03  0.00000000000E+00 0.  1.
         22   -1    0    0    0    0 -0.00000000000E+00 -0.00000000000E+00 -0.26879755265E+04  0.26879755265E+04  0.00000000000E+00 0. -1.
        -24    2    1    2    0    0 -0.10249786801E+03  0.18970154942E+03 -0.23755433804E+04  0.23866690121E+04  0.80561344585E+02 0.  0.
         25    2    1    2    0    0  0.16389953472E+03 -0.13639880058E+03 -0.20360933696E+03  0.32027246352E+03  0.12509995409E+03 0.  0.
         24    2    1    2    0    0 -0.61401666712E+02 -0.53302748841E+02  0.27138174714E+02  0.11699503468E+03  0.79624179146E+02 0.  0.
        -13    1    5    5    0    0 -0.68211033033E+02 -0.89361373763E+01  0.19085874863E+02  0.71392367925E+02  0.00000000000E+00 0.  1.
         14    1    5    5    0    0  0.68093663211E+01 -0.44366611465E+02  0.80522998508E+01  0.45602666758E+02  0.00000000000E+00 0. -1.
         13    1    3    3    0    0 -0.10534267101E+03  0.12026895630E+03 -0.17444604588E+04  0.17517716725E+04  0.00000000000E+00 0. -1.
        -14    1    3    3    0    0  0.28448029968E+01  0.69432593117E+02 -0.63108292159E+03  0.63489733959E+03  0.00000000000E+00 0.  1.
          5    1    4    4  501    0  0.57088550298E+02 -0.11632018981E+03 -0.15232797969E+03  0.20002693551E+03  0.41800000000E+01 0.  1.
         -5    1    4    4    0  501  0.10681098443E+03 -0.20078610768E+02 -0.51281357264E+02  0.12024552801E+03  0.41800000000E+01 0.  1.
</event>
<event>
11    1  0.8328696E-009  0.2890933E+03  0.7561462E-02  0.1004916E+00
         22   -1    0    0    0    0  0.00000000000E+00  0.00000000000E+00  0.64651850535E+03  0.64651850535E+03  0.00000000000E+00 0. -1.
         22   -1    0    0    0    0 -0.00000000000E+00 -0.00000000000E+00 -0.88188365607E+03  0.88188365607E+03  0.00000000000E+00 0. -1.
        -24    2    1    2    0    0  0.68307312004E+02  0.11668909358E+03 -0.60878987563E+03  0.62878970729E+03  0.80431025689E+02 0.  0.
         25    2    1    2    0    0 -0.10630644705E+03 -0.35739417501E+03 -0.58163760411E+02  0.39757059169E+03  0.12509074839E+03 0.  0.
         24    2    1    2    0    0  0.37999135051E+02  0.24070508143E+03  0.43158848532E+03  0.50204186245E+03  0.79965870882E+02 0.  0.
        -11    1    5    5    0    0 -0.24383311983E+02  0.84549189035E+02  0.16035310355E+03  0.18291044007E+03  0.00000000000E+00 0.  1.
         12    1    5    5    0    0  0.62382447033E+02  0.15615589240E+03  0.27123538177E+03  0.31913142238E+03  0.00000000000E+00 0. -1.
         11    1    3    3    0    0  0.75320569813E+02  0.95920567259E+02 -0.57956156444E+03  0.59225463311E+03  0.00000000000E+00 0. -1.
        -12    1    3    3    0    0 -0.70132578091E+01  0.20768526321E+02 -0.29228311184E+02  0.36535074180E+02  0.00000000000E+00 0.  1.
          5    1    4    4  501    0 -0.96398928782E+02 -0.20419983605E+03  0.17201500469E+02  0.22650317996E+03  0.41800000000E+01 0.  1.
         -5    1    4    4    0  501 -0.99075182734E+01 -0.15319433896E+03 -0.75365260880E+02  0.17106741173E+03  0.41800000000E+01 0.  1.
</event>
<event>
11    1  0.8924183E-009  0.1738130E+03  0.7561462E-02  0.1074760E+00
         22   -1    0    0    0    0  0.00000000000E+00  0.00000000000E+00  0.53225675542E+03  0.53225675542E+03  0.00000000000E+00 0.  1.
         22   -1    0    0    0    0 -0.00000000000E+00 -0.00000000000E+00 -0.53225113950E+03  0.53225113950E+03  0.00000000000E+00 0. -1.
         24    2    1    2    0    0  0.14043730879E+02  0.24548963784E+02 -0.35626227877E+03  0.36465326997E+03  0.72452177481E+02 0.  0.
         25    2    1    2    0    0  0.53102547159E+02 -0.12389074627E+03 -0.10876388399E+03  0.21364574567E+03  0.12508447008E+03 0.  0.
        -24    2    1    2    0    0 -0.67146278038E+02  0.99341782491E+02  0.46503177869E+03  0.48620887928E+03  0.75941468889E+02 0.  0.
        -11    1    3    3    0    0  0.31268828235E+02 -0.12994557460E+02 -0.11504160732E+03  0.11992151415E+03  0.00000000000E+00 0.  1.
         12    1    3    3    0    0 -0.17225097356E+02  0.37543521244E+02 -0.24122067146E+03  0.24473175582E+03  0.00000000000E+00 0. -1.
         11    1    5    5    0    0  0.32241482684E+01  0.37266768009E+02  0.62106946297E+02  0.72501585557E+02  0.00000000000E+00 0. -1.
        -12    1    5    5    0    0 -0.70370426307E+02  0.62075014482E+02  0.40292483239E+03  0.41370729372E+03  0.00000000000E+00 0.  1.
          5    1    4    4  501    0  0.73636309489E+02 -0.13633081892E+03 -0.75505942574E+02  0.17241524882E+03  0.41800000000E+01 0.  1.
         -5    1    4    4    0  501 -0.20533762330E+02  0.12440072647E+02 -0.33257941417E+02  0.41230496846E+02  0.41800000000E+01 0.  1.
</event>
<event>
11    1  0.8328696E-009  0.1394746E+03  0.7561462E-02  0.1108147E+00
         22   -1    0    0    0    0  0.00000000000E+00  0.00000000000E+00  0.41564907329E+03  0.41564907329E+03  0.00000000000E+00 0.  1.
         22   -1    0    0    0    0 -0.00000000000E+00 -0.00000000000E+00 -0.27498457347E+03  0.27498457347E+03  0.00000000000E+00 0.  1.
        -24    2    1    2    0    0 -0.16306096158E+02 -0.60625333513E+02 -0.16054677104E+03  0.19043771017E+03  0.80931674438E+02 0.  0.
         25    2    1    2    0    0 -0.44748326127E+02  0.71108747318E+02 -0.29863786833E+02  0.15361804460E+03  0.12509113168E+03 0.  0.
         24    2    1    2    0    0  0.61054422285E+02 -0.10483413806E+02  0.33107505769E+03  0.34657789200E+03  0.81657803972E+02 0.  0.
        -13    1    5    5    0    0  0.65467876538E+02  0.20539448864E+02  0.18848653445E+03  0.20058685273E+03  0.00000000000E+00 0.  1.
         14    1    5    5    0    0 -0.44134542533E+01 -0.31022862669E+02  0.14258852324E+03  0.14599103927E+03  0.00000000000E+00 0. -1.
         11    1    3    3    0    0 -0.18974498716E+02  0.16293997338E+02 -0.47424344411E+02  0.53615244041E+02  0.00000000000E+00 0. -1.
        -12    1    3    3    0    0  0.26684025583E+01 -0.76919330851E+02 -0.11312242663E+03  0.13682246613E+03  0.00000000000E+00 0.  1.
          5    1    4    4  501    0  0.34765439991E+02  0.28705931377E-01 -0.31164111294E+02  0.46875482659E+02  0.41800000000E+01 0. -1.
         -5    1    4    4    0  501 -0.79513766118E+02  0.71080041387E+02  0.13003244601E+01  0.10674256194E+03  0.41800000000E+01 0. -1.
</event>
<event>
11    1  0.8328696E-009  0.1275140E+03  0.7561462E-02  0.1122362E+00
         22   -1    0    0    0    0  0.00000000000E+00  0.00000000000E+00  0.70069051099E+02  0.70069051099E+02  0.00000000000E+00 0. -1.
         22   -1    0    0    0    0 -0.00000000000E+00 -0.00000000000E+00 -0.23639294356E+04  0.23639294356E+04  0.00000000000E+00 0. -1.
         24    2    1    2    0    0  0.72266654774E+00  0.18916450594E+02 -0.15445275464E+04  0.15468029643E+04  0.81705044792E+02 0.  0.
         25    2    1    2    0    0 -0.12216954209E+02 -0.40152127139E+02 -0.78452663367E+03  0.79554478805E+03  0.12509206038E+03 0.  0.
        -24    2    1    2    0    0  0.11494287661E+02  0.21235676545E+02  0.35193795610E+02  0.91650734338E+02  0.81105987745E+02 0.  0.
        -11    1    3    3    0    0 -0.12417879435E+02  0.31892376581E+02 -0.27242815819E+03  0.27456953361E+03  0.00000000000E+00 0.  1.
         12    1    3    3    0    0  0.13140545983E+02 -0.12975925987E+02 -0.12720993882E+04  0.12722334307E+04  0.00000000000E+00 0. -1.
         13    1    5    5    0    0  0.15482239777E+02 -0.25893735087E+02  0.32398796001E+02  0.44270387931E+02  0.00000000000E+00 0. -1.
        -14    1    5    5    0    0 -0.39879521159E+01  0.47129411632E+02  0.27949996087E+01  0.47380346407E+02  0.00000000000E+00 0.  1.
          5    1    4    4  501    0 -0.29640109165E+02 -0.77224088110E+02 -0.37960586922E+03  0.38853594969E+03  0.41800000000E+01 0. -1.
         -5    1    4    4    0  501  0.17423154957E+02  0.37071960971E+02 -0.40492076444E+03  0.40700883835E+03  0.41800000000E+01 0. -1.
</event>
<event>
11    1  0.8328696E-009  0.3728246E+03  0.7561462E-02  0.9733528E-01
         22   -1    0    0    0    0  0.00000000000E+00  0.00000000000E+00  0.34107228728E+04  0.34107228728E+04  0.00000000000E+00 0.  1.
         22   -1    0    0    0    0 -0.00000000000E+00 -0.00000000000E+00 -0.26596834879E+03  0.26596834879E+03  0.00000000000E+00 0.  1.
        -24    2    1    2    0    0  0.11882777695E+03  0.30410439980E+03 -0.84359181379E+02  0.34690590173E+03  0.81410727906E+02 0.  0.
         25    2    1    2    0    0  0.20589721830E+03 -0.39747296325E+03  0.17712995810E+04  0.18312641200E+04  0.12509057052E+03 0.  0.
         24    2    1    2    0    0 -0.32472499525E+03  0.93368563450E+02  0.14578141244E+04  0.14985211998E+04  0.78611409600E+02 0.  0.
        -13    1    5    5    0    0 -0.11955359797E+03  0.48982241844E+02  0.40955851616E+03  0.42945372389E+03  0.00000000000E+00 0.  1.
         14    1    5    5    0    0 -0.20517139728E+03  0.44386321606E+02  0.10482556082E+04  0.10690674759E+04  0.00000000000E+00 0. -1.
         13    1    3    3    0    0  0.24030082373E+02  0.16591454872E+02 -0.24917397548E+02  0.38387471058E+02  0.00000000000E+00 0. -1.
        -14    1    3    3    0    0  0.94797694578E+02  0.28751294493E+03 -0.59441783831E+02  0.30851843067E+03  0.00000000000E+00 0.  1.
          5    1    4    4  501    0  0.18586503491E+03 -0.38804916443E+03  0.15435192836E+04  0.16023723714E+04  0.41800000000E+01 0. -1.
         -5    1    4    4    0  501  0.20032183383E+02 -0.94237988205E+01  0.22778029734E+03  0.22889174867E+03  0.41800000000E+01 0. -1.
</event>
<event>
11    1  0.8328696E-009  0.1766525E+03  0.7561462E-02  0.1072383E+00
         22   -1    0    0    0    0  0.00000000000E+00  0.00000000000E+00  0.16377993356E+03  0.16377993356E+03  0.00000000000E+00 0.  1.
         22   -1    0    0    0    0 -0.00000000000E+00 -0.00000000000E+00 -0.15146067060E+04  0.15146067060E+04  0.00000000000E+00 0.  1.
         24    2    1    2    0    0  0.41833743605E+01  0.42644897395E+02 -0.12569589377E+04  0.12604030354E+04  0.82667724473E+02 0.  0.
         25    2    1    2    0    0 -0.56486684068E+02  0.78016387940E+02 -0.17945514900E+03  0.23901737075E+03  0.12509136961E+03 0.  0.
        -24    2    1    2    0    0  0.52303309707E+02 -0.12066128534E+03  0.85587314218E+02  0.17896623345E+03  0.86075213486E+02 0.  0.
        -11    1    3    3    0    0  0.68311605659E+00 -0.90703675390E+01 -0.86310532137E+03  0.86315325059E+03  0.00000000000E+00 0.  1.
         12    1    3    3    0    0  0.35002583039E+01  0.51715264934E+02 -0.39385361632E+03  0.39724978480E+03  0.00000000000E+00 0. -1.
         13    1    5    5    0    0 -0.15507774289E+02 -0.36487992166E+02  0.52769890308E+02  0.66003984417E+02  0.00000000000E+00 0. -1.
        -14    1    5    5    0    0  0.67811083996E+02 -0.84173293169E+02  0.32817423909E+02  0.11296224904E+03  0.00000000000E+00 0.  1.
          5    1    4    4  501    0 -0.23177063291E+02 -0.31843631842E+02 -0.69541063509E+02  0.80028901440E+02  0.41800000000E+01 0.  1.
         -5    1    4    4    0  501 -0.33309620776E+02  0.10986001978E+03 -0.10991408549E+03  0.15898846931E+03  0.41800000000E+01 0.  1.
</event>
<event>
11    1  0.8328696E-009  0.1421312E+03  0.7561462E-02  0.1105202E+00
         22   -1    0    0    0    0  0.00000000000E+00  0.00000000000E+00  0.45221229395E+03  0.45221229395E+03  0.00000000000E+00 0. -1.
         22   -1    0    0    0    0 -0.00000000000E+00 -0.00000000000E+00 -0.95719712271E+03  0.95719712271E+03  0.00000000000E+00 0.  1.
        -24    2    1    2    0    0 -0.26778699260E+02 -0.20641266989E+02 -0.91879973050E+03  0.92354344169E+03  0.87157233087E+02 0.  0.
         25    2    1    2    0    0  0.63960123531E+02  0.63011181624E+02  0.22298945583E+03  0.27098518645E+03  0.12508943780E+03 0.  0.
         24    2    1    2    0    0 -0.37181424271E+02 -0.42369914636E+02  0.19082544592E+03  0.21488078852E+03  0.81127889720E+02 0.  0.
        -13    1    5    5    0    0 -0.46146970857E+01 -0.18486953794E+02 -0.77540266561E+00  0.19069980049E+02  0.00000000000E+00 0.  1.
         14    1    5    5    0    0 -0.32566727185E+02 -0.23882960842E+02  0.19160084858E+03  0.19581080848E+03  0.00000000000E+00 0. -1.
         13    1    3    3    0    0  0.19470423837E+02 -0.26362982121E+02 -0.16043749185E+03  0.16375070388E+03  0.00000000000E+00 0. -1.
        -14    1    3    3    0    0 -0.46249123097E+02  0.57217151326E+01 -0.75836223865E+03  0.75979273780E+03  0.00000000000E+00 0.  1.
          5    1    4    4  501    0  0.74611836274E+02  0.77277947392E+02  0.10057723046E+03  0.14721432998E+03  0.41800000000E+01 0. -1.
         -5    1    4    4    0  501 -0.10651712743E+02 -0.14266765768E+02  0.12241222537E+03  0.12377085646E+03  0.41800000000E+01 0. -1.
</event>
<event>
11    1  0.8328696E-009  0.1857517E+03  0.7561462E-02  0.1065083E+00
         22   -1    0    0    0    0  0.00000000000E+00  0.00000000000E+00  0.15255599243E+04  0.15255599243E+04  0.00000000000E+00 0. -1.
         22   -1    0    0    0    0 -0.00000000000E+00 -0.00000000000E+00 -0.14852879153E+03  0.14852879153E+03  0.00000000000E+00 0. -1.
         24    2    1    2    0    0 -0.81417703284E+02  0.12489285956E+03 -0.67760661072E+02  0.18239576130E+03  0.80309636865E+02 0.  0.
         25    2    1    2    0    0 -0.19121998944E+02 -0.95074434887E+02  0.29952825931E+03  0.33877752178E+03  0.12509289398E+03 0.  0.
        -24    2    1    2    0    0  0.10053970223E+03 -0.29818424677E+02  0.11452635345E+04  0.11529154328E+04  0.81166873545E+02 0.  0.
        -13    1    3    3    0    0 -0.42413476644E+02  0.54404535938E+01 -0.90985060163E+01  0.43718238163E+02  0.00000000000E+00 0.  1.
         14    1    3    3    0    0 -0.39004226641E+02  0.11945240597E+03 -0.58662155056E+02  0.13867752314E+03  0.00000000000E+00 0. -1.
         13    1    5    5    0    0  0.22692501067E+02  0.27546348862E+02  0.33911028028E+03  0.34098318599E+03  0.00000000000E+00 0. -1.
        -14    1    5    5    0    0  0.77847201161E+02 -0.57364773539E+02  0.80615325426E+03  0.81193224676E+03  0.00000000000E+00 0.  1.
          5    1    4    4  501    0  0.32283098738E+02  0.15014041006E+02  0.83942880818E+02  0.91277048218E+02  0.41800000000E+01 0. -1.
         -5    1    4    4    0  501 -0.51405097681E+02 -0.11008847589E+03  0.21558537849E+03  0.24750047356E+03  0.41800000000E+01 0. -1.
</event>
<event>
11    1  0.8328696E-009  0.1281191E+03  0.7561462E-02  0.1121602E+00
         22   -1    0    0    0    0  0.00000000000E+00  0.00000000000E+00  0.85236537018E+03  0.85236537018E+03  0.00000000000E+00 0. -1.
         22   -1    0    0    0    0 -0.00000000000E+00 -0.00000000000E+00 -0.24293082441E+03  0.24293082441E+03  0.00000000000E+00 0.  1.
        -24    2    1    2    0    0 -0.19173907972E+02 -0.19132057057E+02 -0.21451848604E+03  0.23074295717E+03  0.80563373054E+02 0.  0.
         25    2    1    2    0    0  0.32921911221E+02  0.33841374416E+02  0.23895115023E+03  0.27381338629E+03  0.12508807879E+03 0.  0.
         24    2    1    2    0    0 -0.13748003250E+02 -0.14709317359E+02  0.58500188158E+03  0.59073985113E+03  0.79630387725E+02 0.  0.
        -11    1    5    5    0    0  0.28486429379E+02  0.66221007148E+01  0.33685894354E+03  0.33812612546E+03  0.00000000000E+00 0.  1.
         12    1    5    5    0    0 -0.42234432629E+02 -0.21331418073E+02  0.24814293804E+03  0.25261372567E+03  0.00000000000E+00 0. -1.
         11    1    3    3    0    0  0.10572364942E+02  0.16804594548E+02 -0.12620395018E+02  0.23525383499E+02  0.00000000000E+00 0. -1.
        -12    1    3    3    0    0 -0.29746272914E+02 -0.35936651605E+02 -0.20189809102E+03  0.20721757367E+03  0.00000000000E+00 0.  1.
          5    1    4    4  501    0 -0.34093294055E+02 -0.26255630711E+02  0.68351722325E+02  0.80877321842E+02  0.41800000000E+01 0. -1.
         -5    1    4    4    0  501  0.67015205276E+02  0.60097005126E+02  0.17059942791E+03  0.19293606445E+03  0.41800000000E+01 0. -1.
</event>
<event>
11    1  0.8328696E-009  0.2118869E+03  0.7561462E-02  0.1046422E+00
         22   -1    0    0    0    0  0.00000000000E+00  0.00000000000E+00  0.11977235930E+04  0.11977235930E+04  0.00000000000E+00 0. -1.
         22   -1    0    0    0    0 -0.00000000000E+00 -0.00000000000E+00 -0.22213082074E+04  0.22213082074E+04  0.00000000000E+00 0.  1.
        -24    2    1    2    0    0  0.20648380295E+01 -0.15570624583E+02 -0.19165804836E+04  0.19182680263E+04  0.78897164169E+02 0.  0.
         25    2    1    2    0    0  0.11053204437E+03 -0.11359902451E+03 -0.26174862030E+03  0.33057745324E+03  0.12508813357E+03 0.  0.
         24    2    1    2    0    0 -0.11259688240E+03  0.12916964909E+03  0.11547444896E+04  0.11701863209E+04  0.80859959962E+02 0.  0.
        -13    1    5    5    0    0 -0.20996719955E+02  0.39314291170E+01  0.34806856471E+03  0.34872344935E+03  0.00000000000E+00 0.  1.
         14    1    5    5    0    0 -0.91600162445E+02  0.12523821998E+03  0.80667592488E+03  0.82146287151E+03  0.00000000000E+00 0. -1.
         13    1    3    3    0    0  0.35371838515E+01 -0.26351348782E+02 -0.21302512166E+03  0.21467791621E+03  0.00000000000E+00 0. -1.
        -14    1    3    3    0    0 -0.14723458220E+01  0.10780724200E+02 -0.17035553620E+04  0.17035901101E+04  0.00000000000E+00 0.  1.
          5    1    4    4  501    0  0.10568343515E+03 -0.11949159030E+03 -0.27308246539E+03  0.31628900379E+03  0.41800000000E+01 0. -1.
         -5    1    4    4    0  501  0.48486092254E+01  0.58925657872E+01  0.11333845093E+02  0.14288449446E+02  0.41800000000E+01 0. -1.
</event>
<event>
11    1  0.8328696E-009  0.1683588E+03  0.7561462E-02  0.1079469E+00
         22   -1    0    0    0    0  0.00000000000E+00  0.00000000000E+00  0.10144218444E+04  0.10144218444E+04  0.00000000000E+00 0.  1.
         22   -1    0    0    0    0 -0.00000000000E+00 -0.00000000000E+00 -0.25416041837E+03  0.25416041837E+03  0.00000000000E+00 0. -1.
        -24    2    1    2    0    0  0.71767460763E+02 -0.82632247773E+02 -0.18976837091E+03  0.23351625285E+03  0.80865004492E+02 0.  0.
         25    2    1    2    0    0 -0.82271788743E+02  0.12452202765E+03  0.19999697175E+03  0.27914294776E+03  0.12509042321E+03 0.  0.
         24    2    1    2    0    0  0.10504327981E+02 -0.41889779880E+02  0.75003282520E+03  0.75592306216E+03  0.83697923917E+02 0.  0.
        -11    1    5    5    0    0  0.46309435608E+02 -0.30171474618E+02  0.50417044716E+03  0.50719101086E+03  0.00000000000E+00 0.  1.
         12    1    5    5    0    0 -0.35805107627E+02 -0.11718305262E+02  0.24586237804E+03  0.24873205130E+03  0.00000000000E+00 0. -1.
         13    1    3    3    0    0  0.43929049527E+02 -0.24675755632E+02 -0.14923341799E+03  0.15750957861E+03  0.00000000000E+00 0. -1.
        -14    1    3    3    0    0  0.27838411236E+02 -0.57956492141E+02 -0.40534952923E+02  0.76006674246E+02  0.00000000000E+00 0.  1.
          5    1    4    4  501    0 -0.74003002163E+02  0.14611394371E+03  0.19574878887E+03  0.25526611530E+03  0.41800000000E+01 0.  1.
         -5    1    4    4    0  501 -0.82687865798E+01 -0.21591916059E+02  0.42481828866E+01  0.23876832462E+02  0.41800000000E+01 0.  1.
</event>
<event>
11    1  0.8328696E-009  0.1263061E+03  0.7561462E-02  0.1123893E+00
         22   -1    0    0    0    0  0.00000000000E+00  0.00000000000E+00  0.13069075409E+03  0.13069075409E+03  0.00000000000E+00 0.  1.
         22   -1    0    0    0    0 -0.00000000000E+00 -0.00000000000E+00 -0.38292242528E+03  0.38292242528E+03  0.00000000000E+00 0.  1.
         24    2    1    2    0    0  0.50749168387E+01 -0.17980336832E+02 -0.22032838567E+03  0.23552422944E+03  0.81104980279E+02 0.  0.
         25    2    1    2    0    0 -0.82698459419E+01  0.11011111592E+02 -0.10967723035E+03  0.16693138762E+03  0.12508940158E+03 0.  0.
        -24    2    1    2    0    0  0.31949291032E+01  0.69692252405E+01  0.77773944820E+02  0.11115756231E+03  0.79047071376E+02 0.  0.
        -13    1    3    3    0    0  0.48145383010E+01  0.32377902793E+02 -0.93454448299E+02  0.99021423314E+02  0.00000000000E+00 0.  1.
         14    1    3    3    0    0  0.26037853761E+00 -0.50358239625E+02 -0.12687393737E+03  0.13650280612E+03  0.00000000000E+00 0. -1.
         11    1    5    5    0    0 -0.17211031789E+02  0.38232095877E+02  0.37641747777E+02  0.56345487362E+02  0.00000000000E+00 0. -1.
        -12    1    5    5    0    0  0.20405960893E+02 -0.31262870636E+02  0.40132197043E+02  0.54812074946E+02  0.00000000000E+00 0.  1.
          5    1    4    4  501    0  0.57669476177E+02  0.16151927562E+01 -0.39225348946E+02  0.69889038698E+02  0.41800000000E+01 0.  1.
         -5    1    4    4    0  501 -0.65939322119E+02  0.93959188355E+01 -0.70451881400E+02  0.97042348926E+02  0.41800000000E+01 0.  1.
</event>
<event>
11    1  0.8328696E-009  0.1428276E+03  0.7561462E-02  0.1104441E+00
         22   -1    0    0    0    0  0.00000000000E+00  0.00000000000E+00  0.35845244627E+03  0.35845244627E+03  0.00000000000E+00 0. -1.
         22   -1    0    0    0    0 -0.00000000000E+00 -0.00000000000E+00 -0.11762482363E+04  0.11762482363E+04  0.00000000000E+00 0.  1.
        -24    2    1    2    0    0 -0.37894736719E+01  0.29919848178E+02 -0.10895831726E+04  0.10930113830E+04  0.81073027468E+02 0.  0.
         25    2    1    2    0    0 -0.23030613585E+01 -0.94763765301E+02  0.92758048970E+01  0.15722188488E+03  0.12508878935E+03 0.  0.
         24    2    1    2    0    0  0.60925350303E+01  0.64843917122E+02  0.26251157773E+03  0.28446741471E+03  0.88133586226E+02 0.  0.
        -13    1    5    5    0    0  0.18767869137E+02  0.66223706233E+02  0.99671526143E+02  0.12112896145E+03  0.00000000000E+00 0.  1.
         14    1    5    5    0    0 -0.12675334106E+02 -0.13797891109E+01  0.16284005159E+03  0.16333845326E+03  0.00000000000E+00 0. -1.
         13    1    3    3    0    0 -0.27597612279E+02  0.56313154047E+01 -0.13926376085E+03  0.14208354938E+03  0.00000000000E+00 0. -1.
        -14    1    3    3    0    0  0.23808138607E+02  0.24288532774E+02 -0.95031941178E+03  0.95092783359E+03  0.00000000000E+00 0.  1.
          5    1    4    4  501    0  0.43498202846E+02 -0.50422020804E+02  0.48290838184E+02  0.82364745403E+02  0.41800000000E+01 0.  1.
         -5    1    4    4    0  501 -0.45801264204E+02 -0.44341744496E+02 -0.39015033287E+02  0.74857139473E+02  0.41800000000E+01 0.  1.
</event>
<event>
11    1  0.8328696E-009  0.1335844E+03  0.7561462E-02  0.1114942E+00
         22   -1    0    0    0    0  0.00000000000E+00  0.00000000000E+00  0.30732459340E+03  0.30732459340E+03  0.00000000000E+00 0.  1.
         22   -1    0    0    0    0 -0.00000000000E+00 -0.00000000000E+00 -0.45393281427E+03  0.45393281427E+03  0.00000000000E+00 0. -1.
        -24    2    1    2    0    0  0.43522137539E+02  0.16586297331E+02 -0.37194318567E+03  0.38341444306E+03  0.80595409690E+02 0.  0.
         25    2    1    2    0    0 -0.45440602424E+02 -0.23669645807E+02 -0.59464922715E+01  0.13528807725E+03  0.12506959100E+03 0.  0.
         24    2    1    2    0    0  0.19184648841E+01  0.70833484754E+01  0.23128145706E+03  0.24255488736E+03  0.72717994122E+02 0.  0.
        -13    1    5    5    0    0 -0.27527571894E+02  0.99167701051E+01  0.18716614105E+03  0.18943936734E+03  0.00000000000E+00 0.  1.
         14    1    5    5    0    0  0.29446036778E+02 -0.28334216298E+01  0.44115316014E+02  0.53115520020E+02  0.00000000000E+00 0. -1.
         11    1    3    3    0    0  0.28872126891E+02 -0.12595579236E+02 -0.32328255466E+03  0.32481357496E+03  0.00000000000E+00 0. -1.
        -12    1    3    3    0    0  0.14650010649E+02  0.29181876568E+02 -0.48660631010E+02  0.58600868102E+02  0.00000000000E+00 0.  1.
          5    1    4    4  501    0  0.12038117900E+02 -0.61092620529E+02  0.13548250129E+02  0.63861193594E+02  0.41800000000E+01 0.  1.
         -5    1    4    4    0  501 -0.57478720324E+02  0.37422974723E+02 -0.19494742400E+02  0.71426883653E+02  0.41800000000E+01 0.  1.
</event>
<event>
11    1  0.8328696E-009  0.1640484E+03  0.7561462E-02  0.1083330E+00
         22   -1    0    0    0    0  0.00000000000E+00  0.00000000000E+00  0.35062312112E+04  0.35062312112E+04  0.00000000000E+00 0. -1.
         22   -1    0    0    0    0 -0.00000000000E+00 -0.00000000000E+00 -0.83034726273E+03  0.83034726273E+03  0.00000000000E+00 0.  1.
         24    2    1    2    0    0 -0.17580242578E+02 -0.13098461745E+02 -0.81897913894E+03  0.82337113539E+03  0.82052190408E+02 0.  0.
         25    2    1    2    0    0  0.42107208833E+02 -0.91833836469E+02  0.86836037290E+03  0.88312272908E+03  0.12509814887E+03 0.  0.
        -24    2    1    2    0    0 -0.24526966255E+02  0.10493229821E+03  0.26265027145E+04  0.26300846094E+04  0.84948127031E+02 0.  0.
        -11    1    3    3    0    0 -0.27670760914E+02  0.28153848060E+02 -0.50371385917E+03  0.50525831224E+03  0.00000000000E+00 0.  1.
         12    1    3    3    0    0  0.10090518336E+02 -0.41252309805E+02 -0.31526527977E+03  0.31811282315E+03  0.00000000000E+00 0. -1.
         13    1    5    5    0    0 -0.30874177241E+02  0.11559844682E+03  0.25237942040E+04  0.25266288607E+04  0.00000000000E+00 0. -1.
        -14    1    5    5    0    0  0.63472109855E+01 -0.10666148603E+02  0.10270851047E+03  0.10345574869E+03  0.00000000000E+00 0.  1.
          5    1    4    4  501    0 -0.44063859062E+02 -0.31321498897E+02  0.34805017104E+03  0.35224856839E+03  0.41800000000E+01 0. -1.
         -5    1    4    4    0  501  0.86171067895E+02 -0.60512337572E+02  0.52031020185E+03  0.53087416069E+03  0.41800000000E+01 0. -1.
</event>
<event>
11    1  0.8328696E-009  0.1594412E+03  0.7561462E-02  0.1087604E+00
         22   -1    0    0    0    0  0.00000000000E+00  0.00000000000E+00  0.26089507581E+04  0.26089507581E+04  0.00000000000E+00 0. -1.
         22   -1    0    0    0    0 -0.00000000000E+00 -0.00000000000E+00 -0.10519247240E+03  0.10519247240E+03  0.00000000000E+00 0. -1.
        -24    2    1    2    0    0 -0.13751032113E+02  0.95082009169E+02 -0.42591986342E+02  0.13286302259E+03  0.81294686906E+02 0.  0.
         25    2    1    2    0    0  0.54726129302E+02 -0.12387256692E+03  0.50105068985E+03  0.53388874185E+03  0.12508410298E+03 0.  0.
         24    2    1    2    0    0 -0.40975097189E+02  0.28790557753E+02  0.20452995822E+04  0.20473914661E+04  0.77804752844E+02 0.  0.
        -11    1    5    5    0    0  0.73344267191E+01  0.13898178135E+02  0.85018706020E+02  0.86458854631E+02  0.00000000000E+00 0.  1.
         12    1    5    5    0    0 -0.48309523908E+02  0.14892379618E+02  0.19602808762E+04  0.19609326114E+04  0.00000000000E+00 0. -1.
         11    1    3    3    0    0 -0.20221995902E+02  0.10237198364E+03 -0.54296513068E+02  0.11763104813E+03  0.00000000000E+00 0. -1.
        -12    1    3    3    0    0  0.64709637894E+01 -0.72899744686E+01  0.11704526726E+02  0.15231974462E+02  0.00000000000E+00 0.  1.
          5    1    4    4  501    0  0.16257958505E+02 -0.75502454710E+02  0.44059805918E+03  0.44733551618E+03  0.41800000000E+01 0. -1.
         -5    1    4    4    0  501  0.38468170797E+02 -0.48370112211E+02  0.60452630660E+02  0.86553225668E+02  0.41800000000E+01 0. -1.
</event>
<event>
11    1  0.8328696E-009  0.1535651E+03  0.7561462E-02  0.1093291E+00
         22   -1    0    0    0    0  0.00000000000E+00  0.00000000000E+00  0.29840072540E+03  0.29840072540E+03  0.00000000000E+00 0.  1.
         22   -1    0    0    0    0 -0.00000000000E+00 -0.00000000000E+00 -0.47443978982E+03  0.47443978982E+03  0.00000000000E+00 0. -1.
         24    2    1    2    0    0  0.28976015460E+02  0.84781373335E+02 -0.40048090041E+03  0.41770724238E+03  0.77890294697E+02 0.  0.
         25    2    1    2    0    0  0.20544459293E+02 -0.92593604766E+02  0.67905711191E+02  0.17103839865E+03  0.12508915920E+03 0.  0.
        -24    2    1    2    0    0 -0.49520474752E+02  0.78122314305E+01  0.15653612479E+03  0.18409487419E+03  0.82909926778E+02 0.  0.
        -13    1    3    3    0    0 -0.81927609707E+01 -0.73013402795E+00 -0.20024259870E+01  0.84654673737E+01  0.00000000000E+00 0.  1.
         14    1    3    3    0    0  0.37168776430E+02  0.85511507363E+02 -0.39847847442E+03  0.40924177500E+03  0.00000000000E+00 0. -1.
         11    1    5    5    0    0 -0.71651068677E+02  0.99124282178E+01  0.13492664147E+03  0.15309255519E+03  0.00000000000E+00 0. -1.
        -12    1    5    5    0    0  0.22130593924E+02 -0.21001967873E+01  0.21609483321E+02  0.31002319000E+02  0.00000000000E+00 0.  1.
          5    1    4    4  501    0  0.26213808346E+02 -0.10233908357E+03  0.94530885609E+02  0.14182387848E+03  0.41800000000E+01 0.  1.
         -5    1    4    4    0  501 -0.56693490535E+01  0.97454788065E+01 -0.26625174419E+02  0.29214520169E+02  0.41800000000E+01 0.  1.
</event>
<event>
11    1  0.8328696E-009  0.1638936E+03  0.7561462E-02  0.1083471E+00
         22   -1    0    0    0    0  0.00000000000E+00  0.00000000000E+00  0.14318230912E+04  0.14318230912E+04  0.00000000000E+00 0. -1.
         22   -1    0    0    0    0 -0.00000000000E+00 -0.00000000000E+00 -0.10988756064E+04  0.10988756064E+04  0.00000000000E+00 0. -1.
        -24    2    1    2    0    0 -0.17578654082E+02  0.10219070856E+03 -0.96261940057E+03  0.97123490848E+03  0.76871237161E+02 0.  0.
         25    2    1    2    0    0 -0.26257739102E+02 -0.14996296148E+03 -0.55309313385E+02  0.20465993569E+03  0.12509280735E+03 0.  0.
         24    2    1    2    0    0  0.43836393184E+02  0.47772252923E+02  0.13508761987E+04  0.13548038534E+04  0.80144615363E+02 0.  0.
        -13    1    5    5    0    0  0.17927928053E+02 -0.13550001117E+02  0.11733448659E+03  0.11946712886E+03  0.00000000000E+00 0.  1.
         14    1    5    5    0    0  0.25908465131E+02  0.61322254041E+02  0.12335417121E+04  0.12353367245E+04  0.00000000000E+00 0. -1.
         13    1    3    3    0    0 -0.37266566161E+01  0.18712004708E+02 -0.53408451025E+03  0.53442519699E+03  0.00000000000E+00 0. -1.
        -14    1    3    3    0    0 -0.13851997466E+02  0.83478703848E+02 -0.42853489032E+03  0.43680971149E+03  0.00000000000E+00 0.  1.
          5    1    4    4  501    0  0.77143095048E+01 -0.15835962457E+03 -0.59006826291E+02  0.16922340032E+03  0.41800000000E+01 0. -1.
         -5    1    4    4    0  501 -0.33972048606E+02  0.83966630924E+01  0.36975129054E+01  0.35436535374E+02  0.41800000000E+01 0. -1.
</event>
<event>
11    1  0.8328696E-009  0.2095783E+03  0.7561462E-02  0.1047950E+00
         22   -1    0    0    0    0  0.00000000000E+00  0.00000000000E+00  0.84353865509E+03  0.84353865509E+03  0.00000000000E+00 0.  1.
         22   -1    0    0    0    0 -0.00000000000E+00 -0.00000000000E+00 -0.78036016031E+03  0.78036016031E+03  0.00000000000E+00 0.  1.
        -24    2    1    2    0    0  0.13916337081E+03 -0.91317716065E+02 -0.71804549403E+03  0.74168820219E+03  0.82502658966E+02 0.  0.
         25    2    1    2    0    0 -0.19338630955E+03  0.10386041791E+03  0.30552665520E+03  0.39645914241E+03  0.12509221970E+03 0.  0.
         24    2    1    2    0    0  0.54222938740E+02 -0.12542701845E+02  0.47569733361E+03  0.48575147081E+03  0.81049933618E+02 0.  0.
        -11    1    5    5    0    0  0.56971427948E+02 -0.36305110094E+02  0.25629296907E+03  0.26504695927E+03  0.00000000000E+00 0.  1.
         12    1    5    5    0    0 -0.27484892074E+01  0.23762408249E+02  0.21940436453E+03  0.22070451154E+03  0.00000000000E+00 0. -1.
         11    1    3    3    0    0 -0.58636374692E+01  0.79609260592E+01 -0.45049209366E+02  0.46121468457E+02  0.00000000000E+00 0. -1.
        -12    1    3    3    0    0  0.14502700828E+03 -0.99278642124E+02 -0.67299628466E+03  0.69556673373E+03  0.00000000000E+00 0.  1.
          5    1    4    4  501    0  0.13732043520E+02  0.17821956369E+02  0.58320309379E+02  0.62649198192E+02  0.41800000000E+01 0. -1.
         -5    1    4    4    0  501 -0.20711835307E+03  0.86038461541E+02  0.24720634582E+03  0.33380994421E+03  0.41800000000E+01 0. -1.
</event>
<event>
11    1  0.8328696E-009  0.1643530E+03  0.7561462E-02  0.1083053E+00
         22   -1    0    0    0    0  0.00000000000E+00  0.00000000000E+00  0.23379368924E+03  0.23379368924E+03  0.00000000000E+00 0.  1.
         22   -1    0    0    0    0 -0.00000000000E+00 -0.00000000000E+00 -0.10349470166E+04  0.10349470166E+04  0.00000000000E+00 0.  1.
        -24    2    1    2    0    0 -0.57537152319E+02  0.94091200766E+02 -0.89673447385E+03  0.90704581385E+03  0.80222901208E+02 0.  0.
         25    2    1    2    0    0 -0.39339239937E+02 -0.95407713437E+02 -0.49431133891E+02  0.16954340403E+03  0.12510524078E+03 0.  0.
         24    2    1    2    0    0  0.96876392256E+02  0.13165126709E+01  0.14501228042E+03  0.19215148791E+03  0.80665136523E+02 0.  0.
        -13    1    5    5    0    0  0.38220128531E+02 -0.38792989168E+02  0.71913785948E+02  0.90206800425E+02  0.00000000000E+00 0.  1.
         14    1    5    5    0    0  0.58656263725E+02  0.40109501839E+02  0.73098494473E+02  0.10194468748E+03  0.00000000000E+00 0. -1.
         13    1    3    3    0    0 -0.61993296347E+01  0.36212591841E+02 -0.99499236193E+02  0.10606545856E+03  0.00000000000E+00 0. -1.
        -14    1    3    3    0    0 -0.51337822685E+02  0.57878608926E+02 -0.79723523766E+03  0.80098035530E+03  0.00000000000E+00 0.  1.
          5    1    4    4  501    0 -0.30010078603E+02 -0.92145289254E+02  0.20208508850E+02  0.99081862010E+02  0.41800000000E+01 0. -1.
         -5    1    4    4    0  501 -0.93291613346E+01 -0.32624241838E+01 -0.69639642741E+02  0.70461542020E+02  0.41800000000E+01 0. -1.
</event>
<event>
11    1  0.8328696E-009  0.1405695E+03  0.7561462E-02  0.1106924E+00
         22   -1    0    0    0    0  0.00000000000E+00  0.00000000000E+00  0.32122959908E+03  0.32122959908E+03  0.00000000000E+00 0. -1.
         22   -1    0    0    0    0 -0.00000000000E+00 -0.00000000000E+00 -0.10454668622E+04  0.10454668622E+04  0.00000000000E+00 0.  1.
         24    2    1    2    0    0 -0.18203071987E+02 -0.41607883012E+02 -0.96410517916E+03  0.96922895391E+03  0.88562976744E+02 0.  0.
         25    2    1    2    0    0  0.78696740237E+02  0.24051459721E+02  0.14938669479E+02  0.15047481612E+03  0.12509139380E+03 0.  0.
        -24    2    1    2    0    0 -0.60493668250E+02  0.17556423292E+02  0.22492924657E+03  0.24699269124E+03  0.80277715864E+02 0.  0.
        -11    1    3    3    0    0  0.12005506044E+02 -0.47658161739E+02 -0.83706120700E+03  0.83850277091E+03  0.00000000000E+00 0.  1.
         12    1    3    3    0    0 -0.30208578031E+02  0.60502787263E+01 -0.12704397216E+03  0.13072618300E+03  0.00000000000E+00 0. -1.
         11    1    5    5    0    0 -0.61964978320E+02 -0.15883759059E+02  0.17954470450E+03  0.19059971997E+03  0.00000000000E+00 0. -1.
        -12    1    5    5    0    0  0.14713100703E+01  0.33440182350E+02  0.45384542075E+02  0.56392971267E+02  0.00000000000E+00 0.  1.
          5    1    4    4  501    0 -0.41581033261E+01  0.56444503988E+02  0.22599392806E+02  0.61085815120E+02  0.41800000000E+01 0.  1.
         -5    1    4    4    0  501  0.82854843563E+02 -0.32393044267E+02 -0.76607233269E+01  0.89389001005E+02  0.41800000000E+01 0.  1.
</event>
<event>
11    1  0.8328696E-009  0.2069298E+03  0.7561462E-02  0.1049729E+00
         22   -1    0    0    0    0  0.00000000000E+00  0.00000000000E+00  0.70301573564E+03  0.70301573564E+03  0.00000000000E+00 0.  1.
         22   -1    0    0    0    0 -0.00000000000E+00 -0.00000000000E+00 -0.15957996797E+04  0.15957996797E+04  0.00000000000E+00 0.  1.
         24    2    1    2    0    0 -0.30830215400E+02  0.20788401343E+02 -0.14803685629E+04  0.14829739482E+04  0.79611490296E+02 0.  0.
         25    2    1    2    0    0 -0.10222165305E+03  0.84265813306E+02 -0.16537577985E+02  0.18294074137E+03  0.12507529622E+03 0.  0.
        -24    2    1    2    0    0  0.13305186845E+03 -0.10505421465E+03  0.60412219682E+03  0.63290072571E+03  0.82828208892E+02 0.  0.
        -11    1    3    3    0    0 -0.47039226739E+02 -0.14185149877E+02 -0.78095717478E+03  0.78250112855E+03  0.00000000000E+00 0.  1.
         12    1    3    3    0    0  0.16209011339E+02  0.34973551219E+02 -0.69941138808E+03  0.70047281968E+03  0.00000000000E+00 0. -1.
         11    1    5    5    0    0  0.35124422836E+02 -0.51744487345E+02  0.11172687328E+03  0.12803949103E+03  0.00000000000E+00 0. -1.
        -12    1    5    5    0    0  0.97927445614E+02 -0.53309727303E+02  0.49239532354E+03  0.50486123467E+03  0.00000000000E+00 0.  1.
          5    1    4    4  501    0 -0.15521851056E+02 -0.15153761446E+02  0.34889690274E+02  0.41295607921E+02  0.41800000000E+01 0.  1.
         -5    1    4    4    0  501 -0.86699801994E+02  0.99419574752E+02 -0.51427268259E+02  0.14164513345E+03  0.41800000000E+01 0.  1.
</event>
<event>
11    1  0.8328696E-009  0.2897548E+03  0.7561462E-02  0.1004623E+00
         22   -1    0    0    0    0  0.00000000000E+00  0.00000000000E+00  0.19849074654E+03  0.19849074654E+03  0.00000000000E+00 0.  1.
         22   -1    0    0    0    0 -0.00000000000E+00 -0.00000000000E+00 -0.81904210306E+03  0.81904210306E+03  0.00000000000E+00 0.  1.
        -24    2    1    2    0    0 -0.44075518060E+02  0.30838114689E+03 -0.41932147206E+03  0.52876756775E+03  0.81994272501E+02 0.  0.
         25    2    1    2    0    0  0.10904711021E+02 -0.21450952908E+03 -0.24920453560E+03  0.35197070586E+03  0.12508887413E+03 0.  0.
         24    2    1    2    0    0  0.33170807039E+02 -0.93871617803E+02  0.47974651132E+02  0.13679457600E+03  0.80616411494E+02 0.  0.
        -13    1    5    5    0    0 -0.10981185054E+02 -0.80829545565E+02  0.36392963572E+02  0.89322167791E+02  0.00000000000E+00 0.  1.
         14    1    5    5    0    0  0.44151992093E+02 -0.13042072238E+02  0.11581687561E+02  0.47472408205E+02  0.00000000000E+00 0. -1.
         13    1    3    3    0    0 -0.42274944622E+02  0.93166433167E+02 -0.17888545090E+03  0.20607561659E+03  0.00000000000E+00 0. -1.
        -14    1    3    3    0    0 -0.18005734380E+01  0.21521471372E+03 -0.24043602116E+03  0.32269195115E+03  0.00000000000E+00 0.  1.
          5    1    4    4  501    0  0.67175929311E+02 -0.96731019398E+02 -0.11283473127E+03  0.16315221290E+03  0.41800000000E+01 0.  1.
         -5    1    4    4    0  501 -0.56271218290E+02 -0.11777850969E+03 -0.13636980432E+03  0.18881849296E+03  0.41800000000E+01 0.  1.
</event>
<event>
11    1  0.8328696E-009  0.1398559E+03  0.7561462E-02  0.1107719E+00
         22   -1    0    0    0    0  0.00000000000E+00  0.00000000000E+00  0.36369695988E+03  0.36369695988E+03  0.00000000000E+00 0. -1.
         22   -1    0    0    0    0 -0.00000000000E+00 -0.00000000000E+00 -0.25188905670E+03  0.25188905670E+03  0.00000000000E+00 0.  1.
         24    2    1    2    0    0  0.30102532140E+02  0.41037083096E+01 -0.19245892525E+03  0.21052598742E+03  0.79735504068E+02 0.  0.
         25    2    1    2    0    0 -0.32128719740E+02  0.58739928658E+02  0.90741605443E+02  0.16841818154E+03  0.12509201040E+03 0.  0.
        -24    2    1    2    0    0  0.20261876003E+01 -0.62843636968E+02  0.21352522298E+03  0.23664184761E+03  0.80330038274E+02 0.  0.
        -11    1    3    3    0    0  0.59776321858E+01  0.85052386753E+01 -0.18442884160E+03  0.18472159805E+03  0.00000000000E+00 0.  1.
         12    1    3    3    0    0  0.24124899954E+02 -0.44015303657E+01 -0.80300836432E+01  0.25804389368E+02  0.00000000000E+00 0. -1.
         13    1    5    5    0    0 -0.18625222839E+01 -0.35252385916E+02  0.20424474608E+03  0.20727304698E+03  0.00000000000E+00 0. -1.
        -14    1    5    5    0    0  0.38887098843E+01 -0.27591251052E+02  0.92804768979E+01  0.29368800633E+02  0.00000000000E+00 0.  1.
          5    1    4    4  501    0 -0.51292890177E+02  0.90750895959E+02  0.67724149990E+02  0.12438134342E+03  0.41800000000E+01 0.  1.
         -5    1    4    4    0  501  0.19164170437E+02 -0.32010967301E+02  0.23017455453E+02  0.44036838120E+02  0.41800000000E+01 0.  1.
</event>
<event>
11    1  0.8328696E-009  0.1565887E+03  0.7561462E-02  0.1090330E+00
         22   -1    0    0    0    0  0.00000000000E+00  0.00000000000E+00  0.19264272823E+03  0.19264272823E+03  0.00000000000E+00 0.  1.
         22   -1    0    0    0    0 -0.00000000000E+00 -0.00000000000E+00 -0.15176641948E+04  0.15176641948E+04  0.00000000000E+00 0. -1.
        -24    2    1    2    0    0  0.71824367298E+02  0.28035732912E+02 -0.77745297811E+03  0.78560467350E+03  0.82442875914E+02 0.  0.
         25    2    1    2    0    0 -0.15059488125E+03 -0.27195425067E+02 -0.70453632565E+03  0.73173546855E+03  0.12508777865E+03 0.  0.
         24    2    1    2    0    0  0.78770513955E+02 -0.84030784541E+00  0.15696783716E+03  0.19296678100E+03  0.79948587743E+02 0.  0.
        -13    1    5    5    0    0  0.78462057843E+02  0.14182909191E+02  0.15893331812E+03  0.17781239845E+03  0.00000000000E+00 0.  1.
         14    1    5    5    0    0  0.30845611227E+00 -0.15023217036E+02 -0.19654809553E+01  0.15154382557E+02  0.00000000000E+00 0. -1.
         13    1    3    3    0    0  0.78753943996E+02  0.47658066947E+02 -0.62872335164E+03  0.63542625688E+03  0.00000000000E+00 0. -1.
        -14    1    3    3    0    0 -0.69295766983E+01 -0.19622334035E+02 -0.14872962647E+03  0.15017841661E+03  0.00000000000E+00 0.  1.
          5    1    4    4  501    0 -0.11695461810E+03 -0.74568367677E+02 -0.52197206482E+03  0.54010289112E+03  0.41800000000E+01 0.  1.
         -5    1    4    4    0  501 -0.33640263154E+02  0.47372942611E+02 -0.18256426084E+03  0.19163257743E+03  0.41800000000E+01 0.  1.
</event>
<event>
11    1  0.8328696E-009  0.1426943E+03  0.7561462E-02  0.1104587E+00
         22   -1    0    0    0    0  0.00000000000E+00  0.00000000000E+00  0.76986303824E+03  0.76986303824E+03  0.00000000000E+00 0. -1.
         22   -1    0    0    0    0 -0.00000000000E+00 -0.00000000000E+00 -0.17438376908E+03  0.17438376908E+03  0.00000000000E+00 0. -1.
         24    2    1    2    0    0 -0.27846911903E+02 -0.60045023644E+02 -0.85805588536E+02  0.13591248445E+03  0.82028952444E+02 0.  0.
         25    2    1    2    0    0 -0.15913755675E+02  0.89482067047E+02  0.39492587384E+02  0.15958543918E+03  0.12509020744E+03 0.  0.
        -24    2    1    2    0    0  0.43760667578E+02 -0.29437043403E+02  0.64179227032E+03  0.64874888369E+03  0.78716328035E+02 0.  0.
        -13    1    3    3    0    0 -0.20703588921E+01 -0.17534498434E+02  0.15223993786E+02  0.23313408333E+02  0.00000000000E+00 0.  1.
         14    1    3    3    0    0 -0.25776553011E+02 -0.42510525210E+02 -0.10102958232E+03  0.11259907612E+03  0.00000000000E+00 0. -1.
         13    1    5    5    0    0  0.22127386739E+02 -0.74180671854E+01  0.57151485906E+03  0.57199115648E+03  0.00000000000E+00 0. -1.
        -14    1    5    5    0    0  0.21633280839E+02 -0.22018976218E+02  0.70277411258E+02  0.76757727212E+02  0.00000000000E+00 0.  1.
          5    1    4    4  501    0 -0.16430246116E+02  0.82487280755E+02 -0.30164871852E+02  0.89451083658E+02  0.41800000000E+01 0.  1.
         -5    1    4    4    0  501  0.51649044108E+00  0.69947862924E+01  0.69657459237E+02  0.70134355525E+02  0.41800000000E+01 0.  1.
</event>
<event>
11    1  0.8328696E-009  0.1720255E+03  0.7561462E-02  0.1076282E+00
         22   -1    0    0    0    0  0.00000000000E+00  0.00000000000E+00  0.13123208843E+04  0.13123208843E+04  0.00000000000E+00 0. -1.
         22   -1    0    0    0    0 -0.00000000000E+00 -0.00000000000E+00 -0.11980899946E+03  0.11980899946E+03  0.00000000000E+00 0. -1.
         24    2    1    2    0    0 -0.11855541765E+03  0.64967388539E+01 -0.43595656987E+02  0.15564245477E+03  0.90699491441E+02 0.  0.
         25    2    1    2    0    0  0.10174872147E+03 -0.63081700338E+02  0.10697810142E+04  0.10837024017E+04  0.12508946275E+03 0.  0.
        -24    2    1    2    0    0  0.16806696188E+02  0.56584961484E+02  0.16632652763E+03  0.19278502737E+03  0.77570806895E+02 0.  0.
        -13    1    3    3    0    0  0.97188675857E+01 -0.13903940994E+02  0.37901550813E+01  0.17382210384E+02  0.00000000000E+00 0.  1.
         14    1    3    3    0    0 -0.12827428524E+03  0.20400679848E+02 -0.47385812068E+02  0.13826024438E+03  0.00000000000E+00 0. -1.
         13    1    5    5    0    0  0.11888339518E+02  0.71725598413E+02  0.15983364851E+03  0.17559239528E+03  0.00000000000E+00 0. -1.
        -14    1    5    5    0    0  0.49183566693E+01 -0.15140636929E+02  0.64928791177E+01  0.17192632090E+02  0.00000000000E+00 0.  1.
          5    1    4    4  501    0 -0.91061833268E+01  0.27905987597E+02  0.18960797637E+03  0.19191228158E+03  0.41800000000E+01 0.  1.
         -5    1    4    4    0  501  0.11085490479E+03 -0.90987687935E+02  0.88017303788E+03  0.89179012008E+03  0.41800000000E+01 0.  1.
</event>
<event>
11    1  0.8328696E-009  0.1275145E+03  0.7561462E-02  0.1122361E+00
         22   -1    0    0    0    0  0.00000000000E+00  0.00000000000E+00  0.92531236524E+03  0.92531236524E+03  0.00000000000E+00 0.  1.
         22   -1    0    0    0    0 -0.00000000000E+00 -0.00000000000E+00 -0.18643576915E+04  0.18643576915E+04  0.00000000000E+00 0.  1.
        -24    2    1    2    0    0 -0.25077334505E+02  0.47137011306E+01 -0.17793630045E+04  0.17812316102E+04  0.77474227670E+02 0.  0.
         25    2    1    2    0    0  0.43656021978E+01  0.98303439303E+01 -0.33918833232E+02  0.13005469619E+03  0.12509213648E+03 0.  0.
         24    2    1    2    0    0  0.20711732307E+02 -0.14544045061E+02  0.87423651140E+03  0.87838375035E+03  0.81412713460E+02 0.  0.
        -13    1    5    5    0    0  0.15723234461E+01  0.30577514502E+02  0.50221485930E+03  0.50314731590E+03  0.00000000000E+00 0.  1.
         14    1    5    5    0    0  0.19139408861E+02 -0.45121559563E+02  0.37202165210E+03  0.37523643446E+03  0.00000000000E+00 0. -1.
         11    1    3    3    0    0 -0.25945689383E+02 -0.15441965894E+02 -0.26192660862E+03  0.26366111092E+03  0.00000000000E+00 0. -1.
        -12    1    3    3    0    0  0.86835487844E+00  0.20155667025E+02 -0.15174363959E+04  0.15175704993E+04  0.00000000000E+00 0.  1.
          5    1    4    4  501    0 -0.31060769330E+02  0.43269336313E+02  0.20201120131E+02  0.57118863004E+02  0.41800000000E+01 0.  1.
         -5    1    4    4    0  501  0.35426371528E+02 -0.33438992382E+02 -0.54119953363E+02  0.72935833190E+02  0.41800000000E+01 0.  1.
</event>
<event>
11    1  0.8328696E-009  0.1885484E+03  0.7561462E-02  0.1062931E+00
         22   -1    0    0    0    0  0.00000000000E+00  0.00000000000E+00  0.27147268643E+03  0.27147268643E+03  0.00000000000E+00 0.  1.
         22   -1    0    0    0    0 -0.00000000000E+00 -0.00000000000E+00 -0.48382095970E+03  0.48382095970E+03  0.00000000000E+00 0. -1.
        -24    2    1    2    0    0  0.79885441418E+02  0.11389044788E+03 -0.34503620726E+03  0.38086465775E+03  0.81579319298E+02 0.  0.
         25    2    1    2    0    0 -0.75749363340E+02 -0.13058969468E+03 -0.25764578774E+02  0.19774369214E+03  0.12508844815E+03 0.  0.
         24    2    1    2    0    0 -0.41360780775E+01  0.16699246794E+02  0.15845251275E+03  0.17668529624E+03  0.76253020424E+02 0.  0.
        -11    1    5    5    0    0  0.10080954807E+02  0.32664024832E+02  0.14975358000E+03  0.15360566034E+03  0.00000000000E+00 0.  1.
         12    1    5    5    0    0 -0.14217032884E+02 -0.15964778039E+02  0.86989327547E+01  0.23079635892E+02  0.00000000000E+00 0. -1.
         13    1    3    3    0    0  0.89378112716E+02  0.11656858663E+03 -0.33859537737E+03  0.36908469489E+03  0.00000000000E+00 0. -1.
        -14    1    3    3    0    0 -0.94926712978E+01 -0.26781387452E+01 -0.64408298812E+01  0.11779962863E+02  0.00000000000E+00 0.  1.
          5    1    4    4  501    0 -0.82082324720E+02 -0.21221590371E+02  0.10110276236E+01  0.84890273331E+02  0.41800000000E+01 0.  1.
         -5    1    4    4    0  501  0.63329613798E+01 -0.10936810431E+03 -0.26775606397E+02  0.11285341881E+03  0.41800000000E+01 0.  1.
</event>
<event>
11    1  0.9598691E-009  0.1565908E+03  0.7561462E-02  0.1090328E+00
         22   -1    0    0    0    0  0.00000000000E+00  0.00000000000E+00  0.18939508579E+04  0.18939508579E+04  0.00000000000E+00 0.  1.
         22   -1    0    0    0    0 -0.00000000000E+00 -0.00000000000E+00 -0.37631516144E+03  0.37631516144E+03  0.00000000000E+00 0.  1.
         24    2    1    2    0    0  0.42300586471E+02  0.69479381949E+01 -0.24534560865E+03  0.26081493987E+03  0.77410281706E+02 0.  0.
         25    2    1    2    0    0 -0.65920931400E+02  0.84173019387E+02 -0.65027462530E+02  0.17693210436E+03  0.12508290163E+03 0.  0.
        -24    2    1    2    0    0  0.23620344930E+02 -0.91120957581E+02  0.18280087677E+04  0.18325189751E+04  0.87457360839E+02 0.  0.
        -13    1    3    3    0    0  0.63917133945E+02  0.13214242692E+02 -0.16702681705E+03  0.17932644489E+03  0.00000000000E+00 0.  1.
         14    1    3    3    0    0 -0.21616547474E+02 -0.62663044975E+01 -0.78318791598E+02  0.81488494980E+02  0.00000000000E+00 0. -1.
         13    1    5    5    0    0 -0.26580778973E+02 -0.30634837298E+02  0.33566946970E+03  0.33811096397E+03  0.00000000000E+00 0. -1.
        -14    1    5    5    0    0  0.50201123902E+02 -0.60486120284E+02  0.14923392980E+04  0.14944080112E+04  0.00000000000E+00 0.  1.
          5    1    4    4  501    0 -0.91418861817E+02  0.48053919633E+02 -0.66427801021E+01  0.10357695890E+03  0.41800000000E+01 0. -1.
         -5    1    4    4    0  501  0.25497930417E+02  0.36119099754E+02 -0.58384682428E+02  0.73355145455E+02  0.41800000000E+01 0. -1.
</event>
<event>
11    1  0.8328696E-009  0.1357157E+03  0.7561462E-02  0.1112439E+00
         22   -1    0    0    0    0  0.00000000000E+00  0.00000000000E+00  0.28110310591E+04  0.28110310591E+04  0.00000000000E+00 0. -1.
         22   -1    0    0    0    0 -0.00000000000E+00 -0.00000000000E+00 -0.39410606574E+03  0.39410606574E+03  0.00000000000E+00 0. -1.
        -24    2    1    2    0    0  0.44548437307E+02 -0.24755279928E+02 -0.33327439350E+03  0.34545033674E+03  0.75277663637E+02 0.  0.
         25    2    1    2    0    0 -0.79702126882E+02  0.23980238652E+02  0.50252637400E+02  0.15842938198E+03  0.12508821141E+03 0.  0.
         24    2    1    2    0    0  0.35153689575E+02  0.77504127614E+00  0.26999467494E+04  0.27012574061E+04  0.76437828301E+02 0.  0.
        -11    1    5    5    0    0  0.16249016738E+02  0.10119629670E+02  0.14913938540E+03  0.15036287350E+03  0.00000000000E+00 0.  1.
         12    1    5    5    0    0  0.18904672837E+02 -0.93445883939E+01  0.25508073640E+04  0.25508945326E+04  0.00000000000E+00 0. -1.
         13    1    3    3    0    0  0.44718162127E+01  0.93377604168E+01 -0.22327118492E+03  0.22351110247E+03  0.00000000000E+00 0. -1.
        -14    1    3    3    0    0  0.40076621094E+02 -0.34093040345E+02 -0.11000320858E+03  0.12193923427E+03  0.00000000000E+00 0.  1.
          5    1    4    4  501    0 -0.33234536573E+02  0.21629394035E+01 -0.41399307970E+02  0.53297165295E+02  0.41800000000E+01 0. -1.
         -5    1    4    4    0  501 -0.46467590309E+02  0.21817299248E+02  0.91651945370E+02  0.10513221669E+03  0.41800000000E+01 0. -1.
</event>
<event>
11    1  0.8328696E-009  0.1353078E+03  0.7561462E-02  0.1112914E+00
         22   -1    0    0    0    0  0.00000000000E+00  0.00000000000E+00  0.13295375891E+04  0.13295375891E+04  0.00000000000E+00 0.  1.
         22   -1    0    0    0    0 -0.00000000000E+00 -0.00000000000E+00 -0.77622359601E+03  0.77622359601E+03  0.00000000000E+00 0. -1.
         24    2    1    2    0    0 -0.40706803345E+02 -0.34298959953E+02 -0.69924269433E+03  0.70599295140E+03  0.81561261346E+02 0.  0.
         25    2    1    2    0    0  0.35404409982E+02 -0.71756801569E+01 -0.13158974712E+02  0.13086420006E+03  0.12508923858E+03 0.  0.
        -24    2    1    2    0    0  0.53023933632E+01  0.41474640110E+02  0.12657156621E+04  0.12689040337E+04  0.79580450482E+02 0.  0.
        -11    1    3    3    0    0 -0.98507753236E+01  0.39010372093E+01 -0.87078483815E+01  0.13714316943E+02  0.00000000000E+00 0.  1.
         12    1    3    3    0    0 -0.30856028021E+02 -0.38199997163E+02 -0.69053484595E+03  0.69227863446E+03  0.00000000000E+00 0. -1.
         11    1    5    5    0    0 -0.19194551087E+02 -0.19814244115E+01  0.84809693169E+03  0.84831642822E+03  0.00000000000E+00 0. -1.
        -12    1    5    5    0    0  0.24496944450E+02  0.43456064522E+02  0.41761873045E+03  0.42058760545E+03  0.00000000000E+00 0.  1.
          5    1    4    4  501    0 -0.52338139233E+01  0.11087790505E+02 -0.62746888745E+02  0.64070089384E+02  0.41800000000E+01 0. -1.
         -5    1    4    4    0  501  0.40638223905E+02 -0.18263470662E+02  0.49587914033E+02  0.66794110675E+02  0.41800000000E+01 0. -1.
</event>
<event>
11    1  0.8328696E-009  0.1494341E+03  0.7561462E-02  0.1097458E+00
         22   -1    0    0    0    0  0.00000000000E+00  0.00000000000E+00  0.64936653545E+02  0.64936653545E+02  0.00000000000E+00 0. -1.
         22   -1    0    0    0    0 -0.00000000000E+00 -0.00000000000E+00 -0.12726188837E+04  0.12726188837E+04  0.00000000000E+00 0.  1.
        -24    2    1    2    0    0 -0.53785999448E+02  0.55618309985E+02 -0.67271837293E+03  0.68193532801E+03  0.80619179950E+02 0.  0.
         25    2    1    2    0    0  0.87386032240E+01 -0.11135621293E+03 -0.52101072298E+03  0.54733569578E+03  0.12509045155E+03 0.  0.
         24    2    1    2    0    0  0.45047396224E+02  0.55737902950E+02 -0.13953134225E+02  0.10828451343E+03  0.79967894572E+02 0.  0.
        -13    1    5    5    0    0 -0.10386444211E+02 -0.49621142873E+01 -0.22865418605E+02  0.25599378304E+02  0.00000000000E+00 0.  1.
         14    1    5    5    0    0  0.55433840435E+02  0.60700017237E+02  0.89122843798E+01  0.82685135126E+02  0.00000000000E+00 0. -1.
         13    1    3    3    0    0  0.96699291472E+01 -0.14016943956E+02 -0.81769093846E+02  0.83523451533E+02  0.00000000000E+00 0. -1.
        -14    1    3    3    0    0 -0.63455928596E+02  0.69635253941E+02 -0.59094927908E+03  0.59841187648E+03  0.00000000000E+00 0.  1.
          5    1    4    4  501    0 -0.42022798937E+02 -0.11850030166E+02 -0.25574336779E+03  0.25947732350E+03  0.41800000000E+01 0.  1.
         -5    1    4    4    0  501  0.50761402161E+02 -0.99506182768E+02 -0.26526735520E+03  0.28785837228E+03  0.41800000000E+01 0.  1.
</event>
<event>
11    1  0.8328696E-009  0.1295549E+03  0.7561462E-02  0.1119817E+00
         22   -1    0    0    0    0  0.00000000000E+00  0.00000000000E+00  0.81837006100E+03  0.81837006100E+03  0.00000000000E+00 0.  1.
         22   -1    0    0    0    0 -0.00000000000E+00 -0.00000000000E+00 -0.51328042410E+03  0.51328042410E+03  0.00000000000E+00 0. -1.
        -24    2    1    2    0    0 -0.31003662649E+02 -0.12057162726E+02 -0.47825095239E+03  0.48649096785E+03  0.82721738753E+02 0.  0.
         25    2    1    2    0    0  0.51340792404E+02  0.80723711030E+01  0.13561405591E+03  0.19167998363E+03  0.12509597844E+03 0.  0.
         24    2    1    2    0    0 -0.20337129755E+02  0.39847916231E+01  0.64772653338E+03  0.65347953363E+03  0.84002151281E+02 0.  0.
        -13    1    5    5    0    0 -0.15671316065E+02  0.38354181415E+02  0.50095256401E+03  0.50266301312E+03  0.00000000000E+00 0.  1.
         14    1    5    5    0    0 -0.46658136898E+01 -0.34369389792E+02  0.14677396937E+03  0.15081652051E+03  0.00000000000E+00 0. -1.
         13    1    3    3    0    0 -0.27821453978E+02 -0.30841847467E+02 -0.45278821384E+03  0.45468936588E+03  0.00000000000E+00 0. -1.
        -14    1    3    3    0    0 -0.31822086708E+01  0.18784684741E+02 -0.25462738558E+02  0.31801601968E+02  0.00000000000E+00 0.  1.
          5    1    4    4  501    0  0.37422934070E+02 -0.47796187191E+02  0.22846372551E+02  0.64995235542E+02  0.41800000000E+01 0.  1.
         -5    1    4    4    0  501  0.13917858334E+02  0.55868558294E+02  0.11276768336E+03  0.12668474808E+03  0.41800000000E+01 0.  1.
</event>
<event>
11    1  0.8328696E-009  0.3233431E+03  0.7561462E-02  0.9907689E-01
         22   -1    0    0    0    0  0.00000000000E+00  0.00000000000E+00  0.14392780385E+03  0.14392780385E+03  0.00000000000E+00 0.  1.
         22   -1    0    0    0    0 -0.00000000000E+00 -0.00000000000E+00 -0.10085097960E+04  0.10085097960E+04  0.00000000000E+00 0. -1.
         24    2    1    2    0    0 -0.29589281241E+03 -0.79552960252E+02 -0.58897344133E+03  0.66868028997E+03  0.79764564022E+02 0.  0.
         25    2    1    2    0    0  0.27894848365E+03  0.46052836015E+02 -0.22175484838E+03  0.38046623252E+03  0.12508485550E+03 0.  0.
        -24    2    1    2    0    0  0.16944328755E+02  0.33500124237E+02 -0.53853702446E+02  0.10329107736E+03  0.79746202379E+02 0.  0.
        -11    1    3    3    0    0 -0.20498189555E+03 -0.17594628019E+02 -0.35979291649E+03  0.41446120589E+03  0.00000000000E+00 0.  1.
         12    1    3    3    0    0 -0.90910916863E+02 -0.61958332233E+02 -0.22918052485E+03  0.25421908407E+03  0.00000000000E+00 0. -1.
         13    1    5    5    0    0  0.44819564854E+02  0.18731885610E+02 -0.52773805612E+02  0.71726923055E+02  0.00000000000E+00 0. -1.
        -14    1    5    5    0    0 -0.27875236099E+02  0.14768238628E+02 -0.10798968343E+01  0.31564154303E+02  0.00000000000E+00 0.  1.
          5    1    4    4  501    0  0.21054370112E+03  0.72056866837E+02 -0.21042526284E+03  0.30629578153E+03  0.41800000000E+01 0. -1.
         -5    1    4    4    0  501  0.68404782532E+02 -0.26004030822E+02 -0.11329585533E+02  0.74170450993E+02  0.41800000000E+01 0. -1.
</event>
<event>
11    1  0.8328696E-009  0.2858800E+03  0.7561462E-02  0.1006351E+00
         22   -1    0    0    0    0  0.00000000000E+00  0.00000000000E+00  0.31851989135E+04  0.31851989135E+04  0.00000000000E+00 0. -1.
         22   -1    0    0    0    0 -0.00000000000E+00 -0.00000000000E+00 -0.89040709831E+02  0.89040709831E+02  0.00000000000E+00 0. -1.
         24    2    1    2    0    0 -0.12882710105E+03  0.22976976471E+03  0.27381162567E+03  0.38808949029E+03  0.79057443570E+02 0.  0.
         25    2    1    2    0    0  0.20452155811E+03 -0.15740204949E+03  0.65761049802E+03  0.71742860956E+03  0.12509104602E+03 0.  0.
        -24    2    1    2    0    0 -0.75694457062E+02 -0.72367715221E+02  0.21647360800E+04  0.21687215235E+04  0.79397817206E+02 0.  0.
        -11    1    3    3    0    0 -0.10000555516E+02  0.79303041291E+02  0.54273583999E+02  0.96615761596E+02  0.00000000000E+00 0.  1.
         12    1    3    3    0    0 -0.11882654553E+03  0.15046672342E+03  0.21953804167E+03  0.29147372870E+03  0.00000000000E+00 0. -1.
         13    1    5    5    0    0  0.58337539545E+01 -0.18259835562E+02  0.90065022727E+03  0.90085419806E+03  0.00000000000E+00 0. -1.
        -14    1    5    5    0    0 -0.81528211017E+02 -0.54107879659E+02  0.12640858527E+04  0.12678673254E+04  0.00000000000E+00 0.  1.
          5    1    4    4  501    0  0.18257672793E+03 -0.93242340206E+02  0.38185091983E+03  0.43342357222E+03  0.41800000000E+01 0. -1.
         -5    1    4    4    0  501  0.21944830185E+02 -0.64159709287E+02  0.27575957819E+03  0.28400503733E+03  0.41800000000E+01 0. -1.
</event>
<event>
11    1  0.8328696E-009  0.1519523E+03  0.7561462E-02  0.1094900E+00
         22   -1    0    0    0    0  0.00000000000E+00  0.00000000000E+00  0.11345239908E+04  0.11345239908E+04  0.00000000000E+00 0. -1.
         22   -1    0    0    0    0 -0.00000000000E+00 -0.00000000000E+00 -0.62399516579E+03  0.62399516579E+03  0.00000000000E+00 0.  1.
        -24    2    1    2    0    0 -0.39373086326E+02  0.83317437548E+02 -0.42251030944E+03  0.44197960554E+03  0.91317987271E+02 0.  0.
         25    2    1    2    0    0  0.17076969289E+02 -0.68834421061E+02 -0.16290039131E+03  0.21728715984E+03  0.12508945575E+03 0.  0.
         24    2    1    2    0    0  0.22296117037E+02 -0.14483016487E+02  0.10959395257E+04  0.10992523912E+04  0.81027778358E+02 0.  0.
        -11    1    5    5    0    0  0.62312844812E+01 -0.34645864742E+02  0.20940943710E+03  0.21234753871E+03  0.00000000000E+00 0.  1.
         12    1    5    5    0    0  0.16064832556E+02  0.20162848255E+02  0.88653008861E+03  0.88690485246E+03  0.00000000000E+00 0. -1.
         11    1    3    3    0    0 -0.61737608015E+02  0.26874938480E+02 -0.18639944658E+03  0.19818816374E+03  0.00000000000E+00 0. -1.
        -12    1    3    3    0    0  0.22364521690E+02  0.56442499068E+02 -0.23611086286E+03  0.24379144179E+03  0.00000000000E+00 0.  1.
          5    1    4    4  501    0  0.99280223401E+01 -0.74652043496E+02 -0.18125792102E+03  0.19632472987E+03  0.41800000000E+01 0.  1.
         -5    1    4    4    0  501  0.71489469488E+01  0.58176224341E+01  0.18357529710E+02  0.20962429972E+02  0.41800000000E+01 0.  1.
</event>
<event>
11    1  0.8328696E-009  0.2862655E+03  0.7561462E-02  0.1006177E+00
         22   -1    0    0    0    0  0.00000000000E+00  0.00000000000E+00  0.13972239149E+04  0.13972239149E+04  0.00000000000E+00 0. -1.
         22   -1    0    0    0    0 -0.00000000000E+00 -0.00000000000E+00 -0.61043529818E+03  0.61043529818E+03  0.00000000000E+00 0.  1.
         24    2    1    2    0    0 -0.64784989179E+02  0.67073269985E+02 -0.23862708217E+03  0.26772486560E+03  0.77703287893E+02 0.  0.
         25    2    1    2    0    0  0.10728279155E+03 -0.31782512981E+03 -0.24912274230E+03  0.43615778589E+03  0.12509621481E+03 0.  0.
        -24    2    1    2    0    0 -0.42497802372E+02  0.25075185982E+03  0.12745384412E+04  0.13037765616E+04  0.10345301383E+03 0.  0.
        -11    1    3    3    0    0 -0.31697224311E+02  0.25534457733E+02 -0.19439590949E+03  0.19861141001E+03  0.00000000000E+00 0.  1.
         12    1    3    3    0    0 -0.33087764868E+02  0.41538812252E+02 -0.44231172676E+02  0.69113455590E+02  0.00000000000E+00 0. -1.
         11    1    5    5    0    0  0.12912727553E+02  0.19171933145E+03  0.83289780348E+03  0.85477587216E+03  0.00000000000E+00 0. -1.
        -12    1    5    5    0    0 -0.55410529925E+02  0.59032528378E+02  0.44164063772E+03  0.44900068944E+03  0.00000000000E+00 0.  1.
          5    1    4    4  501    0  0.73293024906E+02 -0.31397990926E+03 -0.23460598606E+03  0.39876395526E+03  0.41800000000E+01 0.  1.
         -5    1    4    4    0  501  0.33989766644E+02 -0.38452205513E+01 -0.14516756239E+02  0.37393830632E+02  0.41800000000E+01 0.  1.
</event>
<event>
11    1  0.8328696E-009  0.1392410E+03  0.7561462E-02  0.1108409E+00
         22   -1    0    0    0    0  0.00000000000E+00  0.00000000000E+00  0.12046533350E+03  0.12046533350E+03  0.00000000000E+00 0.  1.
         22   -1    0    0    0    0 -0.00000000000E+00 -0.00000000000E+00 -0.15317575969E+04  0.15317575969E+04  0.00000000000E+00 0. -1.
        -24    2    1    2    0    0  0.47550601585E+02  0.31937758469E+02 -0.11911537842E+04  0.11955153435E+04  0.84430555891E+02 0.  0.
         25    2    1    2    0    0 -0.73948297853E+02 -0.62425540366E+02 -0.29661720370E+03  0.33614729602E+03  0.12509172733E+03 0.  0.
         24    2    1    2    0    0  0.26397696267E+02  0.30487781897E+02  0.76478724545E+02  0.12056029085E+03  0.84020504696E+02 0.  0.
        -13    1    5    5    0    0  0.55234740474E+01  0.54547897012E+02  0.68469311228E+02  0.87715611006E+02  0.00000000000E+00 0.  1.
         14    1    5    5    0    0  0.20874222220E+02 -0.24060115115E+02  0.80094133165E+01  0.32844679848E+02  0.00000000000E+00 0. -1.
         13    1    3    3    0    0  0.58547422138E+02  0.25357675375E+02 -0.11609940873E+04  0.11627459237E+04  0.00000000000E+00 0. -1.
        -14    1    3    3    0    0 -0.10996820552E+02  0.65800830939E+01 -0.30159696884E+02  0.32769419768E+02  0.00000000000E+00 0.  1.
          5    1    4    4  501    0 -0.53739902640E+02 -0.92123517117E+02 -0.27255790008E+03  0.29271146345E+03  0.41800000000E+01 0.  1.
         -5    1    4    4    0  501 -0.20208395213E+02  0.29697976751E+02 -0.24059303626E+02  0.43435832571E+02  0.41800000000E+01 0.  1.
</event>
<event>
11    1  0.8328696E-009  0.1348882E+03  0.7561462E-02  0.1113405E+00
         22   -1    0    0    0    0  0.00000000000E+00  0.00000000000E+00  0.97177242135E+03  0.97177242135E+03  0.00000000000E+00 0.  1.
         22   -1    0    0    0    0 -0.00000000000E+00 -0.00000000000E+00 -0.21048141757E+03  0.21048141757E+03  0.00000000000E+00 0.  1.
        -24    2    1    2    0    0  0.41811145200E+02 -0.30201185550E+02 -0.18310464198E+03  0.20669301720E+03  0.80835697378E+02 0.  0.
         25    2    1    2    0    0 -0.29054271139E+02 -0.84761814091E+01  0.32401223816E+03  0.34863715219E+03  0.12509171471E+03 0.  0.
         24    2    1    2    0    0 -0.12756874062E+02  0.38677366959E+02  0.62038340761E+03  0.62692366952E+03  0.80616613808E+02 0.  0.
        -13    1    5    5    0    0  0.32233980709E+02  0.29082206471E+02  0.25719312573E+03  0.26083157050E+03  0.00000000000E+00 0.  1.
         14    1    5    5    0    0 -0.44990854771E+02  0.95951604874E+01  0.36319028188E+03  0.36609209903E+03  0.00000000000E+00 0. -1.
         13    1    3    3    0    0 -0.58981081211E+01  0.20715864657E+02 -0.74949237786E+02  0.77982837680E+02  0.00000000000E+00 0. -1.
        -14    1    3    3    0    0  0.47709253321E+02 -0.50917050207E+02 -0.10815540420E+03  0.12871017952E+03  0.00000000000E+00 0.  1.
          5    1    4    4  501    0  0.55127583563E+01 -0.31960106302E+02  0.13631372740E+02  0.35427752149E+02  0.41800000000E+01 0.  1.
         -5    1    4    4    0  501 -0.34567029495E+02  0.23483924893E+02  0.31038086542E+03  0.31320940005E+03  0.41800000000E+01 0.  1.
</event>
<event>
11    1  0.8328696E-009  0.1482289E+03  0.7561462E-02  0.1098702E+00
         22   -1    0    0    0    0  0.00000000000E+00  0.00000000000E+00  0.30295229306E+03  0.30295229306E+03  0.00000000000E+00 0. -1.
         22   -1    0    0    0    0 -0.00000000000E+00 -0.00000000000E+00 -0.93462680734E+03  0.93462680734E+03  0.00000000000E+00 0.  1.
        -24    2    1    2    0    0 -0.68786586297E+02 -0.10474681379E+02 -0.65057853234E+03  0.65935833561E+03  0.81606829271E+02 0.  0.
         25    2    1    2    0    0  0.13714755681E+03 -0.25213205378E+02 -0.23496543368E+03  0.30050111488E+03  0.12508799686E+03 0.  0.
         24    2    1    2    0    0 -0.68360970514E+02  0.35687886757E+02  0.25386945174E+03  0.27771964990E+03  0.82046681000E+02 0.  0.
        -13    1    5    5    0    0 -0.30050928513E+02 -0.82011575238E+01  0.20743331024E+02  0.37424631878E+02  0.00000000000E+00 0.  1.
         14    1    5    5    0    0 -0.38310042000E+02  0.43889044281E+02  0.23312612072E+03  0.24029501802E+03  0.00000000000E+00 0. -1.
         13    1    3    3    0    0 -0.69162852727E+02 -0.24090616116E+02 -0.31101869425E+03  0.31952540769E+03  0.00000000000E+00 0. -1.
        -14    1    3    3    0    0  0.37626642956E+00  0.13615934737E+02 -0.33955983809E+03  0.33983292792E+03  0.00000000000E+00 0.  1.
          5    1    4    4  501    0 -0.15630911089E+02  0.35481561786E+01 -0.77249784873E+02  0.79005800145E+02  0.41800000000E+01 0. -1.
         -5    1    4    4    0  501  0.15277846790E+03 -0.28761361557E+02 -0.15771564881E+03  0.22149531474E+03  0.41800000000E+01 0. -1.
</event>
<event>
11    1  0.8328696E-009  0.1962951E+03  0.7561462E-02  0.1057175E+00
         22   -1    0    0    0    0  0.00000000000E+00  0.00000000000E+00  0.22483977949E+04  0.22483977949E+04  0.00000000000E+00 0. -1.
         22   -1    0    0    0    0 -0.00000000000E+00 -0.00000000000E+00 -0.10725329435E+03  0.10725329435E+03  0.00000000000E+00 0.  1.
        -24    2    1    2    0    0 -0.83923243048E+02 -0.24154374105E+02 -0.11205167852E+02  0.11943553112E+03  0.80701584842E+02 0.  0.
         25    2    1    2    0    0  0.21403729881E+03 -0.40322949342E+02  0.37640046012E+03  0.45250658747E+03  0.12508796823E+03 0.  0.
         24    2    1    2    0    0 -0.13011405576E+03  0.64477323447E+02  0.17759492083E+04  0.17837089707E+04  0.80840020118E+02 0.  0.
        -11    1    5    5    0    0 -0.20626038456E+02  0.20017657746E+01  0.71451225012E+03  0.71481270001E+03  0.00000000000E+00 0.  1.
         12    1    5    5    0    0 -0.10948801731E+03  0.62475557673E+02  0.10614369582E+04  0.10688962706E+04  0.00000000000E+00 0. -1.
         11    1    3    3    0    0  0.15964762078E+02  0.26175170309E+00 -0.32917343375E+01  0.16302688646E+02  0.00000000000E+00 0. -1.
        -12    1    3    3    0    0 -0.99888005126E+02 -0.24416125809E+02 -0.79134335146E+01  0.10313284248E+03  0.00000000000E+00 0.  1.
          5    1    4    4  501    0  0.22712011984E+03 -0.25201678143E+02  0.35946920779E+03  0.42597447948E+03  0.41800000000E+01 0. -1.
         -5    1    4    4    0  501 -0.13082821032E+02 -0.15121271198E+02  0.16931252329E+02  0.26532107987E+02  0.41800000000E+01 0. -1.
</event>
<event>
11    1  0.1021194E-008  0.1635727E+03  0.7561462E-02  0.1083764E+00
         22   -1    0    0    0    0  0.00000000000E+00  0.00000000000E+00  0.14359197192E+04  0.14359197192E+04  0.00000000000E+00 0.  1.
         22   -1    0    0    0    0 -0.00000000000E+00 -0.00000000000E+00 -0.77220569368E+03  0.77220569368E+03  0.00000000000E+00 0. -1.
        -24    2    1    2    0    0 -0.26551098413E+02  0.95653629688E+02 -0.59898106871E+03  0.61217719197E+03  0.78281645277E+02 0.  0.
         25    2    1    2    0    0  0.80389398063E+02 -0.15349564941E+03 -0.94766450326E+02  0.23377618489E+03  0.12508898755E+03 0.  0.
         24    2    1    2    0    0 -0.53838299650E+02  0.57842019723E+02  0.13574615445E+04  0.13621720360E+04  0.81034246071E+02 0.  0.
        -11    1    5    5    0    0 -0.12876393275E+02  0.57610572051E+02  0.10894570240E+04  0.10910551713E+04  0.00000000000E+00 0.  1.
         12    1    5    5    0    0 -0.40961906375E+02  0.23144767228E+00  0.26800452048E+03  0.27111686473E+03  0.00000000000E+00 0. -1.
         13    1    3    3    0    0 -0.47934548008E+02  0.90689798676E+02 -0.52826654650E+03  0.53813372374E+03  0.00000000000E+00 0. -1.
        -14    1    3    3    0    0  0.21383449595E+02  0.49638310115E+01 -0.70714522209E+02  0.74043468221E+02  0.00000000000E+00 0.  1.
          5    1    4    4  501    0  0.67154907283E+02 -0.10386485428E+02 -0.16413654105E+02  0.70032428865E+02  0.41800000000E+01 0. -1.
         -5    1    4    4    0  501  0.13234490781E+02 -0.14310916398E+03 -0.78352796221E+02  0.16374375603E+03  0.41800000000E+01 0. -1.
</event>
<event>
11    1  0.8328696E-009  0.1503674E+03  0.7561462E-02  0.1096504E+00
         22   -1    0    0    0    0  0.00000000000E+00  0.00000000000E+00  0.85147552264E+03  0.85147552264E+03  0.00000000000E+00 0.  1.
         22   -1    0    0    0    0 -0.00000000000E+00 -0.00000000000E+00 -0.14066723092E+03  0.14066723092E+03  0.00000000000E+00 0.  1.
         24    2    1    2    0    0  0.45267205578E+02  0.66958657598E+02 -0.80607590629E+02  0.13980362634E+03  0.80714859495E+02 0.  0.
         25    2    1    2    0    0 -0.92237430524E+01 -0.12563745990E+03  0.29028572026E+03  0.34027069894E+03  0.12509396629E+03 0.  0.
        -24    2    1    2    0    0 -0.36043462526E+02  0.58678802304E+02  0.50113016210E+03  0.51206842828E+03  0.79626018676E+02 0.  0.
        -11    1    3    3    0    0 -0.15528382517E+02  0.36095553842E+02 -0.53618504038E+02  0.66475285980E+02  0.00000000000E+00 0.  1.
         12    1    3    3    0    0  0.60795588096E+02  0.30863103755E+02 -0.26989086591E+02  0.73328340362E+02  0.00000000000E+00 0. -1.
         13    1    5    5    0    0 -0.19185464371E+02 -0.57408107340E+01  0.28863101618E+02  0.35130009764E+02  0.00000000000E+00 0. -1.
        -14    1    5    5    0    0 -0.16857998155E+02  0.64419613038E+02  0.47226706048E+03  0.47693841852E+03  0.00000000000E+00 0.  1.
          5    1    4    4  501    0 -0.61216069384E+02 -0.10236707082E+03  0.17824024520E+03  0.21450753308E+03  0.41800000000E+01 0.  1.
         -5    1    4    4    0  501  0.51992326332E+02 -0.23270389083E+02  0.11204547506E+03  0.12576316586E+03  0.41800000000E+01 0.  1.
</event>
<event>
11    1  0.8328696E-009  0.2367901E+03  0.7561462E-02  0.1031181E+00
         22   -1    0    0    0    0  0.00000000000E+00  0.00000000000E+00  0.31028279543E+03  0.31028279543E+03  0.00000000000E+00 0. -1.
         22   -1    0    0    0    0 -0.00000000000E+00 -0.00000000000E+00 -0.33468916476E+03  0.33468916476E+03  0.00000000000E+00 0. -1.
         24    2    1    2    0    0 -0.11221960816E+03 -0.14386310691E+03 -0.10388410284E+03  0.22476068222E+03  0.80222337699E+02 0.  0.
         25    2    1    2    0    0  0.96723627828E+02  0.23121155340E+03  0.56466857571E+01  0.28016868792E+03  0.12509342918E+03 0.  0.
        -24    2    1    2    0    0  0.15495980334E+02 -0.87348446490E+02  0.73831047753E+02  0.14004259005E+03  0.79315994007E+02 0.  0.
        -13    1    3    3    0    0 -0.60811101085E+02 -0.45324322198E+02 -0.81603593658E+02  0.11140660077E+03  0.00000000000E+00 0.  1.
         14    1    3    3    0    0 -0.51408507077E+02 -0.98538784711E+02 -0.22280509178E+02  0.11335408145E+03  0.00000000000E+00 0. -1.
         13    1    5    5    0    0  0.39219222672E+02 -0.70844904304E+02  0.76009856693E+02  0.11106145239E+03  0.00000000000E+00 0. -1.
        -14    1    5    5    0    0 -0.23723242337E+02 -0.16503542186E+02 -0.21788089402E+01  0.28981137660E+02  0.00000000000E+00 0.  1.
          5    1    4    4  501    0  0.51548184142E+02  0.21131829447E+03 -0.29335722847E+02  0.21952378892E+03  0.41800000000E+01 0.  1.
         -5    1    4    4    0  501  0.45175443686E+02  0.19893258931E+02  0.34982408605E+02  0.60644899001E+02  0.41800000000E+01 0.  1.
</event>
<event>
11    1  0.8328696E-009  0.1744916E+03  0.7561462E-02  0.1074188E+00
         22   -1    0    0    0    0  0.00000000000E+00  0.00000000000E+00  0.20397303056E+03  0.20397303056E+03  0.00000000000E+00 0.  1.
         22   -1    0    0    0    0 -0.00000000000E+00 -0.00000000000E+00 -0.10742688475E+04  0.10742688475E+04  0.00000000000E+00 0.  1.
         24    2    1    2    0    0 -0.14431764241E+02 -0.11162978313E+02 -0.90131228815E+03  0.90544139124E+03  0.84423837232E+02 0.  0.
         25    2    1    2    0    0  0.13191249579E+03 -0.78122061787E+01 -0.73681580403E+02  0.19631221942E+03  0.12509026777E+03 0.  0.
        -24    2    1    2    0    0 -0.11748073155E+03  0.18975184492E+02  0.10469805160E+03  0.17648826742E+03  0.77618597121E+02 0.  0.
        -13    1    3    3    0    0 -0.20818312272E+02 -0.28160985038E+02 -0.85469957935E+03  0.85541674881E+03  0.00000000000E+00 0.  1.
         14    1    3    3    0    0  0.63865480311E+01  0.16998006725E+02 -0.46612708804E+02  0.50024642432E+02  0.00000000000E+00 0. -1.
         13    1    5    5    0    0 -0.32900411369E+02 -0.23149071007E+02  0.74819561312E+01  0.40918164967E+02  0.00000000000E+00 0. -1.
        -14    1    5    5    0    0 -0.84580320177E+02  0.42124255499E+02  0.97216095465E+02  0.13557010246E+03  0.00000000000E+00 0.  1.
          5    1    4    4  501    0  0.23620048345E+02 -0.24185927746E+01 -0.83928232471E+02  0.87322258792E+02  0.41800000000E+01 0. -1.
         -5    1    4    4    0  501  0.10829244744E+03 -0.53936134042E+01  0.10246652068E+02  0.10898996062E+03  0.41800000000E+01 0. -1.
</event>
<event>
11    1  0.8328696E-009  0.1437510E+03  0.7561462E-02  0.1103441E+00
         22   -1    0    0    0    0  0.00000000000E+00  0.00000000000E+00  0.31812234239E+02  0.31812234239E+02  0.00000000000E+00 0.  1.
         22   -1    0    0    0    0 -0.00000000000E+00 -0.00000000000E+00 -0.19432881565E+04  0.19432881565E+04  0.00000000000E+00 0. -1.
         24    2    1    2    0    0 -0.36469981353E+02  0.35396960631E+02 -0.13202190232E+04  0.13238854704E+04  0.84329503912E+02 0.  0.
         25    2    1    2    0    0 -0.47032747845E+01 -0.89832388271E+02 -0.45798949940E+03  0.48321233255E+03  0.12509115872E+03 0.  0.
        -24    2    1    2    0    0  0.41173256137E+02  0.54435427640E+02 -0.13326739969E+03  0.16800258779E+03  0.76198535953E+02 0.  0.
        -13    1    3    3    0    0  0.16389025668E+01  0.29039272190E+02 -0.10943112668E+04  0.10946977273E+04  0.00000000000E+00 0.  1.
         14    1    3    3    0    0 -0.38108883920E+02  0.63576884416E+01 -0.22590775638E+03  0.22918774319E+03  0.00000000000E+00 0. -1.
         11    1    5    5    0    0  0.12638524797E+02 -0.19358160610E+02 -0.32583993774E+02  0.39952313344E+02  0.00000000000E+00 0. -1.
        -12    1    5    5    0    0  0.28534731340E+02  0.73793588249E+02 -0.10068340592E+03  0.12805027445E+03  0.00000000000E+00 0.  1.
          5    1    4    4  501    0 -0.28481988780E+02 -0.11369127127E+03 -0.38949395246E+03  0.40676767355E+03  0.41800000000E+01 0. -1.
         -5    1    4    4    0  501  0.23778713995E+02  0.23858883004E+02 -0.68495546942E+02  0.76444658992E+02  0.41800000000E+01 0. -1.
</event>
<event>
11    1  0.8328696E-009  0.1356180E+03  0.7561462E-02  0.1112553E+00
         22   -1    0    0    0    0  0.00000000000E+00  0.00000000000E+00  0.65344037025E+03  0.65344037025E+03  0.00000000000E+00 0.  1.
         22   -1    0    0    0    0 -0.00000000000E+00 -0.00000000000E+00 -0.27593694548E+04  0.27593694548E+04  0.00000000000E+00 0.  1.
         24    2    1    2    0    0 -0.10946339104E+02 -0.51360154603E+02 -0.27330773341E+04  0.27347920583E+04  0.81352322797E+02 0.  0.
         25    2    1    2    0    0 -0.34675812110E+02  0.29930726237E+02  0.19436468961E+03  0.23563344491E+03  0.12508887830E+03 0.  0.
        -24    2    1    2    0    0  0.45622151214E+02  0.21429428365E+02  0.43278355995E+03  0.44238432179E+03  0.76561591714E+02 0.  0.
        -13    1    3    3    0    0  0.13832455720E+02 -0.34537714919E+02 -0.45521447938E+03  0.45673232075E+03  0.00000000000E+00 0.  1.
         14    1    3    3    0    0 -0.24778794824E+02 -0.16822439684E+02 -0.22778628547E+04  0.22780597376E+04  0.00000000000E+00 0. -1.
         11    1    5    5    0    0 -0.31977074387E+01 -0.67001683345E+01  0.16767402800E+01  0.76111133575E+01  0.00000000000E+00 0. -1.
        -12    1    5    5    0    0  0.48819858653E+02  0.28129596700E+02  0.43110681967E+03  0.43477320843E+03  0.00000000000E+00 0.  1.
          5    1    4    4  501    0  0.67043284873E+01 -0.19142638037E+02  0.16255908858E+03  0.16387287235E+03  0.41800000000E+01 0.  1.
         -5    1    4    4    0  501 -0.41380140597E+02  0.49073364275E+02  0.31805601028E+02  0.71760572558E+02  0.41800000000E+01 0.  1.
</event>
<event>
11    1  0.8328696E-009  0.1554201E+03  0.7561462E-02  0.1091466E+00
         22   -1    0    0    0    0  0.00000000000E+00  0.00000000000E+00  0.11176578654E+04  0.11176578654E+04  0.00000000000E+00 0. -1.
         22   -1    0    0    0    0 -0.00000000000E+00 -0.00000000000E+00 -0.10222768616E+04  0.10222768616E+04  0.00000000000E+00 0. -1.
        -24    2    1    2    0    0  0.41589845099E+02 -0.80286343234E+02 -0.92783136755E+03  0.93568427474E+03  0.80364191395E+02 0.  0.
         25    2    1    2    0    0 -0.77312993306E+02  0.11577204519E+03  0.10950666460E+02  0.18747392385E+03  0.12508433013E+03 0.  0.
         24    2    1    2    0    0  0.35723148207E+02 -0.35485701955E+02  0.10122617049E+04  0.10167765284E+04  0.81396382328E+02 0.  0.
        -13    1    5    5    0    0 -0.17525857712E+02 -0.12431315957E+02  0.84055601733E+02  0.86758500954E+02  0.00000000000E+00 0.  1.
         14    1    5    5    0    0  0.53249005919E+02 -0.23054385997E+02  0.92820610317E+03  0.93001802741E+03  0.00000000000E+00 0. -1.
         13    1    3    3    0    0  0.25191270519E+02 -0.95309930766E+02 -0.77428306429E+03  0.78053369348E+03  0.00000000000E+00 0. -1.
        -14    1    3    3    0    0  0.16398574581E+02  0.15023587532E+02 -0.15354830327E+03  0.15515058126E+03  0.00000000000E+00 0.  1.
          5    1    4    4  501    0 -0.40907421086E+02  0.90770429571E+02 -0.50474898253E+02  0.11170441235E+03  0.41800000000E+01 0.  1.
         -5    1    4    4    0  501 -0.36405572220E+02  0.25001615617E+02  0.61425564713E+02  0.75769511497E+02  0.41800000000E+01 0.  1.
</event>
<event>
11    1  0.8328696E-009  0.1524860E+03  0.7561462E-02  0.1094365E+00
         22   -1    0    0    0    0  0.00000000000E+00  0.00000000000E+00  0.58672880975E+03  0.58672880975E+03  0.00000000000E+00 0. -1.
         22   -1    0    0    0    0 -0.00000000000E+00 -0.00000000000E+00 -0.21411801213E+03  0.21411801213E+03  0.00000000000E+00 0. -1.
        -24    2    1    2    0    0  0.31816180766E+02 -0.63731263325E+02 -0.16149225737E+03  0.19367283000E+03  0.79721218044E+02 0.  0.
         25    2    1    2    0    0 -0.10105237763E+03  0.68709364818E+02  0.32398633583E+03  0.36816764409E+03  0.12509080105E+03 0.  0.
         24    2    1    2    0    0  0.69236196859E+02 -0.49781014926E+01  0.21011671915E+03  0.23900634779E+03  0.90313709743E+02 0.  0.
        -13    1    5    5    0    0  0.36505147455E+02  0.11474494068E+01  0.12498923047E+02  0.38602661932E+02  0.00000000000E+00 0.  1.
         14    1    5    5    0    0  0.32731049404E+02 -0.61255508993E+01  0.19761779611E+03  0.20040368586E+03  0.00000000000E+00 0. -1.
         13    1    3    3    0    0  0.51054413491E+02 -0.60441751130E+02 -0.15328611995E+03  0.17250041445E+03  0.00000000000E+00 0. -1.
        -14    1    3    3    0    0 -0.19238232725E+02 -0.32895121956E+01 -0.82061374199E+01  0.21172415550E+02  0.00000000000E+00 0.  1.
          5    1    4    4  501    0 -0.20477808565E+02  0.87759742855E+02  0.19470272651E+03  0.21458736500E+03  0.41800000000E+01 0.  1.
         -5    1    4    4    0  501 -0.80574569060E+02 -0.19050378037E+02  0.12928360932E+03  0.15358027908E+03  0.41800000000E+01 0.  1.
</event>
<event>
11    1  0.8328696E-009  0.1796033E+03  0.7561462E-02  0.1069964E+00
         22   -1    0    0    0    0  0.00000000000E+00  0.00000000000E+00  0.10544192705E+04  0.10544192705E+04  0.00000000000E+00 0. -1.
         22   -1    0    0    0    0 -0.00000000000E+00 -0.00000000000E+00 -0.11639946597E+03  0.11639946597E+03  0.00000000000E+00 0.  1.
        -24    2    1    2    0    0 -0.40569831942E+02  0.43431217696E+02 -0.58656487987E+02  0.11616823077E+03  0.80760710263E+02 0.  0.
         25    2    1    2    0    0  0.15455316369E+03 -0.26480614420E+02  0.52960507271E+03  0.56632249265E+03  0.12510687148E+03 0.  0.
         24    2    1    2    0    0 -0.11398333175E+03 -0.16950603276E+02  0.46707121980E+03  0.48832801304E+03  0.83840330933E+02 0.  0.
        -11    1    5    5    0    0 -0.63102849144E+02 -0.15854982640E+02  0.11120056176E+03  0.12883677651E+03  0.00000000000E+00 0.  1.
         12    1    5    5    0    0 -0.50880482602E+02 -0.10956206359E+01  0.35587065804E+03  0.35949123654E+03  0.00000000000E+00 0. -1.
         13    1    3    3    0    0  0.37015971681E+01  0.54486622905E+02 -0.30566487683E+02  0.62584375578E+02  0.00000000000E+00 0. -1.
        -14    1    3    3    0    0 -0.44271429111E+02 -0.11055405209E+02 -0.28090000304E+02  0.53583855189E+02  0.00000000000E+00 0.  1.
          5    1    4    4  501    0  0.16944547663E+03 -0.24174679252E+02  0.52113082659E+03  0.54853531836E+03  0.41800000000E+01 0.  1.
         -5    1    4    4    0  501 -0.14892312943E+02 -0.23059351684E+01  0.84742461197E+01  0.17787174286E+02  0.41800000000E+01 0.  1.
</event>
<event>
11    1  0.8328696E-009  0.2089166E+03  0.7561462E-02  0.1048391E+00
         22   -1    0    0    0    0  0.00000000000E+00  0.00000000000E+00  0.12240221602E+04  0.12240221602E+04  0.00000000000E+00 0. -1.
         22   -1    0    0    0    0 -0.00000000000E+00 -0.00000000000E+00 -0.53741036706E+03  0.53741036706E+03  0.00000000000E+00 0.  1.
         24    2    1    2    0    0 -0.13155365325E+03 -0.93198123366E+02 -0.37159606915E+03  0.41279464843E+03  0.79520621735E+02 0.  0.
         25    2    1    2    0    0  0.18698770784E+03  0.73700009605E+02 -0.44960268352E+02  0.24096742876E+03  0.12509109359E+03 0.  0.
        -24    2    1    2    0    0 -0.55434054591E+02  0.19498113761E+02  0.11031681306E+04  0.11076704500E+04  0.80627480768E+02 0.  0.
        -13    1    3    3    0    0 -0.13591772675E+03 -0.70767820474E+02 -0.34639629927E+03  0.37877712313E+03  0.00000000000E+00 0.  1.
         14    1    3    3    0    0  0.43640735008E+01 -0.22430302891E+02 -0.25199769879E+02  0.34017525296E+02  0.00000000000E+00 0. -1.
         13    1    5    5    0    0 -0.39479808493E+02  0.40127726591E+02  0.98730741688E+03  0.98891092882E+03  0.00000000000E+00 0. -1.
        -14    1    5    5    0    0 -0.15954246098E+02 -0.20629612830E+02  0.11586071371E+03  0.11875952120E+03  0.00000000000E+00 0.  1.
          5    1    4    4  501    0  0.19709720896E+03  0.46291953008E+02 -0.54924530650E+02  0.20981999704E+03  0.41800000000E+01 0.  1.
         -5    1    4    4    0  501 -0.10109501121E+02  0.27408056597E+02  0.99642622982E+01  0.31147431716E+02  0.41800000000E+01 0.  1.
</event>
<event>
11    1  0.8328696E-009  0.1739834E+03  0.7561462E-02  0.1074616E+00
         22   -1    0    0    0    0  0.00000000000E+00  0.00000000000E+00  0.18503358585E+04  0.18503358585E+04  0.00000000000E+00 0. -1.
         22   -1    0    0    0    0 -0.00000000000E+00 -0.00000000000E+00 -0.56052715505E+03  0.56052715505E+03  0.00000000000E+00 0.  1.
        -24    2    1    2    0    0 -0.95286449030E+02 -0.27703396104E+02 -0.48495506261E+03  0.50136322007E+03  0.79603267299E+02 0.  0.
         25    2    1    2    0    0  0.76384389681E+02  0.14647690120E+03  0.10277889650E+03  0.23130305255E+03  0.12509013942E+03 0.  0.
         24    2    1    2    0    0  0.18902059350E+02 -0.11877350509E+03  0.16719848696E+04  0.16781967410E+04  0.79664696559E+02 0.  0.
        -11    1    5    5    0    0 -0.76154803548E+01 -0.13869018041E+02  0.46573523719E+02  0.49187786229E+02  0.00000000000E+00 0.  1.
         12    1    5    5    0    0  0.26517539705E+02 -0.10490448705E+03  0.16254113459E+04  0.16290089547E+04  0.00000000000E+00 0. -1.
         11    1    3    3    0    0 -0.36411140923E+02 -0.45938626985E+02 -0.15527476337E+03  0.16597102389E+03  0.00000000000E+00 0. -1.
        -12    1    3    3    0    0 -0.58875308108E+02  0.18235230881E+02 -0.32968029924E+03  0.33539219618E+03  0.00000000000E+00 0.  1.
          5    1    4    4  501    0  0.36666493562E+02  0.97701020197E+01  0.77864489103E+02  0.86719304119E+02  0.41800000000E+01 0.  1.
         -5    1    4    4    0  501  0.39717896118E+02  0.13670679918E+03  0.24914407402E+02  0.14458374843E+03  0.41800000000E+01 0.  1.
</event>
<event>
11    1  0.8328696E-009  0.1379655E+03  0.7561462E-02  0.1109852E+00
         22   -1    0    0    0    0  0.00000000000E+00  0.00000000000E+00  0.12315407051E+03  0.12315407051E+03  0.00000000000E+00 0.  1.
         22   -1    0    0    0    0 -0.00000000000E+00 -0.00000000000E+00 -0.90442205417E+03  0.90442205417E+03  0.00000000000E+00 0. -1.
        -24    2    1    2    0    0 -0.39665625982E+02  0.46533796222E+02 -0.77765406423E+03  0.78435439541E+03  0.82019619063E+02 0.  0.
         25    2    1    2    0    0 -0.10533562369E+02 -0.32746513497E+02 -0.47304916949E+02  0.13807932116E+03  0.12507938952E+03 0.  0.
         24    2    1    2    0    0  0.50199188351E+02 -0.13787282725E+02  0.43690997518E+02  0.10514240810E+03  0.80224528926E+02 0.  0.
        -13    1    5    5    0    0 -0.98958860723E+01 -0.72044267181E+01  0.42974331767E+02  0.44683615748E+02  0.00000000000E+00 0.  1.
         14    1    5    5    0    0  0.60095074424E+02 -0.65828560069E+01  0.71666575117E+00  0.60458792355E+02  0.00000000000E+00 0. -1.
         13    1    3    3    0    0 -0.16488970043E+02  0.68331603406E+02 -0.51243478641E+03  0.51723351060E+03  0.00000000000E+00 0. -1.
        -14    1    3    3    0    0 -0.23176655939E+02 -0.21797807184E+02 -0.26521927782E+03  0.26712088482E+03  0.00000000000E+00 0.  1.
          5    1    4    4  501    0  0.44923986167E+02  0.90317113007E+01  0.11007722545E+02  0.47311507033E+02  0.41800000000E+01 0.  1.
         -5    1    4    4    0  501 -0.55457548535E+02 -0.41778224798E+02 -0.58312639494E+02  0.90767814128E+02  0.41800000000E+01 0.  1.
</event>
<event>
11    1  0.8328696E-009  0.1253699E+03  0.7561462E-02  0.1125092E+00
         22   -1    0    0    0    0  0.00000000000E+00  0.00000000000E+00  0.71327161377E+02  0.71327161377E+02  0.00000000000E+00 0. -1.
         22   -1    0    0    0    0 -0.00000000000E+00 -0.00000000000E+00 -0.19203504711E+04  0.19203504711E+04  0.00000000000E+00 0. -1.
         24    2    1    2    0    0 -0.28680904612E+02  0.21111114346E+02 -0.15795271453E+04  0.15817271614E+04  0.75409131886E+02 0.  0.
         25    2    1    2    0    0  0.32782750231E+02 -0.22352305855E+02 -0.28672965312E+03  0.31533830947E+03  0.12510004455E+03 0.  0.
        -24    2    1    2    0    0 -0.41018456189E+01  0.12411915092E+01  0.17233488608E+02  0.94612161626E+02  0.92930631679E+02 0.  0.
        -11    1    3    3    0    0 -0.14588725409E+02 -0.27686084182E+02 -0.47228841189E+03  0.47332409000E+03  0.00000000000E+00 0.  1.
         12    1    3    3    0    0 -0.14092179203E+02  0.48797198528E+02 -0.11072387334E+04  0.11084030714E+04  0.00000000000E+00 0. -1.
         11    1    5    5    0    0 -0.17439672068E+02  0.30031665502E+02  0.41900880057E+02  0.54421749735E+02  0.00000000000E+00 0. -1.
        -12    1    5    5    0    0  0.13337826449E+02 -0.28790473993E+02 -0.24667391449E+02  0.40190411892E+02  0.00000000000E+00 0.  1.
          5    1    4    4  501    0  0.54420071965E+02  0.32162997994E+02 -0.90373669779E+02  0.11036700260E+03  0.41800000000E+01 0.  1.
         -5    1    4    4    0  501 -0.21637321734E+02 -0.54515303849E+02 -0.19635598334E+03  0.20497130687E+03  0.41800000000E+01 0.  1.
</event>
<event>
11    1  0.8328696E-009  0.1536806E+03  0.7561462E-02  0.1093176E+00
         22   -1    0    0    0    0  0.00000000000E+00  0.00000000000E+00  0.18764390245E+04  0.18764390245E+04  0.00000000000E+00 0.  1.
         22   -1    0    0    0    0 -0.00000000000E+00 -0.00000000000E+00 -0.23710912282E+03  0.23710912282E+03  0.00000000000E+00 0. -1.
         24    2    1    2    0    0  0.57764446702E+02  0.12881059055E+02 -0.13999837260E+03  0.17143771165E+03  0.79301271475E+02 0.  0.
         25    2    1    2    0    0 -0.13335075803E+03 -0.57674941731E+02  0.36375115076E+02  0.19515269849E+03  0.12511036393E+03 0.  0.
        -24    2    1    2    0    0  0.75586311324E+02  0.44793882676E+02  0.17429531593E+04  0.17469577372E+04  0.79093855121E+02 0.  0.
        -13    1    3    3    0    0  0.65062877173E+02  0.10329695785E+02 -0.54246320664E+02  0.85337822252E+02  0.00000000000E+00 0.  1.
         14    1    3    3    0    0 -0.72984304709E+01  0.25513632704E+01 -0.85752051939E+02  0.86099889394E+02  0.00000000000E+00 0. -1.
         11    1    5    5    0    0 -0.11165354270E+02  0.22170724088E+02  0.22637636435E+03  0.22773331877E+03  0.00000000000E+00 0. -1.
        -12    1    5    5    0    0  0.86751665594E+02  0.22623158588E+02  0.15165767949E+04  0.15192244185E+04  0.00000000000E+00 0.  1.
          5    1    4    4  501    0 -0.25625878884E+02  0.20171445440E+02  0.51730053788E+02  0.61294728522E+02  0.41800000000E+01 0.  1.
         -5    1    4    4    0  501 -0.10772487914E+03 -0.77846387171E+02 -0.15354938712E+02  0.13385796997E+03  0.41800000000E+01 0.  1.
</event>
<event>
11    1  0.8328696E-009  0.1731067E+03  0.7561462E-02  0.1075359E+00
         22   -1    0    0    0    0  0.00000000000E+00  0.00000000000E+00  0.64792028015E+03  0.64792028015E+03  0.00000000000E+00 0.  1.
         22   -1    0    0    0    0 -0.00000000000E+00 -0.00000000000E+00 -0.19158922398E+03  0.19158922398E+03  0.00000000000E+00 0.  1.
         24    2    1    2    0    0  0.10568155264E+02  0.40140158274E+02 -0.77293187902E+02  0.11912261411E+03  0.80579414770E+02 0.  0.
         25    2    1    2    0    0 -0.76990253156E+02 -0.13478808138E+03  0.34925097358E+02  0.20239170944E+03  0.12508923080E+03 0.  0.
        -24    2    1    2    0    0  0.66422097892E+02  0.94647923103E+02  0.49869914672E+03  0.51799518058E+03  0.79044568011E+02 0.  0.
        -11    1    3    3    0    0  0.23315793705E+02  0.57160327908E+02 -0.75867636550E+02  0.97810161018E+02  0.00000000000E+00 0.  1.
         12    1    3    3    0    0 -0.12747638441E+02 -0.17020169634E+02 -0.14255513522E+01  0.21312453093E+02  0.00000000000E+00 0. -1.
         11    1    5    5    0    0  0.29141402096E+02  0.28639422967E+02  0.58742470515E+02  0.71554983797E+02  0.00000000000E+00 0. -1.
        -12    1    5    5    0    0  0.37280695797E+02  0.66008500136E+02  0.43995667620E+03  0.44644019678E+03  0.00000000000E+00 0.  1.
          5    1    4    4  501    0 -0.64614109712E+02 -0.31912105595E+01  0.25999958020E+02  0.69847242006E+02  0.41800000000E+01 0. -1.
         -5    1    4    4    0  501 -0.12376143444E+02 -0.13159687082E+03  0.89251393378E+01  0.13254446744E+03  0.41800000000E+01 0. -1.
</event>
<event>
11    1  0.8328696E-009  0.1455491E+03  0.7561462E-02  0.1101515E+00
         22   -1    0    0    0    0  0.00000000000E+00  0.00000000000E+00  0.12908175969E+04  0.12908175969E+04  0.00000000000E+00 0.  1.
         22   -1    0    0    0    0 -0.00000000000E+00 -0.00000000000E+00 -0.21183488115E+04  0.21183488115E+04  0.00000000000E+00 0.  1.
        -24    2    1    2    0    0  0.35629876661E+02  0.48142381783E+02 -0.21011568282E+04  0.21034353344E+04  0.77414548387E+02 0.  0.
         25    2    1    2    0    0  0.69232328261E+01  0.29632889649E+02  0.32763050359E+03  0.35201571197E+03  0.12508906943E+03 0.  0.
         24    2    1    2    0    0 -0.42553109487E+02 -0.77775271433E+02  0.94599511005E+03  0.95371536199E+03  0.82501415118E+02 0.  0.
        -13    1    5    5    0    0 -0.23486531370E+02 -0.15821891054E+02  0.65395812291E+03  0.65457098616E+03  0.00000000000E+00 0.  1.
         14    1    5    5    0    0 -0.19066578117E+02 -0.61953380379E+02  0.29203698713E+03  0.29914437584E+03  0.00000000000E+00 0. -1.
         11    1    3    3    0    0  0.14362365554E+02 -0.19145039095E+02 -0.32651228111E+03  0.32738827068E+03  0.00000000000E+00 0. -1.
        -12    1    3    3    0    0  0.21267511107E+02  0.67287420879E+02 -0.17746445471E+04  0.17760470637E+04  0.00000000000E+00 0.  1.
          5    1    4    4  501    0 -0.46358118170E+02  0.18372362036E+02  0.56653754269E+02  0.75589278868E+02  0.41800000000E+01 0. -1.
         -5    1    4    4    0  501  0.53281350996E+02  0.11260527614E+02  0.27097674932E+03  0.27642643310E+03  0.41800000000E+01 0. -1.
</event>
<event>
11    1  0.8328696E-009  0.3376151E+03  0.7561462E-02  0.9854193E-01
         22   -1    0    0    0    0  0.00000000000E+00  0.00000000000E+00  0.19855732123E+03  0.19855732123E+03  0.00000000000E+00 0.  1.
         22   -1    0    0    0    0 -0.00000000000E+00 -0.00000000000E+00 -0.12164230031E+04  0.12164230031E+04  0.00000000000E+00 0.  1.
         24    2    1    2    0    0  0.77262338377E+02  0.43041631847E+02 -0.54289872159E+03  0.55572728148E+03  0.79194308324E+02 0.  0.
         25    2    1    2    0    0 -0.10760248618E+03  0.27909300951E+03 -0.40475902280E+03  0.51860159343E+03  0.12508614304E+03 0.  0.
        -24    2    1    2    0    0  0.30340147802E+02 -0.32213464136E+03 -0.70207937524E+02  0.34065144946E+03  0.80143644769E+02 0.  0.
        -11    1    3    3    0    0  0.91213154625E+02  0.47317244945E+02 -0.49890214572E+03  0.50937423595E+03  0.00000000000E+00 0.  1.
         12    1    3    3    0    0 -0.13950816249E+02 -0.42756130983E+01 -0.43996575870E+02  0.46353045527E+02  0.00000000000E+00 0. -1.
         11    1    5    5    0    0  0.12452323215E+02 -0.19331168046E+03 -0.18472206832E+01  0.19372113560E+03  0.00000000000E+00 0. -1.
        -12    1    5    5    0    0  0.17887824588E+02 -0.12882296090E+03 -0.68360716840E+02  0.14693031386E+03  0.00000000000E+00 0.  1.
          5    1    4    4  501    0 -0.85264393569E+02  0.15685608141E+03 -0.32516115641E+03  0.37097317575E+03  0.41800000000E+01 0.  1.
         -5    1    4    4    0  501 -0.22338092610E+02  0.12223692811E+03 -0.79597866388E+02  0.14762841768E+03  0.41800000000E+01 0.  1.
</event>
<event>
11    1  0.8328696E-009  0.1353514E+03  0.7561462E-02  0.1112863E+00
         22   -1    0    0    0    0  0.00000000000E+00  0.00000000000E+00  0.86783399160E+03  0.86783399160E+03  0.00000000000E+00 0.  1.
         22   -1    0    0    0    0 -0.00000000000E+00 -0.00000000000E+00 -0.21013236910E+04  0.21013236910E+04  0.00000000000E+00 0. -1.
         24    2    1    2    0    0 -0.29601019652E+02  0.42321943173E+02 -0.20577977484E+04  0.20600185637E+04  0.80483178889E+02 0.  0.
         25    2    1    2    0    0  0.29205194132E+02 -0.51795812940E+02  0.78858238159E+02  0.15937319555E+03  0.12508174979E+03 0.  0.
        -24    2    1    2    0    0  0.39582551952E+00  0.94738697666E+01  0.74544981088E+03  0.74976592334E+03  0.79772228056E+02 0.  0.
        -13    1    3    3    0    0 -0.39731758648E+02 -0.10523686693E+02 -0.76824477816E+03  0.76934348622E+03  0.00000000000E+00 0.  1.
         14    1    3    3    0    0  0.10130738996E+02  0.52845629866E+02 -0.12895529703E+04  0.12906750775E+04  0.00000000000E+00 0. -1.
         11    1    5    5    0    0  0.33038059774E+02  0.16585923781E+02  0.20658817357E+03  0.20986967318E+03  0.00000000000E+00 0. -1.
        -12    1    5    5    0    0 -0.32642234254E+02 -0.71120540140E+01  0.53886163731E+03  0.53989625016E+03  0.00000000000E+00 0.  1.
          5    1    4    4  501    0 -0.13047439024E+01  0.24800377077E+02  0.72297296597E+02  0.76558033903E+02  0.41800000000E+01 0. -1.
         -5    1    4    4    0  501  0.30509938035E+02 -0.76596190017E+02  0.65609415621E+01  0.82815161644E+02  0.41800000000E+01 0. -1.
</event>
<event>
11    1  0.8328696E-009  0.3861784E+03  0.7561462E-02  0.9691443E-01
         22   -1    0    0    0    0  0.00000000000E+00  0.00000000000E+00  0.26106076255E+04  0.26106076255E+04  0.00000000000E+00 0.  1.
         22   -1    0    0    0    0 -0.00000000000E+00 -0.00000000000E+00 -0.69077338481E+03  0.69077338481E+03  0.00000000000E+00 0.  1.
         24    2    1    2    0    0 -0.34824473768E+02  0.24490594585E+02 -0.58564056226E+03  0.59273644814E+03  0.80926482671E+02 0.  0.
         25    2    1    2    0    0 -0.27575832550E+03  0.18047179237E+03  0.27808406213E+03  0.44898779200E+03  0.12508624957E+03 0.  0.
        -24    2    1    2    0    0  0.31058279927E+03 -0.20496238696E+03  0.22273907408E+04  0.22596567702E+04  0.79422612929E+02 0.  0.
        -11    1    3    3    0    0 -0.43343845610E+02  0.28212734924E+02 -0.57901518027E+03  0.58132024423E+03  0.00000000000E+00 0.  1.
         12    1    3    3    0    0  0.85193718421E+01 -0.37221403397E+01 -0.66253819815E+01  0.11416203909E+02  0.00000000000E+00 0. -1.
         11    1    5    5    0    0 -0.40542372456E+01 -0.14346769306E+01  0.56364418043E+02  0.56528247442E+02  0.00000000000E+00 0. -1.
        -12    1    5    5    0    0  0.31463703651E+03 -0.20352771003E+03  0.21710263228E+04  0.22031285227E+04  0.00000000000E+00 0.  1.
          5    1    4    4  501    0 -0.12786982958E+03  0.42279565823E+02  0.49268040366E+02  0.14346800063E+03  0.41800000000E+01 0.  1.
         -5    1    4    4    0  501 -0.14788849592E+03  0.13819222655E+03  0.22881602176E+03  0.30551979137E+03  0.41800000000E+01 0.  1.
</event>
<event>
11    1  0.8328696E-009  0.1269175E+03  0.7561462E-02  0.1123115E+00
         22   -1    0    0    0    0  0.00000000000E+00  0.00000000000E+00  0.23812861406E+03  0.23812861406E+03  0.00000000000E+00 0. -1.
         22   -1    0    0    0    0 -0.00000000000E+00 -0.00000000000E+00 -0.22802302813E+03  0.22802302813E+03  0.00000000000E+00 0.  1.
         24    2    1    2    0    0 -0.59286606461E+01  0.19295907128E+02 -0.11913133345E+03  0.14644755945E+03  0.82747398820E+02 0.  0.
         25    2    1    2    0    0 -0.82304840278E+01 -0.28327610531E+02 -0.37308713346E+02  0.13382496039E+03  0.12508791128E+03 0.  0.
        -24    2    1    2    0    0  0.14159144674E+02  0.90317034027E+01  0.16654563273E+03  0.18587912234E+03  0.80817988695E+02 0.  0.
        -11    1    3    3    0    0 -0.60787311998E+01  0.14917928483E+02 -0.13193524618E+03  0.13291502830E+03  0.00000000000E+00 0.  1.
         12    1    3    3    0    0  0.15007055374E+00  0.43779786446E+01  0.12803912731E+02  0.13532531153E+02  0.00000000000E+00 0. -1.
         11    1    5    5    0    0 -0.60308889228E+01  0.35565562698E+02  0.13585437106E+03  0.14056205394E+03  0.00000000000E+00 0. -1.
        -12    1    5    5    0    0  0.20190033597E+02 -0.26533859295E+02  0.30691261671E+02  0.45317068404E+02  0.00000000000E+00 0.  1.
          5    1    4    4  501    0 -0.18551195033E+02 -0.75139639720E+02 -0.90823814509E+01  0.78038928409E+02  0.41800000000E+01 0.  1.
         -5    1    4    4    0  501  0.10320711005E+02  0.46812029189E+02 -0.28226331896E+02  0.55786031986E+02  0.41800000000E+01 0.  1.
</event>
<event>
11    1  0.8328696E-009  0.1590305E+03  0.7561462E-02  0.1087993E+00
         22   -1    0    0    0    0  0.00000000000E+00  0.00000000000E+00  0.20359777508E+04  0.20359777508E+04  0.00000000000E+00 0. -1.
         22   -1    0    0    0    0 -0.00000000000E+00 -0.00000000000E+00 -0.68592662675E+02  0.68592662675E+02  0.00000000000E+00 0.  1.
        -24    2    1    2    0    0  0.81551657190E+02  0.16821231087E+02  0.65351071220E+02  0.13385404887E+03  0.81929953526E+02 0.  0.
         25    2    1    2    0    0 -0.12804498790E+03 -0.59355228079E+02  0.23813063566E+03  0.30376297811E+03  0.12508870934E+03 0.  0.
         24    2    1    2    0    0  0.46493330706E+02  0.42533996992E+02  0.16639033813E+04  0.16669533865E+04  0.78666129459E+02 0.  0.
        -13    1    5    5    0    0 -0.12433160579E+02  0.25022025916E+02  0.94919331135E+03  0.94960445848E+03  0.00000000000E+00 0.  1.
         14    1    5    5    0    0  0.58926491285E+02  0.17511971076E+02  0.71471006994E+03  0.71734892806E+03  0.00000000000E+00 0. -1.
         11    1    3    3    0    0  0.50308337821E+02 -0.29054695111E+02  0.48973932633E+02  0.75983881448E+02  0.00000000000E+00 0. -1.
        -12    1    3    3    0    0  0.31243319369E+02  0.45875926198E+02  0.16377138587E+02  0.57870167427E+02  0.00000000000E+00 0.  1.
          5    1    4    4  501    0  0.12565797747E+02 -0.23963725253E+02  0.30745542386E+01  0.27551491516E+02  0.41800000000E+01 0.  1.
         -5    1    4    4    0  501 -0.14061078564E+03 -0.35391502826E+02  0.23505608142E+03  0.27621148659E+03  0.41800000000E+01 0.  1.
</event>
<event>
11    1  0.8328696E-009  0.1456631E+03  0.7561462E-02  0.1101394E+00
         22   -1    0    0    0    0  0.00000000000E+00  0.00000000000E+00  0.12378809199E+04  0.12378809199E+04  0.00000000000E+00 0.  1.
         22   -1    0    0    0    0 -0.00000000000E+00 -0.00000000000E+00 -0.12563135257E+03  0.12563135257E+03  0.00000000000E+00 0.  1.
         24    2    1    2    0    0  0.45562008060E+02  0.58701490123E+02 -0.86845833323E+02  0.14078511193E+03  0.82197855527E+02 0.  0.
         25    2    1    2    0    0 -0.52184986432E+02 -0.62593898321E+02  0.60791546218E+03  0.62598236670E+03  0.12510573665E+03 0.  0.
        -24    2    1    2    0    0  0.66229783724E+01  0.38924081981E+01  0.59117993852E+03  0.59674479388E+03  0.80942044931E+02 0.  0.
        -13    1    3    3    0    0  0.66235075627E+01  0.10618736226E+02 -0.77149284986E+02  0.78157792863E+02  0.00000000000E+00 0.  1.
         14    1    3    3    0    0  0.38938500497E+02  0.48082753897E+02 -0.96965483377E+01  0.62627319062E+02  0.00000000000E+00 0. -1.
         13    1    5    5    0    0  0.96456072694E+01  0.10964411067E-01  0.56184774394E+01  0.11162667627E+02  0.00000000000E+00 0. -1.
        -14    1    5    5    0    0 -0.30226288971E+01  0.38814437871E+01  0.58556146108E+03  0.58558212625E+03  0.00000000000E+00 0.  1.
          5    1    4    4  501    0 -0.81318888963E+02 -0.20965242764E+02  0.23482041812E+03  0.24942013606E+03  0.41800000000E+01 0. -1.
         -5    1    4    4    0  501  0.29133902531E+02 -0.41628655557E+02  0.37309504406E+03  0.37656223064E+03  0.41800000000E+01 0. -1.
</event>
<event>
11    1  0.8328696E-009  0.1842045E+03  0.7561462E-02  0.1066292E+00
         22   -1    0    0    0    0  0.00000000000E+00  0.00000000000E+00  0.72310327729E+03  0.72310327729E+03  0.00000000000E+00 0.  1.
         22   -1    0    0    0    0 -0.00000000000E+00 -0.00000000000E+00 -0.91606058033E+02  0.91606058033E+02  0.00000000000E+00 0. -1.
        -24    2    1    2    0    0 -0.78487948645E+02  0.59868862736E+01  0.74782350626E+02  0.13474833429E+03  0.79802961965E+02 0.  0.
         25    2    1    2    0    0 -0.17974838513E+02 -0.11511874326E+03  0.10840317382E+03  0.20242415887E+03  0.12509545208E+03 0.  0.
         24    2    1    2    0    0  0.96462787158E+02  0.10913185699E+03  0.44831169481E+03  0.47753684216E+03  0.76441012584E+02 0.  0.
        -13    1    5    5    0    0  0.63099414865E+02  0.36041172521E+02  0.30196584707E+03  0.31058634076E+03  0.00000000000E+00 0.  1.
         14    1    5    5    0    0  0.33363372293E+02  0.73090684468E+02  0.14634584774E+03  0.16695050140E+03  0.00000000000E+00 0. -1.
         11    1    3    3    0    0 -0.90113460545E+02 -0.50639195208E+01  0.76894687400E+02  0.11857011429E+03  0.00000000000E+00 0. -1.
        -12    1    3    3    0    0  0.11625511901E+02  0.11050805794E+02 -0.21123367735E+01  0.16178219998E+02  0.00000000000E+00 0.  1.
          5    1    4    4  501    0 -0.72911673132E+01 -0.14099090112E+03  0.99447729340E+02  0.17273945290E+03  0.41800000000E+01 0.  1.
         -5    1    4    4    0  501 -0.10683671200E+02  0.25872157856E+02  0.89554444822E+01  0.29684705966E+02  0.41800000000E+01 0.  1.
</event>
<event>
11    1  0.8328696E-009  0.1483067E+03  0.7561462E-02  0.1098622E+00
         22   -1    0    0    0    0  0.00000000000E+00  0.00000000000E+00  0.31677234621E+03  0.31677234621E+03  0.00000000000E+00 0.  1.
         22   -1    0    0    0    0 -0.00000000000E+00 -0.00000000000E+00 -0.81425501126E+03  0.81425501126E+03  0.00000000000E+00 0.  1.
        -24    2    1    2    0    0  0.30150671180E+01  0.31787836120E+02 -0.63806609971E+03  0.64378655557E+03  0.79455801361E+02 0.  0.
         25    2    1    2    0    0 -0.71360255407E+02 -0.70260477468E+02 -0.12228444304E+03  0.20157787074E+03  0.12510528453E+03 0.  0.
         24    2    1    2    0    0  0.68345188289E+02  0.38472641348E+02  0.26286787771E+03  0.28566293116E+03  0.79703075327E+02 0.  0.
        -13    1    5    5    0    0  0.26123631598E+01  0.86051983393E+01  0.15850272077E+03  0.15875763406E+03  0.00000000000E+00 0.  1.
         14    1    5    5    0    0  0.65732825129E+02  0.29867443009E+02  0.10436515693E+03  0.12690529710E+03  0.00000000000E+00 0. -1.
         13    1    3    3    0    0  0.16680380400E+01  0.56451419493E+02 -0.33609902335E+03  0.34081094262E+03  0.00000000000E+00 0. -1.
        -14    1    3    3    0    0  0.13470290779E+01 -0.24663583372E+02 -0.30196707636E+03  0.30297561295E+03  0.00000000000E+00 0.  1.
          5    1    4    4  501    0 -0.42407262544E+02 -0.53376035578E+02  0.63393181194E+01  0.68593268218E+02  0.41800000000E+01 0.  1.
         -5    1    4    4    0  501 -0.28952992863E+02 -0.16884441890E+02 -0.12862376116E+03  0.13298460252E+03  0.41800000000E+01 0.  1.
</event>
<event>
11    1  0.8328696E-009  0.1558833E+03  0.7561462E-02  0.1091014E+00
         22   -1    0    0    0    0  0.00000000000E+00  0.00000000000E+00  0.13614082260E+04  0.13614082260E+04  0.00000000000E+00 0.  1.
         22   -1    0    0    0    0 -0.00000000000E+00 -0.00000000000E+00 -0.13971983515E+03  0.13971983515E+03  0.00000000000E+00 0. -1.
         24    2    1    2    0    0 -0.80579904660E+01 -0.11163893621E+03 -0.42470388387E+02  0.14353647154E+03  0.79188392364E+02 0.  0.
         25    2    1    2    0    0 -0.27502926916E+02  0.53018641663E+02  0.63537867843E+02  0.15248834399E+03  0.12509295364E+03 0.  0.
        -24    2    1    2    0    0  0.35560917382E+02  0.58620294543E+02  0.12006209114E+04  0.12051032457E+04  0.77989370768E+02 0.  0.
        -13    1    3    3    0    0  0.61552589737E+01 -0.72517626772E+01 -0.36826470328E+02  0.38035039001E+02  0.00000000000E+00 0.  1.
         14    1    3    3    0    0 -0.14213249440E+02 -0.10438717353E+03 -0.56439180587E+01  0.10550143254E+03  0.00000000000E+00 0. -1.
         13    1    5    5    0    0  0.53941161483E+02  0.38160471836E+02  0.55873259752E+03  0.56262597349E+03  0.00000000000E+00 0. -1.
        -14    1    5    5    0    0 -0.18380244101E+02  0.20459822708E+02  0.64188831392E+03  0.64247727217E+03  0.00000000000E+00 0.  1.
          5    1    4    4  501    0 -0.44390055313E+02  0.35048290598E+02 -0.23900374777E+02  0.61543155582E+02  0.41800000000E+01 0.  1.
         -5    1    4    4    0  501  0.16887128397E+02  0.17970351064E+02  0.87438242620E+02  0.90945188412E+02  0.41800000000E+01 0.  1.
</event>
<event>
11    1  0.8328696E-009  0.1342717E+03  0.7561462E-02  0.1114129E+00
         22   -1    0    0    0    0  0.00000000000E+00  0.00000000000E+00  0.83509660744E+03  0.83509660744E+03  0.00000000000E+00 0.  1.
         22   -1    0    0    0    0 -0.00000000000E+00 -0.00000000000E+00 -0.44990355719E+03  0.44990355719E+03  0.00000000000E+00 0.  1.
         24    2    1    2    0    0  0.49213130550E+01  0.48684247466E+02 -0.42371984885E+03  0.43326806839E+03  0.76081098230E+02 0.  0.
         25    2    1    2    0    0 -0.24303063370E+02 -0.39653937600E+02  0.22494707087E+03  0.26155662461E+03  0.12509040542E+03 0.  0.
        -24    2    1    2    0    0  0.19381750315E+02 -0.90303098664E+01  0.58396582823E+03  0.59017547163E+03  0.82666801244E+02 0.  0.
        -13    1    3    3    0    0 -0.62343878445E+00  0.58078472156E+02 -0.41567667938E+03  0.41971490251E+03  0.00000000000E+00 0.  1.
         14    1    3    3    0    0  0.55447518394E+01 -0.93942246894E+01 -0.80431694639E+01  0.13553165885E+02  0.00000000000E+00 0. -1.
         11    1    5    5    0    0 -0.21220063988E+02  0.23999176282E+02  0.26738022901E+03  0.26929247751E+03  0.00000000000E+00 0. -1.
        -12    1    5    5    0    0  0.40601814303E+02 -0.33029486149E+02  0.31658559922E+03  0.32088299412E+03  0.00000000000E+00 0.  1.
          5    1    4    4  501    0  0.64922842822E+00 -0.76304877487E+02  0.19048953529E+03  0.20524763404E+03  0.41800000000E+01 0.  1.
         -5    1    4    4    0  501 -0.24952291798E+02  0.36650939887E+02  0.34457535580E+02  0.56308990569E+02  0.41800000000E+01 0.  1.
</event>
<event>
11    1  0.8328696E-009  0.1311271E+03  0.7561462E-02  0.1117892E+00
         22   -1    0    0    0    0  0.00000000000E+00  0.00000000000E+00  0.19927601978E+04  0.19927601978E+04  0.00000000000E+00 0.  1.
         22   -1    0    0    0    0 -0.00000000000E+00 -0.00000000000E+00 -0.22097795975E+03  0.22097795975E+03  0.00000000000E+00 0.  1.
        -24    2    1    2    0    0  0.34410549617E+02 -0.22853537997E+02 -0.17779835734E+03  0.19854435847E+03  0.78110410850E+02 0.  0.
         25    2    1    2    0    0 -0.19769562532E+02 -0.23520601645E+01  0.93836448541E+02  0.15763647345E+03  0.12509041089E+03 0.  0.
         24    2    1    2    0    0 -0.14640987085E+02  0.25205598162E+02  0.18557441468E+04  0.18575573256E+04  0.76702012760E+02 0.  0.
        -13    1    5    5    0    0 -0.96053591121E+01  0.40256892993E+02  0.17614979847E+04  0.17619841176E+04  0.00000000000E+00 0.  1.
         14    1    5    5    0    0 -0.50356279732E+01 -0.15051294831E+02  0.94246162099E+02  0.95573208042E+02  0.00000000000E+00 0. -1.
         11    1    3    3    0    0  0.36143487244E+02 -0.17595141481E+02 -0.28818282718E+02  0.49461440464E+02  0.00000000000E+00 0. -1.
        -12    1    3    3    0    0 -0.17329376269E+01 -0.52583965166E+01 -0.14898007462E+03  0.14908291801E+03  0.00000000000E+00 0.  1.
          5    1    4    4  501    0  0.22674530113E+02  0.48266404983E+02  0.16793885771E+02  0.56065026220E+02  0.41800000000E+01 0. -1.
         -5    1    4    4    0  501 -0.42444092645E+02 -0.50618465147E+02  0.77042562771E+02  0.10157144723E+03  0.41800000000E+01 0. -1.
</event>
<event>
11    1  0.8328696E-009  0.1619042E+03  0.7561462E-02  0.1085300E+00
         22   -1    0    0    0    0  0.00000000000E+00  0.00000000000E+00  0.88621655898E+03  0.88621655898E+03  0.00000000000E+00 0.  1.
         22   -1    0    0    0    0 -0.00000000000E+00 -0.00000000000E+00 -0.34938961976E+04  0.34938961976E+04  0.00000000000E+00 0.  1.
         24    2    1    2    0    0  0.96157395383E+02  0.35630980776E+02 -0.34215637803E+04  0.34239566867E+04  0.76582488972E+02 0.  0.
         25    2    1    2    0    0 -0.11690996222E+03 -0.47053516076E+02  0.45535553081E+02  0.18331074593E+03  0.12508944935E+03 0.  0.
        -24    2    1    2    0    0  0.20752566842E+02  0.11422535299E+02  0.76834858866E+03  0.77284532398E+03  0.79807253793E+02 0.  0.
        -13    1    3    3    0    0  0.88455399620E+02  0.74935901486E+01 -0.18566589178E+04  0.18587799355E+04  0.00000000000E+00 0.  1.
         14    1    3    3    0    0  0.77019957628E+01  0.28137390628E+02 -0.15649048626E+04  0.15651767512E+04  0.00000000000E+00 0. -1.
         13    1    5    5    0    0  0.51428144380E+01  0.40382011941E+02  0.23631929415E+03  0.23979984199E+03  0.00000000000E+00 0. -1.
        -14    1    5    5    0    0  0.15609752404E+02 -0.28959476642E+02  0.53202929450E+03  0.53304548199E+03  0.00000000000E+00 0.  1.
          5    1    4    4  501    0  0.38194266322E+01  0.27979787074E+02  0.28067899311E+02  0.40034183846E+02  0.41800000000E+01 0.  1.
         -5    1    4    4    0  501 -0.12072938886E+03 -0.75033303150E+02  0.17467653770E+02  0.14327656209E+03  0.41800000000E+01 0.  1.
</event>
<event>
11    1  0.8328696E-009  0.1286869E+03  0.7561462E-02  0.1120893E+00
         22   -1    0    0    0    0  0.00000000000E+00  0.00000000000E+00  0.35546719618E+03  0.35546719618E+03  0.00000000000E+00 0.  1.
         22   -1    0    0    0    0 -0.00000000000E+00 -0.00000000000E+00 -0.19986786848E+03  0.19986786848E+03  0.00000000000E+00 0. -1.
        -24    2    1    2    0    0 -0.36894831878E+01 -0.44518417248E+01 -0.12704454140E+03  0.15028511824E+03  0.80074153668E+02 0.  0.
         25    2    1    2    0    0  0.26199225839E+02 -0.15722168198E+02  0.21620614518E+02  0.13057090563E+03  0.12509086464E+03 0.  0.
         24    2    1    2    0    0 -0.22509742651E+02  0.20174009922E+02  0.26102325458E+03  0.27447904078E+03  0.79321656591E+02 0.  0.
        -11    1    5    5    0    0  0.13729882686E+02  0.40771646040E+02  0.14150145249E+03  0.14789691632E+03  0.00000000000E+00 0.  1.
         12    1    5    5    0    0 -0.36239625337E+02 -0.20597636117E+02  0.11952180209E+03  0.12658212446E+03  0.00000000000E+00 0. -1.
         13    1    3    3    0    0 -0.28208532367E+02 -0.12654702071E+02 -0.11937955979E+03  0.12331805252E+03  0.00000000000E+00 0. -1.
        -14    1    3    3    0    0  0.24519049180E+02  0.82028603465E+01 -0.76649816101E+01  0.26967065721E+02  0.00000000000E+00 0.  1.
          5    1    4    4  501    0  0.11056149410E+02  0.31971971650E+02 -0.39037391661E+02  0.51825049529E+02  0.41800000000E+01 0.  1.
         -5    1    4    4    0  501  0.15143076428E+02 -0.47694139848E+02  0.60658006179E+02  0.78745856101E+02  0.41800000000E+01 0.  1.
</event>
<event>
11    1  0.8328696E-009  0.1499598E+03  0.7561462E-02  0.1096920E+00
         22   -1    0    0    0    0  0.00000000000E+00  0.00000000000E+00  0.12147065973E+04  0.12147065973E+04  0.00000000000E+00 0.  1.
         22   -1    0    0    0    0 -0.00000000000E+00 -0.00000000000E+00 -0.23528251281E+03  0.23528251281E+03  0.00000000000E+00 0. -1.
         24    2    1    2    0    0  0.22496398388E+02  0.55247690593E+02 -0.10094138911E+03  0.14108665961E+03  0.78472200340E+02 0.  0.
         25    2    1    2    0    0  0.60228599360E+02 -0.63264194682E+02 -0.59283733324E+02  0.16368170010E+03  0.12508914981E+03 0.  0.
        -24    2    1    2    0    0 -0.82724997747E+02  0.80165040886E+01  0.11396492069E+04  0.11452207504E+04  0.76305718849E+02 0.  0.
        -13    1    3    3    0    0  0.20672096885E+02 -0.16711991422E+02 -0.26537834141E+02  0.37561721044E+02  0.00000000000E+00 0.  1.
         14    1    3    3    0    0  0.18243015030E+01  0.71959682015E+02 -0.74403554974E+02  0.10352493856E+03  0.00000000000E+00 0. -1.
         13    1    5    5    0    0 -0.59390649398E+02 -0.30523522637E+02  0.60392589928E+03  0.60760630880E+03  0.00000000000E+00 0. -1.
        -14    1    5    5    0    0 -0.23334348349E+02  0.38540026726E+02  0.53572330762E+03  0.53761444158E+03  0.00000000000E+00 0.  1.
          5    1    4    4  501    0  0.80217079009E+02 -0.72700301977E+01 -0.15006555805E+01  0.80668193676E+02  0.41800000000E+01 0.  1.
         -5    1    4    4    0  501 -0.19988479649E+02 -0.55994164484E+02 -0.57783077743E+02  0.83013506422E+02  0.41800000000E+01 0.  1.
</event>
<event>
11    1  0.8328696E-009  0.1278485E+03  0.7561462E-02  0.1121941E+00
         22   -1    0    0    0    0  0.00000000000E+00  0.00000000000E+00  0.91221569656E+02  0.91221569656E+02  0.00000000000E+00 0. -1.
         22   -1    0    0    0    0 -0.00000000000E+00 -0.00000000000E+00 -0.10157242865E+04  0.10157242865E+04  0.00000000000E+00 0.  1.
        -24    2    1    2    0    0 -0.16467514000E+02  0.18282148546E+01 -0.83433478139E+03  0.83832925619E+03  0.80043069426E+02 0.  0.
         25    2    1    2    0    0  0.85173038144E+01  0.24386490504E+02 -0.12160308706E+03  0.17635797475E+03  0.12509028377E+03 0.  0.
         24    2    1    2    0    0  0.79502101855E+01 -0.26214705359E+02  0.31435151630E+02  0.92258625190E+02  0.82298654575E+02 0.  0.
        -11    1    5    5    0    0 -0.16780683505E+02  0.14390257687E+02 -0.14267916040E+02  0.26310535596E+02  0.00000000000E+00 0.  1.
         12    1    5    5    0    0  0.24730893691E+02 -0.40604963045E+02  0.45703067670E+02  0.65948089594E+02  0.00000000000E+00 0. -1.
         13    1    3    3    0    0  0.24276283947E+02  0.25016168243E+02 -0.35778912945E+03  0.35948325106E+03  0.00000000000E+00 0. -1.
        -14    1    3    3    0    0 -0.40743797947E+02 -0.23187953388E+02 -0.47654565194E+03  0.47884600513E+03  0.00000000000E+00 0.  1.
          5    1    4    4  501    0  0.16328741263E+02  0.57565011857E+02 -0.11566189103E+02  0.61086884940E+02  0.41800000000E+01 0.  1.
         -5    1    4    4    0  501 -0.78114374487E+01 -0.33178521353E+02 -0.11003689796E+03  0.11527108981E+03  0.41800000000E+01 0.  1.
</event>
<event>
11    1  0.8328696E-009  0.1931100E+03  0.7561462E-02  0.1059506E+00
         22   -1    0    0    0    0  0.00000000000E+00  0.00000000000E+00  0.12247807123E+04  0.12247807123E+04  0.00000000000E+00 0. -1.
         22   -1    0    0    0    0 -0.00000000000E+00 -0.00000000000E+00 -0.57290471245E+02  0.57290471245E+02  0.00000000000E+00 0. -1.
        -24    2    1    2    0    0  0.69388931905E+02  0.48481331724E+02  0.10208669669E+03  0.15536054440E+03  0.80931710214E+02 0.  0.
         25    2    1    2    0    0  0.34175730215E+02 -0.15516856103E+03  0.53401801121E+03  0.57102984026E+03  0.12511826126E+03 0.  0.
         24    2    1    2    0    0 -0.10356466212E+03  0.10668722931E+03  0.53138553315E+03  0.55568079888E+03  0.65595436327E+02 0.  0.
        -11    1    5    5    0    0 -0.69797870686E+02  0.81831479980E+02  0.46410504127E+03  0.47640489418E+03  0.00000000000E+00 0.  1.
         12    1    5    5    0    0 -0.33766791434E+02  0.24855749328E+02  0.67280491882E+02  0.79275904702E+02  0.00000000000E+00 0. -1.
         11    1    3    3    0    0  0.63362532526E+02  0.41524641144E+02  0.11607895611E+03  0.13861251893E+03  0.00000000000E+00 0. -1.
        -12    1    3    3    0    0  0.60263993789E+01  0.69566905798E+01 -0.13992259428E+02  0.16748025471E+02  0.00000000000E+00 0.  1.
          5    1    4    4  501    0  0.68663390774E+02 -0.41509573593E+02  0.16849321398E+03  0.18666853374E+03  0.41800000000E+01 0. -1.
         -5    1    4    4    0  501 -0.34487660559E+02 -0.11365898744E+03  0.36552479723E+03  0.38436130651E+03  0.41800000000E+01 0. -1.
</event>
<event>
11    1  0.8328696E-009  0.1502997E+03  0.7561462E-02  0.1096573E+00
         22   -1    0    0    0    0  0.00000000000E+00  0.00000000000E+00  0.12193640652E+03  0.12193640652E+03  0.00000000000E+00 0. -1.
         22   -1    0    0    0    0 -0.00000000000E+00 -0.00000000000E+00 -0.29306562732E+04  0.29306562732E+04  0.00000000000E+00 0.  1.
        -24    2    1    2    0    0  0.49223873084E+02  0.62573196922E+02 -0.23228982676E+04  0.23257134922E+04  0.82149201144E+02 0.  0.
         25    2    1    2    0    0 -0.87908367399E+02 -0.78320610435E+02 -0.57663311262E+03  0.60167896083E+03  0.12509926560E+03 0.  0.
         24    2    1    2    0    0  0.38684494315E+02  0.15747413513E+02  0.90811513533E+02  0.12520022675E+03  0.75391608658E+02 0.  0.
        -11    1    5    5    0    0  0.26006519248E+02  0.35789060573E+02  0.16534212748E+02  0.47228975124E+02  0.00000000000E+00 0.  1.
         12    1    5    5    0    0  0.12677975067E+02 -0.20041647060E+02  0.74277300784E+02  0.77971251628E+02  0.00000000000E+00 0. -1.
         13    1    3    3    0    0 -0.37802623317E+01  0.95156485112E+01 -0.32218583993E+02  0.33806435843E+02  0.00000000000E+00 0. -1.
        -14    1    3    3    0    0  0.53004135416E+02  0.53057548411E+02 -0.22906796836E+04  0.22919070563E+04  0.00000000000E+00 0.  1.
          5    1    4    4  501    0 -0.98170756108E+01 -0.45544951725E+02 -0.50814823711E+02  0.69067621285E+02  0.41800000000E+01 0. -1.
         -5    1    4    4    0  501 -0.78091291788E+02 -0.32775658710E+02 -0.52581828891E+03  0.53261133954E+03  0.41800000000E+01 0. -1.
</event>
<event>
11    1  0.9454654E-009  0.1471670E+03  0.7561462E-02  0.1099809E+00
         22   -1    0    0    0    0  0.00000000000E+00  0.00000000000E+00  0.77616361035E+03  0.77616361035E+03  0.00000000000E+00 0.  1.
         22   -1    0    0    0    0 -0.00000000000E+00 -0.00000000000E+00 -0.10891031886E+04  0.10891031886E+04  0.00000000000E+00 0. -1.
        -24    2    1    2    0    0  0.10866351432E+02 -0.18121500657E+02 -0.83346859723E+03  0.83746774293E+03  0.78967407816E+02 0.  0.
         25    2    1    2    0    0  0.52217067408E+02 -0.27485336584E+02 -0.23031693656E+03  0.26865576285E+03  0.12509181344E+03 0.  0.
         24    2    1    2    0    0 -0.63083418840E+02  0.45606837241E+02  0.75084595549E+03  0.75914329322E+03  0.80432514770E+02 0.  0.
        -11    1    5    5    0    0 -0.64284466931E+02  0.28356009294E+02  0.72271550890E+03  0.72612276011E+03  0.00000000000E+00 0.  1.
         12    1    5    5    0    0  0.12010480907E+01  0.17250827947E+02  0.28130446594E+02  0.33020533111E+02  0.00000000000E+00 0. -1.
         13    1    3    3    0    0 -0.33561540129E+01  0.27844257428E+02 -0.17395842873E+03  0.17620471437E+03  0.00000000000E+00 0. -1.
        -14    1    3    3    0    0  0.14222505445E+02 -0.45965758085E+02 -0.65951016850E+03  0.66126302856E+03  0.00000000000E+00 0.  1.
          5    1    4    4  501    0 -0.22373911628E+02  0.22722091785E+02 -0.12980921821E+03  0.13373403048E+03  0.41800000000E+01 0.  1.
         -5    1    4    4    0  501  0.74590979036E+02 -0.50207428369E+02 -0.10050771835E+03  0.13492173237E+03  0.41800000000E+01 0.  1.
</event>
<event>
11    1  0.8328696E-009  0.1440198E+03  0.7561462E-02  0.1103151E+00
         22   -1    0    0    0    0  0.00000000000E+00  0.00000000000E+00  0.18230486030E+03  0.18230486030E+03  0.00000000000E+00 0.  1.
         22   -1    0    0    0    0 -0.00000000000E+00 -0.00000000000E+00 -0.72888371759E+03  0.72888371759E+03  0.00000000000E+00 0.  1.
        -24    2    1    2    0    0 -0.23534068866E+02  0.71048450992E+02 -0.42467707427E+03  0.43863723948E+03  0.80313608185E+02 0.  0.
         25    2    1    2    0    0  0.13785507019E+02 -0.61507457045E+02 -0.26762491043E+03  0.30206648119E+03  0.12509140217E+03 0.  0.
         24    2    1    2    0    0  0.97485618475E+01 -0.95409939472E+01  0.14572312741E+03  0.17048485723E+03  0.87428780482E+02 0.  0.
        -13    1    5    5    0    0  0.46121877641E+02 -0.20271793076E+02  0.88522671938E+02  0.10185497847E+03  0.00000000000E+00 0.  1.
         14    1    5    5    0    0 -0.36373315793E+02  0.10730799128E+02  0.57200455476E+02  0.68629878758E+02  0.00000000000E+00 0. -1.
         11    1    3    3    0    0 -0.52258793364E+02  0.32001373183E+02 -0.23213833958E+03  0.24009014572E+03  0.00000000000E+00 0. -1.
        -12    1    3    3    0    0  0.28724724498E+02  0.39047077809E+02 -0.19253873470E+03  0.19854709376E+03  0.00000000000E+00 0.  1.
          5    1    4    4  501    0 -0.10069479566E+02 -0.94796598579E+02 -0.21522694979E+03  0.23543131023E+03  0.41800000000E+01 0.  1.
         -5    1    4    4    0  501  0.23854986585E+02  0.33289141534E+02 -0.52397960648E+02  0.66635170961E+02  0.41800000000E+01 0.  1.
</event>
<event>
11    1  0.8328696E-009  0.1499483E+03  0.7561462E-02  0.1096932E+00
         22   -1    0    0    0    0  0.00000000000E+00  0.00000000000E+00  0.62775443502E+03  0.62775443502E+03  0.00000000000E+00 0.  1.
         22   -1    0    0    0    0 -0.00000000000E+00 -0.00000000000E+00 -0.34774266840E+03  0.34774266840E+03  0.00000000000E+00 0.  1.
         24    2    1    2    0    0  0.30935641811E+02 -0.67590080874E+02 -0.14599435727E+03  0.18232293593E+03  0.80011671918E+02 0.  0.
         25    2    1    2    0    0 -0.61848615650E+02  0.79518202645E+02 -0.14452088092E+03  0.21606022251E+03  0.12508932376E+03 0.  0.
        -24    2    1    2    0    0  0.30912973838E+02 -0.11928121770E+02  0.57052700481E+03  0.57711394498E+03  0.80383768485E+02 0.  0.
        -11    1    3    3    0    0  0.44030176607E+02 -0.79486624170E+02 -0.12900771843E+03  0.15779661368E+03  0.00000000000E+00 0.  1.
         12    1    3    3    0    0 -0.13094534796E+02  0.11896543296E+02 -0.16986638847E+02  0.24526322252E+02  0.00000000000E+00 0. -1.
         13    1    5    5    0    0  0.10749171180E+02 -0.45963080031E+02  0.29168916919E+03  0.29548387575E+03  0.00000000000E+00 0. -1.
        -14    1    5    5    0    0  0.20163802658E+02  0.34034958261E+02  0.27883783562E+03  0.28163006923E+03  0.00000000000E+00 0.  1.
          5    1    4    4  501    0  0.35107496164E+02  0.11408197183E+01 -0.39203069117E+02  0.52803321720E+02  0.41800000000E+01 0.  1.
         -5    1    4    4    0  501 -0.96956111814E+02  0.78377382926E+02 -0.10531781180E+03  0.16325690079E+03  0.41800000000E+01 0.  1.
</event>
<event>
11    1  0.8328696E-009  0.1575651E+03  0.7561462E-02  0.1089390E+00
         22   -1    0    0    0    0  0.00000000000E+00  0.00000000000E+00  0.65935366987E+03  0.65935366987E+03  0.00000000000E+00 0. -1.
         22   -1    0    0    0    0 -0.00000000000E+00 -0.00000000000E+00 -0.32244223040E+03  0.32244223040E+03  0.00000000000E+00 0. -1.
         24    2    1    2    0    0  0.36774201524E+02 -0.86096551439E+02 -0.25979744235E+03  0.28709074794E+03  0.78494766905E+02 0.  0.
         25    2    1    2    0    0 -0.31965656367E+02  0.12064213741E+03  0.12867119295E+03  0.21858694770E+03  0.12509056441E+03 0.  0.
        -24    2    1    2    0    0 -0.48085451568E+01 -0.34545585969E+02  0.46803768888E+03  0.47611820464E+03  0.80079628891E+02 0.  0.
        -13    1    3    3    0    0  0.12924296282E+02 -0.20770158170E+02 -0.17823078718E+03  0.17990177988E+03  0.00000000000E+00 0.  1.
         14    1    3    3    0    0  0.23849905242E+02 -0.65326393268E+02 -0.81566655169E+02  0.10718896806E+03  0.00000000000E+00 0. -1.
         11    1    5    5    0    0 -0.25646486060E+02  0.16133844900E+02  0.11854340133E+03  0.12235432644E+03  0.00000000000E+00 0. -1.
        -12    1    5    5    0    0  0.20837940903E+02 -0.50679430869E+02  0.34949428754E+03  0.35376387820E+03  0.00000000000E+00 0.  1.
          5    1    4    4  501    0 -0.72322897284E+02  0.65299397597E+02  0.37532496526E+02  0.10450250472E+03  0.41800000000E+01 0.  1.
         -5    1    4    4    0  501  0.40357240917E+02  0.55342739811E+02  0.91138696421E+02  0.11408444298E+03  0.41800000000E+01 0.  1.
</event>
<event>
11    1  0.8328696E-009  0.1299544E+03  0.7561462E-02  0.1119325E+00
         22   -1    0    0    0    0  0.00000000000E+00  0.00000000000E+00  0.99194124246E+03  0.99194124246E+03  0.00000000000E+00 0. -1.
         22   -1    0    0    0    0 -0.00000000000E+00 -0.00000000000E+00 -0.19103252921E+03  0.19103252921E+03  0.00000000000E+00 0.  1.
        -24    2    1    2    0    0  0.99508199515E+01  0.24484058726E+01 -0.91269112783E+02  0.12132413733E+03  0.79274723843E+02 0.  0.
         25    2    1    2    0    0  0.18750202970E+02  0.18369164432E+02 -0.33252178021E+02  0.13206877177E+03  0.12508979503E+03 0.  0.
         24    2    1    2    0    0 -0.28701022922E+02 -0.20817570304E+02  0.92543000405E+03  0.92958086258E+03  0.80266853229E+02 0.  0.
        -13    1    5    5    0    0  0.23903783028E+02 -0.36033733065E+01  0.13007338808E+03  0.13230064788E+03  0.00000000000E+00 0.  1.
         14    1    5    5    0    0 -0.52604805950E+02 -0.17214196998E+02  0.79535661597E+03  0.79728021470E+03  0.00000000000E+00 0. -1.
         13    1    3    3    0    0 -0.14734630127E+02 -0.35691501436E+01  0.91718762943E+01  0.17719240178E+02  0.00000000000E+00 0. -1.
        -14    1    3    3    0    0  0.24685450079E+02  0.60175560161E+01 -0.10044098908E+03  0.10360489715E+03  0.00000000000E+00 0.  1.
          5    1    4    4  501    0  0.39152956330E+02 -0.43535663585E+02  0.16751886272E+00  0.58701008984E+02  0.41800000000E+01 0.  1.
         -5    1    4    4    0  501 -0.20402753360E+02  0.61904828017E+02 -0.33419696884E+02  0.73367762786E+02  0.41800000000E+01 0.  1.
</event>
<event>
11    1  0.8328696E-009  0.1381634E+03  0.7561462E-02  0.1109627E+00
         22   -1    0    0    0    0  0.00000000000E+00  0.00000000000E+00  0.29002930180E+03  0.29002930180E+03  0.00000000000E+00 0.  1.
         22   -1    0    0    0    0 -0.00000000000E+00 -0.00000000000E+00 -0.75706768629E+03  0.75706768629E+03  0.00000000000E+00 0.  1.
         24    2    1    2    0    0  0.56563081651E+02 -0.10438310441E+02 -0.66752097670E+03  0.67459703552E+03  0.78667435883E+02 0.  0.
         25    2    1    2    0    0 -0.84252649982E+02 -0.19783618304E+01 -0.31767137683E+01  0.15086423820E+03  0.12508998327E+03 0.  0.
        -24    2    1    2    0    0  0.27689568331E+02  0.12416672272E+02  0.20365930597E+03  0.22163571437E+03  0.82002384301E+02 0.  0.
        -13    1    3    3    0    0  0.24604872643E+02  0.11972395542E+02 -0.61408517721E+02  0.67229041801E+02  0.00000000000E+00 0.  1.
         14    1    3    3    0    0  0.31958209008E+02 -0.22410705983E+02 -0.60611245898E+03  0.60736799372E+03  0.00000000000E+00 0. -1.
         13    1    5    5    0    0  0.81394107748E+01 -0.29587161709E+01 -0.59810753288E+01  0.10525078205E+02  0.00000000000E+00 0. -1.
        -14    1    5    5    0    0  0.19550157556E+02  0.15375388442E+02  0.20964038130E+03  0.21111063617E+03  0.00000000000E+00 0.  1.
          5    1    4    4  501    0 -0.25723599891E+02  0.50522638836E+02 -0.34078982628E+02  0.66280389884E+02  0.41800000000E+01 0. -1.
         -5    1    4    4    0  501 -0.58529050091E+02 -0.52501000666E+02  0.30902268860E+02  0.84583848317E+02  0.41800000000E+01 0. -1.
</event>
<event>
11    1  0.8328696E-009  0.1478749E+03  0.7561462E-02  0.1099070E+00
         22   -1    0    0    0    0  0.00000000000E+00  0.00000000000E+00  0.84994654180E+03  0.84994654180E+03  0.00000000000E+00 0. -1.
         22   -1    0    0    0    0 -0.00000000000E+00 -0.00000000000E+00 -0.35834502224E+03  0.35834502224E+03  0.00000000000E+00 0. -1.
        -24    2    1    2    0    0 -0.44822231502E+02  0.26370659589E+02 -0.30547372849E+03  0.32019451381E+03  0.80659058715E+02 0.  0.
         25    2    1    2    0    0 -0.34464807976E+02  0.14192653874E+01  0.62017097474E+02  0.14382164642E+03  0.12509479725E+03 0.  0.
         24    2    1    2    0    0  0.79287039477E+02 -0.27789924976E+02  0.73505815057E+03  0.74427540381E+03  0.81096716526E+02 0.  0.
        -11    1    5    5    0    0  0.73404758064E+01  0.11028014354E+02  0.16871992095E+02  0.21451428924E+02  0.00000000000E+00 0.  1.
         12    1    5    5    0    0  0.71946563671E+02 -0.38817939330E+02  0.71818615848E+03  0.72282397488E+03  0.00000000000E+00 0. -1.
         11    1    3    3    0    0 -0.76636065698E+01 -0.14478808569E+02 -0.20409585759E+03  0.20475225481E+03  0.00000000000E+00 0. -1.
        -12    1    3    3    0    0 -0.37158624932E+02  0.40849468158E+02 -0.10137787090E+03  0.11544225901E+03  0.00000000000E+00 0.  1.
          5    1    4    4  501    0 -0.78186266714E+02 -0.16813417053E+02  0.51203096159E+02  0.95052684085E+02  0.41800000000E+01 0. -1.
         -5    1    4    4    0  501  0.43721458738E+02  0.18232682441E+02  0.10814001315E+02  0.48768962339E+02  0.41800000000E+01 0. -1.
</event>
<event>
11    1  0.8328696E-009  0.1575214E+03  0.7561462E-02  0.1089432E+00
         22   -1    0    0    0    0  0.00000000000E+00  0.00000000000E+00  0.27896478848E+04  0.27896478848E+04  0.00000000000E+00 0.  1.
         22   -1    0    0    0    0 -0.00000000000E+00 -0.00000000000E+00 -0.10523939965E+03  0.10523939965E+03  0.00000000000E+00 0.  1.
         24    2    1    2    0    0 -0.32387537671E+02 -0.13462002330E+02 -0.73588089297E+02  0.11824030140E+03  0.85646855670E+02 0.  0.
         25    2    1    2    0    0 -0.54492224662E+02  0.63564670539E+02  0.77459461436E+03  0.78908462549E+03  0.12509140535E+03 0.  0.
        -24    2    1    2    0    0  0.86879762333E+02 -0.50102668209E+02  0.19834019601E+04  0.19875623576E+04  0.80389175193E+02 0.  0.
        -13    1    3    3    0    0 -0.30131576813E+02 -0.12034706624E+02 -0.93076616090E+02  0.98569785166E+02  0.00000000000E+00 0.  1.
         14    1    3    3    0    0 -0.22559608578E+01 -0.14272957058E+01  0.19488526794E+02  0.19670516236E+02  0.00000000000E+00 0. -1.
         13    1    5    5    0    0 -0.22213491272E+01  0.12524970014E+02  0.50253705568E+03  0.50269802227E+03  0.00000000000E+00 0. -1.
        -14    1    5    5    0    0  0.89101111460E+02 -0.62627638223E+02  0.14808649044E+04  0.14848643353E+04  0.00000000000E+00 0.  1.
          5    1    4    4  501    0  0.94248075291E+01  0.41727645347E+02  0.60443989433E+03  0.60596623804E+03  0.41800000000E+01 0.  1.
         -5    1    4    4    0  501 -0.63917032191E+02  0.21837025192E+02  0.17015472003E+03  0.18311838745E+03  0.41800000000E+01 0.  1.
</event>
<event>
11    1  0.8328696E-009  0.1490153E+03  0.7561462E-02  0.1097889E+00
         22   -1    0    0    0    0  0.00000000000E+00  0.00000000000E+00  0.12448116809E+04  0.12448116809E+04  0.00000000000E+00 0. -1.
         22   -1    0    0    0    0 -0.00000000000E+00 -0.00000000000E+00 -0.35968307508E+03  0.35968307508E+03  0.00000000000E+00 0.  1.
         24    2    1    2    0    0 -0.68524228650E+02 -0.21191314488E+02 -0.24271825901E+03  0.26605289654E+03  0.82020416846E+02 0.  0.
         25    2    1    2    0    0  0.14605255620E+03  0.41933041084E+01 -0.12426513982E+02  0.19274566400E+03  0.12509012659E+03 0.  0.
        -24    2    1    2    0    0 -0.77528327547E+02  0.16998010379E+02  0.11402733788E+04  0.11456961954E+04  0.78082135434E+02 0.  0.
        -13    1    3    3    0    0 -0.15053183597E+02 -0.47009623899E+02 -0.11863409546E+03  0.12849339159E+03  0.00000000000E+00 0.  1.
         14    1    3    3    0    0 -0.53471045053E+02  0.25818309411E+02 -0.12408416355E+03  0.13755950495E+03  0.00000000000E+00 0. -1.
         13    1    5    5    0    0 -0.66363821013E+02  0.25568562069E+02  0.11103785366E+04  0.11126537658E+04  0.00000000000E+00 0. -1.
        -14    1    5    5    0    0 -0.11164506534E+02 -0.85705516901E+01  0.29894842237E+02  0.33042429614E+02  0.00000000000E+00 0.  1.
          5    1    4    4  501    0 -0.13588519953E+02 -0.16269644257E+02 -0.22798948454E+02  0.31410406705E+02  0.41800000000E+01 0. -1.
         -5    1    4    4    0  501  0.15964107615E+03  0.20462948366E+02  0.10372434472E+02  0.16133525730E+03  0.41800000000E+01 0. -1.
</event>
<event>
11    1  0.8328696E-009  0.1592951E+03  0.7561462E-02  0.1087742E+00
         22   -1    0    0    0    0  0.00000000000E+00  0.00000000000E+00  0.10655704591E+03  0.10655704591E+03  0.00000000000E+00 0.  1.
         22   -1    0    0    0    0 -0.00000000000E+00 -0.00000000000E+00 -0.10633252075E+04  0.10633252075E+04  0.00000000000E+00 0. -1.
         24    2    1    2    0    0 -0.40964224645E+02  0.18983433756E+02 -0.70732225468E+03  0.71274339467E+03  0.75232547650E+02 0.  0.
         25    2    1    2    0    0  0.42542693660E+02  0.82048433462E+02 -0.28356741401E+03  0.32341808168E+03  0.12508777341E+03 0.  0.
        -24    2    1    2    0    0 -0.15784690156E+01 -0.10103186722E+03  0.34121507100E+02  0.13372077705E+03  0.80666220993E+02 0.  0.
        -13    1    3    3    0    0 -0.62259985178E+02  0.21058924272E+02 -0.49462168148E+03  0.49896932956E+03  0.00000000000E+00 0.  1.
         14    1    3    3    0    0  0.21295760533E+02 -0.20754905154E+01 -0.21270057320E+03  0.21377406512E+03  0.00000000000E+00 0. -1.
         13    1    5    5    0    0 -0.19809335268E+02  0.33828566229E+01 -0.50482358846E+01  0.20720477027E+02  0.00000000000E+00 0. -1.
        -14    1    5    5    0    0  0.18230866252E+02 -0.10441472384E+03  0.39169742984E+02  0.11300030002E+03  0.00000000000E+00 0.  1.
          5    1    4    4  501    0 -0.61407749976E+01  0.43088017492E+02 -0.24735695778E+03  0.25119160680E+03  0.41800000000E+01 0. -1.
         -5    1    4    4    0  501  0.48683468658E+02  0.38960415971E+02 -0.36210456230E+02  0.72226474880E+02  0.41800000000E+01 0. -1.
</event>
<event>
11    1  0.8328696E-009  0.1772304E+03  0.7561462E-02  0.1071905E+00
         22   -1    0    0    0    0  0.00000000000E+00  0.00000000000E+00  0.67671097992E+03  0.67671097992E+03  0.00000000000E+00 0.  1.
         22   -1    0    0    0    0 -0.00000000000E+00 -0.00000000000E+00 -0.28763617773E+03  0.28763617773E+03  0.00000000000E+00 0.  1.
         24    2    1    2    0    0 -0.12956259762E+01  0.97616442780E+01 -0.80451389561E+02  0.11573097881E+03  0.82609109845E+02 0.  0.
         25    2    1    2    0    0  0.33825027187E+02 -0.13054689132E+03 -0.13368912535E+03  0.22739067941E+03  0.12508843090E+03 0.  0.
        -24    2    1    2    0    0 -0.32529401211E+02  0.12078524705E+03  0.60321531710E+03  0.62122549943E+03  0.80032271676E+02 0.  0.
        -11    1    3    3    0    0  0.86866127773E+01  0.42408069547E+02 -0.23302671020E+02  0.49162140728E+02  0.00000000000E+00 0.  1.
         12    1    3    3    0    0 -0.99822387535E+01 -0.32646425269E+02 -0.57148718541E+02  0.66568838087E+02  0.00000000000E+00 0. -1.
         13    1    5    5    0    0 -0.27462743302E+02 -0.11848852742E+00  0.10699143381E+03  0.11045987153E+03  0.00000000000E+00 0. -1.
        -14    1    5    5    0    0 -0.50666579090E+01  0.12090373557E+03  0.49622388328E+03  0.51076562790E+03  0.00000000000E+00 0.  1.
          5    1    4    4  501    0 -0.33058985516E+02 -0.80479467914E+02 -0.11026779526E+03  0.14052152985E+03  0.41800000000E+01 0.  1.
         -5    1    4    4    0  501  0.66884012703E+02 -0.50067423411E+02 -0.23421330090E+02  0.86869149561E+02  0.41800000000E+01 0.  1.
</event>
<event>
11    1  0.8328696E-009  0.1544051E+03  0.7561462E-02  0.1092461E+00
         22   -1    0    0    0    0  0.00000000000E+00  0.00000000000E+00  0.18686533106E+04  0.18686533106E+04  0.00000000000E+00 0.  1.
         22   -1    0    0    0    0 -0.00000000000E+00 -0.00000000000E+00 -0.88112314621E+03  0.88112314621E+03  0.00000000000E+00 0. -1.
        -24    2    1    2    0    0  0.38640111308E+01 -0.79284406679E+02 -0.86240170889E+03  0.86979396357E+03  0.80646660445E+02 0.  0.
         25    2    1    2    0    0  0.29869069998E+02  0.14695068913E+03  0.79139258650E+03  0.81512895623E+03  0.12508526268E+03 0.  0.
         24    2    1    2    0    0 -0.33733081128E+02 -0.67666282448E+02  0.10585392868E+04  0.10648535370E+04  0.87698272780E+02 0.  0.
        -13    1    5    5    0    0 -0.24336179069E+02 -0.55040531653E+02  0.10336830168E+04  0.10354333822E+04  0.00000000000E+00 0.  1.
         14    1    5    5    0    0 -0.93969020594E+01 -0.12625750795E+02  0.24856270003E+02  0.29420154825E+02  0.00000000000E+00 0. -1.
         13    1    3    3    0    0  0.33079153827E+02 -0.65725572475E+02 -0.72227997450E+03  0.72601821110E+03  0.00000000000E+00 0. -1.
        -14    1    3    3    0    0 -0.29215142697E+02 -0.13558834204E+02 -0.14012173440E+03  0.14377575247E+03  0.00000000000E+00 0.  1.
          5    1    4    4  501    0 -0.16677516487E+02  0.41398719322E+01  0.11971927418E+02  0.21355972043E+02  0.41800000000E+01 0.  1.
         -5    1    4    4    0  501  0.46546586485E+02  0.14281081720E+03  0.77942065908E+03  0.79377298419E+03  0.41800000000E+01 0.  1.
</event>
<event>
11    1  0.8328696E-009  0.1949958E+03  0.7561462E-02  0.1058120E+00
         22   -1    0    0    0    0  0.00000000000E+00  0.00000000000E+00  0.12562971530E+04  0.12562971530E+04  0.00000000000E+00 0. -1.
         22   -1    0    0    0    0 -0.00000000000E+00 -0.00000000000E+00 -0.37455088843E+03  0.37455088843E+03  0.00000000000E+00 0.  1.
         24    2    1    2    0    0  0.10949633518E+03 -0.10344313854E+03 -0.33760608300E+03  0.37648401243E+03  0.71220881863E+02 0.  0.
         25    2    1    2    0    0 -0.64027057859E+02  0.10633013573E+03  0.54221385362E+03  0.57013033494E+03  0.12508866400E+03 0.  0.
        -24    2    1    2    0    0 -0.45469277323E+02 -0.28869971979E+01  0.67713849398E+03  0.68423369408E+03  0.87082823487E+02 0.  0.
        -11    1    3    3    0    0  0.26603001248E+02 -0.14714259580E+02 -0.14972425496E+03  0.15277951968E+03  0.00000000000E+00 0.  1.
         12    1    3    3    0    0  0.82893333933E+02 -0.88728878957E+02 -0.18788182803E+03  0.22370449275E+03  0.00000000000E+00 0. -1.
         11    1    5    5    0    0 -0.41953412183E+02  0.14657524619E+02  0.65124313794E+03  0.65275765528E+03  0.00000000000E+00 0. -1.
        -12    1    5    5    0    0 -0.35158651394E+01 -0.17544521817E+02  0.25895356046E+02  0.31476038795E+02  0.00000000000E+00 0.  1.
          5    1    4    4  501    0  0.21650026800E+02  0.58749882898E+02  0.33556977411E+03  0.34138661089E+03  0.41800000000E+01 0. -1.
         -5    1    4    4    0  501 -0.85677084659E+02  0.47580252837E+02  0.20664407951E+03  0.22874372405E+03  0.41800000000E+01 0. -1.
</event>
<event>
11    1  0.8328696E-009  0.2380803E+03  0.7561462E-02  0.1030448E+00
         22   -1    0    0    0    0  0.00000000000E+00  0.00000000000E+00  0.60888038226E+03  0.60888038226E+03  0.00000000000E+00 0.  1.
         22   -1    0    0    0    0 -0.00000000000E+00 -0.00000000000E+00 -0.20543214196E+03  0.20543214196E+03  0.00000000000E+00 0. -1.
        -24    2    1    2    0    0 -0.54966216684E+02 -0.29008302941E+02 -0.90836323445E+02  0.13597008897E+03  0.79836462989E+02 0.  0.
         25    2    1    2    0    0 -0.50574881673E+01  0.21620480961E+03  0.23249585226E+03  0.34128025590E+03  0.12509114223E+03 0.  0.
         24    2    1    2    0    0  0.60023704852E+02 -0.18719650667E+03  0.26178871149E+03  0.33706217935E+03  0.80201035077E+02 0.  0.
        -11    1    5    5    0    0  0.75139342193E+02 -0.17930486887E+03  0.24808606442E+03  0.31518701132E+03  0.00000000000E+00 0.  1.
         12    1    5    5    0    0 -0.15115637341E+02 -0.78916378024E+01  0.13702647069E+02  0.21875168025E+02  0.00000000000E+00 0. -1.
         13    1    3    3    0    0 -0.23575167231E+02 -0.47645408875E+02 -0.83106895097E+02  0.98654090181E+02  0.00000000000E+00 0. -1.
        -14    1    3    3    0    0 -0.31391049454E+02  0.18637105934E+02 -0.77294283486E+01  0.37315998794E+02  0.00000000000E+00 0.  1.
          5    1    4    4  501    0 -0.46074100965E+02  0.17170513510E+03  0.12339095784E+03  0.21644462820E+03  0.41800000000E+01 0.  1.
         -5    1    4    4    0  501  0.41016612798E+02  0.44499674509E+02  0.10910489442E+03  0.12483562770E+03  0.41800000000E+01 0.  1.
</event>
<event>
11    1  0.8328696E-009  0.1492990E+03  0.7561462E-02  0.1097597E+00
         22   -1    0    0    0    0  0.00000000000E+00  0.00000000000E+00  0.29269992217E+04  0.29269992217E+04  0.00000000000E+00 0. -1.
         22   -1    0    0    0    0 -0.00000000000E+00 -0.00000000000E+00 -0.59992158947E+03  0.59992158947E+03  0.00000000000E+00 0.  1.
         24    2    1    2    0    0  0.69569387829E-01  0.16844301544E+02 -0.58412191447E+03  0.59005770653E+03  0.81767663182E+02 0.  0.
         25    2    1    2    0    0 -0.39866899398E+02  0.56036127392E+02  0.43180334194E+03  0.45478684724E+03  0.12509009981E+03 0.  0.
        -24    2    1    2    0    0  0.39797330011E+02 -0.72880428936E+02  0.24793962048E+04  0.24820762574E+04  0.80010142831E+02 0.  0.
        -11    1    3    3    0    0  0.10097772410E+02 -0.20236536114E+02 -0.44934013207E+03  0.44990892044E+03  0.00000000000E+00 0.  1.
         12    1    3    3    0    0 -0.10028203022E+02  0.37080837657E+02 -0.13478178240E+03  0.14014878609E+03  0.00000000000E+00 0. -1.
         13    1    5    5    0    0  0.28429123979E+02 -0.48350457274E+02  0.22972358216E+04  0.22979204516E+04  0.00000000000E+00 0. -1.
        -14    1    5    5    0    0  0.11368206032E+02 -0.24529971662E+02  0.18216038317E+03  0.18415580582E+03  0.00000000000E+00 0.  1.
          5    1    4    4  501    0  0.41234092211E+02  0.83268982422E+00  0.88703210009E+02  0.97911570300E+02  0.41800000000E+01 0. -1.
         -5    1    4    4    0  501 -0.81100991609E+02  0.55203437568E+02  0.34310013193E+03  0.35687527694E+03  0.41800000000E+01 0. -1.
</event>
<event>
11    1  0.8328696E-009  0.1316832E+03  0.7561462E-02  0.1117218E+00
         22   -1    0    0    0    0  0.00000000000E+00  0.00000000000E+00  0.85687389055E+03  0.85687389055E+03  0.00000000000E+00 0.  1.
         22   -1    0    0    0    0 -0.00000000000E+00 -0.00000000000E+00 -0.46782185166E+04  0.46782185166E+04  0.00000000000E+00 0. -1.
        -24    2    1    2    0    0 -0.42647607522E+01 -0.43577048026E+02 -0.41936646223E+04  0.41947147716E+04  0.83017489446E+02 0.  0.
         25    2    1    2    0    0 -0.17362342728E+02  0.80713693783E+00 -0.47315781980E+03  0.48972318142E+03  0.12509344334E+03 0.  0.
         24    2    1    2    0    0  0.21627103480E+02  0.42769911089E+02  0.84547781609E+03  0.85065445409E+03  0.80518729909E+02 0.  0.
        -11    1    5    5    0    0 -0.21613643639E+02  0.20474924787E+02  0.57947840290E+03  0.58024270057E+03  0.00000000000E+00 0.  1.
         12    1    5    5    0    0  0.43240747119E+02  0.22294986302E+02  0.26599941319E+03  0.27041175352E+03  0.00000000000E+00 0. -1.
         11    1    3    3    0    0 -0.58614932255E+01 -0.16996478161E+02 -0.38424751988E+04  0.38425172597E+04  0.00000000000E+00 0. -1.
        -12    1    3    3    0    0  0.15967324734E+01 -0.26580569866E+02 -0.35118942350E+03  0.35219751195E+03  0.00000000000E+00 0.  1.
          5    1    4    4  501    0  0.15313506058E+02  0.26991837210E+02 -0.26312855916E+02  0.40901118936E+02  0.41800000000E+01 0.  1.
         -5    1    4    4    0  501 -0.32675848786E+02 -0.26184700272E+02 -0.44684496389E+03  0.44882206248E+03  0.41800000000E+01 0.  1.
</event>
<event>
11    1  0.1119997E-008  0.1574953E+03  0.7561462E-02  0.1089457E+00
         22   -1    0    0    0    0  0.00000000000E+00  0.00000000000E+00  0.10163222165E+04  0.10163222165E+04  0.00000000000E+00 0. -1.
         22   -1    0    0    0    0 -0.00000000000E+00 -0.00000000000E+00 -0.74467606539E+03  0.74467606539E+03  0.00000000000E+00 0. -1.
        -24    2    1    2    0    0  0.11063010506E+02 -0.12099666796E+02 -0.58753805465E+03  0.59340694838E+03  0.81621373330E+02 0.  0.
         25    2    1    2    0    0  0.13447484510E+02  0.10435325595E+03 -0.10565320196E+03  0.19463203698E+03  0.12509433987E+03 0.  0.
         24    2    1    2    0    0 -0.24510495015E+02 -0.92253589151E+02  0.96483740771E+03  0.97295929651E+03  0.81406880982E+02 0.  0.
        -11    1    5    5    0    0 -0.46989701927E+02 -0.37698377146E+02  0.63804621395E+03  0.64088389811E+03  0.00000000000E+00 0.  1.
         12    1    5    5    0    0  0.22479206912E+02 -0.54555212005E+02  0.32679119376E+03  0.33207539839E+03  0.00000000000E+00 0. -1.
         13    1    3    3    0    0 -0.10643538881E+01 -0.32781375156E+02 -0.53078732362E+03  0.53179971260E+03  0.00000000000E+00 0. -1.
        -14    1    3    3    0    0  0.12127364394E+02  0.20681708360E+02 -0.56750731032E+02  0.61607235780E+02  0.00000000000E+00 0.  1.
          5    1    4    4  501    0  0.28737123450E+02  0.46723977239E+02  0.17509907055E+02  0.57732326805E+02  0.41800000000E+01 0. -1.
         -5    1    4    4    0  501 -0.15289638941E+02  0.57629278708E+02 -0.12316310901E+03  0.13689971017E+03  0.41800000000E+01 0. -1.
</event>
<event>
11    1  0.8328696E-009  0.1553539E+03  0.7561462E-02  0.1091530E+00
         22   -1    0    0    0    0  0.00000000000E+00  0.00000000000E+00  0.92309231403E+02  0.92309231403E+02  0.00000000000E+00 0.  1.
         22   -1    0    0    0    0 -0.00000000000E+00 -0.00000000000E+00 -0.88625058017E+03  0.88625058017E+03  0.00000000000E+00 0.  1.
        -24    2    1    2    0    0  0.93905991799E+02 -0.87605245242E+01 -0.70833582231E+03  0.71880273991E+03  0.77734545974E+02 0.  0.
         25    2    1    2    0    0 -0.72541323904E+02 -0.36899610103E+02 -0.49321524512E+02  0.15716888726E+03  0.12508245858E+03 0.  0.
         24    2    1    2    0    0 -0.21364667896E+02  0.45660134628E+02 -0.36284001945E+02  0.10258818441E+03  0.81648697812E+02 0.  0.
        -11    1    5    5    0    0 -0.30666792393E+01 -0.29612094359E+01  0.23213725091E+02  0.23601913386E+02  0.00000000000E+00 0.  1.
         12    1    5    5    0    0 -0.18297988656E+02  0.48621344064E+02 -0.59497727036E+02  0.78986271021E+02  0.00000000000E+00 0. -1.
         11    1    3    3    0    0  0.72383825850E+01  0.27053851240E+02 -0.13862292229E+03  0.14142354695E+03  0.00000000000E+00 0. -1.
        -12    1    3    3    0    0  0.86667609214E+02 -0.35814375764E+02 -0.56971290003E+03  0.57737919295E+03  0.00000000000E+00 0.  1.
          5    1    4    4  501    0  0.19873371523E+02  0.15982289469E+02  0.17666658025E+02  0.31304435439E+02  0.41800000000E+01 0. -1.
         -5    1    4    4    0  501 -0.92414695426E+02 -0.52881899573E+02 -0.66988182537E+02  0.12586445182E+03  0.41800000000E+01 0. -1.
</event>
<event>
11    1  0.8328696E-009  0.1471522E+03  0.7561462E-02  0.1099825E+00
         22   -1    0    0    0    0  0.00000000000E+00  0.00000000000E+00  0.65333895882E+03  0.65333895882E+03  0.00000000000E+00 0. -1.
         22   -1    0    0    0    0 -0.00000000000E+00 -0.00000000000E+00 -0.30940967433E+03  0.30940967433E+03  0.00000000000E+00 0. -1.
        -24    2    1    2    0    0  0.92228201038E+02  0.11399328665E+02 -0.20162453710E+03  0.23636549375E+03  0.81118474538E+02 0.  0.
         25    2    1    2    0    0 -0.34785137406E+02  0.18505097243E+02 -0.35869667684E+02  0.13595685611E+03  0.12508073095E+03 0.  0.
         24    2    1    2    0    0 -0.57443063632E+02 -0.29904425908E+02  0.58142348927E+03  0.59042628329E+03  0.79724161155E+02 0.  0.
        -11    1    5    5    0    0 -0.47135557829E+02 -0.37469444634E+02  0.20190650328E+03  0.21069398700E+03  0.00000000000E+00 0.  1.
         12    1    5    5    0    0 -0.10307505802E+02  0.75650187262E+01  0.37951698600E+03  0.37973229629E+03  0.00000000000E+00 0. -1.
         13    1    3    3    0    0  0.52396971789E+02 -0.28444115299E+02 -0.14362519258E+03  0.15550789784E+03  0.00000000000E+00 0. -1.
        -14    1    3    3    0    0  0.39831229248E+02  0.39843443964E+02 -0.57999344526E+02  0.80857595906E+02  0.00000000000E+00 0.  1.
          5    1    4    4  501    0 -0.40997686051E+02 -0.32112882944E+02 -0.59851960836E+02  0.79446693628E+02  0.41800000000E+01 0.  1.
         -5    1    4    4    0  501  0.62125486452E+01  0.50617980187E+02  0.23982293152E+02  0.56510162482E+02  0.41800000000E+01 0.  1.
</event>
<event>
11    1  0.8328696E-009  0.1992226E+03  0.7561462E-02  0.1055075E+00
         22   -1    0    0    0    0  0.00000000000E+00  0.00000000000E+00  0.90156327232E+03  0.90156327232E+03  0.00000000000E+00 0.  1.
         22   -1    0    0    0    0 -0.00000000000E+00 -0.00000000000E+00 -0.89960449739E+03  0.89960449739E+03  0.00000000000E+00 0. -1.
        -24    2    1    2    0    0  0.13331967707E+03  0.82212860530E+02 -0.77133436732E+03  0.79123982565E+03  0.81059637009E+02 0.  0.
         25    2    1    2    0    0 -0.95571277909E+02 -0.11443857135E+03 -0.33611037451E+02  0.19749345849E+03  0.12507561126E+03 0.  0.
         24    2    1    2    0    0 -0.37748399159E+02  0.32225710823E+02  0.80690417971E+03  0.81243448557E+03  0.80572948564E+02 0.  0.
        -11    1    5    5    0    0 -0.42121612264E+02 -0.74019627574E+01  0.61211338948E+03  0.61360559063E+03  0.00000000000E+00 0.  1.
         12    1    5    5    0    0  0.43732131052E+01  0.39627673580E+02  0.19479079023E+03  0.19882889494E+03  0.00000000000E+00 0. -1.
         11    1    3    3    0    0  0.51465879174E+02 -0.58731467410E+01 -0.31982453416E+03  0.32399222710E+03  0.00000000000E+00 0. -1.
        -12    1    3    3    0    0  0.81853797894E+02  0.88086007271E+02 -0.45150983316E+03  0.46724759855E+03  0.00000000000E+00 0.  1.
          5    1    4    4  501    0 -0.11172103884E+03 -0.11657321591E+03 -0.54690616022E+02  0.17052695115E+03  0.41800000000E+01 0. -1.
         -5    1    4    4    0  501  0.16149760930E+02  0.21346445558E+01  0.21079578572E+02  0.26966507342E+02  0.41800000000E+01 0. -1.
</event>
<event>
11    1  0.8328696E-009  0.1376095E+03  0.7561462E-02  0.1110257E+00
         22   -1    0    0    0    0  0.00000000000E+00  0.00000000000E+00  0.31924096409E+03  0.31924096409E+03  0.00000000000E+00 0. -1.
         22   -1    0    0    0    0 -0.00000000000E+00 -0.00000000000E+00 -0.37511000605E+03  0.37511000605E+03  0.00000000000E+00 0.  1.
         24    2    1    2    0    0  0.58117876296E+02  0.27392383492E+01 -0.32484648698E+03  0.33952385060E+03  0.79787305063E+02 0.  0.
         25    2    1    2    0    0 -0.42231830183E+02 -0.11348175123E+02  0.97427068400E+02  0.16446914790E+03  0.12508300601E+03 0.  0.
        -24    2    1    2    0    0 -0.15886046112E+02  0.86089367741E+01  0.17155037662E+03  0.19035797165E+03  0.80499350299E+02 0.  0.
        -11    1    3    3    0    0  0.75441899200E+02 -0.13617467498E+01 -0.29729683697E+03  0.30672258440E+03  0.00000000000E+00 0.  1.
         12    1    3    3    0    0 -0.17324022904E+02  0.41009850990E+01 -0.27549650005E+02  0.32801266192E+02  0.00000000000E+00 0. -1.
         13    1    5    5    0    0 -0.34681714283E+02 -0.20570368386E+02  0.13056754584E+03  0.13665227912E+03  0.00000000000E+00 0. -1.
        -14    1    5    5    0    0  0.18795668171E+02  0.29179305160E+02  0.40982830778E+02  0.53705692531E+02  0.00000000000E+00 0.  1.
          5    1    4    4  501    0  0.98100270376E+01  0.10109268571E+01 -0.26956999807E+02  0.29007082621E+02  0.41800000000E+01 0.  1.
         -5    1    4    4    0  501 -0.52041857221E+02 -0.12359101980E+02  0.12438406821E+03  0.13546206528E+03  0.41800000000E+01 0.  1.
</event>
<event>
11    1  0.8328696E-009  0.1762050E+03  0.7561462E-02  0.1072755E+00
         22   -1    0    0    0    0  0.00000000000E+00  0.00000000000E+00  0.50898132024E+02  0.50898132024E+02  0.00000000000E+00 0.  1.
         22   -1    0    0    0    0 -0.00000000000E+00 -0.00000000000E+00 -0.83550668111E+03  0.83550668111E+03  0.00000000000E+00 0. -1.
         24    2    1    2    0    0  0.16735328121E+01 -0.26287875724E+01 -0.20531748750E+03  0.22055585090E+03  0.80497835105E+02 0.  0.
         25    2    1    2    0    0 -0.12487273542E+03 -0.28263684853E+01 -0.28649848787E+03  0.33664354061E+03  0.12508517688E+03 0.  0.
        -24    2    1    2    0    0  0.12319920261E+03  0.54551560577E+01 -0.29279257371E+03  0.32920542162E+03  0.86260745127E+02 0.  0.
        -13    1    3    3    0    0  0.75431718058E+01 -0.41006316359E+02 -0.10978753109E+03  0.11743815141E+03  0.00000000000E+00 0.  1.
         14    1    3    3    0    0 -0.58696389937E+01  0.38377528786E+02 -0.95529956408E+02  0.10311769949E+03  0.00000000000E+00 0. -1.
         13    1    5    5    0    0  0.29160148831E+01 -0.57085628851E+01 -0.10949009932E+03  0.10967758514E+03  0.00000000000E+00 0. -1.
        -14    1    5    5    0    0  0.12028318773E+03  0.11163718943E+02 -0.18330247440E+03  0.21952783648E+03  0.00000000000E+00 0.  1.
          5    1    4    4  501    0  0.23464289647E+02 -0.54471716392E+01 -0.70077211709E+02  0.74219489141E+02  0.41800000000E+01 0. -1.
         -5    1    4    4    0  501 -0.14833702507E+03  0.26208031539E+01 -0.21642127616E+03  0.26242405147E+03  0.41800000000E+01 0. -1.
</event>
<event>
11    1  0.8328696E-009  0.1445644E+03  0.7561462E-02  0.1102566E+00
         22   -1    0    0    0    0  0.00000000000E+00  0.00000000000E+00  0.43326143589E+03  0.43326143589E+03  0.00000000000E+00 0.  1.
         22   -1    0    0    0    0 -0.00000000000E+00 -0.00000000000E+00 -0.31271299542E+03  0.31271299542E+03  0.00000000000E+00 0. -1.
         24    2    1    2    0    0 -0.66407710451E+02 -0.29627861730E+02 -0.25796340368E+03  0.28003730927E+03  0.81166389281E+02 0.  0.
         25    2    1    2    0    0  0.75553697304E+02 -0.90402977081E+00  0.10983072498E+03  0.18281066514E+03  0.12509105760E+03 0.  0.
        -24    2    1    2    0    0 -0.91459868538E+01  0.30531891500E+02  0.26868111918E+03  0.28312645690E+03  0.83397849620E+02 0.  0.
        -11    1    3    3    0    0 -0.42668941648E+02  0.10401526787E+02 -0.48346503081E+02  0.65316266741E+02  0.00000000000E+00 0.  1.
         12    1    3    3    0    0 -0.23738768802E+02 -0.40029388516E+02 -0.20961690060E+03  0.21472104253E+03  0.00000000000E+00 0. -1.
         13    1    5    5    0    0 -0.40902659862E+02  0.92545702021E+00  0.84315205385E+02  0.93717329847E+02  0.00000000000E+00 0. -1.
        -14    1    5    5    0    0  0.31756673009E+02  0.29606434480E+02  0.18436591379E+03  0.18940912705E+03  0.00000000000E+00 0.  1.
          5    1    4    4  501    0 -0.33042565157E+02 -0.10438544193E+02  0.40881098939E+02  0.53754171629E+02  0.41800000000E+01 0.  1.
         -5    1    4    4    0  501  0.10859626246E+03  0.95345144220E+01  0.68949626040E+02  0.12905649351E+03  0.41800000000E+01 0.  1.
</event>
<event>
11    1  0.8328696E-009  0.1309466E+03  0.7561462E-02  0.1118111E+00
         22   -1    0    0    0    0  0.00000000000E+00  0.00000000000E+00  0.25471060955E+03  0.25471060955E+03  0.00000000000E+00 0.  1.
         22   -1    0    0    0    0 -0.00000000000E+00 -0.00000000000E+00 -0.45907323174E+03  0.45907323174E+03  0.00000000000E+00 0. -1.
        -24    2    1    2    0    0 -0.29504548458E+02  0.29504137038E+02 -0.35738721213E+03  0.36866341913E+03  0.80287512917E+02 0.  0.
         25    2    1    2    0    0 -0.93688568389E+01 -0.26809870844E+02 -0.38092289607E+02  0.13381031080E+03  0.12509049563E+03 0.  0.
         24    2    1    2    0    0  0.38873405297E+02 -0.26942661944E+01  0.19111687954E+03  0.21131011135E+03  0.81288995588E+02 0.  0.
        -13    1    5    5    0    0 -0.21215852358E+02  0.16182311091E+02  0.67233664325E+02  0.72334951456E+02  0.00000000000E+00 0.  1.
         14    1    5    5    0    0  0.60089257655E+02 -0.18876577285E+02  0.12388321522E+03  0.13897515990E+03  0.00000000000E+00 0. -1.
         11    1    3    3    0    0  0.17821781905E+02 -0.90507677779E+01 -0.17917602400E+03  0.18028749231E+03  0.00000000000E+00 0. -1.
        -12    1    3    3    0    0 -0.47326330363E+02  0.38554904816E+02 -0.17821118814E+03  0.18837592683E+03  0.00000000000E+00 0.  1.
          5    1    4    4  501    0 -0.57035749365E+02  0.14438952603E+02  0.19476599076E+01  0.59015471167E+02  0.41800000000E+01 0.  1.
         -5    1    4    4    0  501  0.47666892527E+02 -0.41248823447E+02 -0.40039949514E+02  0.74794839635E+02  0.41800000000E+01 0.  1.
</event>
<event>
11    1  0.8328696E-009  0.1633493E+03  0.7561462E-02  0.1083969E+00
         22   -1    0    0    0    0  0.00000000000E+00  0.00000000000E+00  0.12452796348E+03  0.12452796348E+03  0.00000000000E+00 0. -1.
         22   -1    0    0    0    0 -0.00000000000E+00 -0.00000000000E+00 -0.48291396898E+03  0.48291396898E+03  0.00000000000E+00 0. -1.
         24    2    1    2    0    0  0.55711975838E+02 -0.91096084103E+02 -0.26376911964E+03  0.29588447203E+03  0.81062639488E+02 0.  0.
         25    2    1    2    0    0 -0.95885579182E+02  0.54847162763E+02 -0.12784544979E+03  0.21022352352E+03  0.12508882944E+03 0.  0.
        -24    2    1    2    0    0  0.40173603345E+02  0.36248921339E+02  0.33228563930E+02  0.10133393690E+03  0.78971682289E+02 0.  0.
        -13    1    3    3    0    0  0.58351750335E+02 -0.64413547531E+02 -0.11201265128E+03  0.14177752262E+03  0.00000000000E+00 0.  1.
         14    1    3    3    0    0 -0.26397744976E+01 -0.26682536572E+02 -0.15175646836E+03  0.15410694941E+03  0.00000000000E+00 0. -1.
         11    1    5    5    0    0  0.41586725659E+02  0.79316560457E+01  0.52207164915E+02  0.67215734669E+02  0.00000000000E+00 0. -1.
        -12    1    5    5    0    0 -0.14131223145E+01  0.28317265294E+02 -0.18978600984E+02  0.34118202234E+02  0.00000000000E+00 0.  1.
          5    1    4    4  501    0 -0.55592531660E+02  0.64679479162E+02 -0.14242568831E+03  0.16606177673E+03  0.41800000000E+01 0. -1.
         -5    1    4    4    0  501 -0.40293047522E+02 -0.98323163981E+01  0.14580238518E+02  0.44161746791E+02  0.41800000000E+01 0. -1.
</event>
<event>
11    1  0.8328696E-009  0.2024220E+03  0.7561462E-02  0.1052824E+00
         22   -1    0    0    0    0  0.00000000000E+00  0.00000000000E+00  0.43964980983E+03  0.43964980983E+03  0.00000000000E+00 0.  1.
         22   -1    0    0    0    0 -0.00000000000E+00 -0.00000000000E+00 -0.45539501049E+03  0.45539501049E+03  0.00000000000E+00 0. -1.
         24    2    1    2    0    0  0.15737460265E+03 -0.95203999082E+01 -0.37896238982E+03  0.41824105706E+03  0.80347279590E+02 0.  0.
         25    2    1    2    0    0 -0.17827011674E+03  0.12932945756E+02  0.21193004300E+03  0.30414979232E+03  0.12508100349E+03 0.  0.
        -24    2    1    2    0    0  0.20895514088E+02 -0.34125458476E+01  0.15128714616E+03  0.17265397094E+03  0.80456976765E+02 0.  0.
        -13    1    3    3    0    0  0.37135771134E+02  0.27170210503E+02 -0.61610431070E+02  0.76896885848E+02  0.00000000000E+00 0.  1.
         14    1    3    3    0    0  0.12023883152E+03 -0.36690610412E+02 -0.31735195875E+03  0.34134417121E+03  0.00000000000E+00 0. -1.
         13    1    5    5    0    0  0.38606814705E+01  0.18296910053E+02 -0.17294957439E+00  0.18700579950E+02  0.00000000000E+00 0. -1.
        -14    1    5    5    0    0  0.17034832617E+02 -0.21709455900E+02  0.15146009574E+03  0.15395339099E+03  0.00000000000E+00 0.  1.
          5    1    4    4  501    0  0.10078760829E+02  0.17213311741E+02 -0.23342709464E+00  0.20381521267E+02  0.41800000000E+01 0. -1.
         -5    1    4    4    0  501 -0.18834887757E+03 -0.42803659857E+01  0.21216347010E+03  0.28376827106E+03  0.41800000000E+01 0. -1.
</event>
<event>
11    1  0.8328696E-009  0.1487291E+03  0.7561462E-02  0.1098185E+00
         22   -1    0    0    0    0  0.00000000000E+00  0.00000000000E+00  0.76682156063E+02  0.76682156063E+02  0.00000000000E+00 0.  1.
         22   -1    0    0    0    0 -0.00000000000E+00 -0.00000000000E+00 -0.25434657028E+04  0.25434657028E+04  0.00000000000E+00 0. -1.
        -24    2    1    2    0    0  0.92093705369E+01 -0.72972318352E+02 -0.13875982529E+04  0.13919982271E+04  0.82585597643E+02 0.  0.
         25    2    1    2    0    0 -0.81210475445E+02  0.34689328912E+02 -0.10980284262E+04  0.11086528265E+04  0.12508466748E+03 0.  0.
         24    2    1    2    0    0  0.72001104908E+02  0.38282989440E+02  0.18843132422E+02  0.11949680527E+03  0.85291713797E+02 0.  0.
        -13    1    5    5    0    0  0.16761020340E+02  0.45026143869E+02  0.37344883570E+02  0.60851670177E+02  0.00000000000E+00 0.  1.
         14    1    5    5    0    0  0.55240084569E+02 -0.67431544285E+01 -0.18501751148E+02  0.58645135095E+02  0.00000000000E+00 0. -1.
         13    1    3    3    0    0  0.24681129995E+02  0.71027166215E+01 -0.20715258330E+03  0.20873859138E+03  0.00000000000E+00 0. -1.
        -14    1    3    3    0    0 -0.15471759458E+02 -0.80075034974E+02 -0.11804456696E+04  0.11832596357E+04  0.00000000000E+00 0.  1.
          5    1    4    4  501    0 -0.15598024871E+02 -0.45566369492E+02 -0.41142154310E+03  0.41425203794E+03  0.41800000000E+01 0. -1.
         -5    1    4    4    0  501 -0.65612450574E+02  0.80255698404E+02 -0.68660688310E+03  0.69440078853E+03  0.41800000000E+01 0. -1.
</event>
<event>
11    1  0.8328696E-009  0.1950544E+03  0.7561462E-02  0.1058077E+00
         22   -1    0    0    0    0  0.00000000000E+00  0.00000000000E+00  0.69288998284E+03  0.69288998284E+03  0.00000000000E+00 0. -1.
         22   -1    0    0    0    0 -0.00000000000E+00 -0.00000000000E+00 -0.18666351717E+03  0.18666351717E+03  0.00000000000E+00 0. -1.
         24    2    1    2    0    0  0.59892116299E+02  0.14220239316E+03 -0.89184203203E+02  0.19535998369E+03  0.80019465833E+02 0.  0.
         25    2    1    2    0    0 -0.61483101692E+02 -0.11694232437E+03  0.16503155974E+03  0.24563869788E+03  0.12508906892E+03 0.  0.
        -24    2    1    2    0    0  0.15909853931E+01 -0.25260068786E+02  0.43037910914E+03  0.43855481845E+03  0.80396199500E+02 0.  0.
        -11    1    3    3    0    0  0.30455943649E+02  0.44927356784E+02  0.78530815796E+01  0.54842527125E+02  0.00000000000E+00 0.  1.
         12    1    3    3    0    0  0.29436172650E+02  0.97275036375E+02 -0.97037284783E+02  0.14051745657E+03  0.00000000000E+00 0. -1.
         11    1    5    5    0    0  0.22814532277E+01  0.29283970381E+02  0.13173773604E+03  0.13497254183E+03  0.00000000000E+00 0. -1.
        -12    1    5    5    0    0 -0.69046783451E+00 -0.54544039167E+02  0.29864137310E+03  0.30358227662E+03  0.00000000000E+00 0.  1.
          5    1    4    4  501    0 -0.43952355958E+02 -0.13154849777E+03  0.17239390487E+03  0.22130058223E+03  0.41800000000E+01 0. -1.
         -5    1    4    4    0  501 -0.17530745734E+02  0.14606173398E+02 -0.73623451331E+01  0.24338115646E+02  0.41800000000E+01 0. -1.
</event>
<event>
11    1  0.1000550E-008  0.1446147E+03  0.7561462E-02  0.1102512E+00
         22   -1    0    0    0    0  0.00000000000E+00  0.00000000000E+00  0.55850827956E+03  0.55850827956E+03  0.00000000000E+00 0. -1.
         22   -1    0    0    0    0 -0.00000000000E+00 -0.00000000000E+00 -0.83335732710E+03  0.83335732710E+03  0.00000000000E+00 0.  1.
        -24    2    1    2    0    0  0.38846038911E+02  0.49585408602E+02 -0.64272303699E+03  0.65082411022E+03  0.80693200927E+02 0.  0.
         25    2    1    2    0    0 -0.49204810400E+02 -0.11972863955E+03 -0.13623253282E+03  0.22575498940E+03  0.12509976717E+03 0.  0.
         24    2    1    2    0    0  0.10358771489E+02  0.70143230948E+02  0.50410652227E+03  0.51528650703E+03  0.79808655806E+02 0.  0.
        -11    1    5    5    0    0  0.24313004522E+02  0.30248535985E+02  0.78323037425E+02  0.87410493133E+02  0.00000000000E+00 0.  1.
         12    1    5    5    0    0 -0.13954233033E+02  0.39894694963E+02  0.42578348484E+03  0.42787601390E+03  0.00000000000E+00 0. -1.
         11    1    3    3    0    0  0.39283413815E+02  0.49357073751E+02 -0.24156252728E+03  0.24966329709E+03  0.00000000000E+00 0. -1.
        -12    1    3    3    0    0 -0.43737490392E+00  0.22833485071E+00 -0.40116050971E+03  0.40116081312E+03  0.00000000000E+00 0.  1.
          5    1    4    4  501    0 -0.23637414663E+02  0.16677468456E+02  0.26793126447E+01  0.29351600336E+02  0.41800000000E+01 0. -1.
         -5    1    4    4    0  501 -0.25567395737E+02 -0.13640610801E+03 -0.13891184546E+03  0.19640338907E+03  0.41800000000E+01 0. -1.
</event>
<event>
11    1  0.8328696E-009  0.4491593E+03  0.7561462E-02  0.9514902E-01
         22   -1    0    0    0    0  0.00000000000E+00  0.00000000000E+00  0.18056855986E+03  0.18056855986E+03  0.00000000000E+00 0.  1.
         22   -1    0    0    0    0 -0.00000000000E+00 -0.00000000000E+00 -0.24710138862E+04  0.24710138862E+04  0.00000000000E+00 0.  1.
        -24    2    1    2    0    0  0.61815300847E+02 -0.27287371530E+02 -0.10110050463E+04  0.10163129787E+04  0.78709179471E+02 0.  0.
         25    2    1    2    0    0 -0.12749374260E+03  0.44404064872E+03 -0.10360907002E+04  0.11412966711E+04  0.12508956916E+03 0.  0.
         24    2    1    2    0    0  0.65678441751E+02 -0.41675327719E+03 -0.24334957980E+03  0.49397279623E+03  0.82420590076E+02 0.  0.
        -13    1    5    5    0    0  0.13366549700E+02 -0.12126052910E+03 -0.11477970324E+03  0.16750271892E+03  0.00000000000E+00 0.  1.
         14    1    5    5    0    0  0.52311892051E+02 -0.29549274809E+03 -0.12856987656E+03  0.32647007732E+03  0.00000000000E+00 0. -1.
         13    1    3    3    0    0  0.49409414999E+02 -0.95739120035E+00 -0.25480955101E+03  0.25955753539E+03  0.00000000000E+00 0. -1.
        -14    1    3    3    0    0  0.12405885848E+02 -0.26329980330E+02 -0.75619549526E+03  0.75675544327E+03  0.00000000000E+00 0.  1.
          5    1    4    4  501    0 -0.13382864709E+03  0.24457116958E+03 -0.61915716702E+03  0.67904214424E+03  0.41800000000E+01 0. -1.
         -5    1    4    4    0  501  0.63349044891E+01  0.19946947914E+03 -0.41693353322E+03  0.46225452691E+03  0.41800000000E+01 0. -1.
</event>
<event>
11    1  0.8328696E-009  0.2192564E+03  0.7561462E-02  0.1041684E+00
         22   -1    0    0    0    0  0.00000000000E+00  0.00000000000E+00  0.64911842801E+03  0.64911842801E+03  0.00000000000E+00 0. -1.
         22   -1    0    0    0    0 -0.00000000000E+00 -0.00000000000E+00 -0.42973396251E+03  0.42973396251E+03  0.00000000000E+00 0.  1.
         24    2    1    2    0    0  0.30040811717E+02  0.42342361109E+02 -0.25942882949E+03  0.27662779251E+03  0.80773090239E+02 0.  0.
         25    2    1    2    0    0  0.78992199047E+02  0.10801316021E+03 -0.85871828279E+02  0.20230621263E+03  0.12508885836E+03 0.  0.
        -24    2    1    2    0    0 -0.10903301076E+03 -0.15035552132E+03  0.56468512327E+03  0.59991838539E+03  0.80856666145E+02 0.  0.
        -11    1    3    3    0    0 -0.84692190122E+01  0.45732835161E+02 -0.20277593915E+03  0.20804158570E+03  0.00000000000E+00 0.  1.
         12    1    3    3    0    0  0.38510030729E+02 -0.33904740519E+01 -0.56652890344E+02  0.68586206816E+02  0.00000000000E+00 0. -1.
         11    1    5    5    0    0 -0.11849708627E+03 -0.12116194943E+03  0.43995129709E+03  0.47146465537E+03  0.00000000000E+00 0. -1.
        -12    1    5    5    0    0  0.94640755076E+01 -0.29193571886E+02  0.12473382617E+03  0.12845373002E+03  0.00000000000E+00 0.  1.
          5    1    4    4  501    0  0.93443094764E+02  0.11884268827E+03 -0.45581812816E+02  0.15795686301E+03  0.41800000000E+01 0. -1.
         -5    1    4    4    0  501 -0.14450895717E+02 -0.10829528059E+02 -0.40290015463E+02  0.44349349612E+02  0.41800000000E+01 0. -1.
</event>
<event>
11    1  0.8328696E-009  0.6843008E+03  0.7561462E-02  0.9055765E-01
         22   -1    0    0    0    0  0.00000000000E+00  0.00000000000E+00  0.18742342094E+04  0.18742342094E+04  0.00000000000E+00 0.  1.
         22   -1    0    0    0    0 -0.00000000000E+00 -0.00000000000E+00 -0.13869036544E+04  0.13869036544E+04  0.00000000000E+00 0.  1.
         24    2    1    2    0    0 -0.36280219388E+03  0.72110434799E+03 -0.66677602812E+03  0.10500712493E+04  0.80264839032E+02 0.  0.
         25    2    1    2    0    0  0.46723242637E+03 -0.34936979161E+03 -0.32558619776E+03  0.67971867392E+03  0.12508282041E+03 0.  0.
        -24    2    1    2    0    0 -0.10443023248E+03 -0.37173455638E+03  0.14796927809E+04  0.15313479405E+04  0.80271634830E+02 0.  0.
        -13    1    3    3    0    0 -0.32161324023E+03  0.64883621395E+03 -0.62690524403E+03  0.95782759086E+03  0.00000000000E+00 0.  1.
         14    1    3    3    0    0 -0.41188953650E+02  0.72268134042E+02 -0.39870784087E+02  0.92243658451E+02  0.00000000000E+00 0. -1.
         13    1    5    5    0    0 -0.36551993914E+02 -0.58602672604E+02  0.36701364154E+03  0.37345593391E+03  0.00000000000E+00 0. -1.
        -14    1    5    5    0    0 -0.67878238571E+02 -0.31313188377E+03  0.11126791393E+04  0.11578920066E+04  0.00000000000E+00 0.  1.
          5    1    4    4  501    0  0.35196520898E+03 -0.19023697672E+03 -0.21574134936E+03  0.45456728640E+03  0.41800000000E+01 0.  1.
         -5    1    4    4    0  501  0.11526721738E+03 -0.15913281490E+03 -0.10984484840E+03  0.22515138752E+03  0.41800000000E+01 0.  1.
</event>
<event>
11    1  0.8328696E-009  0.2272676E+03  0.7561462E-02  0.1036758E+00
         22   -1    0    0    0    0  0.00000000000E+00  0.00000000000E+00  0.68975022407E+03  0.68975022407E+03  0.00000000000E+00 0.  1.
         22   -1    0    0    0    0 -0.00000000000E+00 -0.00000000000E+00 -0.22833376228E+04  0.22833376228E+04  0.00000000000E+00 0. -1.
        -24    2    1    2    0    0 -0.55896825842E+02 -0.76057774555E+02 -0.22014235142E+04  0.22048819199E+04  0.79558477545E+02 0.  0.
         25    2    1    2    0    0  0.22734570887E+03  0.32691107545E+02  0.25300877609E+03  0.36389005543E+03  0.12509097411E+03 0.  0.
         24    2    1    2    0    0 -0.17144888303E+03  0.43366667010E+02  0.35482733937E+03  0.40431587161E+03  0.79331557188E+02 0.  0.
        -11    1    5    5    0    0 -0.16889305808E+03  0.43328829386E+02  0.28272438789E+03  0.33216762641E+03  0.00000000000E+00 0.  1.
         12    1    5    5    0    0 -0.25558249481E+01  0.37837624317E-01  0.72102951483E+02  0.72148245200E+02  0.00000000000E+00 0. -1.
         13    1    3    3    0    0 -0.14950754256E+02 -0.71777297927E+02 -0.17646473491E+04  0.17661698028E+04  0.00000000000E+00 0. -1.
        -14    1    3    3    0    0 -0.40946071587E+02 -0.42804766279E+01 -0.43677616511E+03  0.43871211707E+03  0.00000000000E+00 0.  1.
          5    1    4    4  501    0  0.78144737575E+02  0.56355444039E+01  0.12367234171E+02  0.79427830465E+02  0.41800000000E+01 0.  1.
         -5    1    4    4    0  501  0.14920097130E+03  0.27055563141E+02  0.24064154192E+03  0.28446222496E+03  0.41800000000E+01 0.  1.
</event>
<event>
11    1  0.8328696E-009  0.1552800E+03  0.7561462E-02  0.1091603E+00
         22   -1    0    0    0    0  0.00000000000E+00  0.00000000000E+00  0.14815449493E+04  0.14815449493E+04  0.00000000000E+00 0. -1.
         22   -1    0    0    0    0 -0.00000000000E+00 -0.00000000000E+00 -0.19856885195E+04  0.19856885195E+04  0.00000000000E+00 0.  1.
        -24    2    1    2    0    0 -0.10474214328E+02 -0.54651253673E+02 -0.19361031925E+04  0.19386237336E+04  0.81669698651E+02 0.  0.
         25    2    1    2    0    0 -0.73965335987E+01  0.14178441999E+03  0.15146335515E+03  0.24237297305E+03  0.12508389045E+03 0.  0.
         24    2    1    2    0    0  0.17870747927E+02 -0.87133166318E+02  0.12804962672E+04  0.12862367621E+04  0.82600033708E+02 0.  0.
        -11    1    5    5    0    0 -0.23195813908E+02 -0.26663519824E+02  0.18767035236E+03  0.19096897713E+03  0.00000000000E+00 0.  1.
         12    1    5    5    0    0  0.41066561835E+02 -0.60469646495E+02  0.10928259148E+04  0.10952677849E+04  0.00000000000E+00 0. -1.
         13    1    3    3    0    0  0.35477097361E+02 -0.22133827606E+02 -0.94252983805E+03  0.94345695523E+03  0.00000000000E+00 0. -1.
        -14    1    3    3    0    0 -0.45951311689E+02 -0.32517426067E+02 -0.99357335447E+03  0.99516677836E+03  0.00000000000E+00 0.  1.
          5    1    4    4  501    0  0.42516295648E+02  0.11413400096E+03  0.63442830202E+02  0.13739239671E+03  0.41800000000E+01 0.  1.
         -5    1    4    4    0  501 -0.49912829247E+02  0.27650419036E+02  0.88020524952E+02  0.10498057634E+03  0.41800000000E+01 0.  1.
</event>
<event>
11    1  0.8328696E-009  0.1463359E+03  0.7561462E-02  0.1100683E+00
         22   -1    0    0    0    0  0.00000000000E+00  0.00000000000E+00  0.28834343255E+03  0.28834343255E+03  0.00000000000E+00 0.  1.
         22   -1    0    0    0    0 -0.00000000000E+00 -0.00000000000E+00 -0.45194323312E+03  0.45194323312E+03  0.00000000000E+00 0. -1.
        -24    2    1    2    0    0  0.25497796795E+02 -0.75708247409E+02 -0.38396972752E+03  0.39932571798E+03  0.75142538008E+02 0.  0.
         25    2    1    2    0    0 -0.38541070229E+01  0.32709012195E+02  0.35883201757E+02  0.13423559781E+03  0.12508740117E+03 0.  0.
         24    2    1    2    0    0 -0.21643689772E+02  0.42999235214E+02  0.18448672519E+03  0.20672534989E+03  0.79891394890E+02 0.  0.
        -11    1    5    5    0    0 -0.80067479775E+01  0.19366537818E+02  0.17726687316E+03  0.17850130285E+03  0.00000000000E+00 0.  1.
         12    1    5    5    0    0 -0.13636941795E+02  0.23632697396E+02  0.72198520366E+01  0.28224047037E+02  0.00000000000E+00 0. -1.
         13    1    3    3    0    0 -0.35217792587E+01 -0.52552053494E+02 -0.10078584510E+03  0.11371854655E+03  0.00000000000E+00 0. -1.
        -14    1    3    3    0    0  0.29019576054E+02 -0.23156193915E+02 -0.28318388242E+03  0.28560717143E+03  0.00000000000E+00 0.  1.
          5    1    4    4  501    0 -0.41914595589E+02 -0.13330942827E+02  0.55759658325E+02  0.71141824945E+02  0.41800000000E+01 0. -1.
         -5    1    4    4    0  501  0.38060488566E+02  0.46039955022E+02 -0.19876456568E+02  0.63093772862E+02  0.41800000000E+01 0. -1.
</event>
<event>
11    1  0.8328696E-009  0.1434822E+03  0.7561462E-02  0.1103731E+00
         22   -1    0    0    0    0  0.00000000000E+00  0.00000000000E+00  0.30899334615E+04  0.30899334615E+04  0.00000000000E+00 0.  1.
         22   -1    0    0    0    0 -0.00000000000E+00 -0.00000000000E+00 -0.37526053733E+03  0.37526053733E+03  0.00000000000E+00 0.  1.
         24    2    1    2    0    0 -0.29904115591E+02  0.16510152579E+02 -0.35914423206E+03  0.36942994982E+03  0.79542863518E+02 0.  0.
         25    2    1    2    0    0  0.96257431813E+02 -0.41264316423E+01  0.62418593076E+03  0.64384634321E+03  0.12509003514E+03 0.  0.
        -24    2    1    2    0    0 -0.66353316222E+02 -0.12383720936E+02  0.24496312255E+04  0.24519177058E+04  0.81554743175E+02 0.  0.
        -13    1    3    3    0    0 -0.53103107058E+02 -0.66508654090E+01 -0.20835604903E+03  0.21511954156E+03  0.00000000000E+00 0.  1.
         14    1    3    3    0    0  0.23198991468E+02  0.23161017988E+02 -0.15078818302E+03  0.15431040827E+03  0.00000000000E+00 0. -1.
         11    1    5    5    0    0  0.17644166598E+01  0.24742534528E+02  0.36403918385E+03  0.36488331499E+03  0.00000000000E+00 0. -1.
        -12    1    5    5    0    0 -0.68117732882E+02 -0.37126255465E+02  0.20855920416E+04  0.20870343908E+04  0.00000000000E+00 0.  1.
          5    1    4    4  501    0 -0.83842446860E+01 -0.44271887198E+02  0.20306970472E+03  0.20805064992E+03  0.41800000000E+01 0.  1.
         -5    1    4    4    0  501  0.10464167650E+03  0.40145455556E+02  0.42111622603E+03  0.43579569329E+03  0.41800000000E+01 0.  1.
</event>
<event>
11    1  0.1064883E-008  0.1596705E+03  0.7561462E-02  0.1087388E+00
         22   -1    0    0    0    0  0.00000000000E+00  0.00000000000E+00  0.43479240517E+03  0.43479240517E+03  0.00000000000E+00 0. -1.
         22   -1    0    0    0    0 -0.00000000000E+00 -0.00000000000E+00 -0.12491354111E+04  0.12491354111E+04  0.00000000000E+00 0. -1.
        -24    2    1    2    0    0  0.96873073212E+02  0.41174236071E+02 -0.10245654045E+04  0.10331163008E+04  0.80717487076E+02 0.  0.
         25    2    1    2    0    0 -0.77305187314E+02  0.28584251526E+02 -0.18687037370E+03  0.23949722692E+03  0.12508090868E+03 0.  0.
         24    2    1    2    0    0 -0.19567885898E+02 -0.69758487598E+02  0.39709277233E+03  0.41131428855E+03  0.79041921676E+02 0.  0.
        -11    1    5    5    0    0 -0.79676396252E+01 -0.50299449750E+02  0.90176938131E+02  0.10356349790E+03  0.00000000000E+00 0.  1.
         12    1    5    5    0    0 -0.11600246273E+02 -0.19459037848E+02  0.30691583420E+03  0.30775079065E+03  0.00000000000E+00 0. -1.
         13    1    3    3    0    0  0.66360616261E+02  0.15099582908E+01 -0.81333078584E+03  0.81603491259E+03  0.00000000000E+00 0. -1.
        -14    1    3    3    0    0  0.30512456951E+02  0.39664277781E+02 -0.21123461869E+03  0.21708138818E+03  0.00000000000E+00 0.  1.
          5    1    4    4  501    0 -0.85516868212E+02  0.40071579649E+02 -0.19906932837E+03  0.22037453606E+03  0.41800000000E+01 0.  1.
         -5    1    4    4    0  501  0.82116808984E+01 -0.11487328122E+02  0.12198954676E+02  0.19122690860E+02  0.41800000000E+01 0.  1.
</event>
<event>
11    1  0.8328696E-009  0.1639047E+03  0.7561462E-02  0.1083461E+00
         22   -1    0    0    0    0  0.00000000000E+00  0.00000000000E+00  0.25229782647E+03  0.25229782647E+03  0.00000000000E+00 0. -1.
         22   -1    0    0    0    0 -0.00000000000E+00 -0.00000000000E+00 -0.15579250169E+04  0.15579250169E+04  0.00000000000E+00 0.  1.
        -24    2    1    2    0    0  0.65730006121E+01  0.11695928163E+02 -0.13892031873E+04  0.13916042842E+04  0.80603902147E+02 0.  0.
         25    2    1    2    0    0 -0.10253305963E+03 -0.53155798565E+02 -0.96381197641E+02  0.19564234719E+03  0.12509206816E+03 0.  0.
         24    2    1    2    0    0  0.95960059018E+02  0.41459870402E+02  0.17995719446E+03  0.22297621205E+03  0.80040899062E+02 0.  0.
        -11    1    5    5    0    0  0.39385550518E+02 -0.19484613587E+01  0.13153848588E+02  0.41569722443E+02  0.00000000000E+00 0.  1.
         12    1    5    5    0    0  0.56574508500E+02  0.43408331761E+02  0.16680334587E+03  0.18140648961E+03  0.00000000000E+00 0. -1.
         11    1    3    3    0    0  0.52842784414E+01  0.15928464623E+02 -0.57631324527E+02  0.60025071017E+02  0.00000000000E+00 0. -1.
        -12    1    3    3    0    0  0.12887221707E+01 -0.42325364604E+01 -0.13315718628E+04  0.13315792132E+04  0.00000000000E+00 0.  1.
          5    1    4    4  501    0 -0.36247552948E+02  0.39176050069E+02 -0.48493442625E+02  0.72233886587E+02  0.41800000000E+01 0. -1.
         -5    1    4    4    0  501 -0.66285506682E+02 -0.92331848634E+02 -0.47887755016E+02  0.12340846060E+03  0.41800000000E+01 0. -1.
</event>
<event>
11    1  0.8328696E-009  0.1332666E+03  0.7561462E-02  0.1115319E+00
         22   -1    0    0    0    0  0.00000000000E+00  0.00000000000E+00  0.72393149560E+03  0.72393149560E+03  0.00000000000E+00 0.  1.
         22   -1    0    0    0    0 -0.00000000000E+00 -0.00000000000E+00 -0.39444294799E+03  0.39444294799E+03  0.00000000000E+00 0.  1.
        -24    2    1    2    0    0  0.20952046347E+02 -0.66301979945E+01 -0.23517422572E+03  0.24968342655E+03  0.80944112084E+02 0.  0.
         25    2    1    2    0    0 -0.66052042471E+02  0.12694841214E+02 -0.11497567026E+03  0.18273332834E+03  0.12509209898E+03 0.  0.
         24    2    1    2    0    0  0.45099996124E+02 -0.60646432196E+01  0.67963844360E+03  0.68595768869E+03  0.80986092074E+02 0.  0.
        -11    1    5    5    0    0 -0.72319512007E+00  0.83332822618E+01  0.49816898864E+03  0.49823920746E+03  0.00000000000E+00 0.  1.
         12    1    5    5    0    0  0.45823191244E+02 -0.14397925481E+02  0.18146945496E+03  0.18771848123E+03  0.00000000000E+00 0. -1.
         13    1    3    3    0    0 -0.22263644591E+02  0.60056711104E+01 -0.16295406138E+03  0.16457753212E+03  0.00000000000E+00 0. -1.
        -14    1    3    3    0    0  0.43215690938E+02 -0.12635869105E+02 -0.72220164335E+02  0.85105894437E+02  0.00000000000E+00 0.  1.
          5    1    4    4  501    0 -0.86188327034E+01  0.32619100129E+02 -0.11692552375E+03  0.12176756741E+03  0.41800000000E+01 0.  1.
         -5    1    4    4    0  501 -0.57433209767E+02 -0.19924258915E+02  0.19498534824E+01  0.60965760933E+02  0.41800000000E+01 0.  1.
</event>
<event>
11    1  0.8328696E-009  0.1321243E+03  0.7561462E-02  0.1116686E+00
         22   -1    0    0    0    0  0.00000000000E+00  0.00000000000E+00  0.98552566115E+02  0.98552566115E+02  0.00000000000E+00 0.  1.
         22   -1    0    0    0    0 -0.00000000000E+00 -0.00000000000E+00 -0.74521107826E+03  0.74521107826E+03  0.00000000000E+00 0. -1.
        -24    2    1    2    0    0 -0.15603992376E+02 -0.25998294611E+01 -0.50327801910E+03  0.50918986424E+03  0.75731827140E+02 0.  0.
         25    2    1    2    0    0  0.17191444696E+02  0.44671558263E+02 -0.18941497176E+03  0.23198741015E+03  0.12509609528E+03 0.  0.
         24    2    1    2    0    0 -0.15874523202E+01 -0.42071728801E+02  0.46034478708E+02  0.10258636999E+03  0.81438564018E+02 0.  0.
        -11    1    5    5    0    0 -0.17776643207E+02 -0.64599507870E+00  0.54483822594E+02  0.57314162977E+02  0.00000000000E+00 0.  1.
         12    1    5    5    0    0  0.16189190887E+02 -0.41425733723E+02 -0.84493438860E+01  0.45272207016E+02  0.00000000000E+00 0. -1.
         11    1    3    3    0    0 -0.41081189741E+02 -0.47444470991E+01 -0.42111745715E+03  0.42314310422E+03  0.00000000000E+00 0. -1.
        -12    1    3    3    0    0  0.25477197364E+02  0.21446176380E+01 -0.82160561950E+02  0.86046760022E+02  0.00000000000E+00 0.  1.
          5    1    4    4  501    0  0.53231206299E+02 -0.15395315618E+02 -0.12472962927E+03  0.13654863560E+03  0.41800000000E+01 0. -1.
         -5    1    4    4    0  501 -0.36039761602E+02  0.60066873881E+02 -0.64685342484E+02  0.95438774544E+02  0.41800000000E+01 0. -1.
</event>
<event>
11    1  0.8328696E-009  0.1531755E+03  0.7561462E-02  0.1093678E+00
         22   -1    0    0    0    0  0.00000000000E+00  0.00000000000E+00  0.87570727093E+03  0.87570727093E+03  0.00000000000E+00 0.  1.
         22   -1    0    0    0    0 -0.00000000000E+00 -0.00000000000E+00 -0.45440807795E+02  0.45440807795E+02  0.00000000000E+00 0.  1.
         24    2    1    2    0    0  0.17496401863E+02  0.66199667873E+02  0.13502215897E+03  0.17100324232E+03  0.79514812240E+02 0.  0.
         25    2    1    2    0    0 -0.71078066835E+02  0.25303786587E+02  0.31485250789E+03  0.34709000168E+03  0.12508794645E+03 0.  0.
        -24    2    1    2    0    0  0.53581664972E+02 -0.91503454460E+02  0.38039179628E+03  0.40305483472E+03  0.80693271828E+02 0.  0.
        -11    1    3    3    0    0 -0.24056646457E+02  0.12796563652E+02  0.77641402150E+02  0.82284030090E+02  0.00000000000E+00 0.  1.
         12    1    3    3    0    0  0.41553048320E+02  0.53403104221E+02  0.57380756823E+02  0.88719212230E+02  0.00000000000E+00 0. -1.
         11    1    5    5    0    0 -0.17356924430E+02 -0.13832366787E+02  0.12319803154E+03  0.12518127725E+03  0.00000000000E+00 0. -1.
        -12    1    5    5    0    0  0.70938589402E+02 -0.77671087672E+02  0.25719376473E+03  0.27787355748E+03  0.00000000000E+00 0.  1.
          5    1    4    4  501    0  0.19264853073E+02  0.48544517826E+02  0.10254847840E+03  0.11515801143E+03  0.41800000000E+01 0.  1.
         -5    1    4    4    0  501 -0.90342919908E+02 -0.23240731239E+02  0.21230402949E+03  0.23193199025E+03  0.41800000000E+01 0.  1.
</event>
<event>
11    1  0.8328696E-009  0.1864739E+03  0.7561462E-02  0.1064523E+00
         22   -1    0    0    0    0  0.00000000000E+00  0.00000000000E+00  0.33798383083E+03  0.33798383083E+03  0.00000000000E+00 0. -1.
         22   -1    0    0    0    0 -0.00000000000E+00 -0.00000000000E+00 -0.15618524000E+04  0.15618524000E+04  0.00000000000E+00 0.  1.
        -24    2    1    2    0    0 -0.82522139362E+02 -0.10898747768E+03 -0.12872779302E+04  0.12969939771E+04  0.80129477959E+02 0.  0.
         25    2    1    2    0    0  0.14769337590E+03  0.76313578763E+02 -0.21812892670E+03  0.30143674108E+03  0.12508710813E+03 0.  0.
         24    2    1    2    0    0 -0.65171236535E+02  0.32673898916E+02  0.28153828771E+03  0.30140551269E+03  0.79161871436E+02 0.  0.
        -11    1    5    5    0    0 -0.32762913393E+01  0.36718875379E+02  0.16832009391E+03  0.17230979051E+03  0.00000000000E+00 0.  1.
         12    1    5    5    0    0 -0.61894945196E+02 -0.40449764621E+01  0.11321819380E+03  0.12909572217E+03  0.00000000000E+00 0. -1.
         13    1    3    3    0    0 -0.74714690389E+02 -0.40708943408E+02 -0.86325074951E+03  0.86743377820E+03  0.00000000000E+00 0. -1.
        -14    1    3    3    0    0 -0.78074489729E+01 -0.68278534271E+02 -0.42402718071E+03  0.42956019891E+03  0.00000000000E+00 0.  1.
          5    1    4    4  501    0  0.97006362570E+02  0.10916223257E+03 -0.13766020146E+03  0.20073472760E+03  0.41800000000E+01 0.  1.
         -5    1    4    4    0  501  0.50687013327E+02 -0.32848653804E+02 -0.80468725240E+02  0.10070201348E+03  0.41800000000E+01 0.  1.
</event>
<event>
11    1  0.8328696E-009  0.1399956E+03  0.7561462E-02  0.1107563E+00
         22   -1    0    0    0    0  0.00000000000E+00  0.00000000000E+00  0.17613621411E+03  0.17613621411E+03  0.00000000000E+00 0. -1.
         22   -1    0    0    0    0 -0.00000000000E+00 -0.00000000000E+00 -0.44946656209E+03  0.44946656209E+03  0.00000000000E+00 0. -1.
         24    2    1    2    0    0  0.66127326898E+01  0.32516378291E+01 -0.25556952118E+03  0.26786046953E+03  0.79869578673E+02 0.  0.
         25    2    1    2    0    0  0.55308535213E+02  0.11480910546E+02 -0.14225466310E+03  0.19763851168E+03  0.12503498211E+03 0.  0.
        -24    2    1    2    0    0 -0.61921267903E+02 -0.14732548375E+02  0.12449383630E+03  0.16010379499E+03  0.77994990175E+02 0.  0.
        -13    1    3    3    0    0 -0.29992602113E+02 -0.89971528007E+01 -0.52291625892E+02  0.60950136001E+02  0.00000000000E+00 0.  1.
         14    1    3    3    0    0  0.36605334802E+02  0.12248790630E+02 -0.20327789529E+03  0.20691033353E+03  0.00000000000E+00 0. -1.
         13    1    5    5    0    0 -0.67192128816E+02  0.74412378788E+01  0.11867785317E+03  0.13658179611E+03  0.00000000000E+00 0. -1.
        -14    1    5    5    0    0  0.52708609130E+01 -0.22173786254E+02  0.58159831384E+01  0.23521998883E+02  0.00000000000E+00 0.  1.
          5    1    4    4  501    0  0.93398697289E+02 -0.80767474434E+01 -0.10387453311E+03  0.13998550473E+03  0.41800000000E+01 0. -1.
         -5    1    4    4    0  501 -0.38090162076E+02  0.19557657989E+02 -0.38380129986E+02  0.57653006953E+02  0.41800000000E+01 0. -1.
</event>
<event>
11    1  0.8328696E-009  0.1739375E+03  0.7561462E-02  0.1074655E+00
         22   -1    0    0    0    0  0.00000000000E+00  0.00000000000E+00  0.11390076240E+04  0.11390076240E+04  0.00000000000E+00 0. -1.
         22   -1    0    0    0    0 -0.00000000000E+00 -0.00000000000E+00 -0.77814129476E+03  0.77814129476E+03  0.00000000000E+00 0. -1.
         24    2    1    2    0    0  0.37099824618E+02 -0.46013884157E+02 -0.74631431744E+03  0.75195088497E+03  0.70366174167E+02 0.  0.
         25    2    1    2    0    0  0.17846567481E+02  0.14672734400E+03  0.40293448281E+03  0.44704655530E+03  0.12508801590E+03 0.  0.
        -24    2    1    2    0    0 -0.54946392099E+02 -0.10071345984E+03  0.70424616389E+03  0.71815147852E+03  0.81342361310E+02 0.  0.
        -11    1    3    3    0    0  0.16226976329E+02 -0.56002574378E+02 -0.33883029129E+03  0.34381036836E+03  0.00000000000E+00 0.  1.
         12    1    3    3    0    0  0.20872848289E+02  0.99886902217E+01 -0.40748402615E+03  0.40814051660E+03  0.00000000000E+00 0. -1.
         11    1    5    5    0    0 -0.61358722233E+02 -0.10876643768E+03  0.57041089131E+03  0.58392089848E+03  0.00000000000E+00 0. -1.
        -12    1    5    5    0    0  0.64123301342E+01  0.80529778345E+01  0.13383527259E+03  0.13423058004E+03  0.00000000000E+00 0.  1.
          5    1    4    4  501    0 -0.13518206279E+01  0.88817705889E+02  0.84083256243E+02  0.12238414390E+03  0.41800000000E+01 0. -1.
         -5    1    4    4    0  501  0.19198388109E+02  0.57909638112E+02  0.31885122657E+03  0.32466241140E+03  0.41800000000E+01 0. -1.
</event>
<event>
11    1  0.8328696E-009  0.1362308E+03  0.7561462E-02  0.1111842E+00
         22   -1    0    0    0    0  0.00000000000E+00  0.00000000000E+00  0.12710797114E+04  0.12710797114E+04  0.00000000000E+00 0. -1.
         22   -1    0    0    0    0 -0.00000000000E+00 -0.00000000000E+00 -0.57614055705E+03  0.57614055705E+03  0.00000000000E+00 0. -1.
        -24    2    1    2    0    0  0.32400368510E+02  0.24479179579E+02 -0.53143276673E+03  0.53911295251E+03  0.81073891629E+02 0.  0.
         25    2    1    2    0    0 -0.84356500387E+02 -0.20441775868E+02  0.11238376079E+03  0.18924076191E+03  0.12509224964E+03 0.  0.
         24    2    1    2    0    0  0.51956131877E+02 -0.40374037106E+01  0.11139881602E+04  0.11188665540E+04  0.90426789156E+02 0.  0.
        -13    1    5    5    0    0 -0.57506734881E+01  0.15467446154E+02  0.41653750664E+02  0.44803427107E+02  0.00000000000E+00 0.  1.
         14    1    5    5    0    0  0.57706805365E+02 -0.19504849865E+02  0.10723344096E+04  0.10740631269E+04  0.00000000000E+00 0. -1.
         13    1    3    3    0    0  0.46021572535E+02  0.43317939979E+01 -0.47999527859E+03  0.48221594442E+03  0.00000000000E+00 0. -1.
        -14    1    3    3    0    0 -0.13621204025E+02  0.20147385581E+02 -0.51437488135E+02  0.56897008098E+02  0.00000000000E+00 0.  1.
          5    1    4    4  501    0 -0.40838793580E+02 -0.34409441014E+02  0.12959159176E+03  0.14022578132E+03  0.41800000000E+01 0. -1.
         -5    1    4    4    0  501 -0.43517706807E+02  0.13967665146E+02 -0.17207830969E+02  0.49014980588E+02  0.41800000000E+01 0. -1.
</event>
<event>
11    1  0.8328696E-009  0.1338125E+03  0.7561462E-02  0.1114671E+00
         22   -1    0    0    0    0  0.00000000000E+00  0.00000000000E+00  0.19807596842E+04  0.19807596842E+04  0.00000000000E+00 0.  1.
         22   -1    0    0    0    0 -0.00000000000E+00 -0.00000000000E+00 -0.82722750259E+02  0.82722750259E+02  0.00000000000E+00 0.  1.
        -24    2    1    2    0    0  0.26914041799E+02 -0.29937189880E+01 -0.51606387362E+02  0.10025527037E+03  0.81575560198E+02 0.  0.
         25    2    1    2    0    0  0.81212984793E+01 -0.38417490335E+02  0.99517610866E+03  0.10037753895E+04  0.12509071243E+03 0.  0.
         24    2    1    2    0    0 -0.35035340278E+02  0.41411209323E+02  0.95446721260E+03  0.95945177451E+03  0.81226130961E+02 0.  0.
        -13    1    5    5    0    0 -0.48749679034E+02  0.24190442259E+02  0.88288847004E+03  0.88456416343E+03  0.00000000000E+00 0.  1.
         14    1    5    5    0    0  0.13714338756E+02  0.17220767064E+02  0.71578742564E+02  0.74887611077E+02  0.00000000000E+00 0. -1.
         11    1    3    3    0    0 -0.10417972794E+02 -0.24485964353E+02  0.70050949129E+01  0.27516685159E+02  0.00000000000E+00 0. -1.
        -12    1    3    3    0    0  0.37332014593E+02  0.21492245365E+02 -0.58611482275E+02  0.72738585213E+02  0.00000000000E+00 0.  1.
          5    1    4    4  501    0 -0.43762590235E+02 -0.45624851908E+01  0.15144708338E+03  0.15776460959E+03  0.41800000000E+01 0. -1.
         -5    1    4    4    0  501  0.51883888715E+02 -0.33855005144E+02  0.84372902528E+03  0.84601077995E+03  0.41800000000E+01 0. -1.
</event>
<event>
11    1  0.8328696E-009  0.1607599E+03  0.7561462E-02  0.1086365E+00
         22   -1    0    0    0    0  0.00000000000E+00  0.00000000000E+00  0.40395040690E+03  0.40395040690E+03  0.00000000000E+00 0.  1.
         22   -1    0    0    0    0 -0.00000000000E+00 -0.00000000000E+00 -0.93256442049E+03  0.93256442049E+03  0.00000000000E+00 0.  1.
        -24    2    1    2    0    0 -0.77172705080E+00  0.43801448785E+01 -0.64559550474E+03  0.65032505834E+03  0.78162296079E+02 0.  0.
         25    2    1    2    0    0 -0.10516266465E+02 -0.10455576487E+03 -0.24930202928E+03  0.29806396878E+03  0.12509247721E+03 0.  0.
         24    2    1    2    0    0  0.11287993516E+02  0.10017561999E+03  0.36628352042E+03  0.38812580027E+03  0.79469779602E+02 0.  0.
        -13    1    5    5    0    0  0.29323886378E+02  0.10513920061E+03  0.32391392361E+03  0.34181043244E+03  0.00000000000E+00 0.  1.
         14    1    5    5    0    0 -0.18035892862E+02 -0.49635806161E+01  0.42369596811E+02  0.46315367836E+02  0.00000000000E+00 0. -1.
         13    1    3    3    0    0  0.23262301421E+02 -0.82397752162E+01 -0.72463675374E+02  0.76550720517E+02  0.00000000000E+00 0. -1.
        -14    1    3    3    0    0 -0.24034028471E+02  0.12619920095E+02 -0.57313182937E+03  0.57377433782E+03  0.00000000000E+00 0.  1.
          5    1    4    4  501    0 -0.23071720740E+02 -0.11463126803E+03 -0.11965406468E+03  0.16735351655E+03  0.41800000000E+01 0.  1.
         -5    1    4    4    0  501  0.12555454275E+02  0.10075503163E+02 -0.12964796460E+03  0.13071045223E+03  0.41800000000E+01 0.  1.
</event>
<event>
11    1  0.8328696E-009  0.2838212E+03  0.7561462E-02  0.1007281E+00
         22   -1    0    0    0    0  0.00000000000E+00  0.00000000000E+00  0.18133435949E+04  0.18133435949E+04  0.00000000000E+00 0.  1.
         22   -1    0    0    0    0 -0.00000000000E+00 -0.00000000000E+00 -0.29313883530E+03  0.29313883530E+03  0.00000000000E+00 0. -1.
        -24    2    1    2    0    0 -0.85385731386E+02  0.24000106964E+03 -0.18607593497E+03  0.32576061852E+03  0.81268016194E+02 0.  0.
         25    2    1    2    0    0  0.11362672755E+03 -0.23004047450E+03  0.53507867798E+03  0.60645437294E+03  0.12509221283E+03 0.  0.
         24    2    1    2    0    0 -0.28240996160E+02 -0.99605951352E+01  0.11712020166E+04  0.11742674388E+04  0.79328977635E+02 0.  0.
        -11    1    5    5    0    0 -0.19025648102E+02 -0.26264351432E+02  0.11047743109E+04  0.11052502293E+04  0.00000000000E+00 0.  1.
         12    1    5    5    0    0 -0.92153480583E+01  0.16303756297E+02  0.66427705740E+02  0.69017209441E+02  0.00000000000E+00 0. -1.
         13    1    3    3    0    0 -0.10100275450E+03  0.19716021441E+03 -0.15962512178E+03  0.27304557507E+03  0.00000000000E+00 0. -1.
        -14    1    3    3    0    0  0.15617023119E+02  0.42840855231E+02 -0.26450813183E+02  0.52715043451E+02  0.00000000000E+00 0.  1.
          5    1    4    4  501    0  0.22062951201E+02  0.28843266350E+01  0.11700501534E+03  0.11917524563E+03  0.41800000000E+01 0. -1.
         -5    1    4    4    0  501  0.91563776345E+02 -0.23292480114E+03  0.41807366264E+03  0.48727912732E+03  0.41800000000E+01 0. -1.
</event>
<event>
11    1  0.8328696E-009  0.1444738E+03  0.7561462E-02  0.1102663E+00
         22   -1    0    0    0    0  0.00000000000E+00  0.00000000000E+00  0.10205377605E+04  0.10205377605E+04  0.00000000000E+00 0.  1.
         22   -1    0    0    0    0 -0.00000000000E+00 -0.00000000000E+00 -0.29448339650E+03  0.29448339650E+03  0.00000000000E+00 0.  1.
         24    2    1    2    0    0  0.15959956929E+02 -0.13863934359E+02 -0.23935575392E+03  0.25768841970E+03  0.93087140953E+02 0.  0.
         25    2    1    2    0    0 -0.29679407407E+02 -0.57869756791E+02  0.73798403795E+02  0.15913378972E+03  0.12509029799E+03 0.  0.
        -24    2    1    2    0    0  0.13719450478E+02  0.71733691150E+02  0.89161171413E+03  0.89819894758E+03  0.80348957016E+02 0.  0.
        -11    1    3    3    0    0  0.24604467524E+02 -0.40987675928E+02 -0.21491611798E+03  0.22016881516E+03  0.00000000000E+00 0.  1.
         12    1    3    3    0    0 -0.86445105948E+01  0.27123741569E+02 -0.24439635945E+02  0.37519604545E+02  0.00000000000E+00 0. -1.
         11    1    5    5    0    0  0.31675794212E+02  0.72640452616E+02  0.50596479330E+03  0.51213315002E+03  0.00000000000E+00 0. -1.
        -12    1    5    5    0    0 -0.17956343734E+02 -0.90676146556E+00  0.38564692083E+03  0.38606579756E+03  0.00000000000E+00 0.  1.
          5    1    4    4  501    0 -0.47872358815E+02 -0.79834408068E+02  0.15998430805E+02  0.94544791704E+02  0.41800000000E+01 0. -1.
         -5    1    4    4    0  501  0.18192951407E+02  0.21964651277E+02  0.57799972989E+02  0.64588998012E+02  0.41800000000E+01 0. -1.
</event>
<event>
11    1  0.8328696E-009  0.1443070E+03  0.7561462E-02  0.1102842E+00
         22   -1    0    0    0    0  0.00000000000E+00  0.00000000000E+00  0.10143184269E+03  0.10143184269E+03  0.00000000000E+00 0. -1.
         22   -1    0    0    0    0 -0.00000000000E+00 -0.00000000000E+00 -0.16309053428E+04  0.16309053428E+04  0.00000000000E+00 0. -1.
         24    2    1    2    0    0 -0.30079522261E+02 -0.50235808536E+02 -0.12894257456E+04  0.12932196143E+04  0.79811047942E+02 0.  0.
         25    2    1    2    0    0 -0.21581057401E+02  0.98110470442E+02 -0.28245661583E+03  0.32483582644E+03  0.12508064543E+03 0.  0.
        -24    2    1    2    0    0  0.51660579662E+02 -0.47874661906E+02  0.42408861338E+02  0.11428174469E+03  0.79378881989E+02 0.  0.
        -11    1    3    3    0    0 -0.33093891059E+02 -0.61551898641E+02 -0.66086080618E+03  0.66454559437E+03  0.00000000000E+00 0.  1.
         12    1    3    3    0    0  0.30143687982E+01  0.11316090105E+02 -0.62856493943E+03  0.62867401998E+03  0.00000000000E+00 0. -1.
         11    1    5    5    0    0  0.42122170607E+02  0.38650683180E+01  0.44802674434E+02  0.61615709410E+02  0.00000000000E+00 0. -1.
        -12    1    5    5    0    0  0.95384090548E+01 -0.51739730224E+02 -0.23938130956E+01  0.52666035279E+02  0.00000000000E+00 0.  1.
          5    1    4    4  501    0  0.36192374877E+02 -0.40647418528E+01 -0.11188490797E+03  0.11773748408E+03  0.41800000000E+01 0. -1.
         -5    1    4    4    0  501 -0.57773432278E+02  0.10217521229E+03 -0.17057170786E+03  0.20709834236E+03  0.41800000000E+01 0. -1.
</event>
<event>
11    1  0.8328696E-009  0.1554901E+03  0.7561462E-02  0.1091397E+00
         22   -1    0    0    0    0  0.00000000000E+00  0.00000000000E+00  0.13536361822E+04  0.13536361822E+04  0.00000000000E+00 0.  1.
         22   -1    0    0    0    0 -0.00000000000E+00 -0.00000000000E+00 -0.55534328019E+03  0.55534328019E+03  0.00000000000E+00 0.  1.
         24    2    1    2    0    0  0.16330184040E+02 -0.61504655121E+02 -0.48479442808E+03  0.49540825016E+03  0.79713231730E+02 0.  0.
         25    2    1    2    0    0 -0.81258385583E+02 -0.62821315645E+01  0.27368441662E+02  0.15178374614E+03  0.12508750372E+03 0.  0.
        -24    2    1    2    0    0  0.64928201544E+02  0.67786786685E+02  0.12557188884E+04  0.12617874661E+04  0.80417430039E+02 0.  0.
        -11    1    3    3    0    0 -0.26971912519E+02 -0.38522243975E+02 -0.32127270163E+03  0.32469615975E+03  0.00000000000E+00 0.  1.
         12    1    3    3    0    0  0.43302096559E+02 -0.22982411146E+02 -0.16352172645E+03  0.17071209040E+03  0.00000000000E+00 0. -1.
         11    1    5    5    0    0  0.45845014016E+02  0.21096370743E+02  0.26360935229E+03  0.26839655881E+03  0.00000000000E+00 0. -1.
        -12    1    5    5    0    0  0.19083187527E+02  0.46690415942E+02  0.99210953611E+03  0.99339090726E+03  0.00000000000E+00 0.  1.
          5    1    4    4  501    0 -0.47512215340E+02 -0.64063080331E+02  0.28297551902E+02  0.84733185422E+02  0.41800000000E+01 0.  1.
         -5    1    4    4    0  501 -0.33746170243E+02  0.57780948766E+02 -0.92911024055E+00  0.67050560715E+02  0.41800000000E+01 0.  1.
</event>
<event>
11    1  0.8328696E-009  0.1278989E+03  0.7561462E-02  0.1121878E+00
         22   -1    0    0    0    0  0.00000000000E+00  0.00000000000E+00  0.20657374292E+03  0.20657374292E+03  0.00000000000E+00 0. -1.
         22   -1    0    0    0    0 -0.00000000000E+00 -0.00000000000E+00 -0.23396034930E+04  0.23396034930E+04  0.00000000000E+00 0.  1.
        -24    2    1    2    0    0  0.21780165385E+01  0.17280769117E+02 -0.15177825628E+04  0.15200029999E+04  0.80261094189E+02 0.  0.
         25    2    1    2    0    0  0.11823697129E+02  0.56428072868E+01 -0.80693370019E+03  0.81667585904E+03  0.12508325688E+03 0.  0.
         24    2    1    2    0    0 -0.14001713668E+02 -0.22923576404E+02  0.19168651283E+03  0.20949837699E+03  0.80151808599E+02 0.  0.
        -11    1    5    5    0    0  0.19898125500E+02  0.16975050552E+02  0.31336013251E+02  0.40817073218E+02  0.00000000000E+00 0.  1.
         12    1    5    5    0    0 -0.33899839168E+02 -0.39898626956E+02  0.16035049958E+03  0.16868130377E+03  0.00000000000E+00 0. -1.
         13    1    3    3    0    0  0.37017610878E+02  0.27036035294E+02 -0.88712326643E+03  0.88830678290E+03  0.00000000000E+00 0. -1.
        -14    1    3    3    0    0 -0.34839594340E+02 -0.97552661767E+01 -0.63065929633E+03  0.63169621702E+03  0.00000000000E+00 0.  1.
          5    1    4    4  501    0  0.67934090885E+02  0.13117155589E+01 -0.49785116886E+03  0.50248385052E+03  0.41800000000E+01 0.  1.
         -5    1    4    4    0  501 -0.56110393755E+02  0.43310917278E+01 -0.30908253133E+03  0.31419200852E+03  0.41800000000E+01 0.  1.
</event>
<event>
11    1  0.8328696E-009  0.1784384E+03  0.7561462E-02  0.1070913E+00
         22   -1    0    0    0    0  0.00000000000E+00  0.00000000000E+00  0.63403325975E+03  0.63403325975E+03  0.00000000000E+00 0.  1.
         22   -1    0    0    0    0 -0.00000000000E+00 -0.00000000000E+00 -0.83980531310E+03  0.83980531310E+03  0.00000000000E+00 0.  1.
        -24    2    1    2    0    0  0.41167227346E+01  0.12474815260E+03 -0.69971977229E+03  0.71531332425E+03  0.80537836674E+02 0.  0.
         25    2    1    2    0    0 -0.23161480041E+02 -0.14993860662E+03 -0.53621900560E+02  0.20381322488E+03  0.12508590049E+03 0.  0.
         24    2    1    2    0    0  0.19044757306E+02  0.25190454026E+02  0.54756961950E+03  0.55471202373E+03  0.82919716111E+02 0.  0.
        -13    1    5    5    0    0  0.38398550559E+02 -0.16267071639E+01  0.45103662731E+03  0.45267111023E+03  0.00000000000E+00 0.  1.
         14    1    5    5    0    0 -0.19353793253E+02  0.26817161189E+02  0.96532992191E+02  0.10204091350E+03  0.00000000000E+00 0. -1.
         11    1    3    3    0    0 -0.48209297081E+01  0.73919486379E+01 -0.39667997594E+01  0.96756275376E+01  0.00000000000E+00 0. -1.
        -12    1    3    3    0    0  0.89376524426E+01  0.11735620396E+03 -0.69575297253E+03  0.70563769671E+03  0.00000000000E+00 0.  1.
          5    1    4    4  501    0  0.29875928387E+00 -0.53856314668E+02 -0.84346263951E+02  0.10016165199E+03  0.41800000000E+01 0. -1.
         -5    1    4    4    0  501 -0.23460239325E+02 -0.96082291955E+02  0.30724363391E+02  0.10365157289E+03  0.41800000000E+01 0. -1.
</event>
<event>
11    1  0.8328696E-009  0.2243792E+03  0.7561462E-02  0.1038508E+00
         22   -1    0    0    0    0  0.00000000000E+00  0.00000000000E+00  0.87995438026E+03  0.87995438026E+03  0.00000000000E+00 0. -1.
         22   -1    0    0    0    0 -0.00000000000E+00 -0.00000000000E+00 -0.31218550160E+03  0.31218550160E+03  0.00000000000E+00 0.  1.
         24    2    1    2    0    0 -0.23137874472E+02 -0.19103608770E+03 -0.22063305454E+03  0.30351380262E+03  0.80072064965E+02 0.  0.
         25    2    1    2    0    0 -0.11607999431E+03  0.14440674080E+03  0.31317829720E+03  0.38478095157E+03  0.12509141852E+03 0.  0.
        -24    2    1    2    0    0  0.13921786878E+03  0.46629346901E+02  0.47522363600E+03  0.50384512768E+03  0.80414535362E+02 0.  0.
        -13    1    3    3    0    0 -0.24551945878E+02 -0.18814108066E+03 -0.17610196447E+03  0.25886630945E+03  0.00000000000E+00 0.  1.
         14    1    3    3    0    0  0.14140714060E+01 -0.28950070371E+01 -0.44531090064E+02  0.44647493166E+02  0.00000000000E+00 0. -1.
         11    1    5    5    0    0  0.82994191024E+02 -0.10773516958E+02  0.19206161212E+03  0.20950362112E+03  0.00000000000E+00 0. -1.
        -12    1    5    5    0    0  0.56223677754E+02  0.57402863859E+02  0.28316202387E+03  0.29434150656E+03  0.00000000000E+00 0.  1.
          5    1    4    4  501    0 -0.44667194122E+02  0.54882572706E+02  0.23651108818E+03  0.24690529004E+03  0.41800000000E+01 0. -1.
         -5    1    4    4    0  501 -0.71412800185E+02  0.89524168092E+02  0.76667209018E+02  0.13787566153E+03  0.41800000000E+01 0. -1.
</event>
<event>
11    1  0.8328696E-009  0.1349477E+03  0.7561462E-02  0.1113335E+00
         22   -1    0    0    0    0  0.00000000000E+00  0.00000000000E+00  0.37817045417E+03  0.37817045417E+03  0.00000000000E+00 0.  1.
         22   -1    0    0    0    0 -0.00000000000E+00 -0.00000000000E+00 -0.33430211344E+03  0.33430211344E+03  0.00000000000E+00 0. -1.
         24    2    1    2    0    0  0.54330101095E+02 -0.25737093063E+01 -0.27110929448E+03  0.28788161276E+03  0.80107362602E+02 0.  0.
         25    2    1    2    0    0 -0.11655861185E+02  0.15719745993E+02  0.37542864303E+02  0.13206059201E+03  0.12509022259E+03 0.  0.
        -24    2    1    2    0    0 -0.42674239910E+02 -0.13146036686E+02  0.27743477092E+03  0.29253036284E+03  0.81302226525E+02 0.  0.
        -11    1    3    3    0    0  0.84533046267E+01  0.81061885234E+01  0.97284627942E+00  0.11752237292E+02  0.00000000000E+00 0.  1.
         12    1    3    3    0    0  0.45876796469E+02 -0.10679897830E+02 -0.27208214076E+03  0.27612937546E+03  0.00000000000E+00 0. -1.
         13    1    5    5    0    0  0.63289109998E+01  0.23283461117E+02  0.14107557948E+03  0.14312405040E+03  0.00000000000E+00 0. -1.
        -14    1    5    5    0    0 -0.49003150910E+02 -0.36429497803E+02  0.13635919144E+03  0.14940631244E+03  0.00000000000E+00 0.  1.
          5    1    4    4  501    0 -0.10976148937E+02  0.39849162870E+02  0.75912670627E+02  0.86536914601E+02  0.41800000000E+01 0. -1.
         -5    1    4    4    0  501 -0.67971224811E+00 -0.24129416878E+02 -0.38369806324E+02  0.45523677410E+02  0.41800000000E+01 0. -1.
</event>
<event>
11    1  0.8328696E-009  0.1391645E+03  0.7561462E-02  0.1108495E+00
         22   -1    0    0    0    0  0.00000000000E+00  0.00000000000E+00  0.25161809774E+03  0.25161809774E+03  0.00000000000E+00 0. -1.
         22   -1    0    0    0    0 -0.00000000000E+00 -0.00000000000E+00 -0.27130211525E+03  0.27130211525E+03  0.00000000000E+00 0. -1.
         24    2    1    2    0    0  0.13092107324E+02  0.18696981863E+02 -0.15700611931E+03  0.17782252319E+03  0.80305341328E+02 0.  0.
         25    2    1    2    0    0 -0.37267901346E+02 -0.71414997336E+02 -0.28629241487E+02  0.15151286989E+03  0.12509003940E+03 0.  0.
        -24    2    1    2    0    0  0.24175794022E+02  0.52718015473E+02  0.16595134328E+03  0.19358481992E+03  0.81065257615E+02 0.  0.
        -11    1    3    3    0    0  0.25603950655E+02 -0.20201427107E+02 -0.11368778495E+03  0.11827329535E+03  0.00000000000E+00 0.  1.
         12    1    3    3    0    0 -0.12511843331E+02  0.38898408969E+02 -0.43318334364E+02  0.59549227837E+02  0.00000000000E+00 0. -1.
         11    1    5    5    0    0 -0.46944338453E+01  0.45466706628E+02  0.15543255048E+03  0.16201400207E+03  0.00000000000E+00 0. -1.
        -12    1    5    5    0    0  0.28870227867E+02  0.72513088454E+01  0.10518792809E+02  0.31570817842E+02  0.00000000000E+00 0.  1.
          5    1    4    4  501    0 -0.83510738840E+02 -0.51339396433E+02 -0.21229043003E+02  0.10038885294E+03  0.41800000000E+01 0. -1.
         -5    1    4    4    0  501  0.46242837494E+02 -0.20075600903E+02 -0.74001984844E+01  0.51124016946E+02  0.41800000000E+01 0. -1.
</event>
<event>
11    1  0.8328696E-009  0.1281769E+03  0.7561462E-02  0.1121530E+00
         22   -1    0    0    0    0  0.00000000000E+00  0.00000000000E+00  0.56636649949E+03  0.56636649949E+03  0.00000000000E+00 0. -1.
         22   -1    0    0    0    0 -0.00000000000E+00 -0.00000000000E+00 -0.10897657468E+04  0.10897657468E+04  0.00000000000E+00 0. -1.
        -24    2    1    2    0    0 -0.36780793498E+00  0.82669071295E+01 -0.93030518528E+03  0.93386735890E+03  0.81068053104E+02 0.  0.
         25    2    1    2    0    0  0.12711393349E+02 -0.33151722826E+02 -0.12686678315E+03  0.18167102419E+03  0.12509422094E+03 0.  0.
         24    2    1    2    0    0 -0.12343585414E+02  0.24884815697E+02  0.53377272113E+03  0.54059386319E+03  0.80974001633E+02 0.  0.
        -11    1    5    5    0    0 -0.10145553258E+02  0.18081247336E+02  0.28359723311E+02  0.35130295508E+02  0.00000000000E+00 0.  1.
         12    1    5    5    0    0 -0.21980321557E+01  0.68035683600E+01  0.50541299782E+03  0.50546356768E+03  0.00000000000E+00 0. -1.
         11    1    3    3    0    0  0.39977057794E+01 -0.11522868216E+02 -0.87298476568E+03  0.87306996240E+03  0.00000000000E+00 0. -1.
        -12    1    3    3    0    0 -0.43655137144E+01  0.19789775345E+02 -0.57320419602E+02  0.60797396503E+02  0.00000000000E+00 0.  1.
          5    1    4    4  501    0  0.32236618477E+02  0.37805162396E+02 -0.24573161988E+02  0.55585452815E+02  0.41800000000E+01 0.  1.
         -5    1    4    4    0  501 -0.19525225128E+02 -0.70956885222E+02 -0.10229362117E+03  0.12608557137E+03  0.41800000000E+01 0.  1.
</event>
<event>
11    1  0.8328696E-009  0.1814328E+03  0.7561462E-02  0.1068490E+00
         22   -1    0    0    0    0  0.00000000000E+00  0.00000000000E+00  0.65339377585E+03  0.65339377585E+03  0.00000000000E+00 0.  1.
         22   -1    0    0    0    0 -0.00000000000E+00 -0.00000000000E+00 -0.45460668021E+03  0.45460668021E+03  0.00000000000E+00 0. -1.
        -24    2    1    2    0    0 -0.10654432794E+03 -0.73491408605E+02 -0.31334009118E+03  0.34909177069E+03  0.83248847840E+02 0.  0.
         25    2    1    2    0    0  0.14279011235E+03  0.36418810842E+02 -0.41598529268E+02  0.19772156730E+03  0.12509210435E+03 0.  0.
         24    2    1    2    0    0 -0.36245784408E+02  0.37072597763E+02  0.55372571608E+03  0.56118711807E+03  0.75037846765E+02 0.  0.
        -13    1    5    5    0    0 -0.14985508920E+02  0.58526813565E+02  0.39800803222E+03  0.40256719575E+03  0.00000000000E+00 0.  1.
         14    1    5    5    0    0 -0.21260275489E+02 -0.21454215803E+02  0.15571768387E+03  0.15861992232E+03  0.00000000000E+00 0. -1.
         13    1    3    3    0    0 -0.71691893106E+02 -0.19750624775E+02 -0.89992921099E+02  0.11674134042E+03  0.00000000000E+00 0. -1.
        -14    1    3    3    0    0 -0.34852434831E+02 -0.53740783830E+02 -0.22334717008E+03  0.23235043026E+03  0.00000000000E+00 0.  1.
          5    1    4    4  501    0 -0.21887144217E+02 -0.18869069572E+01 -0.13934393693E+02  0.26348571639E+02  0.41800000000E+01 0. -1.
         -5    1    4    4    0  501  0.16467725656E+03  0.38305717799E+02 -0.27664135575E+02  0.17137299566E+03  0.41800000000E+01 0. -1.
</event>
<event>
11    1  0.8328696E-009  0.1284830E+03  0.7561462E-02  0.1121147E+00
         22   -1    0    0    0    0  0.00000000000E+00  0.00000000000E+00  0.48838476496E+03  0.48838476496E+03  0.00000000000E+00 0.  1.
         22   -1    0    0    0    0 -0.00000000000E+00 -0.00000000000E+00 -0.16997768955E+03  0.16997768955E+03  0.00000000000E+00 0. -1.
         24    2    1    2    0    0 -0.25816940029E+02  0.64510382371E+01 -0.11987706739E+03  0.14635774435E+03  0.79636346963E+02 0.  0.
         25    2    1    2    0    0  0.50531040263E+02 -0.10818501244E+02  0.11643487966E+03  0.17854437669E+03  0.12510230713E+03 0.  0.
        -24    2    1    2    0    0 -0.24714100235E+02  0.43674630070E+01  0.32184926315E+03  0.33346033347E+03  0.83540315570E+02 0.  0.
        -11    1    3    3    0    0  0.13116130654E+02 -0.72785160882E+01  0.42129963280E+01  0.15580725845E+02  0.00000000000E+00 0.  1.
         12    1    3    3    0    0 -0.38933070683E+02  0.13729554325E+02 -0.12409006372E+03  0.13077701850E+03  0.00000000000E+00 0. -1.
         11    1    5    5    0    0 -0.29854058500E+02 -0.19426627880E+02  0.55147069594E+02  0.65649508486E+02  0.00000000000E+00 0. -1.
        -12    1    5    5    0    0  0.51399582648E+01  0.23794090887E+02  0.26670219356E+03  0.26781082499E+03  0.00000000000E+00 0.  1.
          5    1    4    4  501    0  0.31376175262E+02 -0.64762443560E+02  0.38399025000E+02  0.81673716647E+02  0.41800000000E+01 0.  1.
         -5    1    4    4    0  501  0.19154865002E+02  0.53943942316E+02  0.78035854655E+02  0.96870660045E+02  0.41800000000E+01 0.  1.
</event>
<event>
11    1  0.8328696E-009  0.1349522E+03  0.7561462E-02  0.1113330E+00
         22   -1    0    0    0    0  0.00000000000E+00  0.00000000000E+00  0.13634350283E+04  0.13634350283E+04  0.00000000000E+00 0. -1.
         22   -1    0    0    0    0 -0.00000000000E+00 -0.00000000000E+00 -0.10500651888E+03  0.10500651888E+03  0.00000000000E+00 0. -1.
        -24    2    1    2    0    0  0.13268397319E+02 -0.15980006532E+02 -0.57311780688E+02  0.10034308346E+03  0.79703721472E+02 0.  0.
         25    2    1    2    0    0 -0.62795602568E+02  0.18127503995E+02  0.18146836489E+03  0.22989319329E+03  0.12509284059E+03 0.  0.
         24    2    1    2    0    0  0.49527205249E+02 -0.21474974625E+01  0.11342719252E+04  0.11382052704E+04  0.80503922143E+02 0.  0.
        -11    1    5    5    0    0  0.61525964657E+01 -0.13709734228E+02  0.35922083270E+02  0.38938506935E+02  0.00000000000E+00 0.  1.
         12    1    5    5    0    0  0.43374608783E+02  0.11562236766E+02  0.10983498420E+04  0.10992667635E+04  0.00000000000E+00 0. -1.
         11    1    3    3    0    0  0.41518626243E+02 -0.27924143962E+02 -0.25520072248E+02  0.56167857612E+02  0.00000000000E+00 0. -1.
        -12    1    3    3    0    0 -0.28250228924E+02  0.11944137430E+02 -0.31791708440E+02  0.44175225848E+02  0.00000000000E+00 0.  1.
          5    1    4    4  501    0 -0.69988007936E+02  0.56999694317E+02  0.16230606923E+03  0.18576334115E+03  0.41800000000E+01 0.  1.
         -5    1    4    4    0  501  0.71924053683E+01 -0.38872190322E+02  0.19162295658E+02  0.44129852145E+02  0.41800000000E+01 0.  1.
</event>
<event>
11    1  0.8328696E-009  0.1766740E+03  0.7561462E-02  0.1072365E+00
         22   -1    0    0    0    0  0.00000000000E+00  0.00000000000E+00  0.53598147056E+03  0.53598147056E+03  0.00000000000E+00 0. -1.
         22   -1    0    0    0    0 -0.00000000000E+00 -0.00000000000E+00 -0.58243332689E+03  0.58243332689E+03  0.00000000000E+00 0.  1.
         24    2    1    2    0    0 -0.11036602039E+03  0.51430582486E+02 -0.49608935587E+03  0.51727186500E+03  0.81484784121E+02 0.  0.
         25    2    1    2    0    0  0.14410995746E+03 -0.97604814893E+02  0.98014434536E+02  0.23568927518E+03  0.12509286682E+03 0.  0.
        -24    2    1    2    0    0 -0.33743937068E+02  0.46174232406E+02  0.35162306501E+03  0.36545365727E+03  0.81528416752E+02 0.  0.
        -11    1    3    3    0    0 -0.26331463568E+02  0.55370378745E+02 -0.24054879250E+03  0.24823969543E+03  0.00000000000E+00 0.  1.
         12    1    3    3    0    0 -0.84034556821E+02 -0.39397962591E+01 -0.25554056338E+03  0.26903216957E+03  0.00000000000E+00 0. -1.
         13    1    5    5    0    0 -0.30268057421E+02  0.19835718897E+02  0.32773332775E+03  0.32972525709E+03  0.00000000000E+00 0. -1.
        -14    1    5    5    0    0 -0.34758796468E+01  0.26338513509E+02  0.23889737260E+02  0.35728400182E+02  0.00000000000E+00 0.  1.
          5    1    4    4  501    0  0.30168124942E+02 -0.92648866772E+02  0.63814056291E+02  0.11654885009E+03  0.41800000000E+01 0.  1.
         -5    1    4    4    0  501  0.11394183251E+03 -0.49559481201E+01  0.34200378244E+02  0.11914042509E+03  0.41800000000E+01 0.  1.
</event>
<event>
11    1  0.8328696E-009  0.2154267E+03  0.7561462E-02  0.1044121E+00
         22   -1    0    0    0    0  0.00000000000E+00  0.00000000000E+00  0.24069316241E+04  0.24069316241E+04  0.00000000000E+00 0. -1.
         22   -1    0    0    0    0 -0.00000000000E+00 -0.00000000000E+00 -0.30819564061E+03  0.30819564061E+03  0.00000000000E+00 0. -1.
        -24    2    1    2    0    0 -0.54333335684E+02 -0.47344863848E+02 -0.27911564517E+03  0.29942097581E+03  0.80955110257E+02 0.  0.
         25    2    1    2    0    0  0.16771805552E+03  0.14478912475E+03  0.13222914015E+04  0.13465493822E+04  0.12508977389E+03 0.  0.
         24    2    1    2    0    0 -0.11338471984E+03 -0.97444260898E+02  0.10555602271E+04  0.10691569066E+04  0.80855545419E+02 0.  0.
        -11    1    5    5    0    0 -0.27980855583E+02 -0.41552379069E+02  0.15651515037E+03  0.16433660815E+03  0.00000000000E+00 0.  1.
         12    1    5    5    0    0 -0.85403864258E+02 -0.55891881829E+02  0.89904507677E+03  0.90482029848E+03  0.00000000000E+00 0. -1.
         11    1    3    3    0    0 -0.15679846017E+02 -0.27086894528E+02 -0.23602714458E+03  0.23809319688E+03  0.00000000000E+00 0. -1.
        -12    1    3    3    0    0 -0.38653489666E+02 -0.20257969320E+02 -0.43088500594E+02  0.61327778925E+02  0.00000000000E+00 0.  1.
          5    1    4    4  501    0  0.18027793228E+03  0.13809512842E+03  0.13005226370E+04  0.13202071804E+04  0.41800000000E+01 0. -1.
         -5    1    4    4    0  501 -0.12559876751E+02  0.66939963287E+01  0.21768764446E+02  0.26342201813E+02  0.41800000000E+01 0. -1.
</event>
<event>
11    1  0.8328696E-009  0.1270930E+03  0.7561462E-02  0.1122893E+00
         22   -1    0    0    0    0  0.00000000000E+00  0.00000000000E+00  0.36978947883E+03  0.36978947883E+03  0.00000000000E+00 0.  1.
         22   -1    0    0    0    0 -0.00000000000E+00 -0.00000000000E+00 -0.26113963809E+03  0.26113963809E+03  0.00000000000E+00 0. -1.
         24    2    1    2    0    0 -0.15919912429E+02 -0.21185727656E+02 -0.19802682630E+03  0.21447438817E+03  0.77989490195E+02 0.  0.
         25    2    1    2    0    0  0.11198488506E+02 -0.35024692471E+01  0.32934148780E+02  0.12989708135E+03  0.12510363764E+03 0.  0.
        -24    2    1    2    0    0  0.47214239231E+01  0.24688196903E+02  0.27374251826E+03  0.28655764740E+03  0.80922926720E+02 0.  0.
        -13    1    3    3    0    0 -0.42616035763E+02 -0.44595723966E+01 -0.65616115866E+02  0.78367652455E+02  0.00000000000E+00 0.  1.
         14    1    3    3    0    0  0.26696123334E+02 -0.16726155259E+02 -0.13241071043E+03  0.13610673572E+03  0.00000000000E+00 0. -1.
         11    1    5    5    0    0 -0.17658893895E+02 -0.56825779952E+01  0.11962750194E+02  0.22073414291E+02  0.00000000000E+00 0. -1.
        -12    1    5    5    0    0  0.22380317818E+02  0.30370774898E+02  0.26177976806E+03  0.26448423310E+03  0.00000000000E+00 0.  1.
          5    1    4    4  501    0 -0.88359860031E+01 -0.27319199478E+02  0.73254249356E+02  0.78791311434E+02  0.41800000000E+01 0. -1.
         -5    1    4    4    0  501  0.20034474509E+02  0.23816730231E+02 -0.40320100576E+02  0.51105769911E+02  0.41800000000E+01 0. -1.
</event>
<event>
11    1  0.8328696E-009  0.2124291E+03  0.7561462E-02  0.1046066E+00
         22   -1    0    0    0    0  0.00000000000E+00  0.00000000000E+00  0.47097610439E+03  0.47097610439E+03  0.00000000000E+00 0.  1.
         22   -1    0    0    0    0 -0.00000000000E+00 -0.00000000000E+00 -0.18550732010E+03  0.18550732010E+03  0.00000000000E+00 0. -1.
        -24    2    1    2    0    0  0.39360331535E+02  0.44094147932E+02 -0.45632816938E+02  0.10905595222E+03  0.79481552282E+02 0.  0.
         25    2    1    2    0    0 -0.18477951343E+03  0.38307617370E+02  0.92095718420E+02  0.24441583312E+03  0.12508611431E+03 0.  0.
         24    2    1    2    0    0  0.14541918190E+03 -0.82401765302E+02  0.23900588281E+03  0.30301163915E+03  0.82191557100E+02 0.  0.
        -11    1    5    5    0    0  0.56471361469E+02  0.28241471436E+01  0.11537199082E+03  0.12848224290E+03  0.00000000000E+00 0.  1.
         12    1    5    5    0    0  0.88947820428E+02 -0.85225912446E+02  0.12363389198E+03  0.17452939626E+03  0.00000000000E+00 0. -1.
         11    1    3    3    0    0 -0.17549665073E+02 -0.99088896813E+01 -0.13604519219E+02  0.24315833978E+02  0.00000000000E+00 0. -1.
        -12    1    3    3    0    0  0.56909996608E+02  0.54003037613E+02 -0.32028297719E+02  0.84740118245E+02  0.00000000000E+00 0.  1.
          5    1    4    4  501    0 -0.19723728104E+03  0.46245690618E+02  0.10127513375E+03  0.22652888127E+03  0.41800000000E+01 0.  1.
         -5    1    4    4    0  501  0.12457767606E+02 -0.79380732475E+01 -0.91794153296E+01  0.17886951848E+02  0.41800000000E+01 0.  1.
</event>
<event>
11    1  0.8328696E-009  0.1439397E+03  0.7561462E-02  0.1103237E+00
         22   -1    0    0    0    0  0.00000000000E+00  0.00000000000E+00  0.13731890859E+04  0.13731890859E+04  0.00000000000E+00 0. -1.
         22   -1    0    0    0    0 -0.00000000000E+00 -0.00000000000E+00 -0.11007508728E+03  0.11007508728E+03  0.00000000000E+00 0.  1.
         24    2    1    2    0    0  0.98520382784E+01 -0.66676623803E+02 -0.58130923731E+02  0.11916162132E+03  0.79230378530E+02 0.  0.
         25    2    1    2    0    0  0.10116654767E+02  0.12547815649E+03  0.41379578329E+03  0.45024577110E+03  0.12508872719E+03 0.  0.
        -24    2    1    2    0    0 -0.19968693045E+02 -0.58801532686E+02  0.90744913907E+03  0.91385678075E+03  0.88396305245E+02 0.  0.
        -13    1    3    3    0    0  0.23015928128E+02 -0.57845105520E+02 -0.35850053799E+01  0.62358972440E+02  0.00000000000E+00 0.  1.
         14    1    3    3    0    0 -0.13163889850E+02 -0.88315182839E+01 -0.54545918351E+02  0.56802648881E+02  0.00000000000E+00 0. -1.
         13    1    5    5    0    0 -0.34157001911E+02 -0.19792427041E+02  0.74967210172E+03  0.75071079721E+03  0.00000000000E+00 0. -1.
        -14    1    5    5    0    0  0.14188308866E+02 -0.39009105645E+02  0.15777703734E+03  0.16314598354E+03  0.00000000000E+00 0.  1.
          5    1    4    4  501    0 -0.13444950614E+02 -0.20661738343E+02  0.31143513558E+02  0.39938264422E+02  0.41800000000E+01 0. -1.
         -5    1    4    4    0  501  0.23561605381E+02  0.14613989483E+03  0.38265226973E+03  0.41030750668E+03  0.41800000000E+01 0. -1.
</event>
<event>
11    1  0.8328696E-009  0.2546446E+03  0.7561462E-02  0.1021454E+00
         22   -1    0    0    0    0  0.00000000000E+00  0.00000000000E+00  0.26520898821E+03  0.26520898821E+03  0.00000000000E+00 0. -1.
         22   -1    0    0    0    0 -0.00000000000E+00 -0.00000000000E+00 -0.21285990663E+04  0.21285990663E+04  0.00000000000E+00 0.  1.
        -24    2    1    2    0    0 -0.15801563713E+03  0.16899500273E+03 -0.16168390285E+04  0.16353268437E+04  0.81223082592E+02 0.  0.
         25    2    1    2    0    0  0.74886474940E+02 -0.18836677874E+03 -0.45842299570E+03  0.51661336807E+03  0.12509077351E+03 0.  0.
         24    2    1    2    0    0  0.83129162187E+02  0.19371776009E+02  0.21187194611E+03  0.24186784273E+03  0.79527407163E+02 0.  0.
        -13    1    5    5    0    0 -0.13835232600E+02  0.12167384590E+02  0.46685269626E+02  0.50189374463E+02  0.00000000000E+00 0.  1.
         14    1    5    5    0    0  0.96964394787E+02  0.72043914187E+01  0.16518667648E+03  0.19167846827E+03  0.00000000000E+00 0. -1.
         13    1    3    3    0    0 -0.14336705611E+03  0.11030052111E+03 -0.13244418236E+04  0.13367372448E+04  0.00000000000E+00 0. -1.
        -14    1    3    3    0    0 -0.14648581020E+02  0.58694481617E+02 -0.29239720497E+03  0.29858959890E+03  0.00000000000E+00 0.  1.
          5    1    4    4  501    0  0.10786165986E+02 -0.15873850115E+03 -0.24857751225E+03  0.29516521665E+03  0.41800000000E+01 0. -1.
         -5    1    4    4    0  501  0.64100308955E+02 -0.29628277589E+02 -0.20984548345E+03  0.22144815142E+03  0.41800000000E+01 0. -1.
</event>
<event>
11    1  0.8328696E-009  0.1477258E+03  0.7561462E-02  0.1099225E+00
         22   -1    0    0    0    0  0.00000000000E+00  0.00000000000E+00  0.11815159529E+04  0.11815159529E+04  0.00000000000E+00 0.  1.
         22   -1    0    0    0    0 -0.00000000000E+00 -0.00000000000E+00 -0.61587361725E+03  0.61587361725E+03  0.00000000000E+00 0. -1.
         24    2    1    2    0    0 -0.14065747772E+02 -0.24358341947E+02 -0.59125204990E+03  0.59751312567E+03  0.81558413116E+02 0.  0.
         25    2    1    2    0    0  0.38854571859E+00  0.98033857830E+02  0.33513448146E+03  0.37090988353E+03  0.12509289663E+03 0.  0.
        -24    2    1    2    0    0  0.13677202054E+02 -0.73675515883E+02  0.82175990407E+03  0.82896656094E+03  0.79253212716E+02 0.  0.
        -13    1    3    3    0    0 -0.18397216565E+02 -0.23858518604E+02 -0.69576605226E+02  0.75819459785E+02  0.00000000000E+00 0.  1.
         14    1    3    3    0    0  0.43314687924E+01 -0.49982334306E+00 -0.52167544467E+03  0.52169366588E+03  0.00000000000E+00 0. -1.
         11    1    5    5    0    0  0.44403881212E+02 -0.50883179498E+02  0.61501563255E+03  0.61871239757E+03  0.00000000000E+00 0. -1.
        -12    1    5    5    0    0 -0.30726679158E+02 -0.22792336385E+02  0.20674427152E+03  0.21025416338E+03  0.00000000000E+00 0.  1.
          5    1    4    4  501    0  0.62739014050E+01  0.12215449662E+03  0.20824096671E+03  0.24154265772E+03  0.41800000000E+01 0. -1.
         -5    1    4    4    0  501 -0.58853556864E+01 -0.24120638792E+02  0.12689351475E+03  0.12936722581E+03  0.41800000000E+01 0. -1.
</event>
<event>
11    1  0.1317012E-008  0.1787504E+03  0.7561462E-02  0.1070658E+00
         22   -1    0    0    0    0  0.00000000000E+00  0.00000000000E+00  0.14933629511E+04  0.14933629511E+04  0.00000000000E+00 0.  1.
         22   -1    0    0    0    0 -0.00000000000E+00 -0.00000000000E+00 -0.12944037441E+04  0.12944037441E+04  0.00000000000E+00 0.  1.
        -24    2    1    2    0    0  0.81051884893E+02  0.85092376391E+02 -0.92706532092E+03  0.93784414236E+03  0.79318380863E+02 0.  0.
         25    2    1    2    0    0 -0.16732254565E+03 -0.12258998376E+03 -0.31834745470E+03  0.40002136867E+03  0.12508738976E+03 0.  0.
         24    2    1    2    0    0  0.86270660760E+02  0.37497607373E+02  0.14443719826E+04  0.14499011841E+04  0.84583226095E+02 0.  0.
        -11    1    5    5    0    0  0.74165164641E+02  0.85226396289E+01  0.55782342914E+03  0.56279666411E+03  0.00000000000E+00 0.  1.
         12    1    5    5    0    0  0.12105496120E+02  0.28974967744E+02  0.88654855345E+03  0.88710452001E+03  0.00000000000E+00 0. -1.
         13    1    3    3    0    0  0.81094808525E+01  0.42979502129E+02 -0.15056218069E+03  0.15678638824E+03  0.00000000000E+00 0. -1.
        -14    1    3    3    0    0  0.72942404041E+02  0.42112874262E+02 -0.77650314023E+03  0.78105775412E+03  0.00000000000E+00 0.  1.
          5    1    4    4  501    0  0.11197487035E+02 -0.45906010113E+02 -0.72490341098E+02  0.86631792276E+02  0.41800000000E+01 0. -1.
         -5    1    4    4    0  501 -0.17852003269E+03 -0.76683973651E+02 -0.24585711360E+03  0.31338957640E+03  0.41800000000E+01 0. -1.
</event>
<event>
11    1  0.8328696E-009  0.1398573E+03  0.7561462E-02  0.1107718E+00
         22   -1    0    0    0    0  0.00000000000E+00  0.00000000000E+00  0.85430810374E+03  0.85430810374E+03  0.00000000000E+00 0.  1.
         22   -1    0    0    0    0 -0.00000000000E+00 -0.00000000000E+00 -0.76177078424E+03  0.76177078424E+03  0.00000000000E+00 0. -1.
         24    2    1    2    0    0  0.44814945423E+02 -0.46809414778E+02 -0.53222503343E+03  0.54296856997E+03  0.85743111209E+02 0.  0.
         25    2    1    2    0    0 -0.18584277620E+02  0.55014260670E+02 -0.20054869244E+03  0.24339120476E+03  0.12509019253E+03 0.  0.
        -24    2    1    2    0    0 -0.26230667803E+02 -0.82048458918E+01  0.82531104536E+03  0.82971911325E+03  0.80870995167E+02 0.  0.
        -11    1    3    3    0    0 -0.13069307594E+02  0.26223996037E+01 -0.14572534437E+02  0.19749494691E+02  0.00000000000E+00 0.  1.
         12    1    3    3    0    0  0.57884253017E+02 -0.49431814382E+02 -0.51765249900E+03  0.52321907528E+03  0.00000000000E+00 0. -1.
         13    1    5    5    0    0 -0.17359212131E+02  0.34923615638E+02  0.29189962176E+03  0.29449344706E+03  0.00000000000E+00 0. -1.
        -14    1    5    5    0    0 -0.88714556720E+01 -0.43128461530E+02  0.53341142360E+03  0.53522566619E+03  0.00000000000E+00 0.  1.
          5    1    4    4  501    0 -0.55778368490E+02  0.48477450762E+02 -0.53020908576E+02  0.91049320536E+02  0.41800000000E+01 0. -1.
         -5    1    4    4    0  501  0.37194090870E+02  0.65368099076E+01 -0.14752778386E+03  0.15234188423E+03  0.41800000000E+01 0. -1.
</event>
<event>
11    1  0.8328696E-009  0.1564903E+03  0.7561462E-02  0.1090426E+00
         22   -1    0    0    0    0  0.00000000000E+00  0.00000000000E+00  0.11612500116E+04  0.11612500116E+04  0.00000000000E+00 0. -1.
         22   -1    0    0    0    0 -0.00000000000E+00 -0.00000000000E+00 -0.46438460095E+03  0.46438460095E+03  0.00000000000E+00 0.  1.
        -24    2    1    2    0    0  0.54246029350E+02 -0.10243604330E+01 -0.35072630345E+03  0.36349978056E+03  0.78609601989E+02 0.  0.
         25    2    1    2    0    0 -0.63021990673E+02 -0.92443755511E+02 -0.35864491170E+02  0.17161451336E+03  0.12509060807E+03 0.  0.
         24    2    1    2    0    0  0.87759613231E+01  0.93468115944E+02  0.10834562053E+04  0.10905203186E+04  0.80894439927E+02 0.  0.
        -13    1    5    5    0    0 -0.29637285943E+02  0.89610362707E+01  0.29353788811E+03  0.29516632708E+03  0.00000000000E+00 0.  1.
         14    1    5    5    0    0  0.38413247266E+02  0.84507079673E+02  0.78991831718E+03  0.79535399156E+03  0.00000000000E+00 0. -1.
         13    1    3    3    0    0  0.30479223337E+02  0.19881362743E+02 -0.54165377461E+02  0.65254423262E+02  0.00000000000E+00 0. -1.
        -14    1    3    3    0    0  0.23766806012E+02 -0.20905723176E+02 -0.29656092599E+03  0.29824535730E+03  0.00000000000E+00 0.  1.
          5    1    4    4  501    0 -0.42898758608E+02 -0.12070428029E+03 -0.44402888379E+02  0.13564260270E+03  0.41800000000E+01 0.  1.
         -5    1    4    4    0  501 -0.20123232064E+02  0.28260524779E+02  0.85383972086E+01  0.35971910658E+02  0.41800000000E+01 0.  1.
</event>
<event>
11    1  0.8328696E-009  0.4112490E+03  0.7561462E-02  0.9617138E-01
         22   -1    0    0    0    0  0.00000000000E+00  0.00000000000E+00  0.35488601070E+03  0.35488601070E+03  0.00000000000E+00 0. -1.
         22   -1    0    0    0    0 -0.00000000000E+00 -0.00000000000E+00 -0.17455284146E+04  0.17455284146E+04  0.00000000000E+00 0.  1.
         24    2    1    2    0    0 -0.10159880094E+02  0.67363154178E+02 -0.92861416717E+03  0.93450234906E+03  0.79557219855E+02 0.  0.
         25    2    1    2    0    0 -0.38332429966E+03 -0.59124842293E+02 -0.61343820310E+03  0.73646959332E+03  0.12509103558E+03 0.  0.
        -24    2    1    2    0    0  0.39348417975E+03 -0.82383118850E+01  0.15140996634E+03  0.42944248295E+03  0.81229297418E+02 0.  0.
        -11    1    3    3    0    0 -0.37380919627E+02  0.76735832296E+01 -0.40518628892E+03  0.40697929402E+03  0.00000000000E+00 0.  1.
         12    1    3    3    0    0  0.27221039533E+02  0.59689570949E+02 -0.52342787824E+03  0.52752305504E+03  0.00000000000E+00 0. -1.
         11    1    5    5    0    0  0.10768297348E+03  0.21196063054E+01  0.41899749325E+01  0.10778530233E+03  0.00000000000E+00 0. -1.
        -12    1    5    5    0    0  0.28580120627E+03 -0.10357918190E+02  0.14721999140E+03  0.32165718062E+03  0.00000000000E+00 0.  1.
          5    1    4    4  501    0 -0.74384624048E+02 -0.34275797041E+02 -0.58170705486E+02  0.10054454701E+03  0.41800000000E+01 0. -1.
         -5    1    4    4    0  501 -0.30893967561E+03 -0.24849045252E+02 -0.55526749762E+03  0.63592504631E+03  0.41800000000E+01 0. -1.
</event>
<event>
11    1  0.8328696E-009  0.1543412E+03  0.7561462E-02  0.1092524E+00
         22   -1    0    0    0    0  0.00000000000E+00  0.00000000000E+00  0.77614552947E+03  0.77614552947E+03  0.00000000000E+00 0.  1.
         22   -1    0    0    0    0 -0.00000000000E+00 -0.00000000000E+00 -0.74422053968E+02  0.74422053968E+02  0.00000000000E+00 0.  1.
        -24    2    1    2    0    0 -0.18637894168E+02 -0.83730382959E+02  0.28100510768E+02  0.11982104130E+03  0.78799080605E+02 0.  0.
         25    2    1    2    0    0  0.36413246817E+02  0.10231109733E+03  0.25573232579E+03  0.30469426412E+03  0.12508431938E+03 0.  0.
         24    2    1    2    0    0 -0.17775352649E+02 -0.18580714373E+02  0.41789063895E+03  0.42605227801E+03  0.78909767285E+02 0.  0.
        -11    1    5    5    0    0 -0.36011630534E+02 -0.12739585404E+02  0.39196315779E+03  0.39382007521E+03  0.00000000000E+00 0.  1.
         12    1    5    5    0    0  0.18236277885E+02 -0.58411289693E+01  0.25927481155E+02  0.32232202807E+02  0.00000000000E+00 0. -1.
         11    1    3    3    0    0  0.12608571732E+02 -0.32231797831E+02 -0.22391165546E+02  0.41221707474E+02  0.00000000000E+00 0. -1.
        -12    1    3    3    0    0 -0.31246465900E+02 -0.51498585129E+02  0.50491676314E+02  0.78599333830E+02  0.00000000000E+00 0.  1.
          5    1    4    4  501    0  0.12590210731E+02  0.12081494060E+03  0.14179176640E+03  0.18675422538E+03  0.41800000000E+01 0.  1.
         -5    1    4    4    0  501  0.23823036086E+02 -0.18503843272E+02  0.11394055939E+03  0.11794003874E+03  0.41800000000E+01 0.  1.
</event>
<event>
11    1  0.8328696E-009  0.2009433E+03  0.7561462E-02  0.1053859E+00
         22   -1    0    0    0    0  0.00000000000E+00  0.00000000000E+00  0.16637006358E+04  0.16637006358E+04  0.00000000000E+00 0.  1.
         22   -1    0    0    0    0 -0.00000000000E+00 -0.00000000000E+00 -0.24119393008E+04  0.24119393008E+04  0.00000000000E+00 0. -1.
        -24    2    1    2    0    0  0.52757109734E+02  0.14870446292E+03 -0.23646888387E+04  0.23713241739E+04  0.80800396262E+02 0.  0.
         25    2    1    2    0    0 -0.67675597652E+01 -0.13146176633E+03  0.15200068172E+03  0.23681401501E+03  0.12509466252E+03 0.  0.
         24    2    1    2    0    0 -0.45989549968E+02 -0.17242696590E+02  0.14644494920E+04  0.14675017476E+04  0.80849955871E+02 0.  0.
        -11    1    5    5    0    0 -0.99185945782E+01 -0.30932642076E+02  0.21346645433E+03  0.21592390787E+03  0.00000000000E+00 0.  1.
         12    1    5    5    0    0 -0.36070955390E+02  0.13689945486E+02  0.12509830377E+04  0.12515778398E+04  0.00000000000E+00 0. -1.
         11    1    3    3    0    0 -0.18962829487E+02  0.53485178147E+02 -0.90381008904E+03  0.90558982450E+03  0.00000000000E+00 0. -1.
        -12    1    3    3    0    0  0.71719939221E+02  0.95219284770E+02 -0.14608787497E+04  0.14657343494E+04  0.00000000000E+00 0.  1.
          5    1    4    4  501    0 -0.35826096958E+02  0.86371400210E+01  0.43708085798E+02  0.57323455715E+02  0.41800000000E+01 0.  1.
         -5    1    4    4    0  501  0.29058537193E+02 -0.14009890635E+03  0.10829259592E+03  0.17949055929E+03  0.41800000000E+01 0.  1.
</event>
<event>
11    1  0.8328696E-009  0.1467048E+03  0.7561462E-02  0.1100294E+00
         22   -1    0    0    0    0  0.00000000000E+00  0.00000000000E+00  0.24722912736E+04  0.24722912736E+04  0.00000000000E+00 0. -1.
         22   -1    0    0    0    0 -0.00000000000E+00 -0.00000000000E+00 -0.19770673056E+04  0.19770673056E+04  0.00000000000E+00 0. -1.
        -24    2    1    2    0    0  0.47295256218E+02  0.15780424682E+01 -0.13337133073E+04  0.13373534234E+04  0.86508158745E+02 0.  0.
         25    2    1    2    0    0 -0.10834689379E+03  0.44655239380E+02 -0.62881219723E+03  0.65175486729E+03  0.12508592188E+03 0.  0.
         24    2    1    2    0    0  0.61051637570E+02 -0.46233281848E+02  0.24577494725E+04  0.24602502886E+04  0.80213428598E+02 0.  0.
        -13    1    5    5    0    0  0.18611860789E+02  0.22519876582E+02  0.52431704247E+03  0.52513037164E+03  0.00000000000E+00 0.  1.
         14    1    5    5    0    0  0.42439776781E+02 -0.68753158430E+02  0.19334324300E+04  0.19351199169E+04  0.00000000000E+00 0. -1.
         11    1    3    3    0    0  0.55501043446E+02  0.28094329090E+02 -0.11359154591E+04  0.11376175049E+04  0.00000000000E+00 0. -1.
        -12    1    3    3    0    0 -0.82057872277E+01 -0.26516286622E+02 -0.19779784811E+03  0.19973591845E+03  0.00000000000E+00 0.  1.
          5    1    4    4  501    0 -0.10623010934E+03  0.47366533400E+02 -0.63379779586E+03  0.64439548652E+03  0.41800000000E+01 0. -1.
         -5    1    4    4    0  501 -0.21167844513E+01 -0.27112940204E+01  0.49855986245E+01  0.73593807703E+01  0.41800000000E+01 0. -1.
</event>
<event>
11    1  0.8328696E-009  0.1572732E+03  0.7561462E-02  0.1089670E+00
         22   -1    0    0    0    0  0.00000000000E+00  0.00000000000E+00  0.49535340752E+03  0.49535340752E+03  0.00000000000E+00 0.  1.
         22   -1    0    0    0    0 -0.00000000000E+00 -0.00000000000E+00 -0.10374155641E+04  0.10374155641E+04  0.00000000000E+00 0.  1.
        -24    2    1    2    0    0 -0.89477268895E+02  0.36059605391E+02 -0.93107503594E+03  0.94032986627E+03  0.89515686142E+02 0.  0.
         25    2    1    2    0    0  0.83400837160E+02 -0.94958694165E+01 -0.39275076984E+02  0.15567258477E+03  0.12508217619E+03 0.  0.
         24    2    1    2    0    0  0.60764317354E+01 -0.26563735974E+02  0.42828795637E+03  0.43676652055E+03  0.81190299988E+02 0.  0.
        -13    1    5    5    0    0 -0.12333577942E+02 -0.21042537626E+02  0.40833262030E+03  0.40906042871E+03  0.00000000000E+00 0.  1.
         14    1    5    5    0    0  0.18410009677E+02 -0.55211983482E+01  0.19955336068E+02  0.27706091841E+02  0.00000000000E+00 0. -1.
         13    1    3    3    0    0 -0.95378405454E+01 -0.53130301091E+01 -0.98089016778E+01  0.14676963015E+02  0.00000000000E+00 0. -1.
        -14    1    3    3    0    0 -0.79939428350E+02  0.41372635500E+02 -0.92126613426E+03  0.92565290326E+03  0.00000000000E+00 0.  1.
          5    1    4    4  501    0  0.73200590149E+02 -0.60653940417E+02 -0.99264811340E+01  0.95672536885E+02  0.41800000000E+01 0. -1.
         -5    1    4    4    0  501  0.10200247010E+02  0.51158071001E+02 -0.29348595850E+02  0.60000047883E+02  0.41800000000E+01 0. -1.
</event>
<event>
11    1  0.8328696E-009  0.1319752E+03  0.7561462E-02  0.1116866E+00
         22   -1    0    0    0    0  0.00000000000E+00  0.00000000000E+00  0.50294896434E+02  0.50294896434E+02  0.00000000000E+00 0. -1.
         22   -1    0    0    0    0 -0.00000000000E+00 -0.00000000000E+00 -0.16549937698E+04  0.16549937698E+04  0.00000000000E+00 0. -1.
         24    2    1    2    0    0 -0.29352518649E+02  0.29121114698E+02 -0.13154408442E+04  0.13185939310E+04  0.81214103369E+02 0.  0.
         25    2    1    2    0    0  0.48534480482E+02 -0.20505222076E+02 -0.28393635060E+03  0.31470925382E+03  0.12508398507E+03 0.  0.
        -24    2    1    2    0    0 -0.19181961833E+02 -0.86158926228E+01 -0.53216785034E+01  0.71985481358E+02  0.68639696960E+02 0.  0.
        -11    1    3    3    0    0  0.18750479446E+02  0.15980940251E+02 -0.87373463454E+03  0.87408190836E+03  0.00000000000E+00 0.  1.
         12    1    3    3    0    0 -0.48102998095E+02  0.13140174447E+02 -0.44170620968E+03  0.44451202265E+03  0.00000000000E+00 0. -1.
         11    1    5    5    0    0  0.19388753963E+02 -0.85446190697E+01  0.17226674141E+02  0.27307372580E+02  0.00000000000E+00 0. -1.
        -12    1    5    5    0    0 -0.38570715797E+02 -0.71273553069E-01 -0.22548352644E+02  0.44678108778E+02  0.00000000000E+00 0.  1.
          5    1    4    4  501    0  0.14754239969E+02  0.26287007135E+02 -0.62625062178E+01  0.31070656982E+02  0.41800000000E+01 0. -1.
         -5    1    4    4    0  501  0.33780240514E+02 -0.46792229211E+02 -0.27767384438E+03  0.28363859684E+03  0.41800000000E+01 0. -1.
</event>
<event>
11    1  0.8328696E-009  0.1702592E+03  0.7561462E-02  0.1077806E+00
         22   -1    0    0    0    0  0.00000000000E+00  0.00000000000E+00  0.48694595522E+03  0.48694595522E+03  0.00000000000E+00 0.  1.
         22   -1    0    0    0    0 -0.00000000000E+00 -0.00000000000E+00 -0.54750084804E+03  0.54750084804E+03  0.00000000000E+00 0. -1.
        -24    2    1    2    0    0 -0.10472289710E+03 -0.39803280237E+02 -0.45106464276E+03  0.47183368638E+03  0.81342051595E+02 0.  0.
         25    2    1    2    0    0  0.14286483673E+03  0.72120951373E+02  0.52130485819E+02  0.20970624224E+03  0.12508927725E+03 0.  0.
         24    2    1    2    0    0 -0.38141939627E+02 -0.32317671136E+02  0.33837926412E+03  0.35290687465E+03  0.86853303684E+02 0.  0.
        -11    1    5    5    0    0 -0.89520219522E+01 -0.24828424198E+02  0.31122524271E+03  0.31234234590E+03  0.00000000000E+00 0.  1.
         12    1    5    5    0    0 -0.29189917675E+02 -0.74892469375E+01  0.27154021416E+02  0.40564528749E+02  0.00000000000E+00 0. -1.
         11    1    3    3    0    0 -0.88687798287E+02 -0.42776031181E+02 -0.44267552654E+03  0.45349414132E+03  0.00000000000E+00 0. -1.
        -12    1    3    3    0    0 -0.16035098812E+02  0.29727509440E+01 -0.83891162158E+01  0.18339545059E+02  0.00000000000E+00 0.  1.
          5    1    4    4  501    0  0.11421985517E+03  0.34033857585E+00 -0.35641749461E+01  0.11435238034E+03  0.41800000000E+01 0.  1.
         -5    1    4    4    0  501  0.28644981552E+02  0.71780612797E+02  0.55694660765E+02  0.95353861901E+02  0.41800000000E+01 0.  1.
</event>
<event>
11    1  0.8328696E-009  0.1294589E+03  0.7561462E-02  0.1119936E+00
         22   -1    0    0    0    0  0.00000000000E+00  0.00000000000E+00  0.81160658215E+02  0.81160658215E+02  0.00000000000E+00 0.  1.
         22   -1    0    0    0    0 -0.00000000000E+00 -0.00000000000E+00 -0.88501908964E+03  0.88501908964E+03  0.00000000000E+00 0.  1.
        -24    2    1    2    0    0  0.63503380867E+01 -0.33105185603E+02 -0.73301932545E+03  0.73838289456E+03  0.82192988710E+02 0.  0.
         25    2    1    2    0    0 -0.26238430125E+02  0.22958393021E+02 -0.64892464893E+02  0.14516957662E+03  0.12509049105E+03 0.  0.
         24    2    1    2    0    0  0.19888092038E+02  0.10146792583E+02 -0.59466410907E+01  0.82627276679E+02  0.79331019825E+02 0.  0.
        -13    1    5    5    0    0  0.33779832043E+02  0.25222804668E+02  0.22325922284E+02  0.47704441449E+02  0.00000000000E+00 0.  1.
         14    1    5    5    0    0 -0.13891740004E+02 -0.15076012085E+02 -0.28272563374E+02  0.34922835230E+02  0.00000000000E+00 0. -1.
         11    1    3    3    0    0 -0.34394403901E+02 -0.86900006405E+01 -0.18950194410E+03  0.19279387425E+03  0.00000000000E+00 0. -1.
        -12    1    3    3    0    0  0.40744741988E+02 -0.24415184963E+02 -0.54351738135E+03  0.54558902031E+03  0.00000000000E+00 0.  1.
          5    1    4    4  501    0  0.35289660176E+02 -0.25579826065E+02 -0.47851082725E+02  0.64860512909E+02  0.41800000000E+01 0.  1.
         -5    1    4    4    0  501 -0.61528090301E+02  0.48538219085E+02 -0.17041382168E+02  0.80309063712E+02  0.41800000000E+01 0.  1.
</event>
<event>
11    1  0.8328696E-009  0.1580419E+03  0.7561462E-02  0.1088934E+00
         22   -1    0    0    0    0  0.00000000000E+00  0.00000000000E+00  0.17232822259E+04  0.17232822259E+04  0.00000000000E+00 0. -1.
         22   -1    0    0    0    0 -0.00000000000E+00 -0.00000000000E+00 -0.30086491650E+03  0.30086491650E+03  0.00000000000E+00 0.  1.
        -24    2    1    2    0    0 -0.86543082429E+02 -0.16329128845E+02 -0.18538745166E+03  0.22084927642E+03  0.81544773573E+02 0.  0.
         25    2    1    2    0    0  0.13573868199E+03  0.41752197259E+02 -0.31959176964E+01  0.18927460581E+03  0.12508567764E+03 0.  0.
         24    2    1    2    0    0 -0.49195599557E+02 -0.25423068414E+02  0.16110006788E+04  0.16140232602E+04  0.81739574292E+02 0.  0.
        -11    1    5    5    0    0 -0.85285962568E+01  0.26652585339E+02  0.28308422589E+03  0.28446401566E+03  0.00000000000E+00 0.  1.
         12    1    5    5    0    0 -0.40667003300E+02 -0.52075653753E+02  0.13279164529E+04  0.13295592445E+04  0.00000000000E+00 0. -1.
         13    1    3    3    0    0 -0.10350128148E+02 -0.43967609925E+01  0.72281038571E+01  0.13367952172E+02  0.00000000000E+00 0. -1.
        -14    1    3    3    0    0 -0.76192954281E+02 -0.11932367853E+02 -0.19261555551E+03  0.20748132424E+03  0.00000000000E+00 0.  1.
          5    1    4    4  501    0  0.12629288929E+03 -0.34122232381E+01 -0.37241705049E+02  0.13177994593E+03  0.41800000000E+01 0.  1.
         -5    1    4    4    0  501  0.94457926911E+01  0.45164420497E+02  0.34045787352E+02  0.57494659881E+02  0.41800000000E+01 0.  1.
</event>
<event>
11    1  0.8328696E-009  0.1410015E+03  0.7561462E-02  0.1106445E+00
         22   -1    0    0    0    0  0.00000000000E+00  0.00000000000E+00  0.81897606271E+02  0.81897606271E+02  0.00000000000E+00 0. -1.
         22   -1    0    0    0    0 -0.00000000000E+00 -0.00000000000E+00 -0.83126220123E+03  0.83126220123E+03  0.00000000000E+00 0.  1.
        -24    2    1    2    0    0  0.36223038028E+02  0.44367576858E+02 -0.44848732962E+03  0.45936347784E+03  0.81199320093E+02 0.  0.
         25    2    1    2    0    0 -0.69549683554E+02 -0.58636331431E+02 -0.32738159830E+03  0.36207971459E+03  0.12509049111E+03 0.  0.
         24    2    1    2    0    0  0.33326645526E+02  0.14268754573E+02  0.26504332959E+02  0.91716615072E+02  0.79969964084E+02 0.  0.
        -11    1    5    5    0    0  0.91680012621E+01  0.44729538836E+02  0.26591806158E+02  0.52838509123E+02  0.00000000000E+00 0.  1.
         12    1    5    5    0    0  0.24158644264E+02 -0.30460784263E+02 -0.87473198753E-01  0.38878105949E+02  0.00000000000E+00 0. -1.
         13    1    3    3    0    0  0.51815486503E+02  0.28290292951E+02 -0.16965210397E+03  0.17963023603E+03  0.00000000000E+00 0. -1.
        -14    1    3    3    0    0 -0.15592448475E+02  0.16077283907E+02 -0.27883522565E+03  0.27973324180E+03  0.00000000000E+00 0.  1.
          5    1    4    4  501    0 -0.97191261076E+02 -0.69047844137E+02 -0.29416375533E+03  0.31743272257E+03  0.41800000000E+01 0.  1.
         -5    1    4    4    0  501  0.27641577522E+02  0.10411512706E+02 -0.33217842972E+02  0.44646992020E+02  0.41800000000E+01 0.  1.
</event>
<event>
11    1  0.8328696E-009  0.1442435E+03  0.7561462E-02  0.1102910E+00
         22   -1    0    0    0    0  0.00000000000E+00  0.00000000000E+00  0.58739724203E+03  0.58739724203E+03  0.00000000000E+00 0.  1.
         22   -1    0    0    0    0 -0.00000000000E+00 -0.00000000000E+00 -0.33062916218E+03  0.33062916218E+03  0.00000000000E+00 0. -1.
         24    2    1    2    0    0  0.69921110620E+02  0.23550864125E+02 -0.28199836680E+03  0.30477620881E+03  0.89004795729E+02 0.  0.
         25    2    1    2    0    0 -0.26070472712E+02 -0.59807963821E+02  0.12437237070E+03  0.18807822546E+03  0.12509304623E+03 0.  0.
        -24    2    1    2    0    0 -0.43850637908E+02  0.36257099696E+02  0.41439407596E+03  0.42517196994E+03  0.76231870686E+02 0.  0.
        -13    1    3    3    0    0  0.23248570066E+02 -0.14372086991E+02 -0.15180019290E+02  0.31264770594E+02  0.00000000000E+00 0.  1.
         14    1    3    3    0    0  0.46672540553E+02  0.37922951117E+02 -0.26681834751E+03  0.27351143821E+03  0.00000000000E+00 0. -1.
         13    1    5    5    0    0  0.11550269140E+02 -0.14190506202E+02  0.52342107506E+02  0.55447952186E+02  0.00000000000E+00 0. -1.
        -14    1    5    5    0    0 -0.55400907047E+02  0.50447605898E+02  0.36205196845E+03  0.36972401775E+03  0.00000000000E+00 0.  1.
          5    1    4    4  501    0  0.20969414624E+02  0.46634769794E+01 -0.15615494692E+02  0.26884576278E+02  0.41800000000E+01 0. -1.
         -5    1    4    4    0  501 -0.47039887336E+02 -0.64471440801E+02  0.13998786539E+03  0.16119364918E+03  0.41800000000E+01 0. -1.
</event>
<event>
11    1  0.8328696E-009  0.4551126E+03  0.7561462E-02  0.9499826E-01
         22   -1    0    0    0    0  0.00000000000E+00  0.00000000000E+00  0.29655600407E+03  0.29655600407E+03  0.00000000000E+00 0.  1.
         22   -1    0    0    0    0 -0.00000000000E+00 -0.00000000000E+00 -0.24908175897E+04  0.24908175897E+04  0.00000000000E+00 0.  1.
         24    2    1    2    0    0  0.39698955508E+03  0.12659060569E+03 -0.16997069936E+04  0.17519272925E+04  0.81360222159E+02 0.  0.
         25    2    1    2    0    0 -0.48126127210E+03 -0.17844076021E+03 -0.64783180856E+03  0.83593504421E+03  0.12509128276E+03 0.  0.
        -24    2    1    2    0    0  0.84271717018E+02  0.51850154525E+02  0.15327721660E+03  0.19951125702E+03  0.80750701151E+02 0.  0.
        -13    1    3    3    0    0  0.33701101968E+03  0.11623993002E+03 -0.15468498597E+04  0.15873980715E+04  0.00000000000E+00 0.  1.
         14    1    3    3    0    0  0.59978535400E+02  0.10350675666E+02 -0.15285713388E+03  0.16452922103E+03  0.00000000000E+00 0. -1.
         13    1    5    5    0    0  0.37129451723E+02  0.55308749271E+02  0.42363456742E+02  0.78945021365E+02  0.00000000000E+00 0. -1.
        -14    1    5    5    0    0  0.47142265295E+02 -0.34585947459E+01  0.11091375986E+03  0.12056623566E+03  0.00000000000E+00 0.  1.
          5    1    4    4  501    0 -0.32826770366E+03 -0.70252952050E+02 -0.46981166813E+03  0.57743886122E+03  0.41800000000E+01 0. -1.
         -5    1    4    4    0  501 -0.15299356844E+03 -0.10818780816E+03 -0.17802014044E+03  0.25849618299E+03  0.41800000000E+01 0. -1.
</event>
<event>
11    1  0.8328696E-009  0.1751387E+03  0.7561462E-02  0.1073644E+00
         22   -1    0    0    0    0  0.00000000000E+00  0.00000000000E+00  0.56334940465E+03  0.56334940465E+03  0.00000000000E+00 0.  1.
         22   -1    0    0    0    0 -0.00000000000E+00 -0.00000000000E+00 -0.21678023108E+03  0.21678023108E+03  0.00000000000E+00 0.  1.
        -24    2    1    2    0    0  0.30825967706E+01 -0.13177030326E+02 -0.47306380940E+02  0.94603164208E+02  0.80800547458E+02 0.  0.
         25    2    1    2    0    0 -0.39896911865E+01 -0.11039858900E+03 -0.83202259845E+02  0.18647281584E+03  0.12508288818E+03 0.  0.
         24    2    1    2    0    0  0.90709441595E+00  0.12357561932E+03  0.47707781435E+03  0.49905365569E+03  0.78610138007E+02 0.  0.
        -13    1    5    5    0    0 -0.57103591803E+01  0.54863255648E+02  0.35106578512E+03  0.35537272054E+03  0.00000000000E+00 0.  1.
         14    1    5    5    0    0  0.66174535962E+01  0.68712363673E+02  0.12601202923E+03  0.14368093515E+03  0.00000000000E+00 0. -1.
         11    1    3    3    0    0  0.13341983767E+02 -0.29071924680E+02  0.10589651243E+02  0.33694599699E+02  0.00000000000E+00 0. -1.
        -12    1    3    3    0    0 -0.10259386996E+02  0.15894894355E+02 -0.57896032182E+02  0.60908564509E+02  0.00000000000E+00 0.  1.
          5    1    4    4  501    0  0.69853873536E+01 -0.13719092337E+03 -0.65095485986E+02  0.15206919408E+03  0.41800000000E+01 0. -1.
         -5    1    4    4    0  501 -0.10975078540E+02  0.26792334378E+02 -0.18106773859E+02  0.34403621757E+02  0.41800000000E+01 0. -1.
</event>
<event>
11    1  0.8328696E-009  0.1411512E+03  0.7561462E-02  0.1106280E+00
         22   -1    0    0    0    0  0.00000000000E+00  0.00000000000E+00  0.77243874776E+03  0.77243874776E+03  0.00000000000E+00 0.  1.
         22   -1    0    0    0    0 -0.00000000000E+00 -0.00000000000E+00 -0.74889198917E+02  0.74889198917E+02  0.00000000000E+00 0. -1.
         24    2    1    2    0    0  0.40609024330E+02 -0.57611411636E+02  0.90087957493E+01  0.10443776006E+03  0.76537048011E+02 0.  0.
         25    2    1    2    0    0 -0.26512505387E+02  0.40616173806E+02  0.16484092463E+03  0.21253659774E+03  0.12508672363E+03 0.  0.
        -24    2    1    2    0    0 -0.14096518944E+02  0.16995237830E+02  0.52369982846E+03  0.53035358887E+03  0.80782850560E+02 0.  0.
        -11    1    3    3    0    0  0.34730665984E+02  0.46049047790E+01  0.20940098108E+02  0.40815585460E+02  0.00000000000E+00 0.  1.
         12    1    3    3    0    0  0.58783583467E+01 -0.62216316415E+02 -0.11931302359E+02  0.63622174602E+02  0.00000000000E+00 0. -1.
         11    1    5    5    0    0 -0.19443605669E+02 -0.25396214253E+02  0.35069819935E+03  0.35215372854E+03  0.00000000000E+00 0. -1.
        -12    1    5    5    0    0  0.53470867253E+01  0.42391452084E+02  0.17300162911E+03  0.17819986033E+03  0.00000000000E+00 0.  1.
          5    1    4    4  501    0  0.35072784972E+02  0.55222735226E+02  0.11290595146E+03  0.13055603014E+03  0.41800000000E+01 0.  1.
         -5    1    4    4    0  501 -0.61585290359E+02 -0.14606561420E+02  0.51934973167E+02  0.81980567594E+02  0.41800000000E+01 0.  1.
</event>
<event>
11    1  0.8328696E-009  0.1294545E+03  0.7561462E-02  0.1119941E+00
         22   -1    0    0    0    0  0.00000000000E+00  0.00000000000E+00  0.70412120213E+03  0.70412120213E+03  0.00000000000E+00 0. -1.
         22   -1    0    0    0    0 -0.00000000000E+00 -0.00000000000E+00 -0.13967920570E+04  0.13967920570E+04  0.00000000000E+00 0. -1.
         24    2    1    2    0    0  0.29190389529E+02  0.36832271563E+02 -0.12309079232E+04  0.12345390245E+04  0.82119379038E+02 0.  0.
         25    2    1    2    0    0 -0.31556152677E+02 -0.27834750796E+01 -0.13433525331E+03  0.18626942922E+03  0.12508717550E+03 0.  0.
        -24    2    1    2    0    0  0.23657631481E+01 -0.34048796483E+02  0.67257232171E+03  0.68010480540E+03  0.94995268411E+02 0.  0.
        -11    1    3    3    0    0  0.33702222477E+01  0.58545068066E+02 -0.64486162795E+03  0.64752251127E+03  0.00000000000E+00 0.  1.
         12    1    3    3    0    0  0.25820167281E+02 -0.21712796503E+02 -0.58604629526E+03  0.58701651319E+03  0.00000000000E+00 0. -1.
         13    1    5    5    0    0  0.23182057634E+02 -0.40452667259E+02  0.63475082681E+03  0.63646086935E+03  0.00000000000E+00 0. -1.
        -14    1    5    5    0    0 -0.20816294486E+02  0.64038707755E+01  0.37821494902E+02  0.43643936047E+02  0.00000000000E+00 0.  1.
          5    1    4    4  501    0  0.27254490761E+02  0.13746016769E+02  0.75621396174E+01  0.31724101236E+02  0.41800000000E+01 0. -1.
         -5    1    4    4    0  501 -0.58810643438E+02 -0.16529491848E+02 -0.14189739293E+03  0.15454532798E+03  0.41800000000E+01 0. -1.
</event>
<event>
11    1  0.8328696E-009  0.2261514E+03  0.7561462E-02  0.1037431E+00
         22   -1    0    0    0    0  0.00000000000E+00  0.00000000000E+00  0.53718246672E+03  0.53718246672E+03  0.00000000000E+00 0.  1.
         22   -1    0    0    0    0 -0.00000000000E+00 -0.00000000000E+00 -0.12219938794E+04  0.12219938794E+04  0.00000000000E+00 0. -1.
        -24    2    1    2    0    0  0.52811480979E+02  0.39122733102E+02 -0.99836323957E+03  0.10035174769E+04  0.77450161786E+02 0.  0.
         25    2    1    2    0    0 -0.22048006773E+03  0.39386518236E+02 -0.11572359190E+03  0.28142834276E+03  0.12508878566E+03 0.  0.
         24    2    1    2    0    0  0.16766858675E+03 -0.78509251338E+02  0.42927541883E+03  0.47423052643E+03  0.79628823030E+02 0.  0.
        -13    1    5    5    0    0  0.77605675833E+02 -0.19251785479E+02  0.27231919091E+03  0.28381510514E+03  0.00000000000E+00 0.  1.
         14    1    5    5    0    0  0.90062910921E+02 -0.59257465860E+02  0.15695622792E+03  0.19041542129E+03  0.00000000000E+00 0. -1.
         11    1    3    3    0    0  0.55765865431E+02  0.41984732712E+02 -0.47158237383E+03  0.47672055214E+03  0.00000000000E+00 0. -1.
        -12    1    3    3    0    0 -0.29543844519E+01 -0.28619996098E+01 -0.52678086574E+03  0.52679692477E+03  0.00000000000E+00 0.  1.
          5    1    4    4  501    0 -0.54189411573E+02 -0.23965782913E+02 -0.80393490277E+02  0.99957174611E+02  0.41800000000E+01 0.  1.
         -5    1    4    4    0  501 -0.16629065616E+03  0.63352301149E+02 -0.35330101627E+02  0.18147116814E+03  0.41800000000E+01 0.  1.
</event>
<event>
11    1  0.8328696E-009  0.1328565E+03  0.7561462E-02  0.1115808E+00
         22   -1    0    0    0    0  0.00000000000E+00  0.00000000000E+00  0.22271470668E+02  0.22271470668E+02  0.00000000000E+00 0. -1.
         22   -1    0    0    0    0 -0.00000000000E+00 -0.00000000000E+00 -0.23108536972E+04  0.23108536972E+04  0.00000000000E+00 0. -1.
         24    2    1    2    0    0 -0.19713142295E+02 -0.35115738919E+02 -0.15603061645E+04  0.15630008407E+04  0.82429230069E+02 0.  0.
         25    2    1    2    0    0  0.41390366591E+02  0.63875398435E+02 -0.56208530261E+03  0.58084486154E+03  0.12509051443E+03 0.  0.
        -24    2    1    2    0    0 -0.21677224296E+02 -0.28759659517E+02 -0.16619075942E+03  0.18927946562E+03  0.83128379742E+02 0.  0.
        -11    1    3    3    0    0 -0.32443844611E+02 -0.55687335719E+02 -0.12919145258E+04  0.12935210955E+04  0.00000000000E+00 0.  1.
         12    1    3    3    0    0  0.12730702316E+02  0.20571596800E+02 -0.26839163870E+03  0.26947974525E+03  0.00000000000E+00 0. -1.
         11    1    5    5    0    0 -0.85882665252E+01 -0.12554733845E+02  0.56157887343E+01  0.16214707735E+02  0.00000000000E+00 0. -1.
        -12    1    5    5    0    0 -0.13088957771E+02 -0.16204925671E+02 -0.17180654816E+03  0.17306475788E+03  0.00000000000E+00 0.  1.
          5    1    4    4  501    0  0.82452994293E+02  0.57002854229E+02 -0.32628574633E+03  0.34136151265E+03  0.41800000000E+01 0. -1.
         -5    1    4    4    0  501 -0.41062627702E+02  0.68725442064E+01 -0.23579955628E+03  0.23948334890E+03  0.41800000000E+01 0. -1.
</event>
<event>
11    1  0.8328696E-009  0.1828133E+03  0.7561462E-02  0.1067390E+00
         22   -1    0    0    0    0  0.00000000000E+00  0.00000000000E+00  0.20021538575E+04  0.20021538575E+04  0.00000000000E+00 0.  1.
         22   -1    0    0    0    0 -0.00000000000E+00 -0.00000000000E+00 -0.29084775069E+03  0.29084775069E+03  0.00000000000E+00 0.  1.
         24    2    1    2    0    0  0.12543082756E+03  0.35835479249E+02 -0.18712836783E+03  0.24204122175E+03  0.80931161521E+02 0.  0.
         25    2    1    2    0    0 -0.14330075744E+03 -0.30389956169E+02  0.48047286905E+02  0.19852917632E+03  0.12508651228E+03 0.  0.
        -24    2    1    2    0    0  0.17869929873E+02 -0.54455230803E+01  0.18503871878E+04  0.18524312101E+04  0.84968556205E+02 0.  0.
        -13    1    3    3    0    0  0.74286689061E+02  0.47450873969E+02 -0.16075601589E+03  0.18333737823E+03  0.00000000000E+00 0.  1.
         14    1    3    3    0    0  0.51144138500E+02 -0.11615394720E+02 -0.26372351942E+02  0.58703843523E+02  0.00000000000E+00 0. -1.
         11    1    5    5    0    0  0.32478159783E+02  0.25846357413E+02  0.54148677585E+03  0.54307531106E+03  0.00000000000E+00 0. -1.
        -12    1    5    5    0    0 -0.14608229910E+02 -0.31291880493E+02  0.13089004119E+04  0.13093558991E+04  0.00000000000E+00 0.  1.
          5    1    4    4  501    0 -0.12494712770E+03 -0.72313882079E+02  0.23169303672E+02  0.14627156694E+03  0.41800000000E+01 0.  1.
         -5    1    4    4    0  501 -0.18353629730E+02  0.41923925911E+02  0.24877983233E+02  0.52257609377E+02  0.41800000000E+01 0.  1.
</event>
<event>
11    1  0.8328696E-009  0.1299542E+03  0.7561462E-02  0.1119325E+00
         22   -1    0    0    0    0  0.00000000000E+00  0.00000000000E+00  0.65479741371E+03  0.65479741371E+03  0.00000000000E+00 0. -1.
         22   -1    0    0    0    0 -0.00000000000E+00 -0.00000000000E+00 -0.45753171718E+03  0.45753171718E+03  0.00000000000E+00 0. -1.
        -24    2    1    2    0    0  0.32552502096E+02  0.30433827850E+02 -0.43310892216E+03  0.44284493231E+03  0.80885180078E+02 0.  0.
         25    2    1    2    0    0  0.13114562129E+02 -0.19579727069E+02  0.29185446428E+03  0.31840438822E+03  0.12508784379E+03 0.  0.
         24    2    1    2    0    0 -0.45667064225E+02 -0.10854100780E+02  0.33852015440E+03  0.35107981035E+03  0.80360724500E+02 0.  0.
        -11    1    5    5    0    0  0.19237629035E+02 -0.13995584093E+02  0.14506814712E+03  0.14700588442E+03  0.00000000000E+00 0.  1.
         12    1    5    5    0    0 -0.64904693260E+02  0.31414833126E+01  0.19345200728E+03  0.20407392594E+03  0.00000000000E+00 0. -1.
         13    1    3    3    0    0  0.57765946577E+02  0.14566657309E+02 -0.33698644779E+03  0.34221186140E+03  0.00000000000E+00 0. -1.
        -14    1    3    3    0    0 -0.25213444481E+02  0.15867170541E+02 -0.96122474364E+02  0.10063307091E+03  0.00000000000E+00 0.  1.
          5    1    4    4  501    0 -0.40553781721E+02  0.22344590840E+02  0.55501926310E+02  0.72400457014E+02  0.41800000000E+01 0.  1.
         -5    1    4    4    0  501  0.53668343850E+02 -0.41924317910E+02  0.23635253797E+03  0.24600393121E+03  0.41800000000E+01 0.  1.
</event>
<event>
11    1  0.8328696E-009  0.2050412E+03  0.7561462E-02  0.1051015E+00
         22   -1    0    0    0    0  0.00000000000E+00  0.00000000000E+00  0.93175715502E+03  0.93175715502E+03  0.00000000000E+00 0.  1.
         22   -1    0    0    0    0 -0.00000000000E+00 -0.00000000000E+00 -0.62475882582E+03  0.62475882582E+03  0.00000000000E+00 0. -1.
        -24    2    1    2    0    0  0.15254222708E+03  0.18585993810E+02 -0.42273558652E+03  0.45736473160E+03  0.82840517838E+02 0.  0.
         25    2    1    2    0    0 -0.19601634850E+03 -0.63076853670E+02 -0.10179530850E+03  0.26155406174E+03  0.12508854476E+03 0.  0.
         24    2    1    2    0    0  0.43474121424E+02  0.44490859861E+02  0.83152922422E+03  0.83759718750E+03  0.79112337368E+02 0.  0.
        -11    1    5    5    0    0  0.23730268881E+02  0.55278580857E+02  0.76510076168E+03  0.76746206596E+03  0.00000000000E+00 0.  1.
         12    1    5    5    0    0  0.19743852543E+02 -0.10787720996E+02  0.66428462543E+02  0.70135121539E+02  0.00000000000E+00 0. -1.
         13    1    3    3    0    0  0.13179270136E+03 -0.44271519113E+01 -0.39254693977E+03  0.41410387070E+03  0.00000000000E+00 0. -1.
        -14    1    3    3    0    0  0.20749525719E+02  0.23013145721E+02 -0.30188646752E+02  0.43260860905E+02  0.00000000000E+00 0.  1.
          5    1    4    4  501    0 -0.51921921902E+01  0.21344066254E+02  0.10334744102E+02  0.24633460164E+02  0.41800000000E+01 0.  1.
         -5    1    4    4    0  501 -0.19082415631E+03 -0.84420919925E+02 -0.11213005260E+03  0.23692060157E+03  0.41800000000E+01 0.  1.
</event>
<event>
11    1  0.8328696E-009  0.1824730E+03  0.7561462E-02  0.1067660E+00
         22   -1    0    0    0    0  0.00000000000E+00  0.00000000000E+00  0.81754281943E+03  0.81754281943E+03  0.00000000000E+00 0. -1.
         22   -1    0    0    0    0 -0.00000000000E+00 -0.00000000000E+00 -0.40151416106E+03  0.40151416106E+03  0.00000000000E+00 0.  1.
        -24    2    1    2    0    0  0.12842087509E+03  0.34054144256E+02 -0.25961712252E+03  0.30280974384E+03  0.81492850947E+02 0.  0.
         25    2    1    2    0    0 -0.13077085719E+03 -0.24627889324E+02 -0.47444184126E+02  0.18869851177E+03  0.12509447515E+03 0.  0.
         24    2    1    2    0    0  0.23499821049E+01 -0.94262549314E+01  0.72308996502E+03  0.72754872488E+03  0.79835285858E+02 0.  0.
        -11    1    5    5    0    0 -0.11194147171E+02  0.54404536603E+01  0.16476063328E+02  0.20648683486E+02  0.00000000000E+00 0.  1.
         12    1    5    5    0    0  0.13544129276E+02 -0.14866708592E+02  0.70661390169E+03  0.70690004140E+03  0.00000000000E+00 0. -1.
         11    1    3    3    0    0  0.74020625071E+02  0.57718054963E+02 -0.18530722638E+03  0.20772384300E+03  0.00000000000E+00 0. -1.
        -12    1    3    3    0    0  0.54400250017E+02 -0.23663910707E+02 -0.74309896146E+02  0.95085900833E+02  0.00000000000E+00 0.  1.
          5    1    4    4  501    0 -0.89969337074E+02 -0.62018564114E+02  0.87672350082E+01  0.10970469779E+03  0.41800000000E+01 0.  1.
         -5    1    4    4    0  501 -0.40801520119E+02  0.37390674789E+02 -0.56211419134E+02  0.78993813975E+02  0.41800000000E+01 0.  1.
</event>
<event>
11    1  0.8328696E-009  0.1345246E+03  0.7561462E-02  0.1113831E+00
         22   -1    0    0    0    0  0.00000000000E+00  0.00000000000E+00  0.10248183438E+04  0.10248183438E+04  0.00000000000E+00 0. -1.
         22   -1    0    0    0    0 -0.00000000000E+00 -0.00000000000E+00 -0.69392724089E+02  0.69392724089E+02  0.00000000000E+00 0.  1.
         24    2    1    2    0    0  0.17884563726E+02 -0.51883409608E+02  0.22273324146E+01  0.10105592123E+03  0.84826837697E+02 0.  0.
         25    2    1    2    0    0 -0.18402744269E+02  0.19626526578E+02  0.21738726086E+03  0.25225475670E+03  0.12510547371E+03 0.  0.
        -24    2    1    2    0    0  0.51818054314E+00  0.32256883030E+02  0.73581102648E+03  0.74090039000E+03  0.80465807670E+02 0.  0.
        -13    1    3    3    0    0  0.30543481857E+02 -0.54649736410E+02 -0.27687708772E+02  0.68455147291E+02  0.00000000000E+00 0.  1.
         14    1    3    3    0    0 -0.12658918131E+02  0.27663268018E+01  0.29915041187E+02  0.32600773939E+02  0.00000000000E+00 0. -1.
         13    1    5    5    0    0  0.60427671086E+01  0.33556895737E+02  0.73421290564E+03  0.73500419801E+03  0.00000000000E+00 0. -1.
        -14    1    5    5    0    0 -0.55245865654E+01 -0.13000127067E+01  0.15981208360E+01  0.58961919883E+01  0.00000000000E+00 0.  1.
          5    1    4    4  501    0 -0.35768024135E+02  0.62731721683E+02  0.83516678961E+02  0.11048587476E+03  0.41800000000E+01 0.  1.
         -5    1    4    4    0  501  0.17365279865E+02 -0.43105195105E+02  0.13387058190E+03  0.14176888195E+03  0.41800000000E+01 0.  1.
</event>
<event>
11    1  0.8328696E-009  0.1401720E+03  0.7561462E-02  0.1107366E+00
         22   -1    0    0    0    0  0.00000000000E+00  0.00000000000E+00  0.12432788779E+04  0.12432788779E+04  0.00000000000E+00 0.  1.
         22   -1    0    0    0    0 -0.00000000000E+00 -0.00000000000E+00 -0.56090998826E+02  0.56090998826E+02  0.00000000000E+00 0. -1.
         24    2    1    2    0    0  0.32636788125E+02 -0.22664447025E+02  0.19885563214E+02  0.93600739821E+02  0.82382193298E+02 0.  0.
         25    2    1    2    0    0  0.24919921037E+02 -0.18690349469E+02  0.25172896755E+03  0.28281656183E+03  0.12508957955E+03 0.  0.
        -24    2    1    2    0    0 -0.57556709162E+02  0.41354796493E+02  0.91557334831E+03  0.92295257508E+03  0.92433250201E+02 0.  0.
        -11    1    3    3    0    0  0.58552036232E+02 -0.12714309747E+02  0.25771269563E+02  0.65223867979E+02  0.00000000000E+00 0.  1.
         12    1    3    3    0    0 -0.25915248107E+02 -0.99501372776E+01 -0.58857063489E+01  0.28376871842E+02  0.00000000000E+00 0. -1.
         11    1    5    5    0    0  0.21675471518E+02 -0.69531972947E+01  0.13854407497E+03  0.14040168705E+03  0.00000000000E+00 0. -1.
        -12    1    5    5    0    0 -0.79232180679E+02  0.48307993788E+02  0.77702927335E+03  0.78255088803E+03  0.00000000000E+00 0.  1.
          5    1    4    4  501    0  0.40623940221E+01 -0.41761862426E+02  0.16145313424E+02  0.45151962793E+02  0.41800000000E+01 0. -1.
         -5    1    4    4    0  501  0.20857527014E+02  0.23071512957E+02  0.23558365413E+03  0.23766459904E+03  0.41800000000E+01 0. -1.
</event>
<event>
11    1  0.8328696E-009  0.1559437E+03  0.7561462E-02  0.1090956E+00
         22   -1    0    0    0    0  0.00000000000E+00  0.00000000000E+00  0.31588256393E+03  0.31588256393E+03  0.00000000000E+00 0. -1.
         22   -1    0    0    0    0 -0.00000000000E+00 -0.00000000000E+00 -0.24573801609E+03  0.24573801609E+03  0.00000000000E+00 0. -1.
        -24    2    1    2    0    0 -0.30141225025E+01 -0.17601173276E+02 -0.15170613108E+03  0.17359727776E+03  0.82476532442E+02 0.  0.
         25    2    1    2    0    0 -0.55133467476E+02 -0.59603671221E+02  0.21750536438E+02  0.15070916853E+03  0.12509144969E+03 0.  0.
         24    2    1    2    0    0  0.58147589978E+02  0.77204844497E+02  0.20010014248E+03  0.23731413372E+03  0.83283856825E+02 0.  0.
        -13    1    5    5    0    0 -0.10847520798E+02  0.18384392973E+01  0.74934851608E+02  0.75738237054E+02  0.00000000000E+00 0.  1.
         14    1    5    5    0    0  0.68995110776E+02  0.75366405200E+02  0.12516529088E+03  0.16157589667E+03  0.00000000000E+00 0. -1.
         13    1    3    3    0    0  0.19286718136E+02 -0.21652267947E+02 -0.14777512266E+03  0.15059311100E+03  0.00000000000E+00 0. -1.
        -14    1    3    3    0    0 -0.22300840638E+02  0.40510946712E+01 -0.39310084217E+01  0.23004166762E+02  0.00000000000E+00 0.  1.
          5    1    4    4  501    0 -0.78588271107E+02 -0.23253160714E+02 -0.26055386657E+02  0.86099833988E+02  0.41800000000E+01 0. -1.
         -5    1    4    4    0  501  0.23454803632E+02 -0.36350510507E+02  0.47805923096E+02  0.64609334547E+02  0.41800000000E+01 0. -1.
</event>
<event>
11    1  0.8328696E-009  0.1385674E+03  0.7561462E-02  0.1109169E+00
         22   -1    0    0    0    0  0.00000000000E+00  0.00000000000E+00  0.29208873428E+04  0.29208873428E+04  0.00000000000E+00 0. -1.
         22   -1    0    0    0    0 -0.00000000000E+00 -0.00000000000E+00 -0.37516338879E+02  0.37516338879E+02  0.00000000000E+00 0. -1.
        -24    2    1    2    0    0 -0.32791886163E+02 -0.27851844065E+01  0.23519985453E+02  0.73281892119E+02  0.61106308566E+02 0.  0.
         25    2    1    2    0    0  0.65829064601E+02  0.50236469509E+02  0.47402376092E+03  0.49719637800E+03  0.12509413961E+03 0.  0.
         24    2    1    2    0    0 -0.33037178438E+02 -0.47451285103E+02  0.23858272575E+04  0.23879254115E+04  0.81688363248E+02 0.  0.
        -13    1    5    5    0    0 -0.49488167193E+01  0.11862094286E+02  0.70111812335E+02  0.71280195684E+02  0.00000000000E+00 0.  1.
         14    1    5    5    0    0 -0.28088361719E+02 -0.59313379389E+02  0.23157154452E+04  0.23166452158E+04  0.00000000000E+00 0. -1.
         13    1    3    3    0    0 -0.47981844996E+02  0.73242122071E+01  0.77248639322E+01  0.49148500043E+02  0.00000000000E+00 0. -1.
        -14    1    3    3    0    0  0.15189958833E+02 -0.10109396614E+02  0.15795121521E+02  0.24133392076E+02  0.00000000000E+00 0.  1.
          5    1    4    4  501    0  0.64993999095E+02  0.12196483075E+02  0.92644822300E+02  0.11390131525E+03  0.41800000000E+01 0.  1.
         -5    1    4    4    0  501  0.83506550611E+00  0.38039986435E+02  0.38137893862E+03  0.38329506274E+03  0.41800000000E+01 0.  1.
</event>
<event>
11    1  0.8328696E-009  0.1451360E+03  0.7561462E-02  0.1101955E+00
         22   -1    0    0    0    0  0.00000000000E+00  0.00000000000E+00  0.57378442487E+03  0.57378442487E+03  0.00000000000E+00 0. -1.
         22   -1    0    0    0    0 -0.00000000000E+00 -0.00000000000E+00 -0.54881021704E+03  0.54881021704E+03  0.00000000000E+00 0. -1.
        -24    2    1    2    0    0 -0.20974506047E+02 -0.66738071762E+02 -0.41406358439E+03  0.42737971145E+03  0.79440957412E+02 0.  0.
         25    2    1    2    0    0  0.11812825819E+02  0.10375150416E+03 -0.71694169457E+02  0.17801516672E+03  0.12508168603E+03 0.  0.
         24    2    1    2    0    0  0.91616802282E+01 -0.37013432396E+02  0.51073196169E+03  0.51719976374E+03  0.72073076532E+02 0.  0.
        -11    1    5    5    0    0 -0.31178701585E+02 -0.97513660574E+01  0.22221645443E+03  0.22460488239E+03  0.00000000000E+00 0.  1.
         12    1    5    5    0    0  0.40340381813E+02 -0.27262066339E+02  0.28851550725E+03  0.29259488135E+03  0.00000000000E+00 0. -1.
         11    1    3    3    0    0  0.20812384275E+02 -0.61183018734E+01 -0.19653742138E+03  0.19773099646E+03  0.00000000000E+00 0. -1.
        -12    1    3    3    0    0 -0.41786890322E+02 -0.60619769888E+02 -0.21752616301E+03  0.22964871500E+03  0.00000000000E+00 0.  1.
          5    1    4    4  501    0 -0.80201817912E+01 -0.15914064348E+02 -0.51910727159E+02  0.55043407909E+02  0.41800000000E+01 0.  1.
         -5    1    4    4    0  501  0.19833007610E+02  0.11966556851E+03 -0.19783442298E+02  0.12297175881E+03  0.41800000000E+01 0.  1.
</event>
<event>
11    1  0.8328696E-009  0.2353854E+03  0.7561462E-02  0.1031986E+00
         22   -1    0    0    0    0  0.00000000000E+00  0.00000000000E+00  0.68296936584E+02  0.68296936584E+02  0.00000000000E+00 0. -1.
         22   -1    0    0    0    0 -0.00000000000E+00 -0.00000000000E+00 -0.20333160801E+04  0.20333160801E+04  0.00000000000E+00 0. -1.
        -24    2    1    2    0    0  0.41909586170E+02  0.46354491707E+02 -0.11048044195E+04  0.11106437173E+04  0.95034251690E+02 0.  0.
         25    2    1    2    0    0 -0.18657514954E+03 -0.15609517974E+03 -0.62900029581E+03  0.68590425922E+03  0.12508912468E+03 0.  0.
         24    2    1    2    0    0  0.14466556337E+03  0.10974068804E+03 -0.23121442821E+03  0.30506504023E+03  0.81445829383E+02 0.  0.
        -13    1    5    5    0    0  0.36786887544E+02 -0.50500187577E+01 -0.21941308203E+02  0.43130021913E+02  0.00000000000E+00 0.  1.
         14    1    5    5    0    0  0.10787867582E+03  0.11479070679E+03 -0.20927312000E+03  0.26193501831E+03  0.00000000000E+00 0. -1.
         11    1    3    3    0    0  0.23029766991E+02  0.66222288041E+02 -0.99512007654E+03  0.99758695277E+03  0.00000000000E+00 0. -1.
        -12    1    3    3    0    0  0.18879819179E+02 -0.19867796334E+02 -0.10968434298E+03  0.11305676450E+03  0.00000000000E+00 0.  1.
          5    1    4    4  501    0  0.27052292500E+01  0.12534136404E+02 -0.80754034213E+02  0.81872518481E+02  0.41800000000E+01 0.  1.
         -5    1    4    4    0  501 -0.18928037879E+03 -0.16862931615E+03 -0.54824626160E+03  0.60403174074E+03  0.41800000000E+01 0.  1.
</event>
<event>
11    1  0.8328696E-009  0.6708138E+03  0.7561462E-02  0.9076456E-01
         22   -1    0    0    0    0  0.00000000000E+00  0.00000000000E+00  0.49590729652E+03  0.49590729652E+03  0.00000000000E+00 0. -1.
         22   -1    0    0    0    0 -0.00000000000E+00 -0.00000000000E+00 -0.12337623928E+04  0.12337623928E+04  0.00000000000E+00 0.  1.
         24    2    1    2    0    0 -0.54883104191E+03  0.33555958554E+03 -0.33782727176E+03  0.73105116036E+03  0.80577822722E+02 0.  0.
         25    2    1    2    0    0  0.60239080611E+03 -0.30238285334E+03 -0.50408376114E+03  0.85091592593E+03  0.12508957379E+03 0.  0.
        -24    2    1    2    0    0 -0.53559764203E+02 -0.33176732199E+02  0.10405593658E+03  0.14770260306E+03  0.83779932645E+02 0.  0.
        -13    1    3    3    0    0 -0.14968099478E+03  0.77746609230E+02 -0.51839857301E+02  0.17645482779E+03  0.00000000000E+00 0.  1.
         14    1    3    3    0    0 -0.39915004713E+03  0.25781297631E+03 -0.28598741446E+03  0.55459633257E+03  0.00000000000E+00 0. -1.
         13    1    5    5    0    0 -0.36380322980E+02 -0.54911898499E+02  0.37936089401E+02  0.76013100028E+02  0.00000000000E+00 0. -1.
        -14    1    5    5    0    0 -0.17179441223E+02  0.21735166300E+02  0.66119847177E+02  0.71689503036E+02  0.00000000000E+00 0.  1.
          5    1    4    4  501    0  0.41964742570E+03 -0.24122487435E+03 -0.29652223747E+03  0.56765862242E+03  0.41800000000E+01 0.  1.
         -5    1    4    4    0  501  0.18274338041E+03 -0.61157978994E+02 -0.20756152367E+03  0.28325730351E+03  0.41800000000E+01 0.  1.
</event>
<event>
11    1  0.8328696E-009  0.1451872E+03  0.7561462E-02  0.1101900E+00
         22   -1    0    0    0    0  0.00000000000E+00  0.00000000000E+00  0.10858284967E+04  0.10858284967E+04  0.00000000000E+00 0.  1.
         22   -1    0    0    0    0 -0.00000000000E+00 -0.00000000000E+00 -0.94964985454E+02  0.94964985454E+02  0.00000000000E+00 0.  1.
         24    2    1    2    0    0 -0.16483387546E+01 -0.12371235543E+02 -0.26507644787E+02  0.84432833421E+02  0.79186385432E+02 0.  0.
         25    2    1    2    0    0 -0.11497555544E+02 -0.61202685527E+02  0.98550028509E+02  0.17098820292E+03  0.12508754902E+03 0.  0.
        -24    2    1    2    0    0  0.13145894299E+02  0.73573921071E+02  0.91882112757E+03  0.92537244586E+03  0.80597535246E+02 0.  0.
        -11    1    3    3    0    0  0.12407799582E+02 -0.33724701168E+02 -0.41421098835E+02  0.54836268911E+02  0.00000000000E+00 0.  1.
         12    1    3    3    0    0 -0.14056138337E+02  0.21353465625E+02  0.14913454049E+02  0.29596564510E+02  0.00000000000E+00 0. -1.
         13    1    5    5    0    0 -0.23088778056E+02  0.18891575531E+01  0.36768027027E+03  0.36840933992E+03  0.00000000000E+00 0. -1.
        -14    1    5    5    0    0  0.36234672355E+02  0.71684763517E+02  0.55114085730E+03  0.55696310595E+03  0.00000000000E+00 0.  1.
          5    1    4    4  501    0 -0.56561067619E+02 -0.72156817691E+02  0.76440398777E+02  0.11944190083E+03  0.41800000000E+01 0.  1.
         -5    1    4    4    0  501  0.45063512074E+02  0.10954132163E+02  0.22109629732E+02  0.51546302086E+02  0.41800000000E+01 0.  1.
</event>
<event>
11    1  0.8328696E-009  0.1504054E+04  0.7561462E-02  0.8307681E-01
         22   -1    0    0    0    0  0.00000000000E+00  0.00000000000E+00  0.53818642983E+03  0.53818642983E+03  0.00000000000E+00 0. -1.
         22   -1    0    0    0    0 -0.00000000000E+00 -0.00000000000E+00 -0.10508337013E+04  0.10508337013E+04  0.00000000000E+00 0. -1.
        -24    2    1    2    0    0 -0.37661931653E+03 -0.96536203580E+02 -0.29626393962E+03  0.49516982083E+03  0.79116884182E+02 0.  0.
         25    2    1    2    0    0  0.68358291525E+03 -0.97283160438E+02 -0.14846216099E+03  0.71724102533E+03  0.12507621613E+03 0.  0.
         24    2    1    2    0    0 -0.30696359872E+03  0.19381936402E+03 -0.67921170867E+02  0.37660928497E+03  0.73679517278E+02 0.  0.
        -13    1    5    5    0    0 -0.44098347649E+01  0.66311266068E+01  0.96103472368E+01  0.12481075945E+02  0.00000000000E+00 0.  1.
         14    1    5    5    0    0 -0.30255376396E+03  0.18718823741E+03 -0.77531518103E+02  0.36412820903E+03  0.00000000000E+00 0. -1.
         11    1    3    3    0    0 -0.61403686927E+02  0.12812292137E+02 -0.55136855306E+02  0.83514312612E+02  0.00000000000E+00 0. -1.
        -12    1    3    3    0    0 -0.31521562960E+03 -0.10934849572E+03 -0.24112708431E+03  0.41165550822E+03  0.00000000000E+00 0.  1.
          5    1    4    4  501    0  0.24756780638E+02 -0.25589128850E+02 -0.23413713634E+02  0.42817941205E+02  0.41800000000E+01 0.  1.
         -5    1    4    4    0  501  0.65882613461E+03 -0.71694031588E+02 -0.12504844735E+03  0.67442308412E+03  0.41800000000E+01 0.  1.
</event>
<event>
11    1  0.8328696E-009  0.1380248E+03  0.7561462E-02  0.1109784E+00
         22   -1    0    0    0    0  0.00000000000E+00  0.00000000000E+00  0.58741084736E+03  0.58741084736E+03  0.00000000000E+00 0. -1.
         22   -1    0    0    0    0 -0.00000000000E+00 -0.00000000000E+00 -0.15433339127E+04  0.15433339127E+04  0.00000000000E+00 0.  1.
         24    2    1    2    0    0  0.30546644757E+02 -0.26750578547E+02 -0.15166849965E+04  0.15193934967E+04  0.81083465425E+02 0.  0.
         25    2    1    2    0    0 -0.75691737053E+02  0.79158880469E+00  0.31091958908E+03  0.34358030952E+03  0.12508626040E+03 0.  0.
        -24    2    1    2    0    0  0.45145092296E+02  0.25958989742E+02  0.24984234207E+03  0.26777095382E+03  0.81044057843E+02 0.  0.
        -11    1    3    3    0    0  0.40300805161E+02 -0.97805637483E+01 -0.14267747712E+04  0.14273773370E+04  0.00000000000E+00 0.  1.
         12    1    3    3    0    0 -0.97541604037E+01 -0.16970014798E+02 -0.89910225262E+02  0.92016159744E+02  0.00000000000E+00 0. -1.
         11    1    5    5    0    0  0.10862218279E+02 -0.29110818476E+02  0.92582561866E+02  0.97657351489E+02  0.00000000000E+00 0. -1.
        -12    1    5    5    0    0  0.34282874017E+02  0.55069808218E+02  0.15725978020E+03  0.17011360233E+03  0.00000000000E+00 0.  1.
          5    1    4    4  501    0  0.33772032758E+02  0.98297891973E+01  0.92824093231E+02  0.99352703217E+02  0.41800000000E+01 0.  1.
         -5    1    4    4    0  501 -0.10946376981E+03 -0.90382003927E+01  0.21809549585E+03  0.24422760630E+03  0.41800000000E+01 0.  1.
</event>
<event>
11    1  0.8328696E-009  0.1728673E+03  0.7561462E-02  0.1075563E+00
         22   -1    0    0    0    0  0.00000000000E+00  0.00000000000E+00  0.18556047061E+03  0.18556047061E+03  0.00000000000E+00 0.  1.
         22   -1    0    0    0    0 -0.00000000000E+00 -0.00000000000E+00 -0.79186543467E+03  0.79186543467E+03  0.00000000000E+00 0. -1.
         24    2    1    2    0    0 -0.40445455608E+02  0.63044067963E+02 -0.62540930340E+03  0.63502682638E+03  0.80696245629E+02 0.  0.
         25    2    1    2    0    0  0.40547099683E+02  0.74222845736E+02 -0.64056849479E+02  0.16402849388E+03  0.12509583813E+03 0.  0.
        -24    2    1    2    0    0 -0.10164407512E+00 -0.13726691370E+03  0.83161188818E+02  0.17837058501E+03  0.77833581085E+02 0.  0.
        -13    1    3    3    0    0  0.19361687456E+02  0.37192970254E+02 -0.17641077527E+03  0.18132554594E+03  0.00000000000E+00 0.  1.
         14    1    3    3    0    0 -0.59807143064E+02  0.25851097708E+02 -0.44899852813E+03  0.45370128044E+03  0.00000000000E+00 0. -1.
         13    1    5    5    0    0 -0.25370359680E+01 -0.52479552730E+02 -0.87902059448E+01  0.53271077770E+02  0.00000000000E+00 0. -1.
        -14    1    5    5    0    0  0.24353918929E+01 -0.84787360969E+02  0.91951394762E+02  0.12509950724E+03  0.00000000000E+00 0.  1.
          5    1    4    4  501    0 -0.41414423171E+02  0.47460651258E+02 -0.38757008413E+02  0.74075947281E+02  0.41800000000E+01 0.  1.
         -5    1    4    4    0  501  0.81961522853E+02  0.26762194478E+02 -0.25299841066E+02  0.89952546599E+02  0.41800000000E+01 0.  1.
</event>
<event>
11    1  0.8328696E-009  0.2063150E+03  0.7561462E-02  0.1050146E+00
         22   -1    0    0    0    0  0.00000000000E+00  0.00000000000E+00  0.12362417695E+04  0.12362417695E+04  0.00000000000E+00 0.  1.
         22   -1    0    0    0    0 -0.00000000000E+00 -0.00000000000E+00 -0.32421579538E+03  0.32421579538E+03  0.00000000000E+00 0. -1.
         24    2    1    2    0    0 -0.16695439324E+02 -0.12425465215E+03 -0.51393724102E+02  0.15731307640E+03  0.79925795925E+02 0.  0.
         25    2    1    2    0    0 -0.32961174884E+02  0.22113300149E+03 -0.13973674523E+03  0.29182221292E+03  0.12509037767E+03 0.  0.
        -24    2    1    2    0    0  0.49656614208E+02 -0.96878349345E+02  0.11031564435E+04  0.11113222756E+04  0.78942178243E+02 0.  0.
        -11    1    3    3    0    0 -0.31437417852E+02 -0.13973781113E+02 -0.26176098050E+02  0.43229225171E+02  0.00000000000E+00 0.  1.
         12    1    3    3    0    0  0.14741978528E+02 -0.11028087103E+03 -0.25217626052E+02  0.11408385123E+03  0.00000000000E+00 0. -1.
         13    1    5    5    0    0  0.53255865481E+02 -0.55890647242E+02  0.42754302051E+03  0.43445711646E+03  0.00000000000E+00 0. -1.
        -14    1    5    5    0    0 -0.35992512725E+01 -0.40987702103E+02  0.67561342295E+03  0.67686515910E+03  0.00000000000E+00 0.  1.
          5    1    4    4  501    0  0.66192792810E+01 -0.12283378656E+02 -0.24456012396E+02  0.28465157504E+02  0.41800000000E+01 0. -1.
         -5    1    4    4    0  501 -0.39580454165E+02  0.23341638015E+03 -0.11528073284E+03  0.26335705541E+03  0.41800000000E+01 0. -1.
</event>
<event>
11    1  0.8328696E-009  0.1562861E+03  0.7561462E-02  0.1090623E+00
         22   -1    0    0    0    0  0.00000000000E+00  0.00000000000E+00  0.12097320138E+03  0.12097320138E+03  0.00000000000E+00 0.  1.
         22   -1    0    0    0    0 -0.00000000000E+00 -0.00000000000E+00 -0.28507534773E+04  0.28507534773E+04  0.00000000000E+00 0.  1.
        -24    2    1    2    0    0  0.91624115046E+02 -0.12444277640E+02 -0.26313279640E+04  0.26341987937E+04  0.81034512031E+02 0.  0.
         25    2    1    2    0    0 -0.14396055038E+03  0.75815490942E+02 -0.81691703076E+02  0.22089192413E+03  0.12508828508E+03 0.  0.
         24    2    1    2    0    0  0.52336435334E+02 -0.63371213303E+02 -0.16760608789E+02  0.11663596078E+03  0.81043298306E+02 0.  0.
        -13    1    5    5    0    0  0.12485960400E+02 -0.15763724679E+02  0.31930329634E+02  0.37735131819E+02  0.00000000000E+00 0.  1.
         14    1    5    5    0    0  0.39850474934E+02 -0.47607488623E+02 -0.48690938424E+02  0.78900828957E+02  0.00000000000E+00 0. -1.
         13    1    3    3    0    0  0.48166967423E+02 -0.30322405041E+02 -0.70365351818E+03  0.70595168294E+03  0.00000000000E+00 0. -1.
        -14    1    3    3    0    0  0.43457147623E+02  0.17878127401E+02 -0.19276744459E+04  0.19282471108E+04  0.00000000000E+00 0.  1.
          5    1    4    4  501    0 -0.32961888922E+02 -0.22545791743E+02 -0.58152386425E+02  0.70668035868E+02  0.41800000000E+01 0.  1.
         -5    1    4    4    0  501 -0.11099866146E+03  0.98361282686E+02 -0.23539316651E+02  0.15022388827E+03  0.41800000000E+01 0.  1.
</event>
<event>
11    1  0.8328696E-009  0.1349354E+03  0.7561462E-02  0.1113349E+00
         22   -1    0    0    0    0  0.00000000000E+00  0.00000000000E+00  0.80819794947E+02  0.80819794947E+02  0.00000000000E+00 0.  1.
         22   -1    0    0    0    0 -0.00000000000E+00 -0.00000000000E+00 -0.94973702221E+03  0.94973702221E+03  0.00000000000E+00 0.  1.
        -24    2    1    2    0    0  0.78400118979E+01 -0.28855446136E+02 -0.61599984638E+03  0.62209606994E+03  0.81569644646E+02 0.  0.
         25    2    1    2    0    0  0.42967542428E+01 -0.23688276595E+02 -0.27999432613E+03  0.30761045206E+03  0.12509105087E+03 0.  0.
         24    2    1    2    0    0 -0.12136766141E+02  0.52543722731E+02  0.27076945245E+02  0.10085029516E+03  0.80805180404E+02 0.  0.
        -13    1    5    5    0    0 -0.29457144347E+02  0.61594091487E+02  0.38330489850E+02  0.78299309775E+02  0.00000000000E+00 0.  1.
         14    1    5    5    0    0  0.17320378206E+02 -0.90503687566E+01 -0.11253544605E+02  0.22550985389E+02  0.00000000000E+00 0. -1.
         13    1    3    3    0    0  0.17521032862E+02  0.22238322240E+02 -0.11624670003E+03  0.11964457713E+03  0.00000000000E+00 0. -1.
        -14    1    3    3    0    0 -0.96810209644E+01 -0.51093768376E+02 -0.49975314636E+03  0.50245149281E+03  0.00000000000E+00 0.  1.
          5    1    4    4  501    0 -0.30023583983E+02 -0.42854446371E+02 -0.25608906102E+03  0.26141346320E+03  0.41800000000E+01 0.  1.
         -5    1    4    4    0  501  0.34320338226E+02  0.19166169776E+02 -0.23905265110E+02  0.46196988860E+02  0.41800000000E+01 0.  1.
</event>
<event>
11    1  0.8328696E-009  0.1506556E+03  0.7561462E-02  0.1096211E+00
         22   -1    0    0    0    0  0.00000000000E+00  0.00000000000E+00  0.23197238756E+04  0.23197238756E+04  0.00000000000E+00 0. -1.
         22   -1    0    0    0    0 -0.00000000000E+00 -0.00000000000E+00 -0.16550315037E+04  0.16550315037E+04  0.00000000000E+00 0. -1.
         24    2    1    2    0    0 -0.96943244591E+01  0.69323776461E+02 -0.15627265055E+04  0.15664177888E+04  0.81552388492E+02 0.  0.
         25    2    1    2    0    0  0.26147760034E+02  0.14124345308E+02 -0.42483654727E+02  0.13541524000E+03  0.12509685775E+03 0.  0.
        -24    2    1    2    0    0 -0.16453435574E+02 -0.83448121769E+02  0.22699025322E+04  0.22729223505E+04  0.80524536783E+02 0.  0.
        -13    1    3    3    0    0 -0.32365304205E+02  0.23153218273E+02 -0.29793975162E+03  0.30058556191E+03  0.00000000000E+00 0.  1.
         14    1    3    3    0    0  0.22670979746E+02  0.46170558188E+02 -0.12647867539E+04  0.12658322269E+04  0.00000000000E+00 0. -1.
         13    1    5    5    0    0 -0.22914210940E+02 -0.24487182846E+02  0.16126975689E+04  0.16130462275E+04  0.00000000000E+00 0. -1.
        -14    1    5    5    0    0  0.64607753658E+01 -0.58960938923E+02  0.65720496331E+03  0.65987612302E+03  0.00000000000E+00 0.  1.
          5    1    4    4  501    0  0.68468208184E+02  0.20402371461E+02  0.45331945966E+01  0.71708957226E+02  0.41800000000E+01 0.  1.
         -5    1    4    4    0  501 -0.42320448150E+02 -0.62780261535E+01 -0.47016849324E+02  0.63706282770E+02  0.41800000000E+01 0.  1.
</event>
<event>
11    1  0.8328696E-009  0.2110726E+03  0.7561462E-02  0.1046959E+00
         22   -1    0    0    0    0  0.00000000000E+00  0.00000000000E+00  0.13951848328E+04  0.13951848328E+04  0.00000000000E+00 0. -1.
         22   -1    0    0    0    0 -0.00000000000E+00 -0.00000000000E+00 -0.57582798373E+03  0.57582798373E+03  0.00000000000E+00 0.  1.
        -24    2    1    2    0    0  0.33847863925E+02 -0.19574443107E+02 -0.51425346644E+03  0.52198530512E+03  0.80518285530E+02 0.  0.
         25    2    1    2    0    0  0.12682011853E+03 -0.50251917264E+02  0.12121967499E+03  0.22125041236E+03  0.12509571420E+03 0.  0.
         24    2    1    2    0    0 -0.16066798245E+03  0.69826360371E+02  0.12123906405E+04  0.12277770991E+04  0.82798662827E+02 0.  0.
        -11    1    5    5    0    0 -0.48586119786E+02 -0.14714027408E+02  0.24053208578E+03  0.24583083193E+03  0.00000000000E+00 0.  1.
         12    1    5    5    0    0 -0.11208186266E+03  0.84540387779E+02  0.97185855477E+03  0.98194626716E+03  0.00000000000E+00 0. -1.
         11    1    3    3    0    0 -0.16978799510E+02  0.18594454043E+02 -0.17861858500E+03  0.18038467857E+03  0.00000000000E+00 0. -1.
        -12    1    3    3    0    0  0.50826663435E+02 -0.38168897150E+02 -0.33563488143E+03  0.34160062655E+03  0.00000000000E+00 0.  1.
          5    1    4    4  501    0  0.13911607171E+03 -0.11307113414E+02  0.11241327578E+03  0.17926335151E+03  0.41800000000E+01 0. -1.
         -5    1    4    4    0  501 -0.12295953186E+02 -0.38944803850E+02  0.88063992142E+01  0.41987060850E+02  0.41800000000E+01 0. -1.
</event>
<event>
11    1  0.8328696E-009  0.1303160E+03  0.7561462E-02  0.1118881E+00
         22   -1    0    0    0    0  0.00000000000E+00  0.00000000000E+00  0.10505727894E+04  0.10505727894E+04  0.00000000000E+00 0. -1.
         22   -1    0    0    0    0 -0.00000000000E+00 -0.00000000000E+00 -0.70721282474E+03  0.70721282474E+03  0.00000000000E+00 0. -1.
        -24    2    1    2    0    0 -0.95364617311E+01  0.27937881616E+01 -0.67181253935E+03  0.67650612009E+03  0.78928405191E+02 0.  0.
         25    2    1    2    0    0 -0.75405728611E+01 -0.35259621177E+02  0.10625318072E+03  0.16803414007E+03  0.12508250355E+03 0.  0.
         24    2    1    2    0    0  0.17077034592E+02  0.32465833016E+02  0.90891932332E+03  0.91324535400E+03  0.80852241000E+02 0.  0.
        -11    1    5    5    0    0  0.28490649759E+02  0.89788983149E+01  0.11251101879E+03  0.11640905071E+03  0.00000000000E+00 0.  1.
         12    1    5    5    0    0 -0.11413615167E+02  0.23486934701E+02  0.79640830453E+03  0.79683630328E+03  0.00000000000E+00 0. -1.
         11    1    3    3    0    0 -0.26967609614E+01 -0.20525198639E+02 -0.60594700734E+03  0.60630052944E+03  0.00000000000E+00 0. -1.
        -12    1    3    3    0    0 -0.68397007697E+01  0.23318986801E+02 -0.65865532006E+02  0.70205590650E+02  0.00000000000E+00 0.  1.
          5    1    4    4  501    0 -0.57039439900E+02 -0.17129790387E+02  0.13413655725E+02  0.61190897875E+02  0.41800000000E+01 0.  1.
         -5    1    4    4    0  501  0.49498867039E+02 -0.18129830790E+02  0.92839524993E+02  0.10684324220E+03  0.41800000000E+01 0.  1.
</event>
<event>
11    1  0.8328696E-009  0.1830789E+03  0.7561462E-02  0.1067179E+00
         22   -1    0    0    0    0  0.00000000000E+00  0.00000000000E+00  0.20146893887E+03  0.20146893887E+03  0.00000000000E+00 0.  1.
         22   -1    0    0    0    0 -0.00000000000E+00 -0.00000000000E+00 -0.20306650324E+04  0.20306650324E+04  0.00000000000E+00 0. -1.
         24    2    1    2    0    0  0.19906666085E+02 -0.12094206230E+03 -0.12140069742E+04  0.12229386254E+04  0.82113886570E+02 0.  0.
         25    2    1    2    0    0  0.54396744924E+02  0.17911307357E+03 -0.77483984911E+03  0.80688714248E+03  0.12509824117E+03 0.  0.
        -24    2    1    2    0    0 -0.74303411009E+02 -0.58171011273E+02  0.15965072970E+03  0.20230820345E+03  0.80841760555E+02 0.  0.
        -11    1    3    3    0    0 -0.17960154737E+01 -0.64944975505E+01 -0.51468322634E+01  0.84790360515E+01  0.00000000000E+00 0.  1.
         12    1    3    3    0    0  0.21702681559E+02 -0.11444756475E+03 -0.12088601419E+04  0.12144595893E+04  0.00000000000E+00 0. -1.
         11    1    5    5    0    0  0.76475717287E+01  0.99519902069E-01  0.60876762174E+02  0.61355321125E+02  0.00000000000E+00 0. -1.
        -12    1    5    5    0    0 -0.81950982738E+02 -0.58270531175E+02  0.98773967526E+02  0.14095288233E+03  0.00000000000E+00 0.  1.
          5    1    4    4  501    0 -0.27569207471E+01  0.14039028406E+03 -0.64122936106E+03  0.65643704828E+03  0.41800000000E+01 0.  1.
         -5    1    4    4    0  501  0.57153665671E+02  0.38722789509E+02 -0.13361048806E+03  0.15045009421E+03  0.41800000000E+01 0.  1.
</event>
<event>
11    1  0.8328696E-009  0.1409370E+04  0.7561462E-02  0.8364658E-01
         22   -1    0    0    0    0  0.00000000000E+00  0.00000000000E+00  0.66272022320E+03  0.66272022320E+03  0.00000000000E+00 0.  1.
         22   -1    0    0    0    0 -0.00000000000E+00 -0.00000000000E+00 -0.39548483391E+04  0.39548483391E+04  0.00000000000E+00 0.  1.
         24    2    1    2    0    0  0.40043092237E+03  0.12493970836E+04 -0.88171118877E+03  0.15828039205E+04  0.80719479009E+02 0.  0.
         25    2    1    2    0    0 -0.49233147358E+03 -0.13711183467E+04 -0.24537295734E+04  0.28563599372E+04  0.12508985058E+03 0.  0.
        -24    2    1    2    0    0  0.91900551217E+02  0.12172126316E+03  0.43312646248E+02  0.17840470467E+03  0.81795330585E+02 0.  0.
        -11    1    3    3    0    0  0.16295111799E+03  0.52701304728E+03 -0.32346810442E+03  0.63947434150E+03  0.00000000000E+00 0.  1.
         12    1    3    3    0    0  0.23747980438E+03  0.72238403628E+03 -0.55824308435E+03  0.94332957898E+03  0.00000000000E+00 0. -1.
         13    1    5    5    0    0  0.13785969239E+02 -0.76195127145E+00 -0.16313379890E+02  0.21371941443E+02  0.00000000000E+00 0. -1.
        -14    1    5    5    0    0  0.78114581978E+02  0.12248321443E+03  0.59626026138E+02  0.15703276323E+03  0.00000000000E+00 0.  1.
          5    1    4    4  501    0 -0.46770266428E+03 -0.11826552213E+04 -0.21535684714E+04  0.25010585336E+04  0.41800000000E+01 0. -1.
         -5    1    4    4    0  501 -0.24628809302E+02 -0.18846312539E+03 -0.30016110197E+03  0.35530140362E+03  0.41800000000E+01 0. -1.
</event>
<event>
11    1  0.8328696E-009  0.1318839E+03  0.7561462E-02  0.1116976E+00
         22   -1    0    0    0    0  0.00000000000E+00  0.00000000000E+00  0.71710711686E+03  0.71710711686E+03  0.00000000000E+00 0.  1.
         22   -1    0    0    0    0 -0.00000000000E+00 -0.00000000000E+00 -0.59253173636E+03  0.59253173636E+03  0.00000000000E+00 0. -1.
        -24    2    1    2    0    0 -0.26602250114E+02  0.31989306455E+02 -0.56450670693E+03  0.57153433946E+03  0.79073912087E+02 0.  0.
         25    2    1    2    0    0  0.17633894478E+02 -0.54280813393E+02  0.20513716563E+03  0.24695411812E+03  0.12509084218E+03 0.  0.
         24    2    1    2    0    0  0.89683556361E+01  0.22291506938E+02  0.48394492180E+03  0.49115039564E+03  0.80303680618E+02 0.  0.
        -11    1    5    5    0    0  0.93040115421E+01  0.17911869162E+02  0.48591664369E+03  0.48633567040E+03  0.00000000000E+00 0.  1.
         12    1    5    5    0    0 -0.33565590601E+00  0.43796377761E+01 -0.19717218925E+01  0.48147252423E+01  0.00000000000E+00 0. -1.
         13    1    3    3    0    0  0.53332859659E+00 -0.12736413437E+02 -0.36686379151E+03  0.36708519746E+03  0.00000000000E+00 0. -1.
        -14    1    3    3    0    0 -0.27135578711E+02  0.44725719892E+02 -0.19764291542E+03  0.20444914201E+03  0.00000000000E+00 0.  1.
          5    1    4    4  501    0 -0.20621534597E+02 -0.84671379365E+02  0.14654267192E+03  0.17054828427E+03  0.41800000000E+01 0. -1.
         -5    1    4    4    0  501  0.38255429075E+02  0.30390565972E+02  0.58594493705E+02  0.76405833850E+02  0.41800000000E+01 0. -1.
</event>
<event>
11    1  0.8328696E-009  0.1371321E+03  0.7561462E-02  0.1110804E+00
         22   -1    0    0    0    0  0.00000000000E+00  0.00000000000E+00  0.16328090891E+04  0.16328090891E+04  0.00000000000E+00 0.  1.
         22   -1    0    0    0    0 -0.00000000000E+00 -0.00000000000E+00 -0.12178808371E+04  0.12178808371E+04  0.00000000000E+00 0. -1.
         24    2    1    2    0    0  0.42597480199E+02 -0.36148239718E+02 -0.11415481540E+04  0.11457114950E+04  0.80008757356E+02 0.  0.
         25    2    1    2    0    0 -0.72679845495E+02  0.18483015303E+02 -0.22770954218E+00  0.14584695735E+03  0.12508917347E+03 0.  0.
        -24    2    1    2    0    0  0.30082365296E+02  0.17665224415E+02  0.15567041155E+04  0.15591314739E+04  0.79663296447E+02 0.  0.
        -13    1    3    3    0    0 -0.13606203518E+02 -0.27121836640E+02 -0.67840557964E+03  0.67908383377E+03  0.00000000000E+00 0.  1.
         14    1    3    3    0    0  0.56203683717E+02 -0.90264030779E+01 -0.46314257436E+03  0.46662766121E+03  0.00000000000E+00 0. -1.
         11    1    5    5    0    0 -0.16217057803E+02 -0.19180011292E+02  0.30629134985E+03  0.30731947024E+03  0.00000000000E+00 0. -1.
        -12    1    5    5    0    0  0.46299423099E+02  0.36845235708E+02  0.12504127656E+04  0.12518120036E+04  0.00000000000E+00 0.  1.
          5    1    4    4  501    0  0.22842378905E+02 -0.24931909552E+02  0.19121960497E+02  0.39070400064E+02  0.41800000000E+01 0.  1.
         -5    1    4    4    0  501 -0.95522224400E+02  0.43414924854E+02 -0.19349670039E+02  0.10677655728E+03  0.41800000000E+01 0.  1.
</event>
<event>
11    1  0.8328696E-009  0.1378101E+03  0.7561462E-02  0.1110029E+00
         22   -1    0    0    0    0  0.00000000000E+00  0.00000000000E+00  0.55129516896E+03  0.55129516896E+03  0.00000000000E+00 0. -1.
         22   -1    0    0    0    0 -0.00000000000E+00 -0.00000000000E+00 -0.33207120357E+03  0.33207120357E+03  0.00000000000E+00 0. -1.
        -24    2    1    2    0    0  0.36677015732E+02  0.20856418663E+02 -0.29743362041E+03  0.31102573234E+03  0.80560871051E+02 0.  0.
         25    2    1    2    0    0 -0.38494186622E+02  0.42243420287E+02  0.23786437268E+03  0.27475978126E+03  0.12508864315E+03 0.  0.
         24    2    1    2    0    0  0.18171708900E+01 -0.63099838950E+02  0.27879321312E+03  0.29758085894E+03  0.82727384457E+02 0.  0.
        -11    1    5    5    0    0  0.62554204131E+01  0.11559517374E+00  0.18063733978E+03  0.18074565601E+03  0.00000000000E+00 0.  1.
         12    1    5    5    0    0 -0.44382495231E+01 -0.63215434124E+02  0.98155873343E+02  0.11683520292E+03  0.00000000000E+00 0. -1.
         11    1    3    3    0    0  0.52257200570E+02 -0.32153918583E+01 -0.25138596054E+03  0.25678016846E+03  0.00000000000E+00 0. -1.
        -12    1    3    3    0    0 -0.15580184838E+02  0.24071810521E+02 -0.46047659870E+02  0.54245563882E+02  0.00000000000E+00 0.  1.
          5    1    4    4  501    0 -0.55099941689E+02  0.57933843213E+01  0.22606819939E+03  0.23279576897E+03  0.41800000000E+01 0. -1.
         -5    1    4    4    0  501  0.16605755067E+02  0.36450035966E+02  0.11796173298E+02  0.41964012293E+02  0.41800000000E+01 0. -1.
</event>
<event>
11    1  0.8328696E-009  0.1380168E+03  0.7561462E-02  0.1109793E+00
         22   -1    0    0    0    0  0.00000000000E+00  0.00000000000E+00  0.93679405706E+03  0.93679405706E+03  0.00000000000E+00 0. -1.
         22   -1    0    0    0    0 -0.00000000000E+00 -0.00000000000E+00 -0.16566171471E+03  0.16566171471E+03  0.00000000000E+00 0.  1.
        -24    2    1    2    0    0  0.44533736875E+02 -0.37685368935E+02 -0.11801706275E+03  0.15451803895E+03  0.80897197152E+02 0.  0.
         25    2    1    2    0    0 -0.95378977605E+01  0.75752618168E+02  0.17904653274E+03  0.23137563436E+03  0.12509033791E+03 0.  0.
         24    2    1    2    0    0 -0.34995839115E+02 -0.38067249233E+02  0.71010287236E+03  0.71656209846E+03  0.80878473022E+02 0.  0.
        -13    1    5    5    0    0  0.17541131298E+02 -0.37015088303E+02  0.23287463884E+03  0.23644958335E+03  0.00000000000E+00 0.  1.
         14    1    5    5    0    0 -0.52536970413E+02 -0.10521609301E+01  0.47722823352E+03  0.48011251511E+03  0.00000000000E+00 0. -1.
         13    1    3    3    0    0  0.16490075651E+02 -0.34254572521E+02 -0.53850167123E+01  0.38396571964E+02  0.00000000000E+00 0. -1.
        -14    1    3    3    0    0  0.28043661224E+02 -0.34307964148E+01 -0.11263204604E+03  0.11612146698E+03  0.00000000000E+00 0.  1.
          5    1    4    4  501    0  0.25179550104E+02 -0.18984517121E+02  0.94372531961E+02  0.99589501568E+02  0.41800000000E+01 0.  1.
         -5    1    4    4    0  501 -0.34717447864E+02  0.94737135290E+02  0.84674000776E+02  0.13178613279E+03  0.41800000000E+01 0.  1.
</event>
<event>
11    1  0.8328696E-009  0.1647032E+03  0.7561462E-02  0.1082735E+00
         22   -1    0    0    0    0  0.00000000000E+00  0.00000000000E+00  0.10645914756E+04  0.10645914756E+04  0.00000000000E+00 0.  1.
         22   -1    0    0    0    0 -0.00000000000E+00 -0.00000000000E+00 -0.53134143341E+03  0.53134143341E+03  0.00000000000E+00 0. -1.
         24    2    1    2    0    0  0.11870103107E+03 -0.46479949654E+02 -0.33888771354E+03  0.37185591513E+03  0.84744431851E+02 0.  0.
         25    2    1    2    0    0 -0.70901191434E+02  0.10256883560E+02 -0.14354000982E+03  0.20342994865E+03  0.12509127461E+03 0.  0.
        -24    2    1    2    0    0 -0.47799839634E+02  0.36223066094E+02  0.10156777655E+04  0.10206470452E+04  0.80759719667E+02 0.  0.
        -13    1    3    3    0    0  0.10476736790E+02  0.13263870721E+02 -0.11386572721E+03  0.11511340545E+03  0.00000000000E+00 0.  1.
         14    1    3    3    0    0  0.10822429428E+03 -0.59743820375E+02 -0.22502198633E+03  0.25674250968E+03  0.00000000000E+00 0. -1.
         11    1    5    5    0    0 -0.38480309225E+02  0.46383622615E+02  0.37428420244E+03  0.37910531366E+03  0.00000000000E+00 0. -1.
        -12    1    5    5    0    0 -0.93195304089E+01 -0.10160556521E+02  0.64139356308E+03  0.64154173155E+03  0.00000000000E+00 0.  1.
          5    1    4    4  501    0  0.19784887700E+02  0.31409891701E+02 -0.86314437535E+02  0.94051462535E+02  0.41800000000E+01 0. -1.
         -5    1    4    4    0  501 -0.90686079134E+02 -0.21153008141E+02 -0.57225572285E+02  0.10937848612E+03  0.41800000000E+01 0. -1.
</event>
<event>
11    1  0.8328696E-009  0.1409357E+03  0.7561462E-02  0.1106518E+00
         22   -1    0    0    0    0  0.00000000000E+00  0.00000000000E+00  0.96328095093E+02  0.96328095093E+02  0.00000000000E+00 0. -1.
         22   -1    0    0    0    0 -0.00000000000E+00 -0.00000000000E+00 -0.14053990500E+04  0.14053990500E+04  0.00000000000E+00 0.  1.
         24    2    1    2    0    0  0.60138246113E+02 -0.73034415952E+01 -0.80413911078E+03  0.81046218370E+03  0.80865894093E+02 0.  0.
         25    2    1    2    0    0 -0.87226734958E+02 -0.50524046139E+02 -0.55522152516E+03  0.57799649176E+03  0.12509124654E+03 0.  0.
        -24    2    1    2    0    0  0.27088488846E+02  0.57827487734E+02  0.50289681048E+02  0.11326846961E+03  0.78885294078E+02 0.  0.
        -11    1    3    3    0    0  0.47923132313E+02  0.23782814854E+02 -0.67348026507E+03  0.67560189190E+03  0.00000000000E+00 0.  1.
         12    1    3    3    0    0  0.12215113799E+02 -0.31086256449E+02 -0.13065884570E+03  0.13486029180E+03  0.00000000000E+00 0. -1.
         13    1    5    5    0    0  0.11608746925E+02 -0.37058734000E+01  0.48271405241E+02  0.49785791816E+02  0.00000000000E+00 0. -1.
        -14    1    5    5    0    0  0.15479741921E+02  0.61533361134E+02  0.20182758073E+01  0.63482677792E+02  0.00000000000E+00 0.  1.
          5    1    4    4  501    0 -0.88417400339E+02 -0.20788345164E+02 -0.53279869639E+03  0.54050135546E+03  0.41800000000E+01 0.  1.
         -5    1    4    4    0  501  0.11906653808E+01 -0.29735700974E+02 -0.22422828767E+02  0.37495136304E+02  0.41800000000E+01 0.  1.
</event>
<event>
11    1  0.8328696E-009  0.1529612E+03  0.7561462E-02  0.1093891E+00
         22   -1    0    0    0    0  0.00000000000E+00  0.00000000000E+00  0.45489604999E+03  0.45489604999E+03  0.00000000000E+00 0.  1.
         22   -1    0    0    0    0 -0.00000000000E+00 -0.00000000000E+00 -0.28044353267E+03  0.28044353267E+03  0.00000000000E+00 0. -1.
         24    2    1    2    0    0 -0.24251469766E+02  0.91093048653E+02 -0.21209639142E+03  0.24648145477E+03  0.82958730649E+02 0.  0.
         25    2    1    2    0    0  0.57215079029E+01 -0.51454197113E+02  0.56335695287E+02  0.14663299721E+03  0.12508898934E+03 0.  0.
        -24    2    1    2    0    0  0.18529961863E+02 -0.39638851540E+02  0.33021321346E+03  0.34222513068E+03  0.78502711351E+02 0.  0.
        -11    1    3    3    0    0  0.82502816918E+00  0.42236818003E+02 -0.20094644642E+02  0.46780596509E+02  0.00000000000E+00 0.  1.
         12    1    3    3    0    0 -0.25076497935E+02  0.48856230650E+02 -0.19200174678E+03  0.19970085826E+03  0.00000000000E+00 0. -1.
         11    1    5    5    0    0  0.24168283800E+02  0.19136497158E+02  0.11237422407E+03  0.11652586709E+03  0.00000000000E+00 0. -1.
        -12    1    5    5    0    0 -0.56383219370E+01 -0.58775348698E+02  0.21783898939E+03  0.22569926359E+03  0.00000000000E+00 0.  1.
          5    1    4    4  501    0  0.34708330123E+02  0.22477187080E+01  0.74918332461E+02  0.82703986349E+02  0.41800000000E+01 0. -1.
         -5    1    4    4    0  501 -0.28986822220E+02 -0.53701915821E+02 -0.18582637174E+02  0.63929010861E+02  0.41800000000E+01 0. -1.
</event>
<event>
11    1  0.8328696E-009  0.1357589E+04  0.7561462E-02  0.8397822E-01
         22   -1    0    0    0    0  0.00000000000E+00  0.00000000000E+00  0.17015936145E+04  0.17015936145E+04  0.00000000000E+00 0. -1.
         22   -1    0    0    0    0 -0.00000000000E+00 -0.00000000000E+00 -0.22521104277E+04  0.22521104277E+04  0.00000000000E+00 0. -1.
         24    2    1    2    0    0  0.51164145846E+03 -0.23806402429E+03 -0.97508113330E+03  0.11294461062E+04  0.80086382284E+02 0.  0.
         25    2    1    2    0    0 -0.14258072923E+04  0.86612818096E+03  0.35415308888E+03  0.17100224345E+04  0.12509138805E+03 0.  0.
        -24    2    1    2    0    0  0.91416583385E+03 -0.62806415667E+03  0.70411231201E+02  0.11142355015E+04  0.79995341359E+02 0.  0.
        -11    1    3    3    0    0  0.17829281230E+03 -0.12326256903E+03 -0.34525408908E+03  0.40765472384E+03  0.00000000000E+00 0.  1.
         12    1    3    3    0    0  0.33334864617E+03 -0.11480145526E+03 -0.62982704422E+03  0.72179138237E+03  0.00000000000E+00 0. -1.
         11    1    5    5    0    0  0.56676267044E+03 -0.43486270840E+03  0.37200823586E+02  0.71533866178E+03  0.00000000000E+00 0. -1.
        -12    1    5    5    0    0  0.34740316341E+03 -0.19320144828E+03  0.33210407615E+02  0.39889683972E+03  0.00000000000E+00 0.  1.
          5    1    4    4  501    0 -0.37254832698E+03  0.28506930534E+03  0.12482814908E+03  0.48544443965E+03  0.41800000000E+01 0.  1.
         -5    1    4    4    0  501 -0.10532589653E+04  0.58105887563E+03  0.22932493980E+03  0.12245779948E+04  0.41800000000E+01 0.  1.
</event>
<event>
11    1  0.8328696E-009  0.1622225E+03  0.7561462E-02  0.1085005E+00
         22   -1    0    0    0    0  0.00000000000E+00  0.00000000000E+00  0.86626914646E+02  0.86626914646E+02  0.00000000000E+00 0. -1.
         22   -1    0    0    0    0 -0.00000000000E+00 -0.00000000000E+00 -0.17348844933E+04  0.17348844933E+04  0.00000000000E+00 0.  1.
        -24    2    1    2    0    0 -0.66161308835E+02 -0.78344897809E+02 -0.14452704906E+04  0.14510497593E+04  0.78888346689E+02 0.  0.
         25    2    1    2    0    0  0.95119794778E+02  0.63697986244E+02 -0.22568583975E+03  0.28229205209E+03  0.12509794402E+03 0.  0.
         24    2    1    2    0    0 -0.28958485943E+02  0.14646911565E+02  0.22698751732E+02  0.88169596497E+02  0.78775113391E+02 0.  0.
        -13    1    5    5    0    0  0.73269434562E+01  0.37454622086E+02 -0.28555616058E+01  0.38271230031E+02  0.00000000000E+00 0.  1.
         14    1    5    5    0    0 -0.36285429399E+02 -0.22807710520E+02  0.25554313338E+02  0.49898366466E+02  0.00000000000E+00 0. -1.
         11    1    3    3    0    0  0.17560375369E+02 -0.23224612653E+02 -0.33716206226E+03  0.33841691099E+03  0.00000000000E+00 0. -1.
        -12    1    3    3    0    0 -0.83721684204E+02 -0.55120285157E+02 -0.11081084284E+04  0.11126328484E+04  0.00000000000E+00 0.  1.
          5    1    4    4  501    0  0.99968578050E+02  0.45010158832E+02 -0.81279991559E+02  0.13654135060E+03  0.41800000000E+01 0. -1.
         -5    1    4    4    0  501 -0.48487832722E+01  0.18687827412E+02 -0.14440584819E+03  0.14575070149E+03  0.41800000000E+01 0. -1.
</event>
<event>
11    1  0.8328696E-009  0.1260741E+03  0.7561462E-02  0.1124189E+00
         22   -1    0    0    0    0  0.00000000000E+00  0.00000000000E+00  0.11872167085E+04  0.11872167085E+04  0.00000000000E+00 0. -1.
         22   -1    0    0    0    0 -0.00000000000E+00 -0.00000000000E+00 -0.52066119562E+03  0.52066119562E+03  0.00000000000E+00 0.  1.
         24    2    1    2    0    0  0.23656525089E+02 -0.16355828433E+02 -0.49721481806E+03  0.50453971702E+03  0.80688329051E+02 0.  0.
         25    2    1    2    0    0 -0.22323124111E+02  0.30229552001E+02  0.22457399597E+03  0.25979439145E+03  0.12508996154E+03 0.  0.
        -24    2    1    2    0    0 -0.13334009772E+01 -0.13873723568E+02  0.93919633495E+03  0.94354379564E+03  0.89391725214E+02 0.  0.
        -11    1    3    3    0    0  0.35630638473E+02 -0.20503959923E+02 -0.48564020313E+03  0.48737702210E+03  0.00000000000E+00 0.  1.
         12    1    3    3    0    0 -0.11974113385E+02  0.41481314893E+01 -0.11574614934E+02  0.17162694924E+02  0.00000000000E+00 0. -1.
         11    1    5    5    0    0  0.27272549992E+01 -0.44867480643E+02  0.78078544369E+03  0.78207828114E+03  0.00000000000E+00 0. -1.
        -12    1    5    5    0    0 -0.40606559764E+01  0.30993757075E+02  0.15841089126E+03  0.16146551451E+03  0.00000000000E+00 0.  1.
          5    1    4    4  501    0  0.37461287277E+02 -0.27158453593E+02  0.97887816081E+02  0.10835324907E+03  0.41800000000E+01 0. -1.
         -5    1    4    4    0  501 -0.59784411389E+02  0.57388005594E+02  0.12668617989E+03  0.15144114238E+03  0.41800000000E+01 0. -1.
</event>
<event>
11    1  0.8328696E-009  0.1535094E+03  0.7561462E-02  0.1093346E+00
         22   -1    0    0    0    0  0.00000000000E+00  0.00000000000E+00  0.13975213096E+04  0.13975213096E+04  0.00000000000E+00 0. -1.
         22   -1    0    0    0    0 -0.00000000000E+00 -0.00000000000E+00 -0.24337155348E+03  0.24337155348E+03  0.00000000000E+00 0. -1.
         24    2    1    2    0    0  0.58248967279E+02 -0.41978723351E+02 -0.10505197754E+03  0.14800566479E+03  0.75594996022E+02 0.  0.
         25    2    1    2    0    0 -0.59631099337E+02  0.12993695037E+03 -0.35058733459E+02  0.19317429806E+03  0.12509082923E+03 0.  0.
        -24    2    1    2    0    0  0.13821320578E+01 -0.87958227022E+02  0.12942604671E+04  0.12997129002E+04  0.80030658352E+02 0.  0.
        -11    1    3    3    0    0  0.51653630165E+02 -0.51008617328E+02 -0.41791650428E+02  0.83764661979E+02  0.00000000000E+00 0.  1.
         12    1    3    3    0    0  0.65953371135E+01  0.90298939767E+01 -0.63260327108E+02  0.64241002815E+02  0.00000000000E+00 0. -1.
         13    1    5    5    0    0 -0.33905890426E+02 -0.58223421865E+02  0.94797327131E+03  0.95036461391E+03  0.00000000000E+00 0. -1.
        -14    1    5    5    0    0  0.35288022484E+02 -0.29734805157E+02  0.34628719578E+03  0.34934828628E+03  0.00000000000E+00 0.  1.
          5    1    4    4  501    0 -0.23150655293E+02 -0.73233088303E+00 -0.51333097172E+02  0.56471660276E+02  0.41800000000E+01 0.  1.
         -5    1    4    4    0  501 -0.36480444043E+02  0.13066928126E+03  0.16274363713E+02  0.13670263778E+03  0.41800000000E+01 0.  1.
</event>
<event>
11    1  0.8328696E-009  0.1539663E+03  0.7561462E-02  0.1092894E+00
         22   -1    0    0    0    0  0.00000000000E+00  0.00000000000E+00  0.26663075029E+03  0.26663075029E+03  0.00000000000E+00 0.  1.
         22   -1    0    0    0    0 -0.00000000000E+00 -0.00000000000E+00 -0.11650350480E+04  0.11650350480E+04  0.00000000000E+00 0. -1.
        -24    2    1    2    0    0  0.13553139351E+01  0.72183945119E+02 -0.10050225261E+04  0.10111310786E+04  0.84281796228E+02 0.  0.
         25    2    1    2    0    0  0.13798149977E+02 -0.15294835081E+03 -0.70138363110E+02  0.21011998331E+03  0.12508968962E+03 0.  0.
         24    2    1    2    0    0 -0.15153463912E+02  0.80764405690E+02  0.17675659158E+03  0.21041473638E+03  0.79239838001E+02 0.  0.
        -11    1    5    5    0    0 -0.47564577116E+02  0.43431879403E+02  0.92305450727E+02  0.11255671183E+03  0.00000000000E+00 0.  1.
         12    1    5    5    0    0  0.32411113204E+02  0.37332526287E+02  0.84451140852E+02  0.97858024552E+02  0.00000000000E+00 0. -1.
         13    1    3    3    0    0 -0.19955121013E+02  0.18814962043E+02 -0.71192443185E+03  0.71245252916E+03  0.00000000000E+00 0. -1.
        -14    1    3    3    0    0  0.21310434948E+02  0.53368983076E+02 -0.29309809430E+03  0.29867854941E+03  0.00000000000E+00 0.  1.
          5    1    4    4  501    0  0.41640899159E+02 -0.66560408741E+02 -0.87479642192E+02  0.11761978019E+03  0.41800000000E+01 0.  1.
         -5    1    4    4    0  501 -0.27842749182E+02 -0.86387942067E+02  0.17341279082E+02  0.92500203118E+02  0.41800000000E+01 0.  1.
</event>
<event>
11    1  0.8328696E-009  0.1549799E+03  0.7561462E-02  0.1091896E+00
         22   -1    0    0    0    0  0.00000000000E+00  0.00000000000E+00  0.42812772640E+03  0.42812772640E+03  0.00000000000E+00 0. -1.
         22   -1    0    0    0    0 -0.00000000000E+00 -0.00000000000E+00 -0.15338160932E+04  0.15338160932E+04  0.00000000000E+00 0.  1.
         24    2    1    2    0    0 -0.76419129926E+02  0.49588650773E+02 -0.14156666623E+04  0.14208771749E+04  0.80504221725E+02 0.  0.
         25    2    1    2    0    0  0.78011960190E+02 -0.64261616057E+02 -0.52766093974E+02  0.16925247999E+03  0.12508685014E+03 0.  0.
        -24    2    1    2    0    0 -0.15928302640E+01  0.14672965284E+02  0.36274438948E+03  0.37181416470E+03  0.80277319029E+02 0.  0.
        -11    1    3    3    0    0 -0.48051611967E+02  0.50530068346E+02 -0.12966240271E+04  0.12984976368E+04  0.00000000000E+00 0.  1.
         12    1    3    3    0    0 -0.28367517958E+02 -0.94141757223E+00 -0.11904263517E+03  0.12237953804E+03  0.00000000000E+00 0. -1.
         11    1    5    5    0    0  0.10051457401E+02  0.46357569462E+02  0.19278473331E+03  0.19853465551E+03  0.00000000000E+00 0. -1.
        -12    1    5    5    0    0 -0.11644287665E+02 -0.31684604177E+02  0.16995965617E+03  0.17327950918E+03  0.00000000000E+00 0.  1.
          5    1    4    4  501    0  0.10668944577E+03 -0.64946123339E+02 -0.61072985614E+02  0.13909715578E+03  0.41800000000E+01 0. -1.
         -5    1    4    4    0  501 -0.28677485576E+02  0.68450728113E+00  0.83068916406E+01  0.30155324205E+02  0.41800000000E+01 0. -1.
</event>
<event>
11    1  0.8328696E-009  0.1341319E+03  0.7561462E-02  0.1114294E+00
         22   -1    0    0    0    0  0.00000000000E+00  0.00000000000E+00  0.23532435414E+03  0.23532435414E+03  0.00000000000E+00 0. -1.
         22   -1    0    0    0    0 -0.00000000000E+00 -0.00000000000E+00 -0.76424201415E+03  0.76424201415E+03  0.00000000000E+00 0. -1.
        -24    2    1    2    0    0  0.16770185752E+02  0.26431912651E+02 -0.46461050173E+03  0.47260934833E+03  0.80726654089E+02 0.  0.
         25    2    1    2    0    0 -0.23710530961E+02 -0.73340821093E+02 -0.26644521407E+03  0.30427195568E+03  0.12508919056E+03 0.  0.
         24    2    1    2    0    0  0.69403452090E+01  0.46908908442E+02  0.20213805579E+03  0.22268506428E+03  0.80499876851E+02 0.  0.
        -11    1    5    5    0    0 -0.48962487863E+01 -0.22358350157E+02  0.42684575565E+02  0.48433893764E+02  0.00000000000E+00 0.  1.
         12    1    5    5    0    0  0.11836593995E+02  0.69267258599E+02  0.15945348022E+03  0.17425117051E+03  0.00000000000E+00 0. -1.
         11    1    3    3    0    0  0.13951512966E+02  0.36557210271E+01 -0.43455158606E+03  0.43479085772E+03  0.00000000000E+00 0. -1.
        -12    1    3    3    0    0  0.28186727863E+01  0.22776191624E+02 -0.30058915669E+02  0.37818490614E+02  0.00000000000E+00 0.  1.
          5    1    4    4  501    0  0.27823817830E+00 -0.10589342875E+03 -0.18360838454E+03  0.21199765787E+03  0.41800000000E+01 0. -1.
         -5    1    4    4    0  501 -0.23988769139E+02  0.32552607655E+02 -0.82836829528E+02  0.92274297809E+02  0.41800000000E+01 0. -1.
</event>
<event>
11    1  0.8328696E-009  0.1315928E+03  0.7561462E-02  0.1117327E+00
         22   -1    0    0    0    0  0.00000000000E+00  0.00000000000E+00  0.19651637696E+04  0.19651637696E+04  0.00000000000E+00 0.  1.
         22   -1    0    0    0    0 -0.00000000000E+00 -0.00000000000E+00 -0.91370355791E+02  0.91370355791E+02  0.00000000000E+00 0.  1.
        -24    2    1    2    0    0 -0.21618100108E+01 -0.40349443930E+02 -0.56700904670E+02  0.10677994559E+03  0.80958094972E+02 0.  0.
         25    2    1    2    0    0 -0.22537319221E+02  0.52023784086E+02  0.56288957482E+03  0.57940193240E+03  0.12509005139E+03 0.  0.
         24    2    1    2    0    0  0.24699129231E+02 -0.11674340156E+02  0.13676047437E+04  0.13703522474E+04  0.82317737389E+02 0.  0.
        -11    1    5    5    0    0  0.20560732150E+02  0.30013431988E+02  0.93913318769E+03  0.93983758917E+03  0.00000000000E+00 0.  1.
         12    1    5    5    0    0  0.41383970817E+01 -0.41687772145E+02  0.42847155596E+03  0.43051465823E+03  0.00000000000E+00 0. -1.
         11    1    3    3    0    0 -0.40665262273E+01  0.20160130995E+02  0.41090871355E+01  0.20972651582E+02  0.00000000000E+00 0. -1.
        -12    1    3    3    0    0  0.19047162164E+01 -0.60509574924E+02 -0.60809991805E+02  0.85807294007E+02  0.00000000000E+00 0.  1.
          5    1    4    4  501    0 -0.24087599971E+02  0.59294083359E+02  0.11696017766E+03  0.13339099052E+03  0.41800000000E+01 0.  1.
         -5    1    4    4    0  501  0.15502807502E+01 -0.72702992729E+01  0.44592939716E+03  0.44601094188E+03  0.41800000000E+01 0.  1.
</event>
<event>
11    1  0.8328696E-009  0.1892875E+03  0.7561462E-02  0.1062369E+00
         22   -1    0    0    0    0  0.00000000000E+00  0.00000000000E+00  0.18660941015E+03  0.18660941015E+03  0.00000000000E+00 0. -1.
         22   -1    0    0    0    0 -0.00000000000E+00 -0.00000000000E+00 -0.12287022827E+04  0.12287022827E+04  0.00000000000E+00 0. -1.
         24    2    1    2    0    0 -0.50383274252E+02  0.11288866758E+02 -0.73563153362E+03  0.74204163800E+03  0.82499251101E+02 0.  0.
         25    2    1    2    0    0  0.17329840361E+03 -0.73653560217E+02 -0.42004220097E+03  0.47701353609E+03  0.12509707986E+03 0.  0.
        -24    2    1    2    0    0 -0.12291512935E+03  0.62364693459E+02  0.11358086208E+03  0.19625651872E+03  0.81354317000E+02 0.  0.
        -13    1    3    3    0    0  0.16903068914E+01  0.36019822069E+02 -0.38697211551E+03  0.38864855963E+03  0.00000000000E+00 0.  1.
         14    1    3    3    0    0 -0.52073581143E+02 -0.24730955311E+02 -0.34865941811E+03  0.35339307837E+03  0.00000000000E+00 0. -1.
         13    1    5    5    0    0 -0.57407695036E+02 -0.13753309242E+02  0.50308825761E+02  0.77561426714E+02  0.00000000000E+00 0. -1.
        -14    1    5    5    0    0 -0.65507434318E+02  0.76118002701E+02  0.63272036320E+02  0.11869509201E+03  0.00000000000E+00 0.  1.
          5    1    4    4  501    0  0.17001728500E+03 -0.51298293792E+02 -0.41771594722E+03  0.45391791891E+03  0.41800000000E+01 0.  1.
         -5    1    4    4    0  501  0.32811186047E+01 -0.22355266425E+02 -0.23262537493E+01  0.23095617176E+02  0.41800000000E+01 0.  1.
</event>
<event>
11    1  0.8328696E-009  0.2424472E+03  0.7561462E-02  0.1028001E+00
         22   -1    0    0    0    0  0.00000000000E+00  0.00000000000E+00  0.13449576217E+04  0.13449576217E+04  0.00000000000E+00 0.  1.
         22   -1    0    0    0    0 -0.00000000000E+00 -0.00000000000E+00 -0.29456189970E+03  0.29456189970E+03  0.00000000000E+00 0.  1.
        -24    2    1    2    0    0 -0.14928396827E+03  0.13316998198E+03 -0.18997524078E+03  0.28621775498E+03  0.76223774952E+02 0.  0.
         25    2    1    2    0    0  0.18349322710E+03 -0.22849545911E+03  0.46618045221E+03  0.56466798477E+03  0.12508309148E+03 0.  0.
         24    2    1    2    0    0 -0.34209258826E+02  0.95325477125E+02  0.77419051059E+03  0.78863378168E+03  0.11097330733E+03 0.  0.
        -13    1    5    5    0    0 -0.40146238643E+02  0.67320655164E+02  0.73956336861E+03  0.74370543045E+03  0.00000000000E+00 0.  1.
         14    1    5    5    0    0  0.59369798175E+01  0.28004821962E+02  0.34627141973E+02  0.44928351223E+02  0.00000000000E+00 0. -1.
         13    1    3    3    0    0 -0.43730498645E+02  0.16111381809E+02 -0.11298610568E+02  0.47954058601E+02  0.00000000000E+00 0. -1.
        -14    1    3    3    0    0 -0.10555346963E+03  0.11705860018E+03 -0.17867663021E+03  0.23826369637E+03  0.00000000000E+00 0.  1.
          5    1    4    4  501    0 -0.18847970778E+02 -0.14951855747E+02  0.35368275277E+02  0.42978963329E+02  0.41800000000E+01 0. -1.
         -5    1    4    4    0  501  0.20234119788E+03 -0.21354360336E+03  0.43081217693E+03  0.52168902144E+03  0.41800000000E+01 0. -1.
</event>
<event>
11    1  0.8328696E-009  0.1692817E+03  0.7561462E-02  0.1078658E+00
         22   -1    0    0    0    0  0.00000000000E+00  0.00000000000E+00  0.57047875338E+03  0.57047875338E+03  0.00000000000E+00 0.  1.
         22   -1    0    0    0    0 -0.00000000000E+00 -0.00000000000E+00 -0.20557389381E+04  0.20557389381E+04  0.00000000000E+00 0.  1.
         24    2    1    2    0    0  0.88226756793E+02  0.71658312099E+02 -0.19585522072E+04  0.19645670759E+04  0.10333524466E+03 0.  0.
         25    2    1    2    0    0 -0.52614025026E+02 -0.13740572683E+03  0.19102586037E+02  0.19406328050E+03  0.12508828343E+03 0.  0.
        -24    2    1    2    0    0 -0.35612731767E+02  0.65747414729E+02  0.45418943651E+03  0.46758733508E+03  0.82212422931E+02 0.  0.
        -13    1    3    3    0    0  0.10728483235E+03  0.39884096798E+02 -0.16059057889E+04  0.16099795586E+04  0.00000000000E+00 0.  1.
         14    1    3    3    0    0 -0.19058075559E+02  0.31774215301E+02 -0.35264641836E+03  0.35458751725E+03  0.00000000000E+00 0. -1.
         13    1    5    5    0    0  0.72121991056E+01  0.56080234364E+02  0.34982074589E+03  0.35436078050E+03  0.00000000000E+00 0. -1.
        -14    1    5    5    0    0 -0.42824930873E+02  0.96671803649E+01  0.10436869062E+03  0.11322655458E+03  0.00000000000E+00 0.  1.
          5    1    4    4  501    0 -0.75219977410E+02 -0.11752247530E+03  0.52283036895E+02  0.14906564175E+03  0.41800000000E+01 0.  1.
         -5    1    4    4    0  501  0.22605952384E+02 -0.19883251524E+02 -0.33180450858E+02  0.44997638755E+02  0.41800000000E+01 0.  1.
</event>
<event>
11    1  0.8328696E-009  0.2192399E+03  0.7561462E-02  0.1041695E+00
         22   -1    0    0    0    0  0.00000000000E+00  0.00000000000E+00  0.47626818589E+03  0.47626818589E+03  0.00000000000E+00 0. -1.
         22   -1    0    0    0    0 -0.00000000000E+00 -0.00000000000E+00 -0.82264889363E+03  0.82264889363E+03  0.00000000000E+00 0. -1.
         24    2    1    2    0    0 -0.44945789672E+02  0.38042642345E+01 -0.59061399276E+03  0.59787527181E+03  0.81211795770E+02 0.  0.
         25    2    1    2    0    0  0.19818628542E+03 -0.89970526367E+02 -0.12792929213E+03  0.28175701895E+03  0.12509442273E+03 0.  0.
        -24    2    1    2    0    0 -0.15324049575E+03  0.86166262133E+02  0.37216257715E+03  0.41928478875E+03  0.79921686556E+02 0.  0.
        -11    1    3    3    0    0 -0.19621071130E+02  0.32449163409E+02 -0.12328907728E+03  0.12898888019E+03  0.00000000000E+00 0.  1.
         12    1    3    3    0    0 -0.25324718543E+02 -0.28644899174E+02 -0.46732491548E+03  0.46888639162E+03  0.00000000000E+00 0. -1.
         11    1    5    5    0    0 -0.13983170056E+03  0.98877514479E+02  0.35461402592E+03  0.39380296435E+03  0.00000000000E+00 0. -1.
        -12    1    5    5    0    0 -0.13408795193E+02 -0.12711252346E+02  0.17548551226E+02  0.25481824402E+02  0.00000000000E+00 0.  1.
          5    1    4    4  501    0  0.13435711760E+03 -0.11254853395E+03 -0.58827061668E+02  0.18492458768E+03  0.41800000000E+01 0. -1.
         -5    1    4    4    0  501  0.63829167822E+02  0.22578007579E+02 -0.69102230462E+02  0.96832431271E+02  0.41800000000E+01 0. -1.
</event>
<event>
11    1  0.8328696E-009  0.1691168E+03  0.7561462E-02  0.1078803E+00
         22   -1    0    0    0    0  0.00000000000E+00  0.00000000000E+00  0.22257021330E+03  0.22257021330E+03  0.00000000000E+00 0.  1.
         22   -1    0    0    0    0 -0.00000000000E+00 -0.00000000000E+00 -0.66699716111E+03  0.66699716111E+03  0.00000000000E+00 0.  1.
        -24    2    1    2    0    0 -0.80404619494E+02  0.40554614031E+02 -0.28628714031E+03  0.31465778507E+03  0.94549539639E+02 0.  0.
         25    2    1    2    0    0  0.94151627486E+02 -0.14990093396E+03 -0.30666309653E+03  0.37553201024E+03  0.12508883636E+03 0.  0.
         24    2    1    2    0    0 -0.13747007992E+02  0.10934631993E+03  0.14852328904E+03  0.19937757910E+03  0.74475860172E+02 0.  0.
        -11    1    5    5    0    0 -0.96397952043E+01  0.11904705325E+03  0.12150292031E+03  0.17037630758E+03  0.00000000000E+00 0.  1.
         12    1    5    5    0    0 -0.41072127873E+01 -0.97007333174E+01  0.27020368721E+02  0.29001271517E+02  0.00000000000E+00 0. -1.
         13    1    3    3    0    0 -0.30312633393E+02 -0.28557025097E+02 -0.62100898999E+02  0.74772194578E+02  0.00000000000E+00 0. -1.
        -14    1    3    3    0    0 -0.50091986102E+02  0.69111639128E+02 -0.22418624131E+03  0.23988559050E+03  0.00000000000E+00 0.  1.
          5    1    4    4  501    0  0.12370497333E+03 -0.12668496588E+03 -0.26967499632E+03  0.32263613723E+03  0.41800000000E+01 0.  1.
         -5    1    4    4    0  501 -0.29553345844E+02 -0.23215968086E+02 -0.36988100217E+02  0.52895873019E+02  0.41800000000E+01 0.  1.
</event>
<event>
11    1  0.8328696E-009  0.2240197E+03  0.7561462E-02  0.1038728E+00
         22   -1    0    0    0    0  0.00000000000E+00  0.00000000000E+00  0.15028618068E+03  0.15028618068E+03  0.00000000000E+00 0.  1.
         22   -1    0    0    0    0 -0.00000000000E+00 -0.00000000000E+00 -0.28603121471E+04  0.28603121471E+04  0.00000000000E+00 0.  1.
         24    2    1    2    0    0 -0.61589370826E+02 -0.17885628020E+03 -0.18743022761E+04  0.18858734478E+04  0.87902327854E+02 0.  0.
         25    2    1    2    0    0  0.92601790981E+02  0.15581552954E+03 -0.95217140553E+03  0.97730830434E+03  0.12509022856E+03 0.  0.
        -24    2    1    2    0    0 -0.31012420155E+02  0.23040750661E+02  0.11644771525E+03  0.14741657563E+03  0.81724720795E+02 0.  0.
        -11    1    3    3    0    0 -0.43468476667E+02 -0.16787084488E+03 -0.13430146114E+04  0.13541633488E+04  0.00000000000E+00 0.  1.
         12    1    3    3    0    0 -0.18120894159E+02 -0.10985435315E+02 -0.53128766477E+03  0.53171009896E+03  0.00000000000E+00 0. -1.
         13    1    5    5    0    0  0.19453653565E+02 -0.11935792023E+02  0.10864607828E+02  0.25277410300E+02  0.00000000000E+00 0. -1.
        -14    1    5    5    0    0 -0.50466073720E+02  0.34976542683E+02  0.10558310742E+03  0.12213916533E+03  0.00000000000E+00 0.  1.
          5    1    4    4  501    0  0.11383744754E+03  0.16088112719E+03 -0.82624070438E+03  0.84943091274E+03  0.41800000000E+01 0. -1.
         -5    1    4    4    0  501 -0.21235656562E+02 -0.50655976494E+01 -0.12593070115E+03  0.12787739159E+03  0.41800000000E+01 0. -1.
</event>
<event>
11    1  0.8328696E-009  0.1483086E+03  0.7561462E-02  0.1098620E+00
         22   -1    0    0    0    0  0.00000000000E+00  0.00000000000E+00  0.20358740961E+03  0.20358740961E+03  0.00000000000E+00 0. -1.
         22   -1    0    0    0    0 -0.00000000000E+00 -0.00000000000E+00 -0.64970728146E+03  0.64970728146E+03  0.00000000000E+00 0.  1.
         24    2    1    2    0    0 -0.11709143104E+02  0.64463374592E+02 -0.52705141654E+03  0.53712732913E+03  0.80186914890E+02 0.  0.
         25    2    1    2    0    0  0.71704853326E+02 -0.98005593279E+02 -0.43474256860E+01  0.17439272185E+03  0.12508892444E+03 0.  0.
        -24    2    1    2    0    0 -0.59995710222E+02  0.33542218687E+02  0.85278970383E+02  0.14177464009E+03  0.90016554612E+02 0.  0.
        -11    1    3    3    0    0 -0.15977837938E+02  0.79331104335E+02 -0.49461604455E+03  0.50119232530E+03  0.00000000000E+00 0.  1.
         12    1    3    3    0    0  0.42686948337E+01 -0.14867729743E+02 -0.32435371998E+02  0.35935003826E+02  0.00000000000E+00 0. -1.
         13    1    5    5    0    0 -0.68982493669E+01  0.44937034131E+02  0.73155340565E+02  0.86131450318E+02  0.00000000000E+00 0. -1.
        -14    1    5    5    0    0 -0.53097460855E+02 -0.11394815444E+02  0.12123629818E+02  0.55643189774E+02  0.00000000000E+00 0.  1.
          5    1    4    4  501    0  0.19638371669E+02 -0.10520011550E+03 -0.35888041810E+02  0.11295199816E+03  0.41800000000E+01 0. -1.
         -5    1    4    4    0  501  0.52066481657E+02  0.71945222177E+01  0.31540616124E+02  0.61440723690E+02  0.41800000000E+01 0. -1.
</event>
<event>
11    1  0.8328696E-009  0.1600863E+03  0.7561462E-02  0.1086996E+00
         22   -1    0    0    0    0  0.00000000000E+00  0.00000000000E+00  0.68738594668E+02  0.68738594668E+02  0.00000000000E+00 0. -1.
         22   -1    0    0    0    0 -0.00000000000E+00 -0.00000000000E+00 -0.15630293153E+04  0.15630293153E+04  0.00000000000E+00 0. -1.
        -24    2    1    2    0    0  0.46282743989E+02 -0.83676770580E+02 -0.79335686111E+03  0.80294766785E+03  0.78523588225E+02 0.  0.
         25    2    1    2    0    0 -0.77048153687E+02  0.79697315050E+02 -0.72148066209E+03  0.74058726151E+03  0.12508823336E+03 0.  0.
         24    2    1    2    0    0  0.30765409698E+02  0.39794555297E+01  0.20546802548E+02  0.88232980631E+02  0.80003382903E+02 0.  0.
        -13    1    5    5    0    0  0.22661690138E+02  0.32356469421E+02 -0.14801354664E+02  0.42184990378E+02  0.00000000000E+00 0.  1.
         14    1    5    5    0    0  0.81037195598E+01 -0.28377013891E+02  0.35348157212E+02  0.46047990253E+02  0.00000000000E+00 0. -1.
         13    1    3    3    0    0  0.65183447767E+02 -0.50142509859E+02 -0.45131461929E+03  0.45874615938E+03  0.00000000000E+00 0. -1.
        -14    1    3    3    0    0 -0.18900703778E+02 -0.33534260721E+02 -0.34204224182E+03  0.34420150847E+03  0.00000000000E+00 0.  1.
          5    1    4    4  501    0 -0.86374160737E+01 -0.57043217955E+01 -0.41468150900E+03  0.41483173764E+03  0.41800000000E+01 0. -1.
         -5    1    4    4    0  501 -0.68410737613E+02  0.85401636846E+02 -0.30679915309E+03  0.32575552387E+03  0.41800000000E+01 0. -1.
</event>
<event>
11    1  0.8915381E-009  0.2227919E+03  0.7561462E-02  0.1039483E+00
         22   -1    0    0    0    0  0.00000000000E+00  0.00000000000E+00  0.60512009397E+03  0.60512009397E+03  0.00000000000E+00 0.  1.
         22   -1    0    0    0    0 -0.00000000000E+00 -0.00000000000E+00 -0.14695413136E+04  0.14695413136E+04  0.00000000000E+00 0. -1.
         24    2    1    2    0    0  0.22370512438E+02 -0.14021859812E+02 -0.10560787686E+04  0.10595668675E+04  0.81746735353E+02 0.  0.
         25    2    1    2    0    0 -0.98246989012E+02 -0.15416553194E+03 -0.36248122748E+03  0.42480676852E+03  0.12509463704E+03 0.  0.
        -24    2    1    2    0    0  0.75876476574E+02  0.16818739175E+03  0.55413877646E+03  0.59028777159E+03  0.85589901725E+02 0.  0.
        -13    1    3    3    0    0 -0.12252325764E+01 -0.39126117311E+02 -0.82557811946E+03  0.82650564764E+03  0.00000000000E+00 0.  1.
         14    1    3    3    0    0  0.23595745015E+02  0.25104257499E+02 -0.23050064916E+03  0.23306121984E+03  0.00000000000E+00 0. -1.
         13    1    5    5    0    0  0.12309328269E+00 -0.36554059467E+01  0.83265619179E+02  0.83345908609E+02  0.00000000000E+00 0. -1.
        -14    1    5    5    0    0  0.75753383291E+02  0.17184279769E+03  0.47087315728E+03  0.50694186298E+03  0.00000000000E+00 0.  1.
          5    1    4    4  501    0  0.74096069081E+01 -0.58035660669E+02 -0.19999629686E+03  0.20842032373E+03  0.41800000000E+01 0.  1.
         -5    1    4    4    0  501 -0.10565659592E+03 -0.96129871267E+02 -0.16248493062E+03  0.21638644479E+03  0.41800000000E+01 0.  1.
</event>
<event>
11    1  0.8328696E-009  0.1416163E+03  0.7561462E-02  0.1105767E+00
         22   -1    0    0    0    0  0.00000000000E+00  0.00000000000E+00  0.17873407466E+04  0.17873407466E+04  0.00000000000E+00 0. -1.
         22   -1    0    0    0    0 -0.00000000000E+00 -0.00000000000E+00 -0.39528436574E+02  0.39528436574E+02  0.00000000000E+00 0.  1.
        -24    2    1    2    0    0  0.55792196488E+02  0.41113797249E+02  0.84201689359E+02  0.13439824021E+03  0.78548386162E+02 0.  0.
         25    2    1    2    0    0  0.79905643908E+01 -0.71565741862E+02  0.41482920042E+03  0.43923358182E+03  0.12512941041E+03 0.  0.
         24    2    1    2    0    0 -0.63782760879E+02  0.30451944613E+02  0.12487814203E+04  0.12532373612E+04  0.78442885534E+02 0.  0.
        -11    1    5    5    0    0 -0.43015854064E+01  0.38781315290E+02  0.29539063177E+03  0.29795657299E+03  0.00000000000E+00 0.  1.
         12    1    5    5    0    0 -0.59481175473E+02 -0.83293706772E+01  0.95339078852E+03  0.95528078819E+03  0.00000000000E+00 0. -1.
         11    1    3    3    0    0  0.66608683691E+02  0.37910943876E+02  0.92696194573E+02  0.12027693419E+03  0.00000000000E+00 0. -1.
        -12    1    3    3    0    0 -0.10816487203E+02  0.32028533736E+01 -0.84945052139E+01  0.14121306029E+02  0.00000000000E+00 0.  1.
          5    1    4    4  501    0  0.45693151214E+01 -0.10632380312E+03  0.34467727604E+03  0.36075688042E+03  0.41800000000E+01 0. -1.
         -5    1    4    4    0  501  0.34212492695E+01  0.34758061253E+02  0.70151924375E+02  0.78476701397E+02  0.41800000000E+01 0. -1.
</event>
<event>
11    1  0.8328696E-009  0.2357284E+03  0.7561462E-02  0.1031789E+00
         22   -1    0    0    0    0  0.00000000000E+00  0.00000000000E+00  0.62333389461E+03  0.62333389461E+03  0.00000000000E+00 0.  1.
         22   -1    0    0    0    0 -0.00000000000E+00 -0.00000000000E+00 -0.83749446421E+03  0.83749446421E+03  0.00000000000E+00 0. -1.
        -24    2    1    2    0    0  0.19549457188E+03 -0.39966585265E+02 -0.73006147089E+03  0.76157325902E+03  0.84785741728E+02 0.  0.
         25    2    1    2    0    0 -0.16918895736E+03  0.17796189659E+03  0.18828523154E+03  0.33375546118E+03  0.12508412976E+03 0.  0.
         24    2    1    2    0    0 -0.26305614519E+02 -0.13799531133E+03  0.32761566974E+03  0.36549963862E+03  0.80766747313E+02 0.  0.
        -11    1    5    5    0    0 -0.41714160419E+01 -0.13236082097E+03  0.23143143697E+03  0.26664076518E+03  0.00000000000E+00 0.  1.
         12    1    5    5    0    0 -0.22134198477E+02 -0.56344903506E+01  0.96184232772E+02  0.98858873439E+02  0.00000000000E+00 0. -1.
         13    1    3    3    0    0  0.35414583570E+02  0.99317276091E+01 -0.25817019309E+03  0.26077707058E+03  0.00000000000E+00 0. -1.
        -14    1    3    3    0    0  0.16007998831E+03 -0.49898312874E+02 -0.47189127780E+03  0.50079618844E+03  0.00000000000E+00 0.  1.
          5    1    4    4  501    0  0.67161274850E+01  0.63004171624E+02  0.27832493983E+02  0.69330744491E+02  0.41800000000E+01 0.  1.
         -5    1    4    4    0  501 -0.17590508485E+03  0.11495772497E+03  0.16045273756E+03  0.26442471669E+03  0.41800000000E+01 0.  1.
</event>
<event>
11    1  0.8328696E-009  0.1851798E+03  0.7561462E-02  0.1065528E+00
         22   -1    0    0    0    0  0.00000000000E+00  0.00000000000E+00  0.23692909773E+03  0.23692909773E+03  0.00000000000E+00 0.  1.
         22   -1    0    0    0    0 -0.00000000000E+00 -0.00000000000E+00 -0.15741034584E+04  0.15741034584E+04  0.00000000000E+00 0.  1.
        -24    2    1    2    0    0 -0.85617224958E+02 -0.11194264078E+03 -0.14740973644E+04  0.14828441474E+04  0.77474264404E+02 0.  0.
         25    2    1    2    0    0  0.39537801946E+02  0.58819100326E+02 -0.13198907251E+02  0.14437663288E+03  0.12508987418E+03 0.  0.
         24    2    1    2    0    0  0.46079423012E+02  0.53123540456E+02  0.15012191094E+03  0.18381177592E+03  0.79402500270E+02 0.  0.
        -11    1    5    5    0    0  0.51503041841E+02  0.48065352521E+02  0.15799899337E+03  0.17299284187E+03  0.00000000000E+00 0.  1.
         12    1    5    5    0    0 -0.54236188297E+01  0.50581879351E+01 -0.78770824340E+01  0.10818934054E+02  0.00000000000E+00 0. -1.
         11    1    3    3    0    0 -0.23748151284E+02 -0.37092737798E+02 -0.18819160482E+03  0.19327681189E+03  0.00000000000E+00 0. -1.
        -12    1    3    3    0    0 -0.61869073674E+02 -0.74849902985E+02 -0.12859057596E+04  0.12895673355E+04  0.00000000000E+00 0.  1.
          5    1    4    4  501    0 -0.36171320355E+02 -0.75054443350E+01 -0.22092075989E+02  0.43246136618E+02  0.41800000000E+01 0. -1.
         -5    1    4    4    0  501  0.75709122301E+02  0.66324544661E+02  0.88931687382E+01  0.10113049626E+03  0.41800000000E+01 0. -1.
</event>
<event>
11    1  0.8328696E-009  0.1255790E+03  0.7561462E-02  0.1124823E+00
         22   -1    0    0    0    0  0.00000000000E+00  0.00000000000E+00  0.17347620431E+03  0.17347620431E+03  0.00000000000E+00 0.  1.
         22   -1    0    0    0    0 -0.00000000000E+00 -0.00000000000E+00 -0.39231712676E+03  0.39231712676E+03  0.00000000000E+00 0.  1.
         24    2    1    2    0    0  0.93685770013E+01  0.64093810103E+01 -0.31556243189E+03  0.32581893069E+03  0.80308634528E+02 0.  0.
         25    2    1    2    0    0  0.52656701982E+01 -0.18328128488E+02  0.17612583579E+02  0.12775583227E+03  0.12509077505E+03 0.  0.
        -24    2    1    2    0    0 -0.14634247199E+02  0.11918747478E+02  0.79108925867E+02  0.11221856810E+03  0.77321194655E+02 0.  0.
        -11    1    3    3    0    0  0.26247900905E+02  0.44221189934E+01 -0.30422812713E+03  0.30539034166E+03  0.00000000000E+00 0.  1.
         12    1    3    3    0    0 -0.16879323903E+02  0.19872620169E+01 -0.11334304753E+02  0.20428589036E+02  0.00000000000E+00 0. -1.
         11    1    5    5    0    0  0.28355525070E+02  0.16467002919E+01  0.98601424174E+01  0.30066091072E+02  0.00000000000E+00 0. -1.
        -12    1    5    5    0    0 -0.42989772270E+02  0.10272047186E+02  0.69248783450E+02  0.82152477032E+02  0.00000000000E+00 0.  1.
          5    1    4    4  501    0  0.17054146189E+02  0.40372908624E+02  0.43953773184E+02  0.62211110182E+02  0.41800000000E+01 0. -1.
         -5    1    4    4    0  501 -0.11788475991E+02 -0.58701037112E+02 -0.26341189605E+02  0.65544722091E+02  0.41800000000E+01 0. -1.
</event>
<event>
11    1  0.8328696E-009  0.1357054E+03  0.7561462E-02  0.1112451E+00
         22   -1    0    0    0    0  0.00000000000E+00  0.00000000000E+00  0.24009383328E+03  0.24009383328E+03  0.00000000000E+00 0. -1.
         22   -1    0    0    0    0 -0.00000000000E+00 -0.00000000000E+00 -0.29362782898E+03  0.29362782898E+03  0.00000000000E+00 0. -1.
         24    2    1    2    0    0 -0.73976477960E+01 -0.58403288194E+02 -0.18896596657E+03  0.21490864717E+03  0.83737213013E+02 0.  0.
         25    2    1    2    0    0  0.10581048859E+02  0.26867969296E+02 -0.30191768197E+02  0.13188368048E+03  0.12509163018E+03 0.  0.
        -24    2    1    2    0    0 -0.31834010625E+01  0.31535318897E+02  0.16562373906E+03  0.18692933461E+03  0.80664383817E+02 0.  0.
        -13    1    3    3    0    0  0.27569597604E+02 -0.46913304068E+01 -0.10845395230E+03  0.11200156723E+03  0.00000000000E+00 0.  1.
         14    1    3    3    0    0 -0.34967245400E+02 -0.53711957787E+02 -0.80512014272E+02  0.10290707994E+03  0.00000000000E+00 0. -1.
         11    1    5    5    0    0 -0.34639323649E+02  0.27211794460E+02  0.13794401828E+03  0.14480648010E+03  0.00000000000E+00 0. -1.
        -12    1    5    5    0    0  0.31455922586E+02  0.43235244376E+01  0.27679720785E+02  0.42122854510E+02  0.00000000000E+00 0.  1.
          5    1    4    4  501    0  0.24122025946E+02 -0.28898935402E+02 -0.56975782551E+02  0.68415881200E+02  0.41800000000E+01 0. -1.
         -5    1    4    4    0  501 -0.13540977088E+02  0.55766904699E+02  0.26784014354E+02  0.63467799277E+02  0.41800000000E+01 0. -1.
</event>
<event>
11    1  0.8328696E-009  0.1259820E+03  0.7561462E-02  0.1124307E+00
         22   -1    0    0    0    0  0.00000000000E+00  0.00000000000E+00  0.15690120948E+04  0.15690120948E+04  0.00000000000E+00 0.  1.
         22   -1    0    0    0    0 -0.00000000000E+00 -0.00000000000E+00 -0.42463044987E+02  0.42463044987E+02  0.00000000000E+00 0.  1.
        -24    2    1    2    0    0 -0.13516729903E+02 -0.59178914726E+01  0.84280585874E+02  0.12839241914E+03  0.95727074075E+02 0.  0.
         25    2    1    2    0    0  0.11110826911E+02 -0.36204845791E+02  0.20996496709E+03  0.24733137882E+03  0.12511307770E+03 0.  0.
         24    2    1    2    0    0  0.24059029916E+01  0.42122737263E+02  0.12323034968E+04  0.12357513418E+04  0.82032658842E+02 0.  0.
        -11    1    5    5    0    0  0.12260575967E+02  0.40004500209E+02  0.12150428722E+04  0.12157630785E+04  0.00000000000E+00 0.  1.
         12    1    5    5    0    0 -0.98546729750E+01  0.21182370540E+01  0.17260624671E+02  0.19988263348E+02  0.00000000000E+00 0. -1.
         13    1    3    3    0    0 -0.33820954436E+02 -0.94175337551E+01  0.97691694348E+02  0.10380854515E+03  0.00000000000E+00 0. -1.
        -14    1    3    3    0    0  0.20304224534E+02  0.34996422825E+01 -0.13411108474E+02  0.24583873993E+02  0.00000000000E+00 0.  1.
          5    1    4    4  501    0 -0.72452678595E+01 -0.59079468458E+02  0.20936298900E+03  0.21769981871E+03  0.41800000000E+01 0.  1.
         -5    1    4    4    0  501  0.18356094771E+02  0.22874622668E+02  0.60197808981E+00  0.29631560118E+02  0.41800000000E+01 0.  1.
</event>
<event>
11    1  0.8328696E-009  0.1917021E+03  0.7561462E-02  0.1060552E+00
         22   -1    0    0    0    0  0.00000000000E+00  0.00000000000E+00  0.17445113850E+04  0.17445113850E+04  0.00000000000E+00 0.  1.
         22   -1    0    0    0    0 -0.00000000000E+00 -0.00000000000E+00 -0.14795184631E+03  0.14795184631E+03  0.00000000000E+00 0. -1.
        -24    2    1    2    0    0  0.10403374152E+03  0.94460838242E+02 -0.42851002387E+02  0.16472082856E+03  0.74504185263E+02 0.  0.
         25    2    1    2    0    0 -0.12320062924E+03 -0.10905167578E+03  0.20398274743E+03  0.29039099584E+03  0.12508919290E+03 0.  0.
         24    2    1    2    0    0  0.19166887723E+02  0.14590837542E+02  0.14354277936E+04  0.14373514069E+04  0.70326766242E+02 0.  0.
        -13    1    5    5    0    0  0.35124505173E+00  0.10411750303E+02  0.13377279503E+04  0.13377685139E+04  0.00000000000E+00 0.  1.
         14    1    5    5    0    0  0.18815642672E+02  0.41790872390E+01  0.97699843333E+02  0.99582892941E+02  0.00000000000E+00 0. -1.
         11    1    3    3    0    0  0.11515800933E+03  0.78047063622E+02 -0.35483996814E+02  0.14356819036E+03  0.00000000000E+00 0. -1.
        -12    1    3    3    0    0 -0.11124267818E+02  0.16413774621E+02 -0.73670055732E+01  0.21152638202E+02  0.00000000000E+00 0.  1.
          5    1    4    4  501    0 -0.82131224653E+02 -0.28982069308E+02  0.26132244207E+02  0.91026726799E+02  0.41800000000E+01 0.  1.
         -5    1    4    4    0  501 -0.41069404587E+02 -0.80069606477E+02  0.17785050322E+03  0.19936426904E+03  0.41800000000E+01 0.  1.
</event>
<event>
11    1  0.8328696E-009  0.1541083E+03  0.7561462E-02  0.1092753E+00
         22   -1    0    0    0    0  0.00000000000E+00  0.00000000000E+00  0.24475122772E+03  0.24475122772E+03  0.00000000000E+00 0.  1.
         22   -1    0    0    0    0 -0.00000000000E+00 -0.00000000000E+00 -0.52321116612E+03  0.52321116612E+03  0.00000000000E+00 0. -1.
        -24    2    1    2    0    0  0.39857928405E+02 -0.31051156812E+02 -0.35466476631E+03  0.36708476945E+03  0.80070610696E+02 0.  0.
         25    2    1    2    0    0 -0.80513284738E+02 -0.50340708272E+02 -0.10059100509E+03  0.18650130652E+03  0.12509041170E+03 0.  0.
         24    2    1    2    0    0  0.40655356332E+02  0.81391865084E+02  0.17679583300E+03  0.21437631788E+03  0.80143280440E+02 0.  0.
        -11    1    5    5    0    0  0.59993200355E+02  0.76637338408E+02  0.12194576387E+03  0.15602318755E+03  0.00000000000E+00 0.  1.
         12    1    5    5    0    0 -0.19337844023E+02  0.47545266766E+01  0.54850069134E+02  0.58353130330E+02  0.00000000000E+00 0. -1.
         11    1    3    3    0    0  0.99519649801E+01 -0.55290134428E+02 -0.21231587737E+03  0.21962256795E+03  0.00000000000E+00 0. -1.
        -12    1    3    3    0    0  0.29905963425E+02  0.24238977616E+02 -0.14234888895E+03  0.14746220149E+03  0.00000000000E+00 0.  1.
          5    1    4    4  501    0 -0.61957034805E+01 -0.17617513632E+02 -0.10338657366E+03  0.10514285302E+03  0.41800000000E+01 0.  1.
         -5    1    4    4    0  501 -0.74317581257E+02 -0.32723194640E+02  0.27955685689E+01  0.81358453495E+02  0.41800000000E+01 0.  1.
</event>
<event>
11    1  0.8328696E-009  0.1280824E+03  0.7561462E-02  0.1121648E+00
         22   -1    0    0    0    0  0.00000000000E+00  0.00000000000E+00  0.10550920796E+04  0.10550920796E+04  0.00000000000E+00 0.  1.
         22   -1    0    0    0    0 -0.00000000000E+00 -0.00000000000E+00 -0.16735111006E+03  0.16735111006E+03  0.00000000000E+00 0.  1.
         24    2    1    2    0    0 -0.12155037880E+02 -0.24223624021E+02 -0.11241575408E+03  0.14108469291E+03  0.80827346262E+02 0.  0.
         25    2    1    2    0    0  0.57784861007E+01  0.31453526202E+02  0.68126104401E+02  0.14597977049E+03  0.12508481954E+03 0.  0.
        -24    2    1    2    0    0  0.63765517794E+01 -0.72299021809E+01  0.93203061923E+03  0.93537872627E+03  0.78481555058E+02 0.  0.
        -11    1    3    3    0    0 -0.25080680188E+02 -0.43211353090E+02 -0.36786899310E+02  0.62044641311E+02  0.00000000000E+00 0.  1.
         12    1    3    3    0    0  0.12925642308E+02  0.18987729069E+02 -0.75628854766E+02  0.79040051603E+02  0.00000000000E+00 0. -1.
         13    1    5    5    0    0  0.33577154081E+02 -0.10628287996E+02  0.21837194455E+03  0.22119378822E+03  0.00000000000E+00 0. -1.
        -14    1    5    5    0    0 -0.27200602302E+02  0.33983858155E+01  0.71365867468E+03  0.71418493805E+03  0.00000000000E+00 0.  1.
          5    1    4    4  501    0 -0.27210455390E+02  0.65612696608E+02  0.11696598505E+02  0.72109067775E+02  0.41800000000E+01 0.  1.
         -5    1    4    4    0  501  0.32988941491E+02 -0.34159170406E+02  0.56429505895E+02  0.73870702711E+02  0.41800000000E+01 0.  1.
</event>
<event>
11    1  0.8328696E-009  0.1394232E+03  0.7561462E-02  0.1108204E+00
         22   -1    0    0    0    0  0.00000000000E+00  0.00000000000E+00  0.86963054328E+02  0.86963054328E+02  0.00000000000E+00 0.  1.
         22   -1    0    0    0    0 -0.00000000000E+00 -0.00000000000E+00 -0.26830096685E+04  0.26830096685E+04  0.00000000000E+00 0. -1.
        -24    2    1    2    0    0 -0.42628956860E+02  0.39944780481E+02 -0.18397050570E+04  0.18424520276E+04  0.81865522583E+02 0.  0.
         25    2    1    2    0    0  0.94545212018E+02 -0.84060371415E+01 -0.80268564018E+03  0.81790085850E+03  0.12509244107E+03 0.  0.
         24    2    1    2    0    0 -0.51916255158E+02 -0.31538743340E+02  0.46344082998E+02  0.10961983674E+03  0.78604991553E+02 0.  0.
        -11    1    5    5    0    0 -0.42775612079E+02 -0.52813007772E+02  0.52246750561E+02  0.85724498966E+02  0.00000000000E+00 0.  1.
         12    1    5    5    0    0 -0.91406430786E+01  0.21274264432E+02 -0.59026675632E+01  0.23895337775E+02  0.00000000000E+00 0. -1.
         13    1    3    3    0    0 -0.63013211716E+02  0.26409531640E+02 -0.16096463127E+04  0.16110957080E+04  0.00000000000E+00 0. -1.
        -14    1    3    3    0    0  0.20384254856E+02  0.13535248841E+02 -0.23005874434E+03  0.23135631967E+03  0.00000000000E+00 0.  1.
          5    1    4    4  501    0  0.69986036961E+02  0.48367779778E+02 -0.31585059510E+03  0.32713385382E+03  0.41800000000E+01 0.  1.
         -5    1    4    4    0  501  0.24559175057E+02 -0.56773816919E+02 -0.48683504507E+03  0.49076700468E+03  0.41800000000E+01 0.  1.
</event>
<event>
11    1  0.8328696E-009  0.1434940E+03  0.7561462E-02  0.1103718E+00
         22   -1    0    0    0    0  0.00000000000E+00  0.00000000000E+00  0.66955703501E+03  0.66955703501E+03  0.00000000000E+00 0. -1.
         22   -1    0    0    0    0 -0.00000000000E+00 -0.00000000000E+00 -0.17797389584E+03  0.17797389584E+03  0.00000000000E+00 0.  1.
         24    2    1    2    0    0 -0.15243736722E+02  0.18192024185E+02 -0.12385632777E+03  0.14930413588E+03  0.79925051203E+02 0.  0.
         25    2    1    2    0    0 -0.55884229594E+02 -0.25503256968E+01  0.95403453331E+02  0.16696938387E+03  0.12508958775E+03 0.  0.
        -24    2    1    2    0    0  0.71127966316E+02 -0.15641698488E+02  0.52003601360E+03  0.53125741110E+03  0.80579966955E+02 0.  0.
        -11    1    3    3    0    0 -0.33856605532E+02  0.26145892620E+01 -0.12002024516E+03  0.12473157204E+03  0.00000000000E+00 0.  1.
         12    1    3    3    0    0  0.18612868810E+02  0.15577434923E+02 -0.38360826120E+01  0.24572563845E+02  0.00000000000E+00 0. -1.
         13    1    5    5    0    0  0.42579756753E+02  0.82867023363E+01  0.44860249820E+03  0.45069491512E+03  0.00000000000E+00 0. -1.
        -14    1    5    5    0    0  0.28548209563E+02 -0.23928400824E+02  0.71433515402E+02  0.80562495977E+02  0.00000000000E+00 0.  1.
          5    1    4    4  501    0 -0.89803770388E+02  0.23883558451E+02  0.56530250035E+02  0.10884981906E+03  0.41800000000E+01 0. -1.
         -5    1    4    4    0  501  0.33919540794E+02 -0.26433884148E+02  0.38873203296E+02  0.58119564807E+02  0.41800000000E+01 0. -1.
</event>
<event>
11    1  0.8328696E-009  0.1820995E+03  0.7561462E-02  0.1067957E+00
         22   -1    0    0    0    0  0.00000000000E+00  0.00000000000E+00  0.30499417490E+03  0.30499417490E+03  0.00000000000E+00 0. -1.
         22   -1    0    0    0    0 -0.00000000000E+00 -0.00000000000E+00 -0.10086263099E+04  0.10086263099E+04  0.00000000000E+00 0.  1.
         24    2    1    2    0    0  0.21589930016E+01 -0.27107071818E+02 -0.83320591829E+03  0.83747754428E+03  0.79981749861E+02 0.  0.
         25    2    1    2    0    0 -0.40928076313E+02  0.14971919483E+03 -0.82080494138E+02  0.21558108682E+03  0.12508817988E+03 0.  0.
        -24    2    1    2    0    0  0.38769083311E+02 -0.12261212301E+03  0.21165427741E+03  0.26056185371E+03  0.80982540928E+02 0.  0.
        -13    1    3    3    0    0 -0.30075933168E+02  0.12944589238E+02 -0.36053264709E+03  0.36201645511E+03  0.00000000000E+00 0.  1.
         14    1    3    3    0    0  0.32234926170E+02 -0.40051661056E+02 -0.47267327119E+03  0.47546108918E+03  0.00000000000E+00 0. -1.
         13    1    5    5    0    0 -0.19042086928E+02 -0.37801374058E+02  0.10164565646E+03  0.11010624157E+03  0.00000000000E+00 0. -1.
        -14    1    5    5    0    0  0.57811170239E+02 -0.84810748955E+02  0.11000862094E+03  0.15045561214E+03  0.00000000000E+00 0.  1.
          5    1    4    4  501    0 -0.37504293402E+02 -0.76040071196E+01 -0.32964532995E+02  0.50680625326E+02  0.41800000000E+01 0. -1.
         -5    1    4    4    0  501 -0.34237829109E+01  0.15732320195E+03 -0.49115961143E+02  0.16490046149E+03  0.41800000000E+01 0. -1.
</event>
<event>
11    1  0.8328696E-009  0.2138097E+03  0.7561462E-02  0.1045166E+00
         22   -1    0    0    0    0  0.00000000000E+00  0.00000000000E+00  0.14536376819E+04  0.14536376819E+04  0.00000000000E+00 0.  1.
         22   -1    0    0    0    0 -0.00000000000E+00 -0.00000000000E+00 -0.20432180185E+03  0.20432180185E+03  0.00000000000E+00 0.  1.
        -24    2    1    2    0    0  0.13903898465E+01 -0.64102369256E+02 -0.11805741749E+03  0.15605791362E+03  0.79407000011E+02 0.  0.
         25    2    1    2    0    0  0.11909231363E+03  0.18181570843E+03  0.20310494243E+03  0.32271824912E+03  0.12512201917E+03 0.  0.
         24    2    1    2    0    0 -0.12048270348E+03 -0.11771333917E+03  0.11642683551E+04  0.11791833210E+04  0.81117136207E+02 0.  0.
        -11    1    5    5    0    0 -0.12404568410E+03 -0.96753945264E+02  0.86709652333E+03  0.88125197216E+03  0.00000000000E+00 0.  1.
         12    1    5    5    0    0  0.35629806252E+01 -0.20959393906E+02  0.29717183180E+03  0.29793134887E+03  0.00000000000E+00 0. -1.
         11    1    3    3    0    0  0.69982904706E+01 -0.28418202082E+02  0.32869174615E+01  0.29451215688E+02  0.00000000000E+00 0. -1.
        -12    1    3    3    0    0 -0.56079006240E+01 -0.35684167174E+02 -0.12134433495E+03  0.12660669793E+03  0.00000000000E+00 0.  1.
          5    1    4    4  501    0  0.11046406975E+03  0.90940062380E+02  0.17708943859E+03  0.22770715253E+03  0.41800000000E+01 0.  1.
         -5    1    4    4    0  501  0.86282438828E+01  0.90875646045E+02  0.26015503842E+02  0.95011096598E+02  0.41800000000E+01 0.  1.
</event>
<event>
11    1  0.8328696E-009  0.1436555E+03  0.7561462E-02  0.1103544E+00
         22   -1    0    0    0    0  0.00000000000E+00  0.00000000000E+00  0.34558593127E+03  0.34558593127E+03  0.00000000000E+00 0. -1.
         22   -1    0    0    0    0 -0.00000000000E+00 -0.00000000000E+00 -0.42497209732E+03  0.42497209732E+03  0.00000000000E+00 0. -1.
         24    2    1    2    0    0 -0.61608496547E+02 -0.35626453943E+02 -0.35948047078E+03  0.37471331247E+03  0.78224079416E+02 0.  0.
         25    2    1    2    0    0  0.48338801055E+02  0.43890726658E+02  0.46830511706E+02  0.14866924639E+03  0.12508562036E+03 0.  0.
        -24    2    1    2    0    0  0.13269695492E+02 -0.82642727149E+01  0.23326379303E+03  0.24717546974E+03  0.80245452702E+02 0.  0.
        -13    1    3    3    0    0 -0.73522785572E+02 -0.48060668143E+02 -0.31493864360E+03  0.32695837205E+03  0.00000000000E+00 0.  1.
         14    1    3    3    0    0  0.11914289026E+02  0.12434214200E+02 -0.44541827184E+02  0.47754940421E+02  0.00000000000E+00 0. -1.
         11    1    5    5    0    0  0.36221142789E+02  0.13263220194E+02  0.18881887650E+03  0.19271858322E+03  0.00000000000E+00 0. -1.
        -12    1    5    5    0    0 -0.22951447297E+02 -0.21527492909E+02  0.44444916527E+02  0.54456886517E+02  0.00000000000E+00 0.  1.
          5    1    4    4  501    0  0.51974404466E+02  0.30043337824E+01  0.80129654156E+02  0.95648306918E+02  0.41800000000E+01 0.  1.
         -5    1    4    4    0  501 -0.36356034114E+01  0.40886392876E+02 -0.33299142450E+02  0.53020939471E+02  0.41800000000E+01 0.  1.
</event>
<event>
11    1  0.8328696E-009  0.1368157E+03  0.7561462E-02  0.1111167E+00
         22   -1    0    0    0    0  0.00000000000E+00  0.00000000000E+00  0.31097097043E+03  0.31097097043E+03  0.00000000000E+00 0. -1.
         22   -1    0    0    0    0 -0.00000000000E+00 -0.00000000000E+00 -0.56488333693E+03  0.56488333693E+03  0.00000000000E+00 0.  1.
        -24    2    1    2    0    0 -0.34978559801E+02  0.38033450344E+02 -0.39073464824E+03  0.40300481671E+03  0.84078974580E+02 0.  0.
         25    2    1    2    0    0  0.54983769163E+02 -0.52123720251E+02 -0.12851249568E+03  0.19468653900E+03  0.12508912758E+03 0.  0.
         24    2    1    2    0    0 -0.20005209362E+02  0.14090269907E+02  0.26533477743E+03  0.27816295164E+03  0.79833197640E+02 0.  0.
        -13    1    5    5    0    0 -0.85070041557E+01 -0.22847180377E+02  0.25693420404E+02  0.35419127924E+02  0.00000000000E+00 0.  1.
         14    1    5    5    0    0 -0.11498205206E+02  0.36937450284E+02  0.23964135702E+03  0.24274382371E+03  0.00000000000E+00 0. -1.
         11    1    3    3    0    0  0.24686465764E+02  0.12333830774E+02 -0.61292677501E+02  0.67218578449E+02  0.00000000000E+00 0. -1.
        -12    1    3    3    0    0 -0.59665025566E+02  0.25699619570E+02 -0.32944197074E+03  0.33578623826E+03  0.00000000000E+00 0.  1.
          5    1    4    4  501    0  0.35684011616E+02 -0.46223673335E+02  0.57732891067E+01  0.58828393899E+02  0.41800000000E+01 0. -1.
         -5    1    4    4    0  501  0.19299757548E+02 -0.59000469159E+01 -0.13428578479E+03  0.13585814511E+03  0.41800000000E+01 0. -1.
</event>
<event>
11    1  0.8328696E-009  0.2081218E+03  0.7561462E-02  0.1048924E+00
         22   -1    0    0    0    0  0.00000000000E+00  0.00000000000E+00  0.12274578467E+03  0.12274578467E+03  0.00000000000E+00 0. -1.
         22   -1    0    0    0    0 -0.00000000000E+00 -0.00000000000E+00 -0.10109604973E+04  0.10109604973E+04  0.00000000000E+00 0. -1.
         24    2    1    2    0    0  0.14326490525E+03  0.91078928946E+02 -0.77983699960E+03  0.80240223814E+03  0.82966266956E+02 0.  0.
         25    2    1    2    0    0 -0.11703223348E+03 -0.96612841410E+02 -0.13817006890E+03  0.24035347860E+03  0.12509293321E+03 0.  0.
        -24    2    1    2    0    0 -0.26232671776E+02  0.55339124647E+01  0.29792355859E+02  0.90950565232E+02  0.81643392830E+02 0.  0.
        -13    1    3    3    0    0  0.67377240438E+02  0.72708845318E+02 -0.29226562722E+03  0.30861864100E+03  0.00000000000E+00 0.  1.
         14    1    3    3    0    0  0.75887664816E+02  0.18370083627E+02 -0.48757137238E+03  0.49378359714E+03  0.00000000000E+00 0. -1.
         11    1    5    5    0    0 -0.43419387206E+02  0.23179176648E+02  0.40838146886E+02  0.63955231659E+02  0.00000000000E+00 0. -1.
        -12    1    5    5    0    0  0.17186715430E+02 -0.17645264183E+02 -0.11045791027E+02  0.26995333574E+02  0.00000000000E+00 0.  1.
          5    1    4    4  501    0 -0.65476365092E+02 -0.94629400527E+02 -0.27814359456E+02  0.11846091685E+03  0.41800000000E+01 0.  1.
         -5    1    4    4    0  501 -0.51555868385E+02 -0.19834408837E+01 -0.11035570944E+03  0.12189256175E+03  0.41800000000E+01 0.  1.
</event>
<event>
11    1  0.8328696E-009  0.1646915E+03  0.7561462E-02  0.1082746E+00
         22   -1    0    0    0    0  0.00000000000E+00  0.00000000000E+00  0.11386890323E+04  0.11386890323E+04  0.00000000000E+00 0.  1.
         22   -1    0    0    0    0 -0.00000000000E+00 -0.00000000000E+00 -0.25991583875E+03  0.25991583875E+03  0.00000000000E+00 0.  1.
        -24    2    1    2    0    0  0.70428861804E+02 -0.87182428570E+02 -0.21543298577E+03  0.25483002074E+03  0.77239676887E+02 0.  0.
         25    2    1    2    0    0 -0.44193200567E+02  0.33264639084E+02  0.19018401265E+03  0.23426113556E+03  0.12509494705E+03 0.  0.
         24    2    1    2    0    0 -0.26235661237E+02  0.53917789486E+02  0.90402216667E+03  0.90951371474E+03  0.79772686571E+02 0.  0.
        -13    1    5    5    0    0 -0.14402671945E+01  0.63213583455E+02  0.41643009134E+03  0.42120310122E+03  0.00000000000E+00 0.  1.
         14    1    5    5    0    0 -0.24795394043E+02 -0.92957939691E+01  0.48759207533E+03  0.48831061352E+03  0.00000000000E+00 0. -1.
         11    1    3    3    0    0  0.61230194549E+02 -0.14597271325E+02 -0.98948057226E+02  0.11727290857E+03  0.00000000000E+00 0. -1.
        -12    1    3    3    0    0  0.91986672553E+01 -0.72585157245E+02 -0.11648492855E+03  0.13755711217E+03  0.00000000000E+00 0.  1.
          5    1    4    4  501    0 -0.35206839263E+01  0.74992307412E+02  0.13135182258E+03  0.15135063621E+03  0.41800000000E+01 0. -1.
         -5    1    4    4    0  501 -0.40672516640E+02 -0.41727668328E+02  0.58832190070E+02  0.82910499349E+02  0.41800000000E+01 0. -1.
</event>
<event>
11    1  0.8328696E-009  0.1565984E+03  0.7561462E-02  0.1090321E+00
         22   -1    0    0    0    0  0.00000000000E+00  0.00000000000E+00  0.38862011404E+03  0.38862011404E+03  0.00000000000E+00 0. -1.
         22   -1    0    0    0    0 -0.00000000000E+00 -0.00000000000E+00 -0.33618411033E+03  0.33618411033E+03  0.00000000000E+00 0. -1.
         24    2    1    2    0    0  0.90809113531E+02 -0.30122963709E+02 -0.25957007202E+03  0.28831344826E+03  0.81205505430E+02 0.  0.
         25    2    1    2    0    0  0.19662551643E+02  0.68060217728E+02  0.80062463689E+02  0.16454790087E+03  0.12508878613E+03 0.  0.
        -24    2    1    2    0    0 -0.11047166517E+03 -0.37937254019E+02  0.23194361204E+03  0.27194287525E+03  0.80696122463E+02 0.  0.
        -13    1    3    3    0    0  0.30579784837E+02  0.22755520835E+02 -0.43393350623E+02  0.57757422444E+02  0.00000000000E+00 0.  1.
         14    1    3    3    0    0  0.60229328694E+02 -0.52878484544E+02 -0.21617672140E+03  0.23055602581E+03  0.00000000000E+00 0. -1.
         13    1    5    5    0    0 -0.11678300244E+03 -0.40183664159E+02  0.17267104781E+03  0.21229292799E+03  0.00000000000E+00 0. -1.
        -14    1    5    5    0    0  0.63113372634E+01  0.22464101394E+01  0.59272564237E+02  0.59649947257E+02  0.00000000000E+00 0.  1.
          5    1    4    4  501    0 -0.26511630868E+02  0.36390210857E+02 -0.20286286368E+02  0.49559255766E+02  0.41800000000E+01 0.  1.
         -5    1    4    4    0  501  0.46174182511E+02  0.31670006871E+02  0.10034875006E+03  0.11498864511E+03  0.41800000000E+01 0.  1.
</event>
<event>
11    1  0.8328696E-009  0.2488094E+03  0.7561462E-02  0.1024535E+00
         22   -1    0    0    0    0  0.00000000000E+00  0.00000000000E+00  0.13847692319E+04  0.13847692319E+04  0.00000000000E+00 0.  1.
         22   -1    0    0    0    0 -0.00000000000E+00 -0.00000000000E+00 -0.90005045525E+03  0.90005045525E+03  0.00000000000E+00 0. -1.
         24    2    1    2    0    0  0.73763286541E+01  0.25795897000E+02 -0.84336946587E+03  0.84714907686E+03  0.75297170776E+02 0.  0.
         25    2    1    2    0    0 -0.18714440023E+03  0.95726579140E+02  0.31765598239E+03  0.40092506820E+03  0.12509589390E+03 0.  0.
        -24    2    1    2    0    0  0.17976807158E+03 -0.12152247614E+03  0.10104322601E+04  0.10367455421E+04  0.82363189444E+02 0.  0.
        -11    1    3    3    0    0 -0.21983734862E+02  0.15862260481E+02 -0.11623827033E+03  0.11935757787E+03  0.00000000000E+00 0.  1.
         12    1    3    3    0    0  0.29360063516E+02  0.99336365193E+01 -0.72713119554E+03  0.72779149898E+03  0.00000000000E+00 0. -1.
         11    1    5    5    0    0  0.34121745225E+02  0.78929884965E+00  0.78422729804E+02  0.85528013187E+02  0.00000000000E+00 0. -1.
        -12    1    5    5    0    0  0.14564632635E+03 -0.12231177499E+03  0.93200953034E+03  0.95121752892E+03  0.00000000000E+00 0.  1.
          5    1    4    4  501    0 -0.10418591959E+03 -0.14786907410E+02  0.15592835986E+03  0.18816079369E+03  0.41800000000E+01 0.  1.
         -5    1    4    4    0  501 -0.82958480644E+02  0.11051348655E+03  0.16172762253E+03  0.21276427451E+03  0.41800000000E+01 0.  1.
</event>
<event>
11    1  0.8328696E-009  0.1441845E+03  0.7561462E-02  0.1102974E+00
         22   -1    0    0    0    0  0.00000000000E+00  0.00000000000E+00  0.43545353689E+03  0.43545353689E+03  0.00000000000E+00 0. -1.
         22   -1    0    0    0    0 -0.00000000000E+00 -0.00000000000E+00 -0.70477871877E+03  0.70477871877E+03  0.00000000000E+00 0. -1.
         24    2    1    2    0    0  0.34277328574E+02 -0.57957629707E+02 -0.52522512496E+03  0.53568230430E+03  0.80994303284E+02 0.  0.
         25    2    1    2    0    0 -0.69389655895E+02  0.80637484148E+02 -0.12911732711E+03  0.20889392106E+03  0.12509219761E+03 0.  0.
        -24    2    1    2    0    0  0.35112327320E+02 -0.22679854442E+02  0.38501727018E+03  0.39565603029E+03  0.80982372433E+02 0.  0.
        -11    1    3    3    0    0  0.18844621006E+02 -0.12417151174E+02 -0.27208678846E+02  0.35349930533E+02  0.00000000000E+00 0.  1.
         12    1    3    3    0    0  0.15432707569E+02 -0.45540478532E+02 -0.49801644611E+03  0.50033237377E+03  0.00000000000E+00 0. -1.
         13    1    5    5    0    0  0.46377747694E+02 -0.32414462685E+02  0.15243548912E+03  0.16259818946E+03  0.00000000000E+00 0. -1.
        -14    1    5    5    0    0 -0.11265420374E+02  0.97346082437E+01  0.23258178106E+03  0.23305784084E+03  0.00000000000E+00 0.  1.
          5    1    4    4  501    0 -0.25157256464E+02  0.49765077878E+02 -0.14256985139E+03  0.15314400234E+03  0.41800000000E+01 0. -1.
         -5    1    4    4    0  501 -0.44232399430E+02  0.30872406270E+02  0.13452524274E+02  0.55749918723E+02  0.41800000000E+01 0. -1.
</event>
<event>
11    1  0.8328696E-009  0.1491557E+03  0.7561462E-02  0.1097745E+00
         22   -1    0    0    0    0  0.00000000000E+00  0.00000000000E+00  0.12774141848E+04  0.12774141848E+04  0.00000000000E+00 0. -1.
         22   -1    0    0    0    0 -0.00000000000E+00 -0.00000000000E+00 -0.22107997432E+03  0.22107997432E+03  0.00000000000E+00 0. -1.
        -24    2    1    2    0    0  0.76751339238E+02  0.29727227661E+02 -0.17957168757E+03  0.21315189233E+03  0.80082845165E+02 0.  0.
         25    2    1    2    0    0 -0.69237548596E+02 -0.65452498723E+01  0.19927179242E+03  0.24534410963E+03  0.12509119252E+03 0.  0.
         24    2    1    2    0    0 -0.75137906421E+01 -0.23181977789E+02  0.10366341056E+04  0.10399981572E+04  0.79950214378E+02 0.  0.
        -13    1    5    5    0    0 -0.18626306220E+02 -0.10879886310E+02  0.70601670837E+02  0.73823486334E+02  0.00000000000E+00 0.  1.
         14    1    5    5    0    0  0.11112515578E+02 -0.12302091478E+02  0.96603243481E+03  0.96617467083E+03  0.00000000000E+00 0. -1.
         13    1    3    3    0    0  0.32771512701E+02  0.23014220866E+02 -0.15931017900E+03  0.16426612414E+03  0.00000000000E+00 0. -1.
        -14    1    3    3    0    0  0.43979826537E+02  0.67130067944E+01 -0.20261508570E+02  0.48885768194E+02  0.00000000000E+00 0.  1.
          5    1    4    4  501    0 -0.41359088712E+02  0.53889628679E+02  0.14188875612E+03  0.15736758818E+03  0.41800000000E+01 0. -1.
         -5    1    4    4    0  501 -0.27878459884E+02 -0.60434878551E+02  0.57383036298E+02  0.87976521446E+02  0.41800000000E+01 0. -1.
</event>
<event>
11    1  0.8328696E-009  0.1278351E+03  0.7561462E-02  0.1121958E+00
         22   -1    0    0    0    0  0.00000000000E+00  0.00000000000E+00  0.15809467365E+03  0.15809467365E+03  0.00000000000E+00 0. -1.
         22   -1    0    0    0    0 -0.00000000000E+00 -0.00000000000E+00 -0.19421516196E+04  0.19421516196E+04  0.00000000000E+00 0. -1.
        -24    2    1    2    0    0 -0.15225912711E+01  0.33883493429E+01 -0.15595315547E+04  0.15616280462E+04  0.80806467886E+02 0.  0.
         25    2    1    2    0    0  0.14141173401E+02  0.19830797567E+02 -0.35818004519E+03  0.38017559330E+03  0.12508918279E+03 0.  0.
         24    2    1    2    0    0 -0.12618582130E+02 -0.23219146910E+02  0.13365465392E+03  0.15844265380E+03  0.80883562189E+02 0.  0.
        -11    1    5    5    0    0  0.16020685484E+02 -0.43659609452E+02  0.97334579110E+02  0.10787420522E+03  0.00000000000E+00 0.  1.
         12    1    5    5    0    0 -0.28639267613E+02  0.20440462542E+02  0.36320074808E+02  0.50568448586E+02  0.00000000000E+00 0. -1.
         11    1    3    3    0    0  0.20616153555E+02 -0.10910319378E+02 -0.13776054791E+04  0.13778029310E+04  0.00000000000E+00 0. -1.
        -12    1    3    3    0    0 -0.22138744827E+02  0.14298668720E+02 -0.18192607564E+03  0.18382511511E+03  0.00000000000E+00 0.  1.
          5    1    4    4  501    0  0.94641032762E+01 -0.12174741190E+02 -0.34439852812E+03  0.34476892572E+03  0.41800000000E+01 0. -1.
         -5    1    4    4    0  501  0.46770701245E+01  0.32005538757E+02 -0.13781517070E+02  0.35406667576E+02  0.41800000000E+01 0. -1.
</event>
<event>
11    1  0.8328696E-009  0.1268273E+03  0.7561462E-02  0.1123230E+00
         22   -1    0    0    0    0  0.00000000000E+00  0.00000000000E+00  0.10086273049E+03  0.10086273049E+03  0.00000000000E+00 0.  1.
         22   -1    0    0    0    0 -0.00000000000E+00 -0.00000000000E+00 -0.91482966713E+03  0.91482966713E+03  0.00000000000E+00 0. -1.
         24    2    1    2    0    0 -0.19181180227E+02  0.11240878654E+02 -0.71817334591E+03  0.72303092072E+03  0.80662770333E+02 0.  0.
         25    2    1    2    0    0 -0.72630162795E+01 -0.25424622229E+02 -0.14776705206E+03  0.19540168379E+03  0.12509018161E+03 0.  0.
        -24    2    1    2    0    0  0.26444196506E+02  0.14183743574E+02  0.51973461319E+02  0.97259793100E+02  0.76535956006E+02 0.  0.
        -11    1    3    3    0    0  0.13548422841E+02  0.25929885832E+01 -0.21558420964E+02  0.25593922438E+02  0.00000000000E+00 0.  1.
         12    1    3    3    0    0 -0.32729603068E+02  0.86478900713E+01 -0.69661492495E+03  0.69743699829E+03  0.00000000000E+00 0. -1.
         11    1    5    5    0    0 -0.86209750646E+01  0.19340504564E+02  0.57604363365E+02  0.61372950121E+02  0.00000000000E+00 0. -1.
        -12    1    5    5    0    0  0.35065171571E+02 -0.51567609895E+01 -0.56309020460E+01  0.35886842980E+02  0.00000000000E+00 0.  1.
          5    1    4    4  501    0  0.41082129450E+02  0.13633954359E+02 -0.11917481054E+03  0.12686108126E+03  0.41800000000E+01 0. -1.
         -5    1    4    4    0  501 -0.48345145730E+02 -0.39058576587E+02 -0.28592241516E+02  0.68540602533E+02  0.41800000000E+01 0. -1.
</event>
<event>
11    1  0.8328696E-009  0.1896192E+03  0.7561462E-02  0.1062117E+00
         22   -1    0    0    0    0  0.00000000000E+00  0.00000000000E+00  0.59319797026E+03  0.59319797026E+03  0.00000000000E+00 0.  1.
         22   -1    0    0    0    0 -0.00000000000E+00 -0.00000000000E+00 -0.13533623247E+04  0.13533623247E+04  0.00000000000E+00 0.  1.
        -24    2    1    2    0    0  0.79744208959E+01 -0.68270607109E+02 -0.12577453497E+04  0.12621265673E+04  0.79471001259E+02 0.  0.
         25    2    1    2    0    0  0.13464863258E+03  0.75510742699E+02  0.45853790592E+02  0.20391763211E+03  0.12509078326E+03 0.  0.
         24    2    1    2    0    0 -0.14262305347E+03 -0.72401355902E+01  0.45172720467E+03  0.48051609554E+03  0.80277616337E+02 0.  0.
        -11    1    5    5    0    0 -0.98075885415E+02 -0.86614827194E+01  0.18009226643E+03  0.20524893425E+03  0.00000000000E+00 0.  1.
         12    1    5    5    0    0 -0.44547168058E+02  0.14213471292E+01  0.27163493824E+03  0.27526716129E+03  0.00000000000E+00 0. -1.
         13    1    3    3    0    0  0.22867527090E+02 -0.67294014491E+02 -0.59745943635E+03  0.60167199226E+03  0.00000000000E+00 0. -1.
        -14    1    3    3    0    0 -0.14893106194E+02 -0.97659261801E+00 -0.66028591333E+03  0.66045457503E+03  0.00000000000E+00 0.  1.
          5    1    4    4  501    0  0.24289846155E+02  0.20617913492E+02 -0.41719521452E+02  0.52660097352E+02  0.41800000000E+01 0.  1.
         -5    1    4    4    0  501  0.11035878642E+03  0.54892829207E+02  0.87573312044E+02  0.15125753476E+03  0.41800000000E+01 0.  1.
</event>
<event>
11    1  0.8328696E-009  0.1369839E+03  0.7561462E-02  0.1110974E+00
         22   -1    0    0    0    0  0.00000000000E+00  0.00000000000E+00  0.58718731803E+03  0.58718731803E+03  0.00000000000E+00 0.  1.
         22   -1    0    0    0    0 -0.00000000000E+00 -0.00000000000E+00 -0.53356631519E+03  0.53356631519E+03  0.00000000000E+00 0. -1.
         24    2    1    2    0    0  0.39223544749E+02  0.38817313959E+02 -0.49995591650E+03  0.50923767080E+03  0.79509852167E+02 0.  0.
         25    2    1    2    0    0 -0.75225331554E+02 -0.59253929579E+02  0.25608858746E+03  0.30066224479E+03  0.12508613887E+03 0.  0.
        -24    2    1    2    0    0  0.36001786805E+02  0.20436615620E+02  0.29748833188E+03  0.31085371763E+03  0.80105819071E+02 0.  0.
        -11    1    3    3    0    0 -0.89392451239E+01  0.46599830200E+02 -0.27356397629E+03  0.27764852494E+03  0.00000000000E+00 0.  1.
         12    1    3    3    0    0  0.48162789873E+02 -0.77825162411E+01 -0.22639194021E+03  0.23158914586E+03  0.00000000000E+00 0. -1.
         13    1    5    5    0    0  0.66859917709E+01  0.42320433420E+02  0.84448193487E+02  0.94695400913E+02  0.00000000000E+00 0. -1.
        -14    1    5    5    0    0  0.29315795034E+02 -0.21883817799E+02  0.21304013839E+03  0.21615831671E+03  0.00000000000E+00 0.  1.
          5    1    4    4  501    0 -0.59786552692E+02 -0.58220535521E+02  0.57501900190E+02  0.10142979624E+03  0.41800000000E+01 0.  1.
         -5    1    4    4    0  501 -0.15438778862E+02 -0.10333940581E+01  0.19858668727E+03  0.19923244855E+03  0.41800000000E+01 0.  1.
</event>
<event>
11    1  0.8328696E-009  0.1481978E+03  0.7561462E-02  0.1098735E+00
         22   -1    0    0    0    0  0.00000000000E+00  0.00000000000E+00  0.69832026502E+03  0.69832026502E+03  0.00000000000E+00 0. -1.
         22   -1    0    0    0    0 -0.00000000000E+00 -0.00000000000E+00 -0.19625822921E+03  0.19625822921E+03  0.00000000000E+00 0.  1.
        -24    2    1    2    0    0 -0.61080168848E+02 -0.15999582570E+02 -0.13131555881E+03  0.16370196295E+03  0.74617578486E+02 0.  0.
         25    2    1    2    0    0  0.12917625461E+03  0.38345217839E+02  0.15511989164E+03  0.24055424384E+03  0.12508918003E+03 0.  0.
         24    2    1    2    0    0 -0.68096085764E+02 -0.22345635269E+02  0.47825770298E+03  0.49032228744E+03  0.80926576515E+02 0.  0.
        -11    1    5    5    0    0  0.73855956840E+01 -0.56894800614E+01  0.45948507999E+01  0.10393741427E+02  0.00000000000E+00 0.  1.
         12    1    5    5    0    0 -0.75481681448E+02 -0.16656155208E+02  0.47366285218E+03  0.47992854601E+03  0.00000000000E+00 0. -1.
         13    1    3    3    0    0 -0.26098550468E+02 -0.42467523316E+02 -0.46277793556E+02  0.68016608630E+02  0.00000000000E+00 0. -1.
        -14    1    3    3    0    0 -0.34981618380E+02  0.26467940746E+02 -0.85037765259E+02  0.95685354324E+02  0.00000000000E+00 0.  1.
          5    1    4    4  501    0 -0.98579577193E+01 -0.24115046407E+02  0.46083034196E+02  0.53102101976E+02  0.41800000000E+01 0.  1.
         -5    1    4    4    0  501  0.13903421233E+03  0.62460264246E+02  0.10903685745E+03  0.18745214187E+03  0.41800000000E+01 0.  1.
</event>
<event>
11    1  0.8328696E-009  0.4825277E+03  0.7561462E-02  0.9433434E-01
         22   -1    0    0    0    0  0.00000000000E+00  0.00000000000E+00  0.17947663040E+03  0.17947663040E+03  0.00000000000E+00 0. -1.
         22   -1    0    0    0    0 -0.00000000000E+00 -0.00000000000E+00 -0.34849764369E+04  0.34849764369E+04  0.00000000000E+00 0.  1.
        -24    2    1    2    0    0 -0.28741961872E+03 -0.41528142301E+03 -0.26833517540E+04  0.27319961281E+04  0.91419423557E+02 0.  0.
         25    2    1    2    0    0  0.25645587854E+03  0.32053342451E+02 -0.35157060388E+03  0.45392279243E+03  0.12508787942E+03 0.  0.
         24    2    1    2    0    0  0.30963740184E+02  0.38322808056E+03 -0.27057744865E+03  0.47853414675E+03  0.89220283278E+02 0.  0.
        -13    1    5    5    0    0  0.80475006585E+01  0.11499327698E+02 -0.35351755194E+02  0.38036080235E+02  0.00000000000E+00 0.  1.
         14    1    5    5    0    0  0.22916239525E+02  0.37172875286E+03 -0.23522569346E+03  0.44049806651E+03  0.00000000000E+00 0. -1.
         13    1    3    3    0    0 -0.76796544987E+01 -0.45456772996E+02 -0.34915920232E+03  0.35218949994E+03  0.00000000000E+00 0. -1.
        -14    1    3    3    0    0 -0.27973996422E+03 -0.36982465002E+03 -0.23341925516E+04  0.23798066282E+04  0.00000000000E+00 0.  1.
          5    1    4    4  501    0  0.46354982790E+02 -0.76957350022E+01 -0.15996882988E+03  0.16677981802E+03  0.41800000000E+01 0. -1.
         -5    1    4    4    0  501  0.21010089575E+03  0.39749077453E+02 -0.19160177400E+03  0.28714297441E+03  0.41800000000E+01 0. -1.
</event>
<event>
11    1  0.8328696E-009  0.1380567E+03  0.7561462E-02  0.1109748E+00
         22   -1    0    0    0    0  0.00000000000E+00  0.00000000000E+00  0.13528905820E+04  0.13528905820E+04  0.00000000000E+00 0. -1.
         22   -1    0    0    0    0 -0.00000000000E+00 -0.00000000000E+00 -0.87775194313E+03  0.87775194313E+03  0.00000000000E+00 0.  1.
        -24    2    1    2    0    0  0.42605678322E+02 -0.28971132084E+02 -0.77080663368E+03  0.77685350432E+03  0.81877532514E+02 0.  0.
         25    2    1    2    0    0 -0.99599509516E+02  0.19740605944E+02 -0.38412418434E+02  0.16562413659E+03  0.12508431921E+03 0.  0.
         24    2    1    2    0    0  0.56993831194E+02  0.92305261402E+01  0.12843576910E+04  0.12881648842E+04  0.80377802538E+02 0.  0.
        -13    1    5    5    0    0  0.82111919842E+01 -0.51318550605E+01  0.15416719847E+02  0.18205352537E+02  0.00000000000E+00 0.  1.
         14    1    5    5    0    0  0.48782639210E+02  0.14362381201E+02  0.12689409711E+04  0.12699595317E+04  0.00000000000E+00 0. -1.
         13    1    3    3    0    0  0.43336055317E+02  0.10101587773E+02 -0.20875240515E+03  0.21344231638E+03  0.00000000000E+00 0. -1.
        -14    1    3    3    0    0 -0.73037699512E+00 -0.39072719857E+02 -0.56205422853E+03  0.56341118794E+03  0.00000000000E+00 0.  1.
          5    1    4    4  501    0 -0.91126299993E+02  0.22788142257E+02  0.28288357041E+02  0.98188622161E+02  0.41800000000E+01 0.  1.
         -5    1    4    4    0  501 -0.84732095235E+01 -0.30475363125E+01 -0.66700775475E+02  0.67435514428E+02  0.41800000000E+01 0.  1.
</event>
<event>
11    1  0.8328696E-009  0.1822893E+03  0.7561462E-02  0.1067806E+00
         22   -1    0    0    0    0  0.00000000000E+00  0.00000000000E+00  0.19279037240E+03  0.19279037240E+03  0.00000000000E+00 0. -1.
         22   -1    0    0    0    0 -0.00000000000E+00 -0.00000000000E+00 -0.32022809183E+04  0.32022809183E+04  0.00000000000E+00 0.  1.
        -24    2    1    2    0    0 -0.62496316100E+02  0.48853492911E+01 -0.29668966567E+04  0.29691360945E+04  0.96766315871E+02 0.  0.
         25    2    1    2    0    0  0.66434154865E+02  0.12772723998E+03 -0.14545327531E+03  0.23985606666E+03  0.12508610094E+03 0.  0.
         24    2    1    2    0    0 -0.39378387652E+01 -0.13261258927E+03  0.10285938606E+03  0.18607912960E+03  0.80273182109E+02 0.  0.
        -13    1    5    5    0    0  0.77784712118E+00  0.44355421212E+01  0.30880199782E+02  0.31206823270E+02  0.00000000000E+00 0.  1.
         14    1    5    5    0    0 -0.47156858864E+01 -0.13704813139E+03  0.71979186273E+02  0.15487230633E+03  0.00000000000E+00 0. -1.
         11    1    3    3    0    0 -0.10078239160E+02 -0.18065587231E+02 -0.12784612205E+03  0.12950894668E+03  0.00000000000E+00 0. -1.
        -12    1    3    3    0    0 -0.52418076940E+02  0.22950936522E+02 -0.28390505346E+04  0.28396271478E+04  0.00000000000E+00 0.  1.
          5    1    4    4  501    0  0.23799653310E+02 -0.12530753679E+02  0.72155977384E+01  0.28159910088E+02  0.41800000000E+01 0.  1.
         -5    1    4    4    0  501  0.42634501555E+02  0.14025799366E+03 -0.15266887305E+03  0.21169615657E+03  0.41800000000E+01 0.  1.
</event>
<event>
11    1  0.8328696E-009  0.2017894E+03  0.7561462E-02  0.1053265E+00
         22   -1    0    0    0    0  0.00000000000E+00  0.00000000000E+00  0.34351646340E+03  0.34351646340E+03  0.00000000000E+00 0. -1.
         22   -1    0    0    0    0 -0.00000000000E+00 -0.00000000000E+00 -0.26852710260E+04  0.26852710260E+04  0.00000000000E+00 0. -1.
         24    2    1    2    0    0 -0.13819606450E+02  0.55949660739E+01 -0.17268174726E+04  0.17287636688E+04  0.80640895318E+02 0.  0.
         25    2    1    2    0    0 -0.36779271324E+01 -0.16286289032E+03 -0.92248225613E+03  0.94507102576E+03  0.12509149713E+03 0.  0.
        -24    2    1    2    0    0  0.17497533582E+02  0.15726792425E+03  0.30754516608E+03  0.35495279482E+03  0.79800336427E+02 0.  0.
        -11    1    3    3    0    0  0.22065044884E+02 -0.14354451301E+02 -0.25126340777E+03  0.25263850966E+03  0.00000000000E+00 0.  1.
         12    1    3    3    0    0 -0.35884651334E+02  0.19949417375E+02 -0.14755540648E+04  0.14761251592E+04  0.00000000000E+00 0. -1.
         13    1    5    5    0    0 -0.18542174095E+02  0.96238847647E+02  0.22936660247E+03  0.24942888034E+03  0.00000000000E+00 0. -1.
        -14    1    5    5    0    0  0.36039707678E+02  0.61029076603E+02  0.78178563605E+02  0.10552391448E+03  0.00000000000E+00 0.  1.
          5    1    4    4  501    0 -0.32256090874E+02  0.60606389183E+01 -0.11886673956E+03  0.12338541614E+03  0.41800000000E+01 0.  1.
         -5    1    4    4    0  501  0.28578163741E+02 -0.16892352924E+03 -0.80361551657E+03  0.82168560961E+03  0.41800000000E+01 0.  1.
</event>
<event>
11    1  0.8328696E-009  0.1378690E+03  0.7561462E-02  0.1109962E+00
         22   -1    0    0    0    0  0.00000000000E+00  0.00000000000E+00  0.12532338316E+04  0.12532338316E+04  0.00000000000E+00 0. -1.
         22   -1    0    0    0    0 -0.00000000000E+00 -0.00000000000E+00 -0.56709181006E+02  0.56709181006E+02  0.00000000000E+00 0.  1.
         24    2    1    2    0    0 -0.16623251303E+02  0.65877397077E+02  0.26245443002E+02  0.10803694001E+03  0.79793440820E+02 0.  0.
         25    2    1    2    0    0 -0.13680074149E+02 -0.14802941273E+02  0.30032281052E+03  0.32595672867E+03  0.12509087474E+03 0.  0.
        -24    2    1    2    0    0  0.30303325451E+02 -0.51074455804E+02  0.86995639707E+03  0.87594934393E+03  0.83284024693E+02 0.  0.
        -13    1    3    3    0    0 -0.30559861988E+02  0.56360489167E+02 -0.12910133903E+02  0.65399399548E+02  0.00000000000E+00 0.  1.
         14    1    3    3    0    0  0.13936610685E+02  0.95169079098E+01  0.39155576904E+02  0.42637540458E+02  0.00000000000E+00 0. -1.
         11    1    5    5    0    0  0.35341429443E+02 -0.65004589011E+02  0.83073983214E+03  0.83402834600E+03  0.00000000000E+00 0. -1.
        -12    1    5    5    0    0 -0.50381039917E+01  0.13930133207E+02  0.39216564926E+02  0.41920997932E+02  0.00000000000E+00 0.  1.
          5    1    4    4  501    0  0.49590944598E+02 -0.34136982226E+02  0.14828950507E+03  0.16009948487E+03  0.41800000000E+01 0. -1.
         -5    1    4    4    0  501 -0.63271018746E+02  0.19334040953E+02  0.15203330545E+03  0.16585724379E+03  0.41800000000E+01 0. -1.
</event>
<event>
11    1  0.8328696E-009  0.1623636E+03  0.7561462E-02  0.1084875E+00
         22   -1    0    0    0    0  0.00000000000E+00  0.00000000000E+00  0.18549986498E+04  0.18549986498E+04  0.00000000000E+00 0. -1.
         22   -1    0    0    0    0 -0.00000000000E+00 -0.00000000000E+00 -0.88827797887E+03  0.88827797887E+03  0.00000000000E+00 0.  1.
        -24    2    1    2    0    0 -0.38651603146E+02  0.94797635364E+02 -0.82757068389E+03  0.83775263730E+03  0.80471773782E+02 0.  0.
         25    2    1    2    0    0  0.79229143525E+02 -0.11956432165E+03  0.11237193887E+03  0.22101499628E+03  0.12508913519E+03 0.  0.
         24    2    1    2    0    0 -0.40577540379E+02  0.24766686285E+02  0.16819194160E+04  0.16845089951E+04  0.80359860845E+02 0.  0.
        -13    1    5    5    0    0  0.15894238740E+02 -0.16603390059E+02  0.35363486849E+03  0.35438103731E+03  0.00000000000E+00 0.  1.
         14    1    5    5    0    0 -0.56471779119E+02  0.41370076345E+02  0.13282845475E+04  0.13301279578E+04  0.00000000000E+00 0. -1.
         13    1    3    3    0    0 -0.18173067328E+02 -0.15242188450E+01 -0.33155981627E+03  0.33206098142E+03  0.00000000000E+00 0. -1.
        -14    1    3    3    0    0 -0.20478535818E+02  0.96321854209E+02 -0.49601086762E+03  0.50569165588E+03  0.00000000000E+00 0.  1.
          5    1    4    4  501    0  0.38136063170E+02  0.19570922127E+02  0.12533328842E+02  0.44854621154E+02  0.41800000000E+01 0. -1.
         -5    1    4    4    0  501  0.41093080355E+02 -0.13913524378E+03  0.99838610029E+02  0.17616037513E+03  0.41800000000E+01 0. -1.
</event>
<event>
11    1  0.8328696E-009  0.1534226E+03  0.7561462E-02  0.1093432E+00
         22   -1    0    0    0    0  0.00000000000E+00  0.00000000000E+00  0.45011302038E+03  0.45011302038E+03  0.00000000000E+00 0.  1.
         22   -1    0    0    0    0 -0.00000000000E+00 -0.00000000000E+00 -0.37475581637E+03  0.37475581637E+03  0.00000000000E+00 0.  1.
        -24    2    1    2    0    0 -0.17823731416E+02  0.12692883429E+01 -0.30261922961E+03  0.31403923140E+03  0.81993562152E+02 0.  0.
         25    2    1    2    0    0  0.10287290627E+03 -0.14888005252E+02  0.61036386315E+02  0.17371404769E+03  0.12508653950E+03 0.  0.
         24    2    1    2    0    0 -0.85049174851E+02  0.13618716910E+02  0.31694004731E+03  0.33711555766E+03  0.76007065681E+02 0.  0.
        -13    1    5    5    0    0 -0.38148560577E+02  0.12236233361E+02  0.26120588746E+03  0.26426039000E+03  0.00000000000E+00 0.  1.
         14    1    5    5    0    0 -0.46900614274E+02  0.13824835488E+01  0.55734159857E+02  0.72855167661E+02  0.00000000000E+00 0. -1.
         13    1    3    3    0    0 -0.21640825221E+02 -0.17780421149E+02 -0.31207421087E+02  0.41932944368E+02  0.00000000000E+00 0. -1.
        -14    1    3    3    0    0  0.38170938043E+01  0.19049709492E+02 -0.27141180853E+03  0.27210628704E+03  0.00000000000E+00 0.  1.
          5    1    4    4  501    0 -0.12236521075E+02 -0.73973693101E+01  0.56246762409E+02  0.58186116920E+02  0.41800000000E+01 0.  1.
         -5    1    4    4    0  501  0.11510942734E+03 -0.74906359424E+01  0.47896239053E+01  0.11552793077E+03  0.41800000000E+01 0.  1.
</event>
<event>
11    1  0.8328696E-009  0.1609933E+03  0.7561462E-02  0.1086147E+00
         22   -1    0    0    0    0  0.00000000000E+00  0.00000000000E+00  0.12608682124E+04  0.12608682124E+04  0.00000000000E+00 0.  1.
         22   -1    0    0    0    0 -0.00000000000E+00 -0.00000000000E+00 -0.30153421383E+03  0.30153421383E+03  0.00000000000E+00 0.  1.
         24    2    1    2    0    0 -0.41803554480E+02 -0.92583453227E+02 -0.26693077896E+03  0.29690552396E+03  0.81127162082E+02 0.  0.
         25    2    1    2    0    0  0.51188654317E+02  0.82004260183E+02  0.33330339301E+03  0.36889494391E+03  0.12508937136E+03 0.  0.
        -24    2    1    2    0    0 -0.93850998370E+01  0.10579193045E+02  0.89296138448E+03  0.89660195833E+03  0.79467213916E+02 0.  0.
        -11    1    3    3    0    0 -0.60322350490E+02 -0.81485724801E+02 -0.17293776065E+03  0.20046490559E+03  0.00000000000E+00 0.  1.
         12    1    3    3    0    0  0.18518796009E+02 -0.11097728427E+02 -0.93993018308E+02  0.96440618375E+02  0.00000000000E+00 0. -1.
         11    1    5    5    0    0 -0.22516286370E+02  0.40088403926E+02  0.41210075359E+03  0.41465780397E+03  0.00000000000E+00 0. -1.
        -12    1    5    5    0    0  0.13131186533E+02 -0.29509210881E+02  0.48086063089E+03  0.48194415436E+03  0.00000000000E+00 0.  1.
          5    1    4    4  501    0  0.73289444071E+02  0.54479847979E+02  0.11114111889E+03  0.14390697396E+03  0.41800000000E+01 0. -1.
         -5    1    4    4    0  501 -0.22100789753E+02  0.27524412204E+02  0.22216227413E+03  0.22498796995E+03  0.41800000000E+01 0. -1.
</event>
<event>
11    1  0.8328696E-009  0.3214440E+03  0.7561462E-02  0.9915030E-01
         22   -1    0    0    0    0  0.00000000000E+00  0.00000000000E+00  0.24801488081E+04  0.24801488081E+04  0.00000000000E+00 0. -1.
         22   -1    0    0    0    0 -0.00000000000E+00 -0.00000000000E+00 -0.11173136016E+03  0.11173136016E+03  0.00000000000E+00 0.  1.
        -24    2    1    2    0    0 -0.70409960006E+02 -0.29217254666E+02  0.21859457246E+02  0.11859390523E+03  0.88178614460E+02 0.  0.
         25    2    1    2    0    0 -0.23725964456E+03  0.63392755778E+02  0.32551700884E+03  0.42652051422E+03  0.12509054954E+03 0.  0.
         24    2    1    2    0    0  0.30766960457E+03 -0.34175501112E+02  0.20210409819E+04  0.20467657489E+04  0.93887324696E+02 0.  0.
        -11    1    5    5    0    0  0.17829816665E+03  0.56401532173E+01  0.89387379260E+03  0.91150008484E+03  0.00000000000E+00 0.  1.
         12    1    5    5    0    0  0.12937143792E+03 -0.39815654329E+02  0.11271671893E+04  0.11352656640E+04  0.00000000000E+00 0. -1.
         13    1    3    3    0    0  0.20493094856E+02 -0.12564691880E+02  0.24584922569E+01  0.24163662864E+02  0.00000000000E+00 0. -1.
        -14    1    3    3    0    0 -0.90903054863E+02 -0.16652562786E+02  0.19400964989E+02  0.94430242366E+02  0.00000000000E+00 0.  1.
          5    1    4    4  501    0 -0.77838609016E+02 -0.34556629098E+02  0.13331961797E+03  0.15825486597E+03  0.41800000000E+01 0. -1.
         -5    1    4    4    0  501 -0.15942103555E+03  0.97949384875E+02  0.19219739086E+03  0.26826564824E+03  0.41800000000E+01 0. -1.
</event>
<event>
11    1  0.8328696E-009  0.1869088E+03  0.7561462E-02  0.1064188E+00
         22   -1    0    0    0    0  0.00000000000E+00  0.00000000000E+00  0.89156670474E+03  0.89156670474E+03  0.00000000000E+00 0.  1.
         22   -1    0    0    0    0 -0.00000000000E+00 -0.00000000000E+00 -0.20769999307E+04  0.20769999307E+04  0.00000000000E+00 0. -1.
         24    2    1    2    0    0 -0.15321343896E+02 -0.14112965683E+03 -0.19324109625E+04  0.19392749009E+04  0.80141686014E+02 0.  0.
         25    2    1    2    0    0  0.41139289431E+02  0.92743810405E+02 -0.91545020264E+02  0.18525919206E+03  0.12508645812E+03 0.  0.
        -24    2    1    2    0    0 -0.25817945535E+02  0.48385846424E+02  0.83852275674E+03  0.84403254251E+03  0.79137619372E+02 0.  0.
        -11    1    3    3    0    0  0.82752081153E+01 -0.14215913204E+02 -0.54397494155E+02  0.56830085587E+02  0.00000000000E+00 0.  1.
         12    1    3    3    0    0 -0.23596552011E+02 -0.12691374362E+03 -0.18780134683E+04  0.18824448153E+04  0.00000000000E+00 0. -1.
         11    1    5    5    0    0  0.25441440073E+02  0.13747574284E+02  0.15188739159E+03  0.15461578961E+03  0.00000000000E+00 0. -1.
        -12    1    5    5    0    0 -0.51259385608E+02  0.34638272140E+02  0.68663536514E+03  0.68941675290E+03  0.00000000000E+00 0.  1.
          5    1    4    4  501    0  0.26212556532E+02  0.12032080459E+03 -0.49837439701E+02  0.13291138752E+03  0.41800000000E+01 0. -1.
         -5    1    4    4    0  501  0.14926732898E+02 -0.27576994188E+02 -0.41707580562E+02  0.52347804537E+02  0.41800000000E+01 0. -1.
</event>
<event>
11    1  0.8328696E-009  0.1715624E+03  0.7561462E-02  0.1076680E+00
         22   -1    0    0    0    0  0.00000000000E+00  0.00000000000E+00  0.35864650605E+03  0.35864650605E+03  0.00000000000E+00 0. -1.
         22   -1    0    0    0    0 -0.00000000000E+00 -0.00000000000E+00 -0.82693562161E+03  0.82693562161E+03  0.00000000000E+00 0. -1.
         24    2    1    2    0    0 -0.85264343780E+02  0.86225833386E+02 -0.72884373301E+03  0.74336685717E+03  0.81707983321E+02 0.  0.
         25    2    1    2    0    0  0.36977528622E+01 -0.98955407996E+02  0.22053313489E+01  0.15955651900E+03  0.12509025990E+03 0.  0.
        -24    2    1    2    0    0  0.81566590918E+02  0.12729574610E+02  0.25834928610E+03  0.28265875149E+03  0.79601917966E+02 0.  0.
        -11    1    3    3    0    0 -0.10831517951E+01  0.56301575600E+02 -0.25051056134E+03  0.25676172218E+03  0.00000000000E+00 0.  1.
         12    1    3    3    0    0 -0.84181191985E+02  0.29924257786E+02 -0.47833317167E+03  0.48660513500E+03  0.00000000000E+00 0. -1.
         13    1    5    5    0    0  0.66953757931E+02  0.42653885307E+02  0.15616094943E+03  0.17518105423E+03  0.00000000000E+00 0. -1.
        -14    1    5    5    0    0  0.14612832987E+02 -0.29924310697E+02  0.10218833667E+03  0.10747769727E+03  0.00000000000E+00 0.  1.
          5    1    4    4  501    0 -0.76741434997E+01 -0.49827318355E+02 -0.60576699822E+02  0.78921879693E+02  0.41800000000E+01 0.  1.
         -5    1    4    4    0  501  0.11371896362E+02 -0.49128089641E+02  0.62782031171E+02  0.80634639309E+02  0.41800000000E+01 0.  1.
</event>
<event>
11    1  0.8328696E-009  0.1329229E+03  0.7561462E-02  0.1115729E+00
         22   -1    0    0    0    0  0.00000000000E+00  0.00000000000E+00  0.26307100650E+04  0.26307100650E+04  0.00000000000E+00 0.  1.
         22   -1    0    0    0    0 -0.00000000000E+00 -0.00000000000E+00 -0.33724406683E+03  0.33724406683E+03  0.00000000000E+00 0. -1.
        -24    2    1    2    0    0  0.37505997441E+02 -0.61184156361E+01 -0.27896383824E+03  0.29144260557E+03  0.75324859358E+02 0.  0.
         25    2    1    2    0    0 -0.81724802408E+02  0.22432179038E+01  0.57706662392E+02  0.16019282017E+03  0.12509078861E+03 0.  0.
         24    2    1    2    0    0  0.44218804968E+02  0.38751977323E+01  0.25147231740E+04  0.25163187061E+04  0.77825887832E+02 0.  0.
        -11    1    5    5    0    0  0.16554345250E+02  0.97240383318E+01  0.22513767680E+04  0.22514586282E+04  0.00000000000E+00 0.  1.
         12    1    5    5    0    0  0.27664459718E+02 -0.58488405995E+01  0.26334640605E+03  0.26486007787E+03  0.00000000000E+00 0. -1.
         11    1    3    3    0    0  0.12863058180E+02  0.15569737556E+02 -0.23842553572E+03  0.23927935782E+03  0.00000000000E+00 0. -1.
        -12    1    3    3    0    0  0.24642939260E+02 -0.21688153192E+02 -0.40538302521E+02  0.52163247747E+02  0.00000000000E+00 0.  1.
          5    1    4    4  501    0 -0.73454133660E+02  0.37810972698E+02 -0.98300185285E+01  0.83302347340E+02  0.41800000000E+01 0.  1.
         -5    1    4    4    0  501 -0.82706687485E+01 -0.35567754794E+02  0.67536680920E+02  0.76890472832E+02  0.41800000000E+01 0.  1.
</event>
<event>
11    1  0.8328696E-009  0.1506300E+03  0.7561462E-02  0.1096237E+00
         22   -1    0    0    0    0  0.00000000000E+00  0.00000000000E+00  0.10709417354E+04  0.10709417354E+04  0.00000000000E+00 0.  1.
         22   -1    0    0    0    0 -0.00000000000E+00 -0.00000000000E+00 -0.55514170612E+03  0.55514170612E+03  0.00000000000E+00 0. -1.
         24    2    1    2    0    0 -0.52917978006E+02 -0.58993589785E+02 -0.41672660462E+03  0.43144412446E+03  0.78755402983E+02 0.  0.
         25    2    1    2    0    0  0.11360012581E+03  0.63329864154E+02 -0.65217796610E+02  0.19187469758E+03  0.12508748258E+03 0.  0.
        -24    2    1    2    0    0 -0.60682147806E+02 -0.43362743692E+01  0.99774443049E+03  0.10027646195E+04  0.79635464176E+02 0.  0.
        -13    1    3    3    0    0 -0.24678540754E+01  0.15269529700E+02 -0.13188307864E+03  0.13278702976E+03  0.00000000000E+00 0.  1.
         14    1    3    3    0    0 -0.50450123930E+02 -0.74263119485E+02 -0.28484352597E+03  0.29865709469E+03  0.00000000000E+00 0. -1.
         13    1    5    5    0    0  0.10653417645E+02  0.13532586890E+02  0.42079358120E+03  0.42114589419E+03  0.00000000000E+00 0. -1.
        -14    1    5    5    0    0 -0.71335565451E+02 -0.17868861259E+02  0.57695084929E+03  0.58161872528E+03  0.00000000000E+00 0.  1.
          5    1    4    4  501    0  0.63061322099E+02 -0.27469295503E+02  0.38409043823E+00  0.68912353506E+02  0.41800000000E+01 0.  1.
         -5    1    4    4    0  501  0.50538803713E+02  0.90799159657E+02 -0.65601887049E+02  0.12296234407E+03  0.41800000000E+01 0.  1.
</event>
<event>
11    1  0.8328696E-009  0.1259859E+03  0.7561462E-02  0.1124302E+00
         22   -1    0    0    0    0  0.00000000000E+00  0.00000000000E+00  0.37645349523E+03  0.37645349523E+03  0.00000000000E+00 0.  1.
         22   -1    0    0    0    0 -0.00000000000E+00 -0.00000000000E+00 -0.13462738750E+04  0.13462738750E+04  0.00000000000E+00 0.  1.
         24    2    1    2    0    0 -0.14688429549E+02  0.42659795332E+01 -0.13043312492E+04  0.13070540035E+04  0.82922927886E+02 0.  0.
         25    2    1    2    0    0 -0.87475459289E+01 -0.52018876011E+01  0.82175241276E+02  0.15000886004E+03  0.12508520543E+03 0.  0.
        -24    2    1    2    0    0  0.23435975478E+02  0.93590806786E+00  0.25233562812E+03  0.26566450669E+03  0.79713487105E+02 0.  0.
        -11    1    3    3    0    0 -0.17481493497E+02  0.42223415998E+02 -0.63580540984E+03  0.63744563584E+03  0.00000000000E+00 0.  1.
         12    1    3    3    0    0  0.27930639475E+01 -0.37957436465E+02 -0.66852583935E+03  0.66960836768E+03  0.00000000000E+00 0. -1.
         13    1    5    5    0    0 -0.27164427669E+02 -0.53559947816E+01  0.51657029479E+02  0.58609227134E+02  0.00000000000E+00 0. -1.
        -14    1    5    5    0    0  0.50600403147E+02  0.62919028494E+01  0.20067859864E+03  0.20705527956E+03  0.00000000000E+00 0.  1.
          5    1    4    4  501    0  0.44812436774E+02  0.27900328160E+02  0.66465015305E+02  0.84980312194E+02  0.41800000000E+01 0. -1.
         -5    1    4    4    0  501 -0.53559982703E+02 -0.33102215762E+02  0.15710225971E+02  0.65028547850E+02  0.41800000000E+01 0. -1.
</event>
<event>
11    1  0.8328696E-009  0.1432063E+03  0.7561462E-02  0.1104030E+00
         22   -1    0    0    0    0  0.00000000000E+00  0.00000000000E+00  0.93769004511E+03  0.93769004511E+03  0.00000000000E+00 0.  1.
         22   -1    0    0    0    0 -0.00000000000E+00 -0.00000000000E+00 -0.22866696521E+03  0.22866696521E+03  0.00000000000E+00 0.  1.
        -24    2    1    2    0    0 -0.17174362837E+00 -0.65936304603E+02 -0.17276414952E+03  0.20373897706E+03  0.85524813072E+02 0.  0.
         25    2    1    2    0    0  0.36973494744E+02  0.12306563686E+03  0.18512496555E+03  0.25774175686E+03  0.12508944829E+03 0.  0.
         24    2    1    2    0    0 -0.36801751116E+02 -0.57129332252E+02  0.69666226388E+03  0.70487627640E+03  0.83030871535E+02 0.  0.
        -11    1    5    5    0    0  0.41948655052E+01 -0.37096738623E+02  0.55033289195E+03  0.55159773103E+03  0.00000000000E+00 0.  1.
         12    1    5    5    0    0 -0.40996616621E+02 -0.20032593629E+02  0.14632937193E+03  0.15327854538E+03  0.00000000000E+00 0. -1.
         13    1    3    3    0    0 -0.27611246479E+02 -0.41462121295E+02 -0.34312663140E+02  0.60488406213E+02  0.00000000000E+00 0. -1.
        -14    1    3    3    0    0  0.27439502851E+02 -0.24474183308E+02 -0.13845148638E+03  0.14325057084E+03  0.00000000000E+00 0.  1.
          5    1    4    4  501    0 -0.24191125722E+01 -0.11944495554E+02  0.82725270846E+02  0.83722553211E+02  0.41800000000E+01 0.  1.
         -5    1    4    4    0  501  0.39392607317E+02  0.13501013241E+03  0.10239969470E+03  0.17401920365E+03  0.41800000000E+01 0.  1.
</event>
<event>
11    1  0.8328696E-009  0.1505593E+03  0.7561462E-02  0.1096309E+00
         22   -1    0    0    0    0  0.00000000000E+00  0.00000000000E+00  0.11456622525E+03  0.11456622525E+03  0.00000000000E+00 0.  1.
         22   -1    0    0    0    0 -0.00000000000E+00 -0.00000000000E+00 -0.13056962975E+04  0.13056962975E+04  0.00000000000E+00 0. -1.
        -24    2    1    2    0    0  0.91192144752E+00 -0.66641646018E+02 -0.98181692699E+03  0.98724672993E+03  0.79054962122E+02 0.  0.
         25    2    1    2    0    0  0.81440491992E+02  0.74577684125E+02 -0.25761167198E+03  0.30693045150E+03  0.12509254098E+03 0.  0.
         24    2    1    2    0    0 -0.82352413440E+02 -0.79360381068E+01  0.48298526761E+02  0.12608534129E+03  0.81974782104E+02 0.  0.
        -11    1    5    5    0    0 -0.84165922445E+02  0.13316865587E+01  0.65368515856E+02  0.10657729005E+03  0.00000000000E+00 0.  1.
         12    1    5    5    0    0  0.18135090046E+01 -0.92677246655E+01 -0.17069989095E+02  0.19508051237E+02  0.00000000000E+00 0. -1.
         11    1    3    3    0    0 -0.61371019750E+01 -0.83194239024E+02 -0.87017843234E+03  0.87416786119E+03  0.00000000000E+00 0. -1.
        -12    1    3    3    0    0  0.70490234225E+01  0.16552593006E+02 -0.11163849466E+03  0.11307886874E+03  0.00000000000E+00 0.  1.
          5    1    4    4  501    0  0.67159109349E+02 -0.18712173877E+02 -0.83655688062E+02  0.10897815361E+03  0.41800000000E+01 0.  1.
         -5    1    4    4    0  501  0.14281382643E+02  0.93289858002E+02 -0.17395598392E+03  0.19795229789E+03  0.41800000000E+01 0.  1.
</event>
<event>
11    1  0.8328696E-009  0.1432563E+03  0.7561462E-02  0.1103976E+00
         22   -1    0    0    0    0  0.00000000000E+00  0.00000000000E+00  0.13495329931E+04  0.13495329931E+04  0.00000000000E+00 0. -1.
         22   -1    0    0    0    0 -0.00000000000E+00 -0.00000000000E+00 -0.19952015315E+03  0.19952015315E+03  0.00000000000E+00 0.  1.
         24    2    1    2    0    0  0.23163615307E+02 -0.89478743480E+01 -0.96586419533E+02  0.12806074814E+03  0.80336798838E+02 0.  0.
         25    2    1    2    0    0 -0.92432886797E+02  0.90004539502E+01 -0.13862039507E+02  0.15641288482E+03  0.12509191687E+03 0.  0.
        -24    2    1    2    0    0  0.69269271490E+02 -0.52579602259E-01  0.12604612990E+04  0.12645795133E+04  0.74835983478E+02 0.  0.
        -13    1    3    3    0    0 -0.25577517641E+01 -0.33156120996E+02 -0.84368085263E+02  0.90685413736E+02  0.00000000000E+00 0.  1.
         14    1    3    3    0    0  0.25721367071E+02  0.24208246648E+02 -0.12218334270E+02  0.37375334407E+02  0.00000000000E+00 0. -1.
         11    1    5    5    0    0  0.10731264618E+02  0.28147490464E+02  0.64381554506E+03  0.64451989676E+03  0.00000000000E+00 0. -1.
        -12    1    5    5    0    0  0.58538006872E+02 -0.28200070066E+02  0.61664575397E+03  0.62005961656E+03  0.00000000000E+00 0.  1.
          5    1    4    4  501    0 -0.25574653569E+02  0.62614133596E+02  0.69588364109E+01  0.68121145288E+02  0.41800000000E+01 0. -1.
         -5    1    4    4    0  501 -0.66858233228E+02 -0.53613679646E+02 -0.20820875917E+02  0.88291739532E+02  0.41800000000E+01 0. -1.
</event>
<event>
11    1  0.8328696E-009  0.1479371E+03  0.7561462E-02  0.1099005E+00
         22   -1    0    0    0    0  0.00000000000E+00  0.00000000000E+00  0.11882137608E+03  0.11882137608E+03  0.00000000000E+00 0.  1.
         22   -1    0    0    0    0 -0.00000000000E+00 -0.00000000000E+00 -0.16712126128E+04  0.16712126128E+04  0.00000000000E+00 0.  1.
        -24    2    1    2    0    0 -0.64512629478E+02  0.47733454763E+02 -0.13423935929E+04  0.13472329086E+04  0.81090009709E+02 0.  0.
         25    2    1    2    0    0  0.59774477804E+02 -0.37114634204E+02 -0.29300878510E+03  0.32627271038E+03  0.12509695889E+03 0.  0.
         24    2    1    2    0    0  0.47381516732E+01 -0.10618820560E+02  0.83011141269E+02  0.11652836991E+03  0.80949379167E+02 0.  0.
        -13    1    5    5    0    0 -0.28794149530E+02  0.14468146057E+02  0.12591547883E+02  0.34597360818E+02  0.00000000000E+00 0.  1.
         14    1    5    5    0    0  0.33532301203E+02 -0.25086966616E+02  0.70419593386E+02  0.81931009091E+02  0.00000000000E+00 0. -1.
         13    1    3    3    0    0  0.70980026181E+00  0.11379690015E+02 -0.22454419853E+02  0.25183370151E+02  0.00000000000E+00 0. -1.
        -14    1    3    3    0    0 -0.65222429739E+02  0.36353764748E+02 -0.13199391730E+04  0.13220495384E+04  0.00000000000E+00 0.  1.
          5    1    4    4  501    0 -0.34871860799E+01 -0.18050763748E+02  0.61846568893E+01  0.19842200470E+02  0.41800000000E+01 0.  1.
         -5    1    4    4    0  501  0.63261663884E+02 -0.19063870455E+02 -0.29919344199E+03  0.30643050991E+03  0.41800000000E+01 0.  1.
</event>
<event>
11    1  0.1230167E-008  0.1959959E+03  0.7561462E-02  0.1057392E+00
         22   -1    0    0    0    0  0.00000000000E+00  0.00000000000E+00  0.13669083778E+04  0.13669083778E+04  0.00000000000E+00 0.  1.
         22   -1    0    0    0    0 -0.00000000000E+00 -0.00000000000E+00 -0.80537882131E+03  0.80537882131E+03  0.00000000000E+00 0.  1.
        -24    2    1    2    0    0  0.32399112107E+01 -0.16552328103E+02 -0.51625216737E+03  0.52271376413E+03  0.80180435922E+02 0.  0.
         25    2    1    2    0    0 -0.12932480143E+03  0.99027616524E+02 -0.24276633685E+03  0.31798281582E+03  0.12508478623E+03 0.  0.
         24    2    1    2    0    0  0.12608489022E+03 -0.82475288421E+02  0.13205480607E+04  0.13315906192E+04  0.81159248830E+02 0.  0.
        -11    1    5    5    0    0  0.73931741816E+02 -0.91790708866E+02  0.87419733164E+03  0.88210680268E+03  0.00000000000E+00 0.  1.
         12    1    5    5    0    0  0.52153148408E+02  0.93154204457E+01  0.44635072909E+03  0.44948381651E+03  0.00000000000E+00 0. -1.
         13    1    3    3    0    0 -0.24502407633E+02 -0.38098571407E+02 -0.33915349675E+03  0.34216511143E+03  0.00000000000E+00 0. -1.
        -14    1    3    3    0    0  0.27742318844E+02  0.21546243303E+02 -0.17709867062E+03  0.18054865270E+03  0.00000000000E+00 0.  1.
          5    1    4    4  501    0 -0.50093736394E+02  0.14160040099E+02 -0.39097431446E+01  0.52370293611E+02  0.41800000000E+01 0.  1.
         -5    1    4    4    0  501 -0.79231065040E+02  0.84867576425E+02 -0.23885659371E+03  0.26561252220E+03  0.41800000000E+01 0.  1.
</event>
<event>
11    1  0.8328696E-009  0.1310617E+03  0.7561462E-02  0.1117971E+00
         22   -1    0    0    0    0  0.00000000000E+00  0.00000000000E+00  0.10053868281E+04  0.10053868281E+04  0.00000000000E+00 0.  1.
         22   -1    0    0    0    0 -0.00000000000E+00 -0.00000000000E+00 -0.13044367206E+03  0.13044367206E+03  0.00000000000E+00 0.  1.
         24    2    1    2    0    0 -0.31602356138E+02 -0.27888907459E+02 -0.70958306029E+02  0.11566506720E+03  0.81035958092E+02 0.  0.
         25    2    1    2    0    0  0.17486406355E+02  0.15483345683E+02  0.80116993337E+02  0.15037602822E+03  0.12509479942E+03 0.  0.
        -24    2    1    2    0    0  0.14115949783E+02  0.12405561777E+02  0.86578446871E+03  0.86978940472E+03  0.81226253761E+02 0.  0.
        -13    1    3    3    0    0 -0.26853434658E+02 -0.45738905124E+02 -0.12685735821E+02  0.54535147274E+02  0.00000000000E+00 0.  1.
         14    1    3    3    0    0 -0.47489214799E+01  0.17849997665E+02 -0.58272570209E+02  0.61129919929E+02  0.00000000000E+00 0. -1.
         11    1    5    5    0    0  0.18275112817E+02  0.19427323656E+02  0.87793911136E+02  0.91756043318E+02  0.00000000000E+00 0. -1.
        -12    1    5    5    0    0 -0.41591630346E+01 -0.70217618798E+01  0.77799055757E+03  0.77803336140E+03  0.00000000000E+00 0.  1.
          5    1    4    4  501    0  0.88564399020E+01  0.19692389129E+02  0.11338522871E+03  0.11549852469E+03  0.41800000000E+01 0. -1.
         -5    1    4    4    0  501  0.86299664535E+01 -0.42090434460E+01 -0.33268235370E+02  0.34877503528E+02  0.41800000000E+01 0. -1.
</event>
<event>
11    1  0.8328696E-009  0.1453576E+03  0.7561462E-02  0.1101719E+00
         22   -1    0    0    0    0  0.00000000000E+00  0.00000000000E+00  0.10489811082E+04  0.10489811082E+04  0.00000000000E+00 0. -1.
         22   -1    0    0    0    0 -0.00000000000E+00 -0.00000000000E+00 -0.84453371207E+02  0.84453371207E+02  0.00000000000E+00 0.  1.
         24    2    1    2    0    0  0.42831427382E+02  0.73386449768E+02  0.41732544685E+02  0.12131445095E+03  0.75864936185E+02 0.  0.
         25    2    1    2    0    0 -0.64800969858E+02 -0.22841638884E+02  0.79561203017E+02  0.16338069411E+03  0.12506942080E+03 0.  0.
        -24    2    1    2    0    0  0.21969542476E+02 -0.50544810884E+02  0.84323398924E+03  0.84873933430E+03  0.79230412567E+02 0.  0.
        -13    1    3    3    0    0  0.61934860876E+02  0.37950299303E+02  0.34494177670E+02  0.80411445094E+02  0.00000000000E+00 0.  1.
         14    1    3    3    0    0 -0.19103433494E+02  0.35436150465E+02  0.72383670151E+01  0.40903005856E+02  0.00000000000E+00 0. -1.
         13    1    5    5    0    0 -0.50570232417E+01  0.27900991714E+01  0.51937677548E+03  0.51940888811E+03  0.00000000000E+00 0. -1.
        -14    1    5    5    0    0  0.27026565718E+02 -0.53334910055E+02  0.32385721376E+03  0.32933044619E+03  0.00000000000E+00 0.  1.
          5    1    4    4  501    0 -0.23726130994E+02 -0.39779677706E+00 -0.33313830512E+02  0.41114124551E+02  0.41800000000E+01 0. -1.
         -5    1    4    4    0  501 -0.41074838865E+02 -0.22443842107E+02  0.11287503353E+03  0.12226656955E+03  0.41800000000E+01 0. -1.
</event>
<event>
11    1  0.8328696E-009  0.1445497E+03  0.7561462E-02  0.1102582E+00
         22   -1    0    0    0    0  0.00000000000E+00  0.00000000000E+00  0.76661385812E+03  0.76661385812E+03  0.00000000000E+00 0. -1.
         22   -1    0    0    0    0 -0.00000000000E+00 -0.00000000000E+00 -0.84342793681E+02  0.84342793681E+02  0.00000000000E+00 0. -1.
         24    2    1    2    0    0  0.49966683825E+02  0.54503288428E+02 -0.20130760389E+02  0.11147190087E+03  0.80953438642E+02 0.  0.
         25    2    1    2    0    0 -0.58124575328E+02 -0.27710493177E+02  0.36071448880E+03  0.38718014748E+03  0.12508871447E+03 0.  0.
        -24    2    1    2    0    0  0.81578915030E+01 -0.26792795252E+02  0.34168733603E+03  0.35230460344E+03  0.81141191357E+02 0.  0.
        -13    1    3    3    0    0  0.11400488974E+02 -0.20626409449E+02  0.33840931425E+01  0.23809073943E+02  0.00000000000E+00 0.  1.
         14    1    3    3    0    0  0.38566194850E+02  0.75129697878E+02 -0.23514853532E+02  0.87662826928E+02  0.00000000000E+00 0. -1.
         13    1    5    5    0    0 -0.33650890379E+01 -0.53934656777E+01  0.31897895974E+03  0.31904230135E+03  0.00000000000E+00 0. -1.
        -14    1    5    5    0    0  0.11522980541E+02 -0.21399329574E+02  0.22708376290E+02  0.33262302092E+02  0.00000000000E+00 0.  1.
          5    1    4    4  501    0 -0.46726490947E+02  0.32236488832E+02  0.70600829758E+02  0.90689060702E+02  0.41800000000E+01 0.  1.
         -5    1    4    4    0  501 -0.11398084380E+02 -0.59946982008E+02  0.29011365904E+03  0.29649108678E+03  0.41800000000E+01 0.  1.
</event>
<event>
11    1  0.8328696E-009  0.2465892E+03  0.7561462E-02  0.1025732E+00
         22   -1    0    0    0    0  0.00000000000E+00  0.00000000000E+00  0.24878896450E+04  0.24878896450E+04  0.00000000000E+00 0. -1.
         22   -1    0    0    0    0 -0.00000000000E+00 -0.00000000000E+00 -0.10385313513E+04  0.10385313513E+04  0.00000000000E+00 0.  1.
        -24    2    1    2    0    0 -0.11757854477E+03 -0.16392442270E+03 -0.80653316359E+03  0.83527994542E+03  0.80628237599E+02 0.  0.
         25    2    1    2    0    0  0.27022083440E+03  0.20675004863E+03 -0.60827628372E+02  0.36757580569E+03  0.12508833120E+03 0.  0.
         24    2    1    2    0    0 -0.15264228963E+03 -0.42825625938E+02  0.23167190857E+04  0.23235652452E+04  0.81451972770E+02 0.  0.
        -13    1    5    5    0    0 -0.46790567291E+02  0.93571515175E+01  0.11263596581E+04  0.11273699450E+04  0.00000000000E+00 0.  1.
         14    1    5    5    0    0 -0.10585172234E+03 -0.52182777456E+02  0.11903594275E+04  0.11961953002E+04  0.00000000000E+00 0. -1.
         11    1    3    3    0    0 -0.60486259359E+01  0.62398917229E+01 -0.90077195843E+02  0.90495432677E+02  0.00000000000E+00 0. -1.
        -12    1    3    3    0    0 -0.11152991884E+03 -0.17016431442E+03 -0.71645596774E+03  0.74478451274E+03  0.00000000000E+00 0.  1.
          5    1    4    4  501    0  0.10831518398E+03  0.78095100018E+02 -0.86487720588E+02  0.15914968407E+03  0.41800000000E+01 0.  1.
         -5    1    4    4    0  501  0.16190565042E+03  0.12865494862E+03  0.25660092217E+02  0.20842612162E+03  0.41800000000E+01 0.  1.
</event>
<event>
11    1  0.8328696E-009  0.1411300E+03  0.7561462E-02  0.1106303E+00
         22   -1    0    0    0    0  0.00000000000E+00  0.00000000000E+00  0.89990877598E+03  0.89990877598E+03  0.00000000000E+00 0. -1.
         22   -1    0    0    0    0 -0.00000000000E+00 -0.00000000000E+00 -0.22207171451E+03  0.22207171451E+03  0.00000000000E+00 0. -1.
         24    2    1    2    0    0 -0.57350155747E+02 -0.28631870576E+02 -0.16500219840E+03  0.19259813841E+03  0.75891324058E+02 0.  0.
         25    2    1    2    0    0  0.80485546064E+02  0.11578627747E+02  0.95180765282E+02  0.17697119384E+03  0.12508971830E+03 0.  0.
        -24    2    1    2    0    0 -0.23135390317E+02  0.17053242829E+02  0.74765849459E+03  0.75241115824E+03  0.79393117608E+02 0.  0.
        -11    1    3    3    0    0 -0.22914950570E+02 -0.44284782271E+02 -0.46405810777E+02  0.68115608889E+02  0.00000000000E+00 0.  1.
         12    1    3    3    0    0 -0.34435205177E+02  0.15652911695E+02 -0.11859638762E+03  0.12448252952E+03  0.00000000000E+00 0. -1.
         11    1    5    5    0    0 -0.81238811953E+01 -0.15252071656E+02  0.60915236045E+03  0.60939742482E+03  0.00000000000E+00 0. -1.
        -12    1    5    5    0    0 -0.15011509122E+02  0.32305314485E+02  0.13850613415E+03  0.14301373342E+03  0.00000000000E+00 0.  1.
          5    1    4    4  501    0  0.78750198353E+02  0.56971421087E+02  0.39526669902E+02  0.10501031661E+03  0.41800000000E+01 0. -1.
         -5    1    4    4    0  501  0.17353477109E+01 -0.45392793340E+02  0.55654095380E+02  0.71960877229E+02  0.41800000000E+01 0. -1.
</event>
<event>
11    1  0.8328696E-009  0.1406262E+03  0.7561462E-02  0.1106861E+00
         22   -1    0    0    0    0  0.00000000000E+00  0.00000000000E+00  0.76767309840E+03  0.76767309840E+03  0.00000000000E+00 0.  1.
         22   -1    0    0    0    0 -0.00000000000E+00 -0.00000000000E+00 -0.67225861763E+03  0.67225861763E+03  0.00000000000E+00 0.  1.
         24    2    1    2    0    0 -0.19513928006E+02 -0.39596698166E+02 -0.63747661437E+03  0.64416542355E+03  0.81387757879E+02 0.  0.
         25    2    1    2    0    0  0.50343691766E+02 -0.20157484471E+02  0.14018472697E+03  0.19555264148E+03  0.12509303110E+03 0.  0.
        -24    2    1    2    0    0 -0.30829763760E+02  0.59754182636E+02  0.59270636817E+03  0.60021365101E+03  0.66592426830E+02 0.  0.
        -13    1    3    3    0    0  0.10232526468E+02 -0.48964789562E+02 -0.52707686267E+03  0.52944525153E+03  0.00000000000E+00 0.  1.
         14    1    3    3    0    0 -0.29746454474E+02  0.93680913958E+01 -0.11039975171E+03  0.11472017201E+03  0.00000000000E+00 0. -1.
         13    1    5    5    0    0 -0.13815247100E+02 -0.13391248893E+02  0.14110445268E+03  0.14241015823E+03  0.00000000000E+00 0. -1.
        -14    1    5    5    0    0 -0.17014516660E+02  0.73145431529E+02  0.45160191549E+03  0.45780349278E+03  0.00000000000E+00 0.  1.
          5    1    4    4  501    0  0.17835974803E+02  0.54964889646E+00 -0.22094631142E+02  0.28706606146E+02  0.41800000000E+01 0. -1.
         -5    1    4    4    0  501  0.32507716963E+02 -0.20707133367E+02  0.16227935812E+03  0.16684603533E+03  0.41800000000E+01 0. -1.
</event>
<event>
11    1  0.8328696E-009  0.1723755E+03  0.7561462E-02  0.1075983E+00
         22   -1    0    0    0    0  0.00000000000E+00  0.00000000000E+00  0.36707389089E+03  0.36707389089E+03  0.00000000000E+00 0. -1.
         22   -1    0    0    0    0 -0.00000000000E+00 -0.00000000000E+00 -0.15281280443E+04  0.15281280443E+04  0.00000000000E+00 0. -1.
        -24    2    1    2    0    0  0.11346007657E+03 -0.39035175728E+02 -0.14641010490E+04  0.14718440759E+04  0.91302617786E+02 0.  0.
         25    2    1    2    0    0 -0.86870856472E+02 -0.12354880478E+02  0.61765205737E+02  0.16479930498E+03  0.12507870125E+03 0.  0.
         24    2    1    2    0    0 -0.26589220100E+02  0.51390056206E+02  0.24128168992E+03  0.25855855430E+03  0.72716900431E+02 0.  0.
        -13    1    5    5    0    0  0.24404203590E+02  0.23390008107E+02  0.71530913400E+02  0.79115922569E+02  0.00000000000E+00 0.  1.
         14    1    5    5    0    0 -0.50993423690E+02  0.28000048099E+02  0.16975077652E+03  0.17944263173E+03  0.00000000000E+00 0. -1.
         11    1    3    3    0    0  0.26085663895E+02 -0.18504538720E+02 -0.90663112862E+03  0.90719506347E+03  0.00000000000E+00 0. -1.
        -12    1    3    3    0    0  0.87374412678E+02 -0.20530637008E+02 -0.55746992041E+03  0.56464901240E+03  0.00000000000E+00 0.  1.
          5    1    4    4  501    0 -0.97123965561E+02 -0.36437389358E+02  0.81307670044E+02  0.13186795531E+03  0.41800000000E+01 0. -1.
         -5    1    4    4    0  501  0.10253109089E+02  0.24082508880E+02 -0.19542464307E+02  0.32931349671E+02  0.41800000000E+01 0. -1.
</event>
<event>
11    1  0.8328696E-009  0.1586507E+03  0.7561462E-02  0.1088353E+00
         22   -1    0    0    0    0  0.00000000000E+00  0.00000000000E+00  0.36527359659E+03  0.36527359659E+03  0.00000000000E+00 0.  1.
         22   -1    0    0    0    0 -0.00000000000E+00 -0.00000000000E+00 -0.73823912717E+03  0.73823912717E+03  0.00000000000E+00 0. -1.
        -24    2    1    2    0    0  0.42908805141E+01 -0.96610901581E+02 -0.41896933409E+03  0.43754666949E+03  0.80992018815E+02 0.  0.
         25    2    1    2    0    0 -0.33273189502E+02  0.96951801871E+02 -0.28299511799E+03  0.32594383218E+03  0.12508552237E+03 0.  0.
         24    2    1    2    0    0  0.28982308987E+02 -0.34090028961E+00  0.32899892150E+03  0.34002222208E+03  0.80837681264E+02 0.  0.
        -11    1    5    5    0    0  0.38364043750E+02  0.15087820329E+02  0.31357853321E+03  0.31627668056E+03  0.00000000000E+00 0.  1.
         12    1    5    5    0    0 -0.93817347630E+01 -0.15428720619E+02  0.15420388292E+02  0.23745541522E+02  0.00000000000E+00 0. -1.
         11    1    3    3    0    0 -0.40451700302E+01 -0.75335657013E+02 -0.40217131664E+03  0.40918650094E+03  0.00000000000E+00 0. -1.
        -12    1    3    3    0    0  0.83360505444E+01 -0.21275244568E+02 -0.16798017448E+02  0.28360168552E+02  0.00000000000E+00 0.  1.
          5    1    4    4  501    0 -0.59133032481E+02  0.88263978983E+02 -0.11873904628E+03  0.15938531623E+03  0.41800000000E+01 0. -1.
         -5    1    4    4    0  501  0.25859842979E+02  0.86878228872E+01 -0.16425607171E+03  0.16655851596E+03  0.41800000000E+01 0. -1.
</event>
<event>
11    1  0.8328696E-009  0.1402331E+03  0.7561462E-02  0.1107298E+00
         22   -1    0    0    0    0  0.00000000000E+00  0.00000000000E+00  0.45330935231E+03  0.45330935231E+03  0.00000000000E+00 0. -1.
         22   -1    0    0    0    0 -0.00000000000E+00 -0.00000000000E+00 -0.14456342929E+03  0.14456342929E+03  0.00000000000E+00 0.  1.
         24    2    1    2    0    0 -0.51840363158E+02  0.21199745270E+02 -0.49522080118E+02  0.10936929775E+03  0.79827028125E+02 0.  0.
         25    2    1    2    0    0  0.92412810779E+02 -0.48142587058E+01  0.45655053870E+02  0.16215800789E+03  0.12509009112E+03 0.  0.
        -24    2    1    2    0    0 -0.40572447621E+02 -0.16385486564E+02  0.31261294927E+03  0.32634547595E+03  0.82824549172E+02 0.  0.
        -11    1    3    3    0    0 -0.46517278918E+02  0.34616454011E+02 -0.65740330541E+02  0.87658126753E+02  0.00000000000E+00 0.  1.
         12    1    3    3    0    0 -0.53230842398E+01 -0.13416708741E+02  0.16218250423E+02  0.21711170997E+02  0.00000000000E+00 0. -1.
         13    1    5    5    0    0 -0.63906321588E+02 -0.24609784342E+02  0.21480915480E+03  0.22546093322E+03  0.00000000000E+00 0. -1.
        -14    1    5    5    0    0  0.23333873967E+02  0.82242977784E+01  0.97803794468E+02  0.10088454272E+03  0.00000000000E+00 0.  1.
          5    1    4    4  501    0  0.11594489256E+03  0.30634609476E+00  0.63155434752E+02  0.13209615171E+03  0.41800000000E+01 0. -1.
         -5    1    4    4    0  501 -0.23532081776E+02 -0.51206048006E+01 -0.17500380882E+02  0.30061856185E+02  0.41800000000E+01 0. -1.
</event>
<event>
11    1  0.8328696E-009  0.1853931E+03  0.7561462E-02  0.1065362E+00
         22   -1    0    0    0    0  0.00000000000E+00  0.00000000000E+00  0.42766803154E+03  0.42766803154E+03  0.00000000000E+00 0.  1.
         22   -1    0    0    0    0 -0.00000000000E+00 -0.00000000000E+00 -0.49444393378E+03  0.49444393378E+03  0.00000000000E+00 0.  1.
        -24    2    1    2    0    0 -0.47147157765E+02 -0.12364676488E+03 -0.34773181937E+03  0.38165988282E+03  0.85061571849E+02 0.  0.
         25    2    1    2    0    0  0.15583570393E+02  0.16412070655E+03 -0.35416414611E+02  0.20994668111E+03  0.12507930484E+03 0.  0.
         24    2    1    2    0    0  0.31563587372E+02 -0.40473941675E+02  0.31637233174E+03  0.33050540139E+03  0.80671978125E+02 0.  0.
        -13    1    5    5    0    0  0.53913191278E+02 -0.46433251977E+02  0.21275030079E+03  0.22433316645E+03  0.00000000000E+00 0.  1.
         14    1    5    5    0    0 -0.22349603906E+02  0.59593103013E+01  0.10362203095E+03  0.10617223494E+03  0.00000000000E+00 0. -1.
         13    1    3    3    0    0  0.23036325249E+02 -0.50634782233E+02 -0.13669780836E+03  0.14758334684E+03  0.00000000000E+00 0. -1.
        -14    1    3    3    0    0 -0.70183483014E+02 -0.73011982644E+02 -0.21103401100E+03  0.23407653598E+03  0.00000000000E+00 0.  1.
          5    1    4    4  501    0  0.43389231376E+02  0.15560073118E+03  0.29558533839E+01  0.16161813764E+03  0.41800000000E+01 0. -1.
         -5    1    4    4    0  501 -0.27805660983E+02  0.85199753684E+01 -0.38372267995E+02  0.48328543471E+02  0.41800000000E+01 0. -1.
</event>
<event>
11    1  0.8328696E-009  0.1399144E+03  0.7561462E-02  0.1107654E+00
         22   -1    0    0    0    0  0.00000000000E+00  0.00000000000E+00  0.75243780112E+03  0.75243780112E+03  0.00000000000E+00 0. -1.
         22   -1    0    0    0    0 -0.00000000000E+00 -0.00000000000E+00 -0.52432202625E+03  0.52432202625E+03  0.00000000000E+00 0.  1.
        -24    2    1    2    0    0  0.16167919430E+02 -0.32887252187E+02 -0.43994587601E+03  0.44899925496E+03  0.81883967693E+02 0.  0.
         25    2    1    2    0    0 -0.15868239818E+02  0.93973368323E+02  0.52899551554E+01  0.15735479080E+03  0.12509896712E+03 0.  0.
         24    2    1    2    0    0 -0.29967961138E+00 -0.61086116135E+02  0.66277169572E+03  0.67040578161E+03  0.80286910364E+02 0.  0.
        -11    1    5    5    0    0  0.66016301702E+01 -0.15685062501E+02  0.21166416550E+02  0.27159158605E+02  0.00000000000E+00 0.  1.
         12    1    5    5    0    0 -0.69013097816E+01 -0.45401053634E+02  0.64160527917E+03  0.64324662301E+03  0.00000000000E+00 0. -1.
         13    1    3    3    0    0 -0.64162026267E+01  0.17136977276E+02 -0.28235425117E+02  0.33646439304E+02  0.00000000000E+00 0. -1.
        -14    1    3    3    0    0  0.22584122056E+02 -0.50024229463E+02 -0.41171045089E+03  0.41535281566E+03  0.00000000000E+00 0.  1.
          5    1    4    4  501    0 -0.68105043311E+02  0.40700316023E+02 -0.12786433099E+02  0.80472218313E+02  0.41800000000E+01 0. -1.
         -5    1    4    4    0  501  0.52236803493E+02  0.53273052300E+02  0.18076388254E+02  0.76882572491E+02  0.41800000000E+01 0. -1.
</event>
<event>
11    1  0.8328696E-009  0.1344089E+03  0.7561462E-02  0.1113967E+00
         22   -1    0    0    0    0  0.00000000000E+00  0.00000000000E+00  0.16087868421E+03  0.16087868421E+03  0.00000000000E+00 0.  1.
         22   -1    0    0    0    0 -0.00000000000E+00 -0.00000000000E+00 -0.30566161784E+03  0.30566161784E+03  0.00000000000E+00 0.  1.
         24    2    1    2    0    0 -0.39017135158E+02  0.50552231383E+01 -0.17011555951E+03  0.19193401646E+03  0.79696116391E+02 0.  0.
         25    2    1    2    0    0  0.81436488594E+02  0.10991822303E+01 -0.50400753711E+02  0.15754619257E+03  0.12508979552E+03 0.  0.
        -24    2    1    2    0    0 -0.42419353436E+02 -0.61544053686E+01  0.75733379592E+02  0.11706009301E+03  0.78295864134E+02 0.  0.
        -11    1    3    3    0    0 -0.19316207504E+02  0.33830387778E+02 -0.14167686198E+03  0.14693517017E+03  0.00000000000E+00 0.  1.
         12    1    3    3    0    0 -0.19700927654E+02 -0.28775164640E+02 -0.28438697529E+02  0.44998846292E+02  0.00000000000E+00 0. -1.
         11    1    5    5    0    0 -0.11307564050E+02  0.31125580533E+02  0.86131434670E+01  0.34217671000E+02  0.00000000000E+00 0. -1.
        -12    1    5    5    0    0 -0.31111789386E+02 -0.37279985902E+02  0.67120236125E+02  0.82842422014E+02  0.00000000000E+00 0.  1.
          5    1    4    4  501    0 -0.25952264847E+02  0.22738039940E+02 -0.30262358528E+02  0.46084935225E+02  0.41800000000E+01 0. -1.
         -5    1    4    4    0  501  0.10738875344E+03 -0.21638857710E+02 -0.20138395183E+02  0.11146125735E+03  0.41800000000E+01 0. -1.
</event>
<event>
11    1  0.8328696E-009  0.1723940E+03  0.7561462E-02  0.1075967E+00
         22   -1    0    0    0    0  0.00000000000E+00  0.00000000000E+00  0.11392493735E+03  0.11392493735E+03  0.00000000000E+00 0. -1.
         22   -1    0    0    0    0 -0.00000000000E+00 -0.00000000000E+00 -0.34933178557E+04  0.34933178557E+04  0.00000000000E+00 0.  1.
         24    2    1    2    0    0  0.74651763142E+01 -0.11598377575E+03 -0.30308743396E+04  0.30340393649E+04  0.75416443257E+02 0.  0.
         25    2    1    2    0    0 -0.23043643041E+02  0.15108069347E+03 -0.41671765250E+03  0.46114894493E+03  0.12509341344E+03 0.  0.
        -24    2    1    2    0    0  0.15578466727E+02 -0.35096917723E+02  0.68199073754E+02  0.11205448326E+03  0.80191092385E+02 0.  0.
        -11    1    3    3    0    0 -0.19548412488E+01 -0.11778574059E+03 -0.29761813779E+04  0.29785118594E+04  0.00000000000E+00 0.  1.
         12    1    3    3    0    0  0.94200175630E+01  0.18019648408E+01 -0.54692961709E+02  0.55527505514E+02  0.00000000000E+00 0. -1.
         13    1    5    5    0    0  0.23434188698E+02 -0.59068207502E+02  0.45958632841E+02  0.78424551450E+02  0.00000000000E+00 0. -1.
        -14    1    5    5    0    0 -0.78557219713E+01  0.23971289779E+02  0.22240440912E+02  0.33629931807E+02  0.00000000000E+00 0.  1.
          5    1    4    4  501    0  0.12832561182E+02 -0.31995722771E+01  0.14709092231E+01  0.13948041554E+02  0.41800000000E+01 0. -1.
         -5    1    4    4    0  501 -0.35876204224E+02  0.15428026575E+03 -0.41818856172E+03  0.44720090338E+03  0.41800000000E+01 0. -1.
</event>
<event>
11    1  0.8328696E-009  0.1462930E+03  0.7561462E-02  0.1100728E+00
         22   -1    0    0    0    0  0.00000000000E+00  0.00000000000E+00  0.47987376737E+03  0.47987376737E+03  0.00000000000E+00 0. -1.
         22   -1    0    0    0    0 -0.00000000000E+00 -0.00000000000E+00 -0.26164918779E+03  0.26164918779E+03  0.00000000000E+00 0. -1.
        -24    2    1    2    0    0  0.51528521570E+02 -0.29899830541E+02 -0.18858524125E+03  0.20777967843E+03  0.63708815334E+02 0.  0.
         25    2    1    2    0    0  0.21731668311E+02 -0.10458085773E+02  0.18348764078E+02  0.12870446549E+03  0.12508607168E+03 0.  0.
         24    2    1    2    0    0 -0.73260189881E+02  0.40357916314E+02  0.38846105676E+03  0.40503881124E+03  0.78476933973E+02 0.  0.
        -11    1    5    5    0    0 -0.89389547404E+02  0.37055546892E+02  0.30546218678E+03  0.32042277119E+03  0.00000000000E+00 0.  1.
         12    1    5    5    0    0  0.16129357523E+02  0.33023694219E+01  0.82998869974E+02  0.84616040057E+02  0.00000000000E+00 0. -1.
         13    1    3    3    0    0 -0.69352945122E+01  0.10523297745E+02 -0.55394128370E+02  0.56809748840E+02  0.00000000000E+00 0. -1.
        -14    1    3    3    0    0  0.58463816082E+02 -0.40423128286E+02 -0.13319111288E+03  0.15096992959E+03  0.00000000000E+00 0.  1.
          5    1    4    4  501    0 -0.20686554591E+02 -0.50155624267E+02 -0.21092978550E+02  0.58360143339E+02  0.41800000000E+01 0.  1.
         -5    1    4    4    0  501  0.42418222902E+02  0.39697538495E+02  0.39441742628E+02  0.70344322146E+02  0.41800000000E+01 0.  1.
</event>
<event>
11    1  0.8328696E-009  0.1865160E+03  0.7561462E-02  0.1064491E+00
         22   -1    0    0    0    0  0.00000000000E+00  0.00000000000E+00  0.35980559798E+04  0.35980559798E+04  0.00000000000E+00 0. -1.
         22   -1    0    0    0    0 -0.00000000000E+00 -0.00000000000E+00 -0.16781119381E+04  0.16781119381E+04  0.00000000000E+00 0.  1.
        -24    2    1    2    0    0  0.80375648188E+02 -0.11238928767E+03 -0.16347411061E+04  0.16425484646E+04  0.80593906973E+02 0.  0.
         25    2    1    2    0    0 -0.39139558284E+02  0.15655204807E+03  0.23045874527E+03  0.30789677089E+03  0.12509492187E+03 0.  0.
         24    2    1    2    0    0 -0.41236089904E+02 -0.44162760408E+02  0.33242264026E+04  0.33257226824E+04  0.79368889329E+02 0.  0.
        -13    1    5    5    0    0 -0.12375691028E+02  0.19812654183E+01  0.74965213700E+02  0.76005699827E+02  0.00000000000E+00 0.  1.
         14    1    5    5    0    0 -0.28860398877E+02 -0.46144025826E+02  0.32492611889E+04  0.32497169826E+04  0.00000000000E+00 0. -1.
         13    1    3    3    0    0  0.43554210213E+02 -0.27549406820E+01 -0.51775894109E+03  0.51959491915E+03  0.00000000000E+00 0. -1.
        -14    1    3    3    0    0  0.36821437975E+02 -0.10963434698E+03 -0.11169821650E+04  0.11229535455E+04  0.00000000000E+00 0.  1.
          5    1    4    4  501    0 -0.61258623134E+02  0.11471566399E+03  0.86353644015E+02  0.15616250097E+03  0.41800000000E+01 0.  1.
         -5    1    4    4    0  501  0.22119064850E+02  0.41836384080E+02  0.14410510125E+03  0.15173426992E+03  0.41800000000E+01 0.  1.
</event>
<event>
11    1  0.8328696E-009  0.1315606E+03  0.7561462E-02  0.1117366E+00
         22   -1    0    0    0    0  0.00000000000E+00  0.00000000000E+00  0.10455194828E+04  0.10455194828E+04  0.00000000000E+00 0. -1.
         22   -1    0    0    0    0 -0.00000000000E+00 -0.00000000000E+00 -0.85146666023E+02  0.85146666023E+02  0.00000000000E+00 0. -1.
         24    2    1    2    0    0  0.47770107517E+02 -0.86607640392E+01  0.13951998953E+01  0.96983037986E+02  0.83945047908E+02 0.  0.
         25    2    1    2    0    0 -0.24163898910E+02 -0.14606248693E+02  0.81312752429E+02  0.15182989564E+03  0.12507324650E+03 0.  0.
        -24    2    1    2    0    0 -0.23606208606E+02  0.23267012733E+02  0.87766486444E+03  0.88185321518E+03  0.79188836942E+02 0.  0.
        -13    1    3    3    0    0  0.65305638474E+02 -0.71051441543E+01  0.22557074516E+02  0.69455965191E+02  0.00000000000E+00 0.  1.
         14    1    3    3    0    0 -0.17535530957E+02 -0.15556198850E+01 -0.21161874621E+02  0.27527072795E+02  0.00000000000E+00 0. -1.
         13    1    5    5    0    0 -0.27200758231E+02  0.35131436193E+02  0.85384697897E+03  0.85500220032E+03  0.00000000000E+00 0. -1.
        -14    1    5    5    0    0  0.35945496243E+01 -0.11864423460E+02  0.23817885466E+02  0.26851014862E+02  0.00000000000E+00 0.  1.
          5    1    4    4  501    0 -0.11537033580E+02  0.49845929688E+02  0.67130918200E+02  0.84508889643E+02  0.41800000000E+01 0. -1.
         -5    1    4    4    0  501 -0.12626865330E+02 -0.64452178381E+02  0.14181834229E+02  0.67321005996E+02  0.41800000000E+01 0. -1.
</event>
<event>
11    1  0.8328696E-009  0.1869591E+03  0.7561462E-02  0.1064149E+00
         22   -1    0    0    0    0  0.00000000000E+00  0.00000000000E+00  0.11915775762E+04  0.11915775762E+04  0.00000000000E+00 0. -1.
         22   -1    0    0    0    0 -0.00000000000E+00 -0.00000000000E+00 -0.51731073493E+03  0.51731073493E+03  0.00000000000E+00 0. -1.
        -24    2    1    2    0    0 -0.62873837824E+02 -0.11066588413E+03 -0.31543907912E+03  0.35131096734E+03  0.87849449310E+02 0.  0.
         25    2    1    2    0    0  0.13535018663E+03  0.13445842654E+03 -0.10942213884E+03  0.25301965283E+03  0.12508796411E+03 0.  0.
         24    2    1    2    0    0 -0.72476348808E+02 -0.23792542410E+02  0.10991280592E+04  0.11045576910E+04  0.78398315532E+02 0.  0.
        -11    1    5    5    0    0 -0.70361320192E+01  0.11847446141E+02  0.57438221416E+03  0.57454747156E+03  0.00000000000E+00 0.  1.
         12    1    5    5    0    0 -0.65440216788E+02 -0.35639988551E+02  0.52474584508E+03  0.53001021942E+03  0.00000000000E+00 0. -1.
         11    1    3    3    0    0 -0.33043586734E+01 -0.77196381032E+02 -0.22543496906E+03  0.23830888633E+03  0.00000000000E+00 0. -1.
        -12    1    3    3    0    0 -0.59569479150E+02 -0.33469503093E+02 -0.90004110059E+02  0.11300208100E+03  0.00000000000E+00 0.  1.
          5    1    4    4  501    0  0.11917615023E+03  0.11396542136E+03 -0.13728727013E+03  0.21460740665E+03  0.41800000000E+01 0.  1.
         -5    1    4    4    0  501  0.16174036399E+02  0.20493005174E+02  0.27865131296E+02  0.38412246180E+02  0.41800000000E+01 0.  1.
</event>
<event>
11    1  0.8328696E-009  0.2118159E+03  0.7561462E-02  0.1046469E+00
         22   -1    0    0    0    0  0.00000000000E+00  0.00000000000E+00  0.94527911256E+03  0.94527911256E+03  0.00000000000E+00 0.  1.
         22   -1    0    0    0    0 -0.00000000000E+00 -0.00000000000E+00 -0.31073117328E+03  0.31073117328E+03  0.00000000000E+00 0.  1.
        -24    2    1    2    0    0  0.62245647030E+02  0.15970780956E+03 -0.24262956469E+03  0.30741129898E+03  0.79066402921E+02 0.  0.
         25    2    1    2    0    0 -0.72040772320E+02 -0.15012819974E+03  0.29740989533E+03  0.36308228289E+03  0.12509096319E+03 0.  0.
         24    2    1    2    0    0  0.97951252897E+01 -0.95796098164E+01  0.57976760864E+03  0.58551670398E+03  0.80694592164E+02 0.  0.
        -13    1    5    5    0    0 -0.34674408407E+02  0.19629828520E+01  0.29973148875E+03  0.30173686094E+03  0.00000000000E+00 0.  1.
         14    1    5    5    0    0  0.44469533697E+02 -0.11542592668E+02  0.28003611989E+03  0.28377984304E+03  0.00000000000E+00 0. -1.
         11    1    3    3    0    0 -0.90750046982E+01 -0.34743754167E+01 -0.20664189871E+02  0.22834967436E+02  0.00000000000E+00 0. -1.
        -12    1    3    3    0    0  0.71320651728E+02  0.16318218498E+03 -0.22196537482E+03  0.28457633154E+03  0.00000000000E+00 0.  1.
          5    1    4    4  501    0 -0.94283672329E+02 -0.94778606923E+02  0.26044284865E+03  0.29278036992E+03  0.41800000000E+01 0.  1.
         -5    1    4    4    0  501  0.22242900009E+02 -0.55349592821E+02  0.36967046672E+02  0.70301912960E+02  0.41800000000E+01 0.  1.
</event>
<event>
11    1  0.8328696E-009  0.1440086E+03  0.7561462E-02  0.1103163E+00
         22   -1    0    0    0    0  0.00000000000E+00  0.00000000000E+00  0.10626328516E+03  0.10626328516E+03  0.00000000000E+00 0. -1.
         22   -1    0    0    0    0 -0.00000000000E+00 -0.00000000000E+00 -0.96422336791E+03  0.96422336791E+03  0.00000000000E+00 0.  1.
         24    2    1    2    0    0 -0.55625222109E+02  0.43704229924E+02 -0.79399997189E+03  0.80081395940E+03  0.76569035239E+02 0.  0.
         25    2    1    2    0    0  0.40569774362E+02 -0.75157708330E+02 -0.92790346034E+02  0.17762961167E+03  0.12509053886E+03 0.  0.
        -24    2    1    2    0    0  0.15055447747E+02  0.31453478407E+02  0.28830235181E+02  0.92043081998E+02  0.80154592335E+02 0.  0.
        -11    1    3    3    0    0 -0.58719796034E+02  0.60034995709E+02 -0.56442328331E+03  0.57063636223E+03  0.00000000000E+00 0.  1.
         12    1    3    3    0    0  0.30945739244E+01 -0.16330765785E+02 -0.22957668858E+03  0.23017759717E+03  0.00000000000E+00 0. -1.
         11    1    5    5    0    0 -0.10185692702E+01  0.53084072643E+02  0.36010460899E+02  0.64153796037E+02  0.00000000000E+00 0. -1.
        -12    1    5    5    0    0  0.16074017018E+02 -0.21630594236E+02 -0.71802257180E+01  0.27889285962E+02  0.00000000000E+00 0.  1.
          5    1    4    4  501    0 -0.13237585399E+02 -0.37447378199E+01 -0.86728161507E+02  0.87911905490E+02  0.41800000000E+01 0.  1.
         -5    1    4    4    0  501  0.53807359761E+02 -0.71412970511E+02 -0.60621845274E+01  0.89717706183E+02  0.41800000000E+01 0.  1.
</event>
<event>
11    1  0.8328696E-009  0.1561466E+03  0.7561462E-02  0.1090759E+00
         22   -1    0    0    0    0  0.00000000000E+00  0.00000000000E+00  0.31199159896E+03  0.31199159896E+03  0.00000000000E+00 0.  1.
         22   -1    0    0    0    0 -0.00000000000E+00 -0.00000000000E+00 -0.55737039103E+03  0.55737039103E+03  0.00000000000E+00 0. -1.
        -24    2    1    2    0    0 -0.60384430625E+02 -0.74634675636E+02 -0.49691194124E+03  0.51228195338E+03  0.79339196702E+02 0.  0.
         25    2    1    2    0    0  0.66280761323E+02  0.51217985304E+01  0.10680828465E+03  0.17741340996E+03  0.12509251066E+03 0.  0.
         24    2    1    2    0    0 -0.58963306972E+01  0.69512877106E+02  0.14472486453E+03  0.17966662665E+03  0.80423898933E+02 0.  0.
        -11    1    5    5    0    0 -0.15124618631E+02  0.85954931316E+02  0.12417485367E+03  0.15177746404E+03  0.00000000000E+00 0.  1.
         12    1    5    5    0    0  0.92282879338E+01 -0.16442054210E+02  0.20550010860E+02  0.27889162611E+02  0.00000000000E+00 0. -1.
         11    1    3    3    0    0 -0.31719152979E+02 -0.87192340052E+02 -0.38992229478E+03  0.40080918751E+03  0.00000000000E+00 0. -1.
        -12    1    3    3    0    0 -0.28665277646E+02  0.12557664415E+02 -0.10698964647E+03  0.11147276587E+03  0.00000000000E+00 0.  1.
          5    1    4    4  501    0 -0.88688473260E+01 -0.47623718020E+02  0.47861723351E+02  0.68226768450E+02  0.41800000000E+01 0. -1.
         -5    1    4    4    0  501  0.75149608649E+02  0.52745516550E+02  0.58946561299E+02  0.10918664151E+03  0.41800000000E+01 0. -1.
</event>
<event>
11    1  0.8328696E-009  0.1310115E+03  0.7561462E-02  0.1118032E+00
         22   -1    0    0    0    0  0.00000000000E+00  0.00000000000E+00  0.19172653327E+03  0.19172653327E+03  0.00000000000E+00 0.  1.
         22   -1    0    0    0    0 -0.00000000000E+00 -0.00000000000E+00 -0.56287830697E+03  0.56287830697E+03  0.00000000000E+00 0. -1.
         24    2    1    2    0    0  0.31238215106E+02  0.42507467969E+01 -0.49016175322E+03  0.49718888635E+03  0.77099607352E+02 0.  0.
         25    2    1    2    0    0 -0.96581342787E+01 -0.40022802574E+02  0.43388469922E+02  0.13865503130E+03  0.12509018386E+03 0.  0.
        -24    2    1    2    0    0 -0.21580080827E+02  0.35772055777E+02  0.75621509602E+02  0.11876092259E+03  0.81487447845E+02 0.  0.
        -11    1    3    3    0    0  0.21106969868E+02 -0.20882609250E+02 -0.68510719046E+02  0.74667972855E+02  0.00000000000E+00 0.  1.
         12    1    3    3    0    0  0.10131245238E+02  0.25133356047E+02 -0.42165103418E+03  0.42252091350E+03  0.00000000000E+00 0. -1.
         11    1    5    5    0    0 -0.27733560341E+02  0.22336070722E+02 -0.57389943486E+01  0.36069190185E+02  0.00000000000E+00 0. -1.
        -12    1    5    5    0    0  0.61534795142E+01  0.13435985055E+02  0.81360503950E+02  0.82691732402E+02  0.00000000000E+00 0.  1.
          5    1    4    4  501    0  0.15246332959E+02 -0.72000188837E+02  0.59607102910E+02  0.94799562122E+02  0.41800000000E+01 0.  1.
         -5    1    4    4    0  501 -0.24904467238E+02  0.31977386263E+02 -0.16218632988E+02  0.43855469175E+02  0.41800000000E+01 0.  1.
</event>
<event>
11    1  0.8328696E-009  0.1507664E+03  0.7561462E-02  0.1096098E+00
         22   -1    0    0    0    0  0.00000000000E+00  0.00000000000E+00  0.10647846819E+04  0.10647846819E+04  0.00000000000E+00 0. -1.
         22   -1    0    0    0    0 -0.00000000000E+00 -0.00000000000E+00 -0.11848960513E+04  0.11848960513E+04  0.00000000000E+00 0. -1.
        -24    2    1    2    0    0  0.32482878453E+02  0.12591589951E+02 -0.11413602331E+04  0.11446257383E+04  0.79064615692E+02 0.  0.
         25    2    1    2    0    0  0.95373238757E+01  0.62993876596E+02  0.90594357816E+02  0.16707457023E+03  0.12508950921E+03 0.  0.
         24    2    1    2    0    0 -0.42020202328E+02 -0.75585466547E+02  0.93065450583E+03  0.93798042473E+03  0.78807409477E+02 0.  0.
        -11    1    5    5    0    0 -0.70514455698E+01 -0.81180662480E+02  0.63039654127E+03  0.63564126840E+03  0.00000000000E+00 0.  1.
         12    1    5    5    0    0 -0.34968756759E+02  0.55951959331E+01  0.30025796456E+03  0.30233915633E+03  0.00000000000E+00 0. -1.
         11    1    3    3    0    0  0.21938775746E+02  0.21258985697E+02 -0.11100433531E+04  0.11104636419E+04  0.00000000000E+00 0. -1.
        -12    1    3    3    0    0  0.10544102707E+02 -0.86673957459E+01 -0.31316880047E+02  0.34162096347E+02  0.00000000000E+00 0.  1.
          5    1    4    4  501    0 -0.48791587102E+02 -0.38347269146E+01  0.17788080533E+02  0.52241863592E+02  0.41800000000E+01 0.  1.
         -5    1    4    4    0  501  0.58328910978E+02  0.66828603510E+02  0.72806277283E+02  0.11483270664E+03  0.41800000000E+01 0.  1.
</event>
<event>
11    1  0.8328696E-009  0.1444780E+03  0.7561462E-02  0.1102659E+00
         22   -1    0    0    0    0  0.00000000000E+00  0.00000000000E+00  0.14170727302E+03  0.14170727302E+03  0.00000000000E+00 0. -1.
         22   -1    0    0    0    0 -0.00000000000E+00 -0.00000000000E+00 -0.95053252955E+03  0.95053252955E+03  0.00000000000E+00 0.  1.
         24    2    1    2    0    0 -0.37607871984E+02 -0.65772434410E+02 -0.82188472361E+03  0.82918103997E+03  0.79412423374E+02 0.  0.
         25    2    1    2    0    0  0.16037611414E+02  0.29776334030E+02 -0.63360194464E+02  0.14424240683E+03  0.12509005811E+03 0.  0.
        -24    2    1    2    0    0  0.21570260570E+02  0.35996100380E+02  0.76419661540E+02  0.11881635577E+03  0.80724013429E+02 0.  0.
        -13    1    3    3    0    0 -0.34300077887E+02 -0.71654506938E+02 -0.43234262671E+03  0.43958049386E+03  0.00000000000E+00 0.  1.
         14    1    3    3    0    0 -0.33077940971E+01  0.58820725281E+01 -0.38954209690E+03  0.38960054611E+03  0.00000000000E+00 0. -1.
         13    1    5    5    0    0 -0.29711679384E+02  0.19274340401E+02  0.41512442048E+02  0.54567086550E+02  0.00000000000E+00 0. -1.
        -14    1    5    5    0    0  0.51281939954E+02  0.16721759979E+02  0.34907219491E+02  0.64249269217E+02  0.00000000000E+00 0.  1.
          5    1    4    4  501    0 -0.49824450736E+02  0.38140906592E+02 -0.27071490713E+02  0.68465631205E+02  0.41800000000E+01 0. -1.
         -5    1    4    4    0  501  0.65862062150E+02 -0.83645725622E+01 -0.36288703751E+02  0.75776775629E+02  0.41800000000E+01 0. -1.
</event>
<event>
11    1  0.8328696E-009  0.2635707E+03  0.7561462E-02  0.1016908E+00
         22   -1    0    0    0    0  0.00000000000E+00  0.00000000000E+00  0.68712916606E+03  0.68712916606E+03  0.00000000000E+00 0. -1.
         22   -1    0    0    0    0 -0.00000000000E+00 -0.00000000000E+00 -0.47483873078E+03  0.47483873078E+03  0.00000000000E+00 0.  1.
        -24    2    1    2    0    0 -0.12393614401E+02  0.26015484852E+02 -0.36272934856E+03  0.37242125380E+03  0.79338533133E+02 0.  0.
         25    2    1    2    0    0 -0.11827590219E+03  0.17653200342E+03  0.13418758624E+03  0.28073321180E+03  0.12510831562E+03 0.  0.
         24    2    1    2    0    0  0.13066951659E+03 -0.20254748827E+03  0.44083219760E+03  0.50881343124E+03  0.80362141590E+02 0.  0.
        -11    1    5    5    0    0 -0.58789015017E+01 -0.26362696045E+02  0.24040469491E+02  0.36159333497E+02  0.00000000000E+00 0.  1.
         12    1    5    5    0    0  0.13654841809E+03 -0.17618479222E+03  0.41679172811E+03  0.47265409774E+03  0.00000000000E+00 0. -1.
         11    1    3    3    0    0 -0.28509867546E+02  0.75410670049E+01 -0.45342905790E+02  0.54089364431E+02  0.00000000000E+00 0. -1.
        -12    1    3    3    0    0  0.16116253145E+02  0.18474417847E+02 -0.31738644277E+03  0.31833188937E+03  0.00000000000E+00 0.  1.
          5    1    4    4  501    0 -0.80760717073E+02  0.55988996469E+02  0.11763553395E+03  0.15333835918E+03  0.41800000000E+01 0.  1.
         -5    1    4    4    0  501 -0.37515185113E+02  0.12054300695E+03  0.16552052288E+02  0.12739485262E+03  0.41800000000E+01 0.  1.
</event>
<event>
11    1  0.8328696E-009  0.1293122E+03  0.7561462E-02  0.1120117E+00
         22   -1    0    0    0    0  0.00000000000E+00  0.00000000000E+00  0.48793345966E+03  0.48793345966E+03  0.00000000000E+00 0. -1.
         22   -1    0    0    0    0 -0.00000000000E+00 -0.00000000000E+00 -0.49266048608E+02  0.49266048608E+02  0.00000000000E+00 0.  1.
        -24    2    1    2    0    0  0.88209484383E+01 -0.22135245335E+02  0.86775773379E+02  0.11983041718E+03  0.79129740411E+02 0.  0.
         25    2    1    2    0    0  0.15930920024E+02  0.39997763894E+02  0.16152567790E+03  0.20878606480E+03  0.12508981136E+03 0.  0.
         24    2    1    2    0    0 -0.24751868462E+02 -0.17862518559E+02  0.19036595978E+03  0.20858302629E+03  0.79598716414E+02 0.  0.
        -11    1    5    5    0    0 -0.37209705843E+02 -0.42322447153E+02  0.14490830549E+03  0.15548044489E+03  0.00000000000E+00 0.  1.
         12    1    5    5    0    0  0.12457837381E+02  0.24459928594E+02  0.45457654286E+02  0.53102581408E+02  0.00000000000E+00 0. -1.
         13    1    3    3    0    0  0.26627304727E+02 -0.27881778534E+02  0.92541640915E+02  0.10025149492E+03  0.00000000000E+00 0. -1.
        -14    1    3    3    0    0 -0.17806356289E+02  0.57465331989E+01 -0.57658675360E+01  0.19578922252E+02  0.00000000000E+00 0.  1.
          5    1    4    4  501    0 -0.33483613648E+02 -0.30231582709E+02  0.68394419878E+02  0.82038832552E+02  0.41800000000E+01 0. -1.
         -5    1    4    4    0  501  0.49414533672E+02  0.70229346603E+02  0.93131258020E+02  0.12674723225E+03  0.41800000000E+01 0. -1.
</event>
<event>
11    1  0.8328696E-009  0.7999763E+03  0.7561462E-02  0.8896695E-01
         22   -1    0    0    0    0  0.00000000000E+00  0.00000000000E+00  0.43544133963E+03  0.43544133963E+03  0.00000000000E+00 0. -1.
         22   -1    0    0    0    0 -0.00000000000E+00 -0.00000000000E+00 -0.36742153520E+03  0.36742153520E+03  0.00000000000E+00 0. -1.
        -24    2    1    2    0    0 -0.10467662590E+02  0.13207305167E+03 -0.86281294966E+02  0.17734277883E+03  0.80331416064E+02 0.  0.
         25    2    1    2    0    0  0.12882308409E+03 -0.32140926663E+03  0.11018356362E+03  0.38430146002E+03  0.12509152972E+03 0.  0.
         24    2    1    2    0    0 -0.11835542150E+03  0.18933621497E+03  0.44117535779E+02  0.24121863597E+03  0.79899094359E+02 0.  0.
        -11    1    5    5    0    0 -0.19083040627E+01  0.22277687308E+02 -0.17576076235E+02  0.28440383823E+02  0.00000000000E+00 0.  1.
         12    1    5    5    0    0 -0.11644711744E+03  0.16705852766E+03  0.61693612015E+02  0.21277825215E+03  0.00000000000E+00 0. -1.
         11    1    3    3    0    0  0.47459395822E+01  0.12767318742E+03 -0.95049936156E+02  0.15924024960E+03  0.00000000000E+00 0. -1.
        -12    1    3    3    0    0 -0.15213602172E+02  0.43998642454E+01  0.87686411897E+01  0.18102529236E+02  0.00000000000E+00 0.  1.
          5    1    4    4  501    0 -0.21707176836E+02 -0.15477134664E+02  0.48564619661E+01  0.27418986970E+02  0.41800000000E+01 0.  1.
         -5    1    4    4    0  501  0.15053026093E+03 -0.30593213197E+03  0.10532710165E+03  0.35688247305E+03  0.41800000000E+01 0.  1.
</event>
<event>
11    1  0.8328696E-009  0.1476831E+03  0.7561462E-02  0.1099270E+00
         22   -1    0    0    0    0  0.00000000000E+00  0.00000000000E+00  0.36524527605E+03  0.36524527605E+03  0.00000000000E+00 0.  1.
         22   -1    0    0    0    0 -0.00000000000E+00 -0.00000000000E+00 -0.38029968634E+03  0.38029968634E+03  0.00000000000E+00 0.  1.
        -24    2    1    2    0    0  0.19065422533E+02 -0.21955044506E+02 -0.31389437376E+03  0.32355240306E+03  0.72876370187E+02 0.  0.
         25    2    1    2    0    0 -0.72211883959E+02  0.71210026191E+02  0.84395371371E+02  0.18181113672E+03  0.12508911509E+03 0.  0.
         24    2    1    2    0    0  0.53146461426E+02 -0.49254981685E+02  0.21444459210E+03  0.24018142261E+03  0.80312098103E+02 0.  0.
        -11    1    5    5    0    0  0.62913457410E+02 -0.30910457491E+02  0.20625928155E+03  0.21784501539E+03  0.00000000000E+00 0.  1.
         12    1    5    5    0    0 -0.97669959836E+01 -0.18344524194E+02  0.81853105479E+01  0.22336407213E+02  0.00000000000E+00 0. -1.
         13    1    3    3    0    0 -0.10731485828E+02 -0.15288167823E+02 -0.17520331681E+02  0.25609663912E+02  0.00000000000E+00 0. -1.
        -14    1    3    3    0    0  0.29796908360E+02 -0.66668766829E+01 -0.29637404208E+03  0.29794273914E+03  0.00000000000E+00 0.  1.
          5    1    4    4  501    0 -0.62055468320E+02 -0.22782232904E+02  0.30687526773E+02  0.73000739612E+02  0.41800000000E+01 0.  1.
         -5    1    4    4    0  501 -0.10156415639E+02  0.93992259095E+02  0.53707844599E+02  0.10881039711E+03  0.41800000000E+01 0.  1.
</event>
<event>
11    1  0.8328696E-009  0.1974898E+03  0.7561462E-02  0.1056313E+00
         22   -1    0    0    0    0  0.00000000000E+00  0.00000000000E+00  0.60884823133E+03  0.60884823133E+03  0.00000000000E+00 0.  1.
         22   -1    0    0    0    0 -0.00000000000E+00 -0.00000000000E+00 -0.12005658144E+03  0.12005658144E+03  0.00000000000E+00 0.  1.
         24    2    1    2    0    0  0.15591973178E+02 -0.10402723588E+03  0.10937062880E+03  0.17174420100E+03  0.80432336157E+02 0.  0.
         25    2    1    2    0    0 -0.16026163005E+03  0.10584310651E+03  0.14754648209E+03  0.27258730809E+03  0.12508925969E+03 0.  0.
        -24    2    1    2    0    0  0.14466965688E+03 -0.18158706276E+01  0.23187453900E+03  0.28457330368E+03  0.79268886228E+02 0.  0.
        -13    1    3    3    0    0 -0.21116683831E+02 -0.76148136016E+02  0.40299691735E+02  0.88704667908E+02  0.00000000000E+00 0.  1.
         14    1    3    3    0    0  0.36708657009E+02 -0.27879099867E+02  0.69070937069E+02  0.83039533093E+02  0.00000000000E+00 0. -1.
         11    1    5    5    0    0  0.99018756889E+01 -0.12620729143E+01  0.83638817255E+02  0.84232367425E+02  0.00000000000E+00 0. -1.
        -12    1    5    5    0    0  0.13476778119E+03 -0.55379771332E+00  0.14823572174E+03  0.20034093625E+03  0.00000000000E+00 0.  1.
          5    1    4    4  501    0 -0.12263869466E+02  0.36052473544E+02 -0.15711114637E+02  0.41406459231E+02  0.41800000000E+01 0.  1.
         -5    1    4    4    0  501 -0.14799776059E+03  0.69790632966E+02  0.16325759673E+03  0.23118084886E+03  0.41800000000E+01 0.  1.
</event>
<event>
11    1  0.8328696E-009  0.2082093E+03  0.7561462E-02  0.1048866E+00
         22   -1    0    0    0    0  0.00000000000E+00  0.00000000000E+00  0.11044769716E+04  0.11044769716E+04  0.00000000000E+00 0.  1.
         22   -1    0    0    0    0 -0.00000000000E+00 -0.00000000000E+00 -0.87452607759E+02  0.87452607759E+02  0.00000000000E+00 0. -1.
         24    2    1    2    0    0  0.16875080389E+03  0.19096719826E+01  0.76429192867E+02  0.20136196412E+03  0.78897011439E+02 0.  0.
         25    2    1    2    0    0 -0.15555147665E+03  0.56727524308E+02  0.55218937301E+03  0.58989414572E+03  0.12509086928E+03 0.  0.
        -24    2    1    2    0    0 -0.13199327235E+02 -0.58637196291E+02  0.38840579797E+03  0.40067346952E+03  0.77894943726E+02 0.  0.
        -11    1    3    3    0    0 -0.32075591967E+01 -0.83539423093E+01 -0.56080978347E+01  0.10560660464E+02  0.00000000000E+00 0.  1.
         12    1    3    3    0    0  0.17195836308E+03  0.10263614292E+02  0.82037290702E+02  0.19080130366E+03  0.00000000000E+00 0. -1.
         11    1    5    5    0    0 -0.67801897120E+01 -0.28816416242E+01 -0.82862791693E+00  0.74135993421E+01  0.00000000000E+00 0. -1.
        -12    1    5    5    0    0 -0.64191375225E+01 -0.55755554666E+02  0.38923442588E+03  0.39325987018E+03  0.00000000000E+00 0.  1.
          5    1    4    4  501    0 -0.11387357262E+03 -0.76984553428E+01  0.20862868441E+03  0.23784418663E+03  0.41800000000E+01 0. -1.
         -5    1    4    4    0  501 -0.41677904037E+02  0.64425979651E+02  0.34356068861E+03  0.35204995909E+03  0.41800000000E+01 0. -1.
</event>
<event>
11    1  0.8328696E-009  0.1337393E+03  0.7561462E-02  0.1114758E+00
         22   -1    0    0    0    0  0.00000000000E+00  0.00000000000E+00  0.27311589760E+03  0.27311589760E+03  0.00000000000E+00 0.  1.
         22   -1    0    0    0    0 -0.00000000000E+00 -0.00000000000E+00 -0.73705356127E+03  0.73705356127E+03  0.00000000000E+00 0. -1.
         24    2    1    2    0    0  0.12650587455E+02  0.45630747722E+02 -0.68907459531E+03  0.69550098066E+03  0.81581944645E+02 0.  0.
         25    2    1    2    0    0 -0.21054963111E+02 -0.42394031786E+02  0.97858570991E+02  0.16571901454E+03  0.12508367784E+03 0.  0.
        -24    2    1    2    0    0  0.84043756559E+01 -0.32367159355E+01  0.12727836065E+03  0.14894946368E+03  0.76844334721E+02 0.  0.
        -13    1    3    3    0    0  0.11148475520E+02 -0.12143493554E+02 -0.33025753830E+02  0.36911425848E+02  0.00000000000E+00 0.  1.
         14    1    3    3    0    0  0.15021119347E+01  0.57774241276E+02 -0.65604884148E+03  0.65858955481E+03  0.00000000000E+00 0. -1.
         13    1    5    5    0    0 -0.57880447652E+01 -0.75502499506E+01 -0.82616995200E+01  0.12600135534E+02  0.00000000000E+00 0. -1.
        -14    1    5    5    0    0  0.14192420421E+02  0.43135340152E+01  0.13554006017E+03  0.13634932814E+03  0.00000000000E+00 0.  1.
          5    1    4    4  501    0 -0.24217624163E+02 -0.62475653746E+02  0.11865940806E+03  0.13633498506E+03  0.41800000000E+01 0. -1.
         -5    1    4    4    0  501  0.31626610523E+01  0.20081621960E+02 -0.20800837070E+02  0.29384029476E+02  0.41800000000E+01 0. -1.
</event>
<event>
11    1  0.8328696E-009  0.1293092E+03  0.7561462E-02  0.1120121E+00
         22   -1    0    0    0    0  0.00000000000E+00  0.00000000000E+00  0.90125805742E+02  0.90125805742E+02  0.00000000000E+00 0.  1.
         22   -1    0    0    0    0 -0.00000000000E+00 -0.00000000000E+00 -0.13944217612E+04  0.13944217612E+04  0.00000000000E+00 0. -1.
         24    2    1    2    0    0 -0.27024835314E+02 -0.25998550319E+02 -0.12151203826E+04  0.12183650827E+04  0.80558451236E+02 0.  0.
         25    2    1    2    0    0 -0.35972307585E+01 -0.54787182244E+01 -0.93321876157E+02  0.15620468214E+03  0.12509186117E+03 0.  0.
        -24    2    1    2    0    0  0.30622066073E+02  0.31477268543E+02  0.41463033539E+01  0.10997780209E+03  0.10074420954E+03 0.  0.
        -13    1    3    3    0    0  0.10298630835E+02  0.39173254011E+01 -0.25442034789E+02  0.27725518382E+02  0.00000000000E+00 0.  1.
         14    1    3    3    0    0 -0.37323466150E+02 -0.29915875720E+02 -0.11896783478E+04  0.11906395643E+04  0.00000000000E+00 0. -1.
         11    1    5    5    0    0  0.27417861003E+02  0.16089000343E+02 -0.46848190033E+02  0.56615792349E+02  0.00000000000E+00 0. -1.
        -12    1    5    5    0    0  0.32042050702E+01  0.15388268200E+02  0.50994493387E+02  0.53362009746E+02  0.00000000000E+00 0.  1.
          5    1    4    4  501    0  0.84821921754E+01  0.32843948261E+01  0.30147750117E+02  0.31766241053E+02  0.41800000000E+01 0.  1.
         -5    1    4    4    0  501 -0.12079422934E+02 -0.87631130504E+01 -0.12346962627E+03  0.12443844109E+03  0.41800000000E+01 0.  1.
</event>
<event>
11    1  0.8328696E-009  0.1887073E+03  0.7561462E-02  0.1062809E+00
         22   -1    0    0    0    0  0.00000000000E+00  0.00000000000E+00  0.62935038067E+03  0.62935038067E+03  0.00000000000E+00 0.  1.
         22   -1    0    0    0    0 -0.00000000000E+00 -0.00000000000E+00 -0.21597915860E+03  0.21597915860E+03  0.00000000000E+00 0.  1.
         24    2    1    2    0    0 -0.20246538120E+02  0.63159761999E+02 -0.12468090616E+03  0.17819629065E+03  0.10867157769E+03 0.  0.
         25    2    1    2    0    0  0.58515410765E+02  0.87098070071E+02  0.89261211589E+02  0.18608469944E+03  0.12509925805E+03 0.  0.
        -24    2    1    2    0    0 -0.38268872645E+02 -0.15025783207E+03  0.44879091664E+03  0.48104854919E+03  0.77152427732E+02 0.  0.
        -11    1    3    3    0    0 -0.55557984365E+02  0.23816149276E+02 -0.10619092823E+03  0.12219006437E+03  0.00000000000E+00 0.  1.
         12    1    3    3    0    0  0.35311446245E+02  0.39343612723E+02 -0.18489977935E+02  0.56006226279E+02  0.00000000000E+00 0. -1.
         13    1    5    5    0    0 -0.29451271926E+02 -0.61292178434E+02  0.99634029377E+02  0.12062772635E+03  0.00000000000E+00 0. -1.
        -14    1    5    5    0    0 -0.88176007189E+01 -0.88965653636E+02  0.34915688726E+03  0.36042082283E+03  0.00000000000E+00 0.  1.
          5    1    4    4  501    0  0.75982108610E+02  0.13920222665E+02  0.78073625898E+02  0.10990913014E+03  0.41800000000E+01 0.  1.
         -5    1    4    4    0  501 -0.17466697844E+02  0.73177847406E+02  0.11187585691E+02  0.76175569300E+02  0.41800000000E+01 0.  1.
</event>
<event>
11    1  0.8328696E-009  0.1488794E+03  0.7561462E-02  0.1098029E+00
         22   -1    0    0    0    0  0.00000000000E+00  0.00000000000E+00  0.16240589503E+04  0.16240589503E+04  0.00000000000E+00 0. -1.
         22   -1    0    0    0    0 -0.00000000000E+00 -0.00000000000E+00 -0.47082451434E+03  0.47082451434E+03  0.00000000000E+00 0.  1.
        -24    2    1    2    0    0  0.26911145448E+02  0.14429127713E+02 -0.42471041665E+03  0.43347601742E+03  0.81179493658E+02 0.  0.
         25    2    1    2    0    0 -0.28428712073E+02 -0.94356202334E+02  0.12071372296E+03  0.19982624073E+03  0.12508972373E+03 0.  0.
         24    2    1    2    0    0  0.15175666255E+01  0.79927074622E+02  0.14572311297E+04  0.14615812065E+04  0.79412956769E+02 0.  0.
        -13    1    5    5    0    0  0.25344457939E+02 -0.30616427329E+01  0.26453792551E+03  0.26576687009E+03  0.00000000000E+00 0.  1.
         14    1    5    5    0    0 -0.23826891314E+02  0.82988717355E+02  0.11926932042E+04  0.11958143364E+04  0.00000000000E+00 0. -1.
         11    1    3    3    0    0 -0.62451707627E+01 -0.16783517890E+02 -0.22788845512E+02  0.28983100428E+02  0.00000000000E+00 0. -1.
        -12    1    3    3    0    0  0.33156316210E+02  0.31212645603E+02 -0.40192157114E+03  0.40449291699E+03  0.00000000000E+00 0.  1.
          5    1    4    4  501    0  0.31146317734E+02  0.14859880647E+02  0.26959687153E+02  0.43990979673E+02  0.41800000000E+01 0.  1.
         -5    1    4    4    0  501 -0.59575029807E+02 -0.10921608298E+03  0.93754035807E+02  0.15583526106E+03  0.41800000000E+01 0.  1.
</event>
<event>
11    1  0.8328696E-009  0.2614508E+03  0.7561462E-02  0.1017970E+00
         22   -1    0    0    0    0  0.00000000000E+00  0.00000000000E+00  0.29634396507E+04  0.29634396507E+04  0.00000000000E+00 0. -1.
         22   -1    0    0    0    0 -0.00000000000E+00 -0.00000000000E+00 -0.44546436593E+02  0.44546436593E+02  0.00000000000E+00 0.  1.
         24    2    1    2    0    0  0.25025616893E+03 -0.39669661083E+01  0.57866092639E+03  0.63530783676E+03  0.78254027413E+02 0.  0.
         25    2    1    2    0    0 -0.17241611808E+03  0.10701455392E+03  0.14079568219E+04  0.14279948067E+04  0.12508926042E+03 0.  0.
        -24    2    1    2    0    0 -0.77840050849E+02 -0.10304758781E+03  0.93227546585E+03  0.94468344388E+03  0.81310430104E+02 0.  0.
        -13    1    3    3    0    0  0.11969072519E+03 -0.38891770935E+02  0.24841237011E+03  0.27847288049E+03  0.00000000000E+00 0.  1.
         14    1    3    3    0    0  0.13056544374E+03  0.34924804827E+02  0.33024855628E+03  0.35683495627E+03  0.00000000000E+00 0. -1.
         11    1    5    5    0    0 -0.41470493912E+02  0.14109015252E+01  0.28995446442E+03  0.29290849074E+03  0.00000000000E+00 0. -1.
        -12    1    5    5    0    0 -0.36369556937E+02 -0.10445848934E+03  0.64232100143E+03  0.65177495314E+03  0.00000000000E+00 0.  1.
          5    1    4    4  501    0 -0.18274751798E+03  0.75943880586E+02  0.13035798395E+04  0.13185226577E+04  0.41800000000E+01 0.  1.
         -5    1    4    4    0  501  0.10331399897E+02  0.31070673333E+02  0.10437698237E+03  0.10947214904E+03  0.41800000000E+01 0.  1.
</event>
<event>
11    1  0.8328696E-009  0.1421666E+03  0.7561462E-02  0.1105163E+00
         22   -1    0    0    0    0  0.00000000000E+00  0.00000000000E+00  0.15908012087E+04  0.15908012087E+04  0.00000000000E+00 0.  1.
         22   -1    0    0    0    0 -0.00000000000E+00 -0.00000000000E+00 -0.37329639407E+03  0.37329639407E+03  0.00000000000E+00 0. -1.
        -24    2    1    2    0    0 -0.33784261705E+01 -0.37930557257E+02 -0.34840669353E+03  0.35944443164E+03  0.79768003613E+02 0.  0.
         25    2    1    2    0    0 -0.30315666742E+02  0.92445144665E+02  0.34794610162E+03  0.38233260294E+03  0.12508631108E+03 0.  0.
         24    2    1    2    0    0  0.33694092912E+02 -0.54514587408E+02  0.12179654066E+04  0.12223205682E+04  0.80750899536E+02 0.  0.
        -13    1    5    5    0    0  0.32593217907E+02 -0.69225084089E+02  0.11595370593E+04  0.11620587859E+04  0.00000000000E+00 0.  1.
         14    1    5    5    0    0  0.11008750053E+01  0.14710496681E+02  0.58428347293E+02  0.60261782299E+02  0.00000000000E+00 0. -1.
         11    1    3    3    0    0 -0.39825265000E+02 -0.15193247652E+02 -0.21851631878E+03  0.22263483124E+03  0.00000000000E+00 0. -1.
        -12    1    3    3    0    0  0.36446838830E+02 -0.22737309605E+02 -0.12989037475E+03  0.13680960040E+03  0.00000000000E+00 0.  1.
          5    1    4    4  501    0 -0.56413040612E+01  0.89283522617E+02  0.34558080774E+03  0.35699711315E+03  0.41800000000E+01 0.  1.
         -5    1    4    4    0  501 -0.24674362681E+02  0.31616220474E+01  0.23652938779E+01  0.25335489788E+02  0.41800000000E+01 0.  1.
</event>
<event>
11    1  0.8328696E-009  0.1529394E+03  0.7561462E-02  0.1093913E+00
         22   -1    0    0    0    0  0.00000000000E+00  0.00000000000E+00  0.36323173066E+03  0.36323173066E+03  0.00000000000E+00 0. -1.
         22   -1    0    0    0    0 -0.00000000000E+00 -0.00000000000E+00 -0.25735352999E+03  0.25735352999E+03  0.00000000000E+00 0.  1.
        -24    2    1    2    0    0 -0.72847305304E+02  0.50273062901E+02 -0.18088376402E+03  0.21500061238E+03  0.75314118817E+02 0.  0.
         25    2    1    2    0    0  0.53165946388E+02 -0.70799967701E+02  0.62491948842E+02  0.16550450651E+03  0.12508894725E+03 0.  0.
         24    2    1    2    0    0  0.19681358916E+02  0.20526904800E+02  0.22427001585E+03  0.24008014176E+03  0.80825272964E+02 0.  0.
        -13    1    5    5    0    0 -0.78485402878E+01 -0.19194083550E+02  0.15769063304E+02  0.26051406593E+02  0.00000000000E+00 0.  1.
         14    1    5    5    0    0  0.27529899204E+02  0.39720988350E+02  0.20850095255E+03  0.21402873517E+03  0.00000000000E+00 0. -1.
         11    1    3    3    0    0 -0.52661381785E+02 -0.23071967856E+01 -0.12499523519E+03  0.13565527305E+03  0.00000000000E+00 0. -1.
        -12    1    3    3    0    0 -0.20185923519E+02  0.52580259687E+02 -0.55888528838E+02  0.79345339326E+02  0.00000000000E+00 0.  1.
          5    1    4    4  501    0  0.89072157642E+02 -0.74138380637E+02  0.39378008169E+02  0.12246815373E+03  0.41800000000E+01 0. -1.
         -5    1    4    4    0  501 -0.35906211254E+02  0.33384129365E+01  0.23113940673E+02  0.43036352784E+02  0.41800000000E+01 0. -1.
</event>
<event>
11    1  0.8328696E-009  0.1671354E+03  0.7561462E-02  0.1080552E+00
         22   -1    0    0    0    0  0.00000000000E+00  0.00000000000E+00  0.66659632476E+03  0.66659632476E+03  0.00000000000E+00 0.  1.
         22   -1    0    0    0    0 -0.00000000000E+00 -0.00000000000E+00 -0.37840054868E+03  0.37840054868E+03  0.00000000000E+00 0.  1.
         24    2    1    2    0    0  0.26731565046E+02  0.90866104915E+02 -0.16376459156E+03  0.20582152785E+03  0.81070551296E+02 0.  0.
         25    2    1    2    0    0 -0.99765647722E+02 -0.12544165260E+03 -0.13270735367E+03  0.24279159730E+03  0.12509086829E+03 0.  0.
        -24    2    1    2    0    0  0.73034082676E+02  0.34575547684E+02  0.58466772130E+03  0.59638374829E+03  0.85485584498E+02 0.  0.
        -13    1    3    3    0    0  0.50163503206E+02  0.33103984589E+02 -0.61033107238E+02  0.85657988703E+02  0.00000000000E+00 0.  1.
         14    1    3    3    0    0 -0.23431938160E+02  0.57762120327E+02 -0.10273148432E+03  0.12016353915E+03  0.00000000000E+00 0. -1.
         13    1    5    5    0    0 -0.19505126114E+02  0.49311264874E+01  0.11855714027E+03  0.12025207467E+03  0.00000000000E+00 0. -1.
        -14    1    5    5    0    0  0.92539208789E+02  0.29644421196E+02  0.46611058103E+03  0.47613167362E+03  0.00000000000E+00 0.  1.
          5    1    4    4  501    0 -0.15338617195E+01 -0.95620059518E+02 -0.37785317420E+02  0.10291137511E+03  0.41800000000E+01 0.  1.
         -5    1    4    4    0  501 -0.98231786002E+02 -0.29821593081E+02 -0.94922036250E+02  0.13988022219E+03  0.41800000000E+01 0.  1.
</event>
<event>
11    1  0.8328696E-009  0.1376679E+03  0.7561462E-02  0.1110191E+00
         22   -1    0    0    0    0  0.00000000000E+00  0.00000000000E+00  0.26222474813E+04  0.26222474813E+04  0.00000000000E+00 0. -1.
         22   -1    0    0    0    0 -0.00000000000E+00 -0.00000000000E+00 -0.44766530262E+02  0.44766530262E+02  0.00000000000E+00 0.  1.
         24    2    1    2    0    0  0.24134733571E-01 -0.56691873176E+00  0.61947475368E+02  0.10094821042E+03  0.79704011840E+02 0.  0.
         25    2    1    2    0    0 -0.57386525450E+02 -0.33025869090E+01  0.17134088803E+03  0.21979290551E+03  0.12508837284E+03 0.  0.
        -24    2    1    2    0    0  0.57362390716E+02  0.38695056407E+01  0.23441925877E+04  0.23462728957E+04  0.80325561670E+02 0.  0.
        -13    1    3    3    0    0  0.39526488863E+02  0.37343642790E+01  0.35094033085E+02  0.52989432499E+02  0.00000000000E+00 0.  1.
         14    1    3    3    0    0 -0.39502354130E+02 -0.43012830107E+01  0.26853442284E+02  0.47958777922E+02  0.00000000000E+00 0. -1.
         11    1    5    5    0    0  0.42690735526E+02 -0.96378639076E+01  0.22244876986E+04  0.22249181802E+04  0.00000000000E+00 0. -1.
        -12    1    5    5    0    0  0.14671655190E+02  0.13507369548E+02  0.11970488904E+03  0.12135471543E+03  0.00000000000E+00 0.  1.
          5    1    4    4  501    0 -0.49179465357E+01 -0.59153104697E+02  0.90643425499E+02  0.10842960380E+03  0.41800000000E+01 0.  1.
         -5    1    4    4    0  501 -0.52468578914E+02  0.55850517788E+02  0.80697462528E+02  0.11136330171E+03  0.41800000000E+01 0.  1.
</event>
<event>
11    1  0.8328696E-009  0.1447838E+03  0.7561462E-02  0.1102331E+00
         22   -1    0    0    0    0  0.00000000000E+00  0.00000000000E+00  0.34561519384E+03  0.34561519384E+03  0.00000000000E+00 0.  1.
         22   -1    0    0    0    0 -0.00000000000E+00 -0.00000000000E+00 -0.69631974302E+03  0.69631974302E+03  0.00000000000E+00 0. -1.
        -24    2    1    2    0    0 -0.46643106162E+02 -0.55597635320E+02 -0.64819165546E+03  0.65718628454E+03  0.80465607380E+02 0.  0.
         25    2    1    2    0    0  0.57217062488E+02  0.62820356507E+02  0.13277720571E+03  0.20124267042E+03  0.12509451072E+03 0.  0.
         24    2    1    2    0    0 -0.10573956327E+02 -0.72227211871E+01  0.16470990058E+03  0.18350598189E+03  0.79881899003E+02 0.  0.
        -13    1    5    5    0    0  0.34804276651E+02  0.83092007075E+00  0.70678785748E+02  0.78787809058E+02  0.00000000000E+00 0.  1.
         14    1    5    5    0    0 -0.45378232978E+02 -0.80536412578E+01  0.94031114831E+02  0.10471817284E+03  0.00000000000E+00 0. -1.
         11    1    3    3    0    0 -0.30849438438E+02 -0.61332284544E+02 -0.62380490736E+03  0.62757142974E+03  0.00000000000E+00 0. -1.
        -12    1    3    3    0    0 -0.15793667724E+02  0.57346492234E+01 -0.24386748109E+02  0.29614854807E+02  0.00000000000E+00 0.  1.
          5    1    4    4  501    0  0.83417190042E+02  0.58806679051E+02  0.14014077525E+03  0.17341730705E+03  0.41800000000E+01 0. -1.
         -5    1    4    4    0  501 -0.26200127554E+02  0.40136774565E+01 -0.73635695415E+01  0.27825363375E+02  0.41800000000E+01 0. -1.
</event>
<event>
11    1  0.8911820E-009  0.1856020E+03  0.7561462E-02  0.1065199E+00
         22   -1    0    0    0    0  0.00000000000E+00  0.00000000000E+00  0.19894099962E+04  0.19894099962E+04  0.00000000000E+00 0. -1.
         22   -1    0    0    0    0 -0.00000000000E+00 -0.00000000000E+00 -0.10459237475E+04  0.10459237475E+04  0.00000000000E+00 0. -1.
         24    2    1    2    0    0  0.60953607432E+02 -0.10328459634E+03 -0.96292360334E+03  0.97361328860E+03  0.79485343002E+02 0.  0.
         25    2    1    2    0    0 -0.28175719938E+02  0.23243942809E+03  0.16332995444E+03  0.31168306916E+03  0.12509077768E+03 0.  0.
        -24    2    1    2    0    0 -0.32777887494E+02 -0.12915483176E+03  0.17430798976E+04  0.17500373859E+04  0.80919481273E+02 0.  0.
        -13    1    3    3    0    0  0.14781458973E+02 -0.23272181184E+02 -0.60640539461E+02  0.66613519443E+02  0.00000000000E+00 0.  1.
         14    1    3    3    0    0  0.46172148458E+02 -0.80012415152E+02 -0.90228306388E+03  0.90699976915E+03  0.00000000000E+00 0. -1.
         13    1    5    5    0    0  0.17098790851E+02 -0.84216181691E+02  0.11393562346E+04  0.11425923872E+04  0.00000000000E+00 0. -1.
        -14    1    5    5    0    0 -0.49876678345E+02 -0.44938650064E+02  0.60372366299E+03  0.60744499880E+03  0.00000000000E+00 0.  1.
          5    1    4    4  501    0  0.29706127158E+02  0.39646338381E+02  0.79120653170E+02  0.93444295149E+02  0.41800000000E+01 0. -1.
         -5    1    4    4    0  501 -0.57881847096E+02  0.19279308971E+03  0.84209301266E+02  0.21823877401E+03  0.41800000000E+01 0. -1.
</event>
<event>
11    1  0.8328696E-009  0.1521989E+03  0.7561462E-02  0.1094653E+00
         22   -1    0    0    0    0  0.00000000000E+00  0.00000000000E+00  0.49578372559E+03  0.49578372559E+03  0.00000000000E+00 0.  1.
         22   -1    0    0    0    0 -0.00000000000E+00 -0.00000000000E+00 -0.14720533835E+04  0.14720533835E+04  0.00000000000E+00 0. -1.
         24    2    1    2    0    0 -0.31259568395E+02 -0.42207581790E+02 -0.11943696870E+04  0.11984421355E+04  0.83582069096E+02 0.  0.
         25    2    1    2    0    0  0.11617047881E+03  0.53856771402E+02 -0.23837498096E+03  0.29810506415E+03  0.12509142956E+03 0.  0.
        -24    2    1    2    0    0 -0.84910910419E+02 -0.11649189612E+02  0.45647501011E+03  0.47128990942E+03  0.79994859474E+02 0.  0.
        -13    1    3    3    0    0 -0.29914764389E+02 -0.63689412489E+01 -0.13319133889E+03  0.13665792804E+03  0.00000000000E+00 0.  1.
         14    1    3    3    0    0 -0.13448040066E+01 -0.35838640541E+02 -0.10611783481E+04  0.10617842075E+04  0.00000000000E+00 0. -1.
         13    1    5    5    0    0 -0.31678854050E+02 -0.40106873959E+02  0.13833638703E+03  0.14747564921E+03  0.00000000000E+00 0. -1.
        -14    1    5    5    0    0 -0.53232056369E+02  0.28457684347E+02  0.31813862308E+03  0.32381426021E+03  0.00000000000E+00 0.  1.
          5    1    4    4  501    0  0.44612301363E+02 -0.48961455500E+01 -0.18654869658E+03  0.19191695670E+03  0.41800000000E+01 0. -1.
         -5    1    4    4    0  501  0.71558177452E+02  0.58752916952E+02 -0.51826284383E+02  0.10618810745E+03  0.41800000000E+01 0. -1.
</event>
<event>
11    1  0.8328696E-009  0.1640685E+03  0.7561462E-02  0.1083312E+00
         22   -1    0    0    0    0  0.00000000000E+00  0.00000000000E+00  0.85120108831E+02  0.85120108831E+02  0.00000000000E+00 0. -1.
         22   -1    0    0    0    0 -0.00000000000E+00 -0.00000000000E+00 -0.14229743021E+04  0.14229743021E+04  0.00000000000E+00 0. -1.
        -24    2    1    2    0    0  0.80579728872E+01 -0.33209818909E+01 -0.97783524240E+03  0.98081809857E+03  0.75936956423E+02 0.  0.
         25    2    1    2    0    0  0.78999524644E+02  0.65198736208E+02 -0.36342376350E+03  0.39776715553E+03  0.12510027199E+03 0.  0.
         24    2    1    2    0    0 -0.87057497531E+02 -0.61877754317E+02  0.34048126648E+01  0.12950915679E+03  0.73165323671E+02 0.  0.
        -13    1    5    5    0    0  0.83030301000E+01 -0.11663511983E+02 -0.14364256553E+02  0.20280771359E+02  0.00000000000E+00 0.  1.
         14    1    5    5    0    0 -0.95360527631E+02 -0.50214242334E+02  0.17769069218E+02  0.10922838543E+03  0.00000000000E+00 0. -1.
         11    1    3    3    0    0 -0.31421880429E+02 -0.15505171278E+02 -0.47102476362E+03  0.47232623561E+03  0.00000000000E+00 0. -1.
        -12    1    3    3    0    0  0.39479853316E+02  0.12184189387E+02 -0.50681047878E+03  0.50849186296E+03  0.00000000000E+00 0.  1.
          5    1    4    4  501    0 -0.12903205059E+01  0.32191615708E+02 -0.10263664832E+02  0.34070225487E+02  0.41800000000E+01 0.  1.
         -5    1    4    4    0  501  0.80289845150E+02  0.33007120500E+02 -0.35316009866E+03  0.36369693005E+03  0.41800000000E+01 0.  1.
</event>
<event>
11    1  0.8328696E-009  0.1351210E+03  0.7561462E-02  0.1113132E+00
         22   -1    0    0    0    0  0.00000000000E+00  0.00000000000E+00  0.22853767347E+03  0.22853767347E+03  0.00000000000E+00 0.  1.
         22   -1    0    0    0    0 -0.00000000000E+00 -0.00000000000E+00 -0.24638479706E+04  0.24638479706E+04  0.00000000000E+00 0. -1.
        -24    2    1    2    0    0  0.49850754915E+02  0.11756782788E+02 -0.23031847999E+04  0.23051608262E+04  0.80516408943E+02 0.  0.
         25    2    1    2    0    0 -0.46345226849E+02 -0.22098998737E+01 -0.12213695036E+03  0.18089538868E+03  0.12511172325E+03 0.  0.
         24    2    1    2    0    0 -0.35055280659E+01 -0.95468829140E+01  0.19001145316E+03  0.20632942924E+03  0.79774991944E+02 0.  0.
        -13    1    5    5    0    0 -0.16904808549E+02 -0.17007966159E+02  0.18947197484E+03  0.19098343571E+03  0.00000000000E+00 0.  1.
         14    1    5    5    0    0  0.13399280483E+02  0.74610832452E+01  0.53947831672E+00  0.15345993533E+02  0.00000000000E+00 0. -1.
         13    1    3    3    0    0  0.21159895384E+02 -0.72230871534E+01 -0.19842824251E+04  0.19844083896E+04  0.00000000000E+00 0. -1.
        -14    1    3    3    0    0  0.28690859530E+02  0.18979869941E+02 -0.31890237487E+03  0.32075243660E+03  0.00000000000E+00 0.  1.
          5    1    4    4  501    0 -0.62691606828E+02 -0.42829084222E+02 -0.35897810368E+02  0.84087414107E+02  0.41800000000E+01 0. -1.
         -5    1    4    4    0  501  0.16346379979E+02  0.40619184348E+02 -0.86239139990E+02  0.96807974578E+02  0.41800000000E+01 0. -1.
</event>
<event>
11    1  0.8328696E-009  0.1355767E+03  0.7561462E-02  0.1112601E+00
         22   -1    0    0    0    0  0.00000000000E+00  0.00000000000E+00  0.83960960411E+03  0.83960960411E+03  0.00000000000E+00 0.  1.
         22   -1    0    0    0    0 -0.00000000000E+00 -0.00000000000E+00 -0.85728028248E+02  0.85728028248E+02  0.00000000000E+00 0. -1.
        -24    2    1    2    0    0 -0.36906878077E+01  0.35851125041E+02 -0.38368902835E+02  0.95533641563E+02  0.79721889230E+02 0.  0.
         25    2    1    2    0    0  0.29088030573E+02 -0.70322560160E+02  0.39215138287E+03  0.41859455046E+03  0.12508922656E+03 0.  0.
         24    2    1    2    0    0 -0.25397342766E+02  0.34471435119E+02  0.40009909583E+03  0.41120944033E+03  0.84738494662E+02 0.  0.
        -11    1    5    5    0    0  0.29221592975E+02  0.26434714542E+02  0.18376555737E+03  0.18794274582E+03  0.00000000000E+00 0.  1.
         12    1    5    5    0    0 -0.54618935741E+02  0.80367205767E+01  0.21633353846E+03  0.22326669452E+03  0.00000000000E+00 0. -1.
         11    1    3    3    0    0  0.39225437612E+00  0.24370329646E+01 -0.57003832909E+02  0.57057251594E+02  0.00000000000E+00 0. -1.
        -12    1    3    3    0    0 -0.40829421838E+01  0.33414092076E+02  0.18634930074E+02  0.38476389969E+02  0.00000000000E+00 0.  1.
          5    1    4    4  501    0  0.30654498014E+02 -0.75518365009E+02  0.39996348024E+03  0.40820458061E+03  0.41800000000E+01 0.  1.
         -5    1    4    4    0  501 -0.15664674410E+01  0.51958048491E+01 -0.78120973711E+01  0.10389969856E+02  0.41800000000E+01 0.  1.
</event>
<event>
11    1  0.8328696E-009  0.1550360E+03  0.7561462E-02  0.1091841E+00
         22   -1    0    0    0    0  0.00000000000E+00  0.00000000000E+00  0.18732952964E+03  0.18732952964E+03  0.00000000000E+00 0.  1.
         22   -1    0    0    0    0 -0.00000000000E+00 -0.00000000000E+00 -0.63874830388E+03  0.63874830388E+03  0.00000000000E+00 0.  1.
         24    2    1    2    0    0 -0.24347985391E+02  0.27562884179E+02 -0.49227581204E+03  0.50045547923E+03  0.82265877470E+02 0.  0.
         25    2    1    2    0    0 -0.63992131552E+02 -0.59851180509E+02 -0.61935862452E+02  0.16480468875E+03  0.12508947865E+03 0.  0.
        -24    2    1    2    0    0  0.88340116943E+02  0.32288296331E+02  0.10279290024E+03  0.16081766554E+03  0.80308348680E+02 0.  0.
        -13    1    3    3    0    0 -0.30748181631E+02  0.54165351267E+02 -0.31759652418E+03  0.32364623916E+03  0.00000000000E+00 0.  1.
         14    1    3    3    0    0  0.64001962398E+01 -0.26602467088E+02 -0.17467928786E+03  0.17680924007E+03  0.00000000000E+00 0. -1.
         13    1    5    5    0    0  0.22119076572E+01  0.13203622647E+02 -0.10652858722E+02  0.17108816015E+02  0.00000000000E+00 0. -1.
        -14    1    5    5    0    0  0.86128209286E+02  0.19084673684E+02  0.11344575896E+03  0.14370884952E+03  0.00000000000E+00 0.  1.
          5    1    4    4  501    0 -0.20292679968E+02 -0.13057897557E+02  0.38496787661E+02  0.45626490213E+02  0.41800000000E+01 0. -1.
         -5    1    4    4    0  501 -0.43699451584E+02 -0.46793282953E+02 -0.10043265011E+03  0.11917819854E+03  0.41800000000E+01 0. -1.
</event>
<event>
11    1  0.8328696E-009  0.3633918E+03  0.7561462E-02  0.9764410E-01
         22   -1    0    0    0    0  0.00000000000E+00  0.00000000000E+00  0.23230518498E+04  0.23230518498E+04  0.00000000000E+00 0. -1.
         22   -1    0    0    0    0 -0.00000000000E+00 -0.00000000000E+00 -0.21781713216E+03  0.21781713216E+03  0.00000000000E+00 0.  1.
        -24    2    1    2    0    0  0.25271427693E+03  0.23442252858E+03 -0.34758779567E+02  0.35556446236E+03  0.79996790339E+02 0.  0.
         25    2    1    2    0    0 -0.19614671736E+03 -0.24250454199E+03  0.14476509402E+04  0.14861437955E+04  0.12509256052E+03 0.  0.
         24    2    1    2    0    0 -0.56567559564E+02  0.80820134069E+01  0.69234255700E+03  0.69916072407E+03  0.78881519517E+02 0.  0.
        -11    1    5    5    0    0 -0.91845210052E+01 -0.93582125500E+01  0.50391947244E+03  0.50409003787E+03  0.00000000000E+00 0.  1.
         12    1    5    5    0    0 -0.47383038559E+02  0.17440225957E+02  0.18842308455E+03  0.19507068621E+03  0.00000000000E+00 0. -1.
         11    1    3    3    0    0  0.11389111962E+03  0.75992358506E+02 -0.46483979145E+02  0.14459179090E+03  0.00000000000E+00 0. -1.
        -12    1    3    3    0    0  0.13882315731E+03  0.15843017008E+03  0.11725199578E+02  0.21097267146E+03  0.00000000000E+00 0.  1.
          5    1    4    4  501    0 -0.17667750509E+02 -0.53510576408E+02  0.11224552709E+03  0.12566647106E+03  0.41800000000E+01 0. -1.
         -5    1    4    4    0  501 -0.17847896685E+03 -0.18899396558E+03  0.13354054131E+04  0.13604773244E+04  0.41800000000E+01 0. -1.
</event>
<event>
11    1  0.8328696E-009  0.1319619E+03  0.7561462E-02  0.1116882E+00
         22   -1    0    0    0    0  0.00000000000E+00  0.00000000000E+00  0.64895956660E+03  0.64895956660E+03  0.00000000000E+00 0.  1.
         22   -1    0    0    0    0 -0.00000000000E+00 -0.00000000000E+00 -0.10970496571E+03  0.10970496571E+03  0.00000000000E+00 0.  1.
         24    2    1    2    0    0  0.36118948563E+00 -0.46194203137E+02  0.31183728641E+01  0.11125742948E+03  0.10116549068E+03 0.  0.
         25    2    1    2    0    0 -0.31295678124E+02  0.30886942206E+02  0.33470982640E+02  0.13675014434E+03  0.12508745993E+03 0.  0.
        -24    2    1    2    0    0  0.30934488638E+02  0.15307260931E+02  0.50266524538E+03  0.51065695849E+03  0.83107914865E+02 0.  0.
        -13    1    3    3    0    0  0.43946166745E+02 -0.86498820266E+01 -0.20265187265E+02  0.49160592405E+02  0.00000000000E+00 0.  1.
         14    1    3    3    0    0 -0.43584977260E+02 -0.37544321110E+02  0.23383560129E+02  0.62096837075E+02  0.00000000000E+00 0. -1.
         11    1    5    5    0    0 -0.17528609546E+02  0.10620745503E+02  0.35736048220E+02  0.41196086344E+02  0.00000000000E+00 0. -1.
        -12    1    5    5    0    0  0.48463098184E+02  0.46865154280E+01  0.46692919716E+03  0.46946087214E+03  0.00000000000E+00 0.  1.
          5    1    4    4  501    0  0.42333612284E+02 -0.17714517692E+00  0.37382739310E+02  0.56631331502E+02  0.41800000000E+01 0. -1.
         -5    1    4    4    0  501 -0.73629290408E+02  0.31064087383E+02 -0.39117566692E+01  0.80118812841E+02  0.41800000000E+01 0. -1.
</event>
<event>
11    1  0.8328696E-009  0.1418685E+03  0.7561462E-02  0.1105490E+00
         22   -1    0    0    0    0  0.00000000000E+00  0.00000000000E+00  0.10938718320E+03  0.10938718320E+03  0.00000000000E+00 0. -1.
         22   -1    0    0    0    0 -0.00000000000E+00 -0.00000000000E+00 -0.21468007449E+04  0.21468007449E+04  0.00000000000E+00 0. -1.
         24    2    1    2    0    0  0.69116690880E+01 -0.19562006271E+02 -0.13933969252E+04  0.13958552108E+04  0.80164425503E+02 0.  0.
         25    2    1    2    0    0 -0.10864329729E+02 -0.47936491046E+02 -0.71887858907E+03  0.73133431341E+03  0.12509001284E+03 0.  0.
        -24    2    1    2    0    0  0.39526606410E+01  0.67498497318E+02  0.74861952584E+02  0.12899840387E+03  0.80402771027E+02 0.  0.
        -13    1    3    3    0    0  0.26106136270E+02 -0.43702243247E+02 -0.75543545140E+03  0.75714868926E+03  0.00000000000E+00 0.  1.
         14    1    3    3    0    0 -0.19194467182E+02  0.24140236976E+02 -0.63796147379E+03  0.63870652154E+03  0.00000000000E+00 0. -1.
         13    1    5    5    0    0  0.21561161115E+01  0.81110812968E+02  0.80368799478E+02  0.11420488933E+03  0.00000000000E+00 0. -1.
        -14    1    5    5    0    0  0.17965445295E+01 -0.13612315651E+02 -0.55068468942E+01  0.14793514536E+02  0.00000000000E+00 0.  1.
          5    1    4    4  501    0 -0.23025101395E+02 -0.88365611345E+02 -0.52105430387E+03  0.52901200037E+03  0.41800000000E+01 0.  1.
         -5    1    4    4    0  501  0.12160771666E+02  0.40429120299E+02 -0.19782428520E+03  0.20232231303E+03  0.41800000000E+01 0.  1.
</event>
<event>
11    1  0.8328696E-009  0.1783636E+03  0.7561462E-02  0.1070974E+00
         22   -1    0    0    0    0  0.00000000000E+00  0.00000000000E+00  0.10273651174E+03  0.10273651174E+03  0.00000000000E+00 0. -1.
         22   -1    0    0    0    0 -0.00000000000E+00 -0.00000000000E+00 -0.23408670019E+04  0.23408670019E+04  0.00000000000E+00 0. -1.
        -24    2    1    2    0    0 -0.86289254775E+02 -0.76499157247E+02 -0.15013423673E+04  0.15079089760E+04  0.80390418529E+02 0.  0.
         25    2    1    2    0    0  0.17066241473E+03  0.85654110845E+02 -0.77878377330E+03  0.81155201749E+03  0.12510085939E+03 0.  0.
         24    2    1    2    0    0 -0.84373159956E+02 -0.91549535976E+01  0.41995650481E+02  0.12414252016E+03  0.80281301413E+02 0.  0.
        -13    1    5    5    0    0 -0.75265948491E+02  0.19479566060E+02  0.70649930376E+01  0.78066193854E+02  0.00000000000E+00 0.  1.
         14    1    5    5    0    0 -0.91072114647E+01 -0.28634519657E+02  0.34930657444E+02  0.46076326309E+02  0.00000000000E+00 0. -1.
         11    1    3    3    0    0 -0.82233772040E+02 -0.92339457927E+02 -0.13652345735E+04  0.13708225303E+04  0.00000000000E+00 0. -1.
        -12    1    3    3    0    0 -0.40554827356E+01  0.15840300680E+02 -0.13610779377E+03  0.13708644568E+03  0.00000000000E+00 0.  1.
          5    1    4    4  501    0  0.94897054456E+01  0.64399675041E+02 -0.24610870595E+03  0.25460624540E+03  0.41800000000E+01 0. -1.
         -5    1    4    4    0  501  0.16117270929E+03  0.21254435803E+02 -0.53267506736E+03  0.55694577208E+03  0.41800000000E+01 0. -1.
</event>
<event>
11    1  0.8328696E-009  0.1308406E+03  0.7561462E-02  0.1118240E+00
         22   -1    0    0    0    0  0.00000000000E+00  0.00000000000E+00  0.96401591976E+03  0.96401591976E+03  0.00000000000E+00 0.  1.
         22   -1    0    0    0    0 -0.00000000000E+00 -0.00000000000E+00 -0.26134625027E+04  0.26134625027E+04  0.00000000000E+00 0.  1.
        -24    2    1    2    0    0 -0.29235055916E+01  0.15931806346E+02 -0.25050741337E+04  0.25065792902E+04  0.85328502346E+02 0.  0.
         25    2    1    2    0    0 -0.35066492584E+02 -0.98781844237E+01 -0.65157310316E+02  0.14567274874E+03  0.12509131548E+03 0.  0.
         24    2    1    2    0    0  0.37989998176E+02 -0.60536219224E+01  0.92078486102E+03  0.92522638359E+03  0.81970813702E+02 0.  0.
        -13    1    5    5    0    0  0.56504337068E+02  0.11947386529E+02  0.77682244457E+03  0.77896636034E+03  0.00000000000E+00 0.  1.
         14    1    5    5    0    0 -0.18514338892E+02 -0.18001008452E+02  0.14396241646E+03  0.14626002325E+03  0.00000000000E+00 0. -1.
         13    1    3    3    0    0 -0.43586172790E+02  0.22593118832E+01 -0.11578165285E+04  0.11586388448E+04  0.00000000000E+00 0. -1.
        -14    1    3    3    0    0  0.40662667199E+02  0.13672494463E+02 -0.13472576052E+04  0.13479404454E+04  0.00000000000E+00 0.  1.
          5    1    4    4  501    0 -0.28761590148E+02 -0.58854168177E+02 -0.23667062002E+01  0.65681929614E+02  0.41800000000E+01 0.  1.
         -5    1    4    4    0  501 -0.63049024363E+01  0.48975983753E+02 -0.62790604116E+02  0.79990819126E+02  0.41800000000E+01 0.  1.
</event>
<event>
11    1  0.8328696E-009  0.3145581E+03  0.7561462E-02  0.9942115E-01
         22   -1    0    0    0    0  0.00000000000E+00  0.00000000000E+00  0.33015080774E+03  0.33015080774E+03  0.00000000000E+00 0.  1.
         22   -1    0    0    0    0 -0.00000000000E+00 -0.00000000000E+00 -0.93416093644E+03  0.93416093644E+03  0.00000000000E+00 0.  1.
        -24    2    1    2    0    0  0.19013906881E+03  0.20552299478E+03 -0.59018700598E+03  0.65807802665E+03  0.79708344968E+02 0.  0.
         25    2    1    2    0    0 -0.21273756645E+03 -0.22964078804E+03 -0.19963965647E+03  0.39178567940E+03  0.12509141633E+03 0.  0.
         24    2    1    2    0    0  0.22598497639E+02  0.24117793255E+02  0.18581653374E+03  0.21444803814E+03  0.10182247691E+03 0.  0.
        -13    1    5    5    0    0  0.16557771101E+02  0.32540106184E+02  0.19632329069E+03  0.19968939071E+03  0.00000000000E+00 0.  1.
         14    1    5    5    0    0  0.60407265373E+01 -0.84223129291E+01 -0.10506756954E+02  0.14758647427E+02  0.00000000000E+00 0. -1.
         13    1    3    3    0    0 -0.11810401514E+01 -0.55544347741E+01 -0.68742449275E+01  0.89163807019E+01  0.00000000000E+00 0. -1.
        -14    1    3    3    0    0  0.19132010897E+03  0.21107742956E+03 -0.58331276105E+03  0.64916164595E+03  0.00000000000E+00 0.  1.
          5    1    4    4  501    0 -0.21882891877E+03 -0.17848810922E+03 -0.14852101981E+03  0.31909256737E+03  0.41800000000E+01 0.  1.
         -5    1    4    4    0  501  0.60913523212E+01 -0.51152678817E+02 -0.51118636655E+02  0.72693112031E+02  0.41800000000E+01 0.  1.
</event>
<event>
11    1  0.8328696E-009  0.1669322E+03  0.7561462E-02  0.1080733E+00
         22   -1    0    0    0    0  0.00000000000E+00  0.00000000000E+00  0.90151989606E+02  0.90151989606E+02  0.00000000000E+00 0. -1.
         22   -1    0    0    0    0 -0.00000000000E+00 -0.00000000000E+00 -0.10231801721E+04  0.10231801721E+04  0.00000000000E+00 0.  1.
         24    2    1    2    0    0 -0.17893727015E+02 -0.86312394630E+02 -0.59140696225E+03  0.60320618960E+03  0.79532994607E+02 0.  0.
         25    2    1    2    0    0 -0.77131431924E+00  0.17987234161E+03 -0.31289054371E+03  0.38197420213E+03  0.12509654093E+03 0.  0.
        -24    2    1    2    0    0  0.18665041335E+02 -0.93559946978E+02 -0.28730676562E+02  0.12815177001E+03  0.80595142122E+02 0.  0.
        -13    1    3    3    0    0 -0.51637557055E+01  0.25995114877E+01 -0.25349266538E+03  0.25355857949E+03  0.00000000000E+00 0.  1.
         14    1    3    3    0    0 -0.12729971310E+02 -0.88911906117E+02 -0.33791429687E+03  0.34964761010E+03  0.00000000000E+00 0. -1.
         11    1    5    5    0    0  0.10769550942E+02 -0.10748830545E+03 -0.29930902169E+02  0.11209628870E+03  0.00000000000E+00 0. -1.
        -12    1    5    5    0    0  0.78954903927E+01  0.13928358475E+02  0.12002256069E+01  0.16055481303E+02  0.00000000000E+00 0.  1.
          5    1    4    4  501    0  0.19374305504E+02  0.10059645577E+02 -0.12870425436E+03  0.13060940883E+03  0.41800000000E+01 0. -1.
         -5    1    4    4    0  501 -0.20145619823E+02  0.16981269603E+03 -0.18418628934E+03  0.25136479330E+03  0.41800000000E+01 0. -1.
</event>
<event>
11    1  0.8328696E-009  0.1316330E+03  0.7561462E-02  0.1117279E+00
         22   -1    0    0    0    0  0.00000000000E+00  0.00000000000E+00  0.88815642108E+02  0.88815642108E+02  0.00000000000E+00 0. -1.
         22   -1    0    0    0    0 -0.00000000000E+00 -0.00000000000E+00 -0.14146103702E+04  0.14146103702E+04  0.00000000000E+00 0.  1.
         24    2    1    2    0    0 -0.29732063792E+01 -0.39725899200E+02 -0.91067456353E+03  0.91499253451E+03  0.79348538246E+02 0.  0.
         25    2    1    2    0    0  0.58872242458E+00  0.46108951259E+02 -0.47151212261E+03  0.48999520862E+03  0.12508093669E+03 0.  0.
        -24    2    1    2    0    0  0.23844839546E+01 -0.63830520594E+01  0.56391958079E+02  0.98438269149E+02  0.80396584379E+02 0.  0.
        -11    1    3    3    0    0  0.12296353592E+02 -0.52409080769E+02 -0.83578747633E+03  0.83751932375E+03  0.00000000000E+00 0.  1.
         12    1    3    3    0    0 -0.15269559971E+02  0.12683181569E+02 -0.74887087203E+02  0.77473210765E+02  0.00000000000E+00 0. -1.
         11    1    5    5    0    0 -0.15139923674E+02 -0.23181816463E+02  0.66582942157E+02  0.72110346620E+02  0.00000000000E+00 0. -1.
        -12    1    5    5    0    0  0.17524407629E+02  0.16798764404E+02 -0.10190984078E+02  0.26327922529E+02  0.00000000000E+00 0.  1.
          5    1    4    4  501    0  0.27626355953E+02 -0.30377668418E+02 -0.26299331620E+03  0.26621227441E+03  0.41800000000E+01 0.  1.
         -5    1    4    4    0  501 -0.27037633528E+02  0.76486619677E+02 -0.20851880641E+03  0.22378293421E+03  0.41800000000E+01 0.  1.
</event>
<event>
11    1  0.8328696E-009  0.1415067E+03  0.7561462E-02  0.1105887E+00
         22   -1    0    0    0    0  0.00000000000E+00  0.00000000000E+00  0.12808301255E+03  0.12808301255E+03  0.00000000000E+00 0.  1.
         22   -1    0    0    0    0 -0.00000000000E+00 -0.00000000000E+00 -0.12167074603E+04  0.12167074603E+04  0.00000000000E+00 0. -1.
        -24    2    1    2    0    0  0.34305681983E+01 -0.49208373691E+02 -0.86754745918E+03  0.87275146397E+03  0.81383604595E+02 0.  0.
         25    2    1    2    0    0  0.34670034211E+02  0.99900698415E+02 -0.30060685805E+03  0.34233676531E+03  0.12509123453E+03 0.  0.
         24    2    1    2    0    0 -0.38100602410E+02 -0.50692324724E+02  0.79529869462E+02  0.12970224359E+03  0.80475487984E+02 0.  0.
        -11    1    5    5    0    0 -0.43330153500E+02 -0.88389550900E+01  0.75282284739E+02  0.87310089480E+02  0.00000000000E+00 0.  1.
         12    1    5    5    0    0  0.52295510904E+01 -0.41853369634E+02  0.42475847229E+01  0.42392154112E+02  0.00000000000E+00 0. -1.
         11    1    3    3    0    0  0.14410668528E+02 -0.12989396443E+02 -0.72517522770E+03  0.72543469910E+03  0.00000000000E+00 0. -1.
        -12    1    3    3    0    0 -0.10980100329E+02 -0.36218977248E+02 -0.14237223148E+03  0.14731676487E+03  0.00000000000E+00 0.  1.
          5    1    4    4  501    0  0.34897429237E+02 -0.19604047707E+02 -0.46478306065E+02  0.61480522025E+02  0.41800000000E+01 0.  1.
         -5    1    4    4    0  501 -0.22739502580E+00  0.11950474612E+03 -0.25412855199E+03  0.28085624328E+03  0.41800000000E+01 0.  1.
</event>
<event>
11    1  0.8328696E-009  0.1529961E+03  0.7561462E-02  0.1093856E+00
         22   -1    0    0    0    0  0.00000000000E+00  0.00000000000E+00  0.11444453522E+04  0.11444453522E+04  0.00000000000E+00 0.  1.
         22   -1    0    0    0    0 -0.00000000000E+00 -0.00000000000E+00 -0.39616819007E+03  0.39616819007E+03  0.00000000000E+00 0.  1.
        -24    2    1    2    0    0 -0.30091044160E+02  0.82752716337E+02 -0.36222215931E+03  0.38120888490E+03  0.79761132307E+02 0.  0.
         25    2    1    2    0    0  0.54142527474E+02 -0.75245996949E+02  0.24538006617E+03  0.29060510368E+03  0.12508627452E+03 0.  0.
         24    2    1    2    0    0 -0.24051483314E+02 -0.75067193887E+01  0.86511925524E+03  0.86879955366E+03  0.75805764725E+02 0.  0.
        -11    1    5    5    0    0 -0.12027228745E+02 -0.22846557686E+02  0.80863396724E+03  0.80904605085E+03  0.00000000000E+00 0.  1.
         12    1    5    5    0    0 -0.12024254569E+02  0.15339838298E+02  0.56485288002E+02  0.59753502806E+02  0.00000000000E+00 0. -1.
         11    1    3    3    0    0  0.25877443972E+02  0.11987107704E+02 -0.92514108841E+02  0.96810088277E+02  0.00000000000E+00 0. -1.
        -12    1    3    3    0    0 -0.55968488132E+02  0.70765608633E+02 -0.26970805047E+03  0.28439879662E+03  0.00000000000E+00 0.  1.
          5    1    4    4  501    0  0.23015088887E+01 -0.27918929975E+02 -0.65280777626E+01  0.29066334364E+02  0.41800000000E+01 0.  1.
         -5    1    4    4    0  501  0.51841018586E+02 -0.47327066974E+02  0.25190814393E+03  0.26153876932E+03  0.41800000000E+01 0.  1.
</event>
<event>
11    1  0.8328696E-009  0.1554439E+03  0.7561462E-02  0.1091442E+00
         22   -1    0    0    0    0  0.00000000000E+00  0.00000000000E+00  0.45487122728E+03  0.45487122728E+03  0.00000000000E+00 0.  1.
         22   -1    0    0    0    0 -0.00000000000E+00 -0.00000000000E+00 -0.68491186351E+03  0.68491186351E+03  0.00000000000E+00 0.  1.
        -24    2    1    2    0    0 -0.12484533629E+02  0.33053736718E+02 -0.52082662037E+03  0.52764688991E+03  0.76827461580E+02 0.  0.
         25    2    1    2    0    0  0.80637766767E+02 -0.92601296207E+02 -0.10083903296E+03  0.20222025636E+03  0.12508825694E+03 0.  0.
         24    2    1    2    0    0 -0.68153233138E+02  0.59547559489E+02  0.39162501709E+03  0.40991594452E+03  0.80437258345E+02 0.  0.
        -13    1    5    5    0    0 -0.59474135391E+02  0.67154844737E+02  0.21565719614E+03  0.23357005844E+03  0.00000000000E+00 0.  1.
         14    1    5    5    0    0 -0.86790977470E+01 -0.76072852481E+01  0.17596782096E+03  0.17634588608E+03  0.00000000000E+00 0. -1.
         13    1    3    3    0    0 -0.28555620963E+02  0.30707323175E+02 -0.13241804519E+03  0.13889889084E+03  0.00000000000E+00 0. -1.
        -14    1    3    3    0    0  0.16071087334E+02  0.23464135425E+01 -0.38840857518E+03  0.38874799907E+03  0.00000000000E+00 0.  1.
          5    1    4    4  501    0  0.10889671914E+03 -0.41574997519E+02 -0.71302948256E+02  0.13670610333E+03  0.41800000000E+01 0.  1.
         -5    1    4    4    0  501 -0.28258952374E+02 -0.51026298688E+02 -0.29536084700E+02  0.65514153024E+02  0.41800000000E+01 0.  1.
</event>
<event>
11    1  0.8328696E-009  0.2625207E+03  0.7561462E-02  0.1017433E+00
         22   -1    0    0    0    0  0.00000000000E+00  0.00000000000E+00  0.76935204667E+03  0.76935204667E+03  0.00000000000E+00 0.  1.
         22   -1    0    0    0    0 -0.00000000000E+00 -0.00000000000E+00 -0.71260399120E+03  0.71260399120E+03  0.00000000000E+00 0. -1.
         24    2    1    2    0    0  0.23009891584E+03 -0.92779431540E+00 -0.64636078703E+03  0.69090698244E+03  0.81386850905E+02 0.  0.
         25    2    1    2    0    0 -0.24894785822E+03  0.12554703748E+02  0.54304782945E+03  0.61047549607E+03  0.12508688796E+03 0.  0.
        -24    2    1    2    0    0  0.18848942375E+02 -0.11626909433E+02  0.16006101306E+03  0.18057355936E+03  0.80602821215E+02 0.  0.
        -13    1    3    3    0    0  0.73917663005E+02  0.33009173556E+02 -0.16664654088E+03  0.18526871304E+03  0.00000000000E+00 0.  1.
         14    1    3    3    0    0  0.15618125284E+03 -0.33936967872E+02 -0.47971424615E+03  0.50563826940E+03  0.00000000000E+00 0. -1.
         11    1    5    5    0    0 -0.22430688564E+02 -0.95388266633E+01  0.12618474900E+02  0.27447238702E+02  0.00000000000E+00 0. -1.
        -12    1    5    5    0    0  0.41279630939E+02 -0.20880827695E+01  0.14744253816E+03  0.15312632066E+03  0.00000000000E+00 0.  1.
          5    1    4    4  501    0 -0.17942837700E+01  0.30298585386E+02  0.70981794584E+02  0.77311779781E+02  0.41800000000E+01 0. -1.
         -5    1    4    4    0  501 -0.24715357445E+03 -0.17743881637E+02  0.47206603486E+03  0.53316371629E+03  0.41800000000E+01 0. -1.
</event>
<event>
11    1  0.8328696E-009  0.1288712E+03  0.7561462E-02  0.1120664E+00
         22   -1    0    0    0    0  0.00000000000E+00  0.00000000000E+00  0.31122868461E+03  0.31122868461E+03  0.00000000000E+00 0.  1.
         22   -1    0    0    0    0 -0.00000000000E+00 -0.00000000000E+00 -0.15831936555E+03  0.15831936555E+03  0.00000000000E+00 0.  1.
        -24    2    1    2    0    0  0.17214891412E+02 -0.20049415804E+01 -0.93651622863E+02  0.11863327687E+03  0.70730867655E+02 0.  0.
         25    2    1    2    0    0  0.13485719156E+02  0.15626763244E+02  0.51426951466E+02  0.13683067324E+03  0.12510731974E+03 0.  0.
         24    2    1    2    0    0 -0.30700610568E+02 -0.13621821664E+02  0.19513399045E+03  0.21408410005E+03  0.81404214564E+02 0.  0.
        -11    1    5    5    0    0 -0.53853822852E+02 -0.71214459078E+01  0.17325754864E+03  0.18157402729E+03  0.00000000000E+00 0.  1.
         12    1    5    5    0    0  0.23153212284E+02 -0.65003757561E+01  0.21876441815E+02  0.32510072755E+02  0.00000000000E+00 0. -1.
         13    1    3    3    0    0  0.29035409583E+02  0.13783527998E+02 -0.11482867617E+02  0.34130586025E+02  0.00000000000E+00 0. -1.
        -14    1    3    3    0    0 -0.11820518170E+02 -0.15788469579E+02 -0.82168755246E+02  0.84502690846E+02  0.00000000000E+00 0.  1.
          5    1    4    4  501    0 -0.35548328638E+02  0.30458033197E+02  0.68146354537E+02  0.82781480367E+02  0.41800000000E+01 0. -1.
         -5    1    4    4    0  501  0.49034047794E+02 -0.14831269953E+02 -0.16719403071E+02  0.54049192876E+02  0.41800000000E+01 0. -1.
</event>
<event>
11    1  0.8328696E-009  0.1581673E+03  0.7561462E-02  0.1088814E+00
         22   -1    0    0    0    0  0.00000000000E+00  0.00000000000E+00  0.34327231932E+03  0.34327231932E+03  0.00000000000E+00 0. -1.
         22   -1    0    0    0    0 -0.00000000000E+00 -0.00000000000E+00 -0.37391438223E+03  0.37391438223E+03  0.00000000000E+00 0.  1.
         24    2    1    2    0    0 -0.58027694325E+02  0.47556246400E+02 -0.19045359684E+03  0.21956467879E+03  0.79418296004E+02 0.  0.
         25    2    1    2    0    0  0.14423656074E+03 -0.76824257316E+02 -0.86869303447E+02  0.22338307373E+03  0.12509024654E+03 0.  0.
        -24    2    1    2    0    0 -0.86208866418E+02  0.29268010916E+02  0.24668083738E+03  0.27423894903E+03  0.77890824365E+02 0.  0.
        -11    1    3    3    0    0 -0.65828571370E+02  0.59470773087E+02 -0.18327397414E+03  0.20361611738E+03  0.00000000000E+00 0.  1.
         12    1    3    3    0    0  0.78008770449E+01 -0.11914526687E+02 -0.71796227081E+01  0.15948561411E+02  0.00000000000E+00 0. -1.
         13    1    5    5    0    0 -0.69329080018E+02  0.18805318218E+01  0.22499329556E+03  0.23544010020E+03  0.00000000000E+00 0. -1.
        -14    1    5    5    0    0 -0.16879786400E+02  0.27387479094E+02  0.21687541826E+02  0.38798848829E+02  0.00000000000E+00 0.  1.
          5    1    4    4  501    0  0.10441731627E+03 -0.68089666555E+02 -0.11817054782E+03  0.17181655741E+03  0.41800000000E+01 0.  1.
         -5    1    4    4    0  501  0.39819244472E+02 -0.87345907611E+01  0.31301244369E+02  0.51566516318E+02  0.41800000000E+01 0.  1.
</event>
<event>
11    1  0.8328696E-009  0.2028576E+03  0.7561462E-02  0.1052521E+00
         22   -1    0    0    0    0  0.00000000000E+00  0.00000000000E+00  0.14520683232E+03  0.14520683232E+03  0.00000000000E+00 0. -1.
         22   -1    0    0    0    0 -0.00000000000E+00 -0.00000000000E+00 -0.32583283847E+04  0.32583283847E+04  0.00000000000E+00 0.  1.
         24    2    1    2    0    0 -0.86331509777E+02 -0.74932331406E+02 -0.26645248611E+04  0.26682615925E+04  0.82820328409E+02 0.  0.
         25    2    1    2    0    0  0.23554319726E+03  0.80351881595E+02 -0.48716814593E+03  0.56117187212E+03  0.12507615678E+03 0.  0.
        -24    2    1    2    0    0 -0.14921168749E+03 -0.54195501890E+01  0.38571454668E+02  0.17410175236E+03  0.80809429238E+02 0.  0.
        -11    1    3    3    0    0 -0.26077003236E+02 -0.55217316074E+02 -0.19422401256E+04  0.19431998527E+04  0.00000000000E+00 0.  1.
         12    1    3    3    0    0 -0.60254506540E+02 -0.19715015332E+02 -0.72228473548E+03  0.72506173978E+03  0.00000000000E+00 0. -1.
         11    1    5    5    0    0 -0.81553683390E+02 -0.43068074697E+02  0.24233845823E+02  0.95357965666E+02  0.00000000000E+00 0. -1.
        -12    1    5    5    0    0 -0.67658004097E+02  0.37648524508E+02  0.14337608845E+02  0.78743786698E+02  0.00000000000E+00 0.  1.
          5    1    4    4  501    0  0.13613005566E+03  0.79143059310E+02 -0.39613937050E+03  0.42630844368E+03  0.41800000000E+01 0. -1.
         -5    1    4    4    0  501  0.99413141604E+02  0.12088222849E+01 -0.91028775433E+02  0.13486342844E+03  0.41800000000E+01 0. -1.
</event>
<event>
11    1  0.8328696E-009  0.1758690E+03  0.7561462E-02  0.1073034E+00
         22   -1    0    0    0    0  0.00000000000E+00  0.00000000000E+00  0.84820219618E+02  0.84820219618E+02  0.00000000000E+00 0. -1.
         22   -1    0    0    0    0 -0.00000000000E+00 -0.00000000000E+00 -0.19974257224E+04  0.19974257224E+04  0.00000000000E+00 0.  1.
         24    2    1    2    0    0 -0.10087858838E+03 -0.16005360055E+02 -0.14952666180E+04  0.15010378236E+04  0.82822871424E+02 0.  0.
         25    2    1    2    0    0  0.87109877037E+02  0.13659101871E+03 -0.38177645645E+03  0.43318164132E+03  0.12509130508E+03 0.  0.
        -24    2    1    2    0    0  0.13768711343E+02 -0.12058565866E+03 -0.35562428343E+02  0.14802647704E+03  0.76919913605E+02 0.  0.
        -11    1    3    3    0    0 -0.73872424338E+02 -0.66666888980E+01 -0.13895234239E+04  0.13915016800E+04  0.00000000000E+00 0.  1.
         12    1    3    3    0    0 -0.27006164042E+02 -0.93386711571E+01 -0.10574319405E+03  0.10953614364E+03  0.00000000000E+00 0. -1.
         13    1    5    5    0    0 -0.28700615995E+02 -0.71064895906E+02 -0.30854182996E+02  0.82619158776E+02  0.00000000000E+00 0. -1.
        -14    1    5    5    0    0  0.42469327338E+02 -0.49520762752E+02 -0.47082453470E+01  0.65407318263E+02  0.00000000000E+00 0.  1.
          5    1    4    4  501    0  0.14572371366E+02  0.14479773042E+02  0.46372118409E+01  0.21470770090E+02  0.41800000000E+01 0. -1.
         -5    1    4    4    0  501  0.72537505670E+02  0.12211124567E+03 -0.38641366829E+03  0.41171087123E+03  0.41800000000E+01 0. -1.
</event>
<event>
11    1  0.8328696E-009  0.1847925E+03  0.7561462E-02  0.1065831E+00
         22   -1    0    0    0    0  0.00000000000E+00  0.00000000000E+00  0.57822716602E+03  0.57822716602E+03  0.00000000000E+00 0. -1.
         22   -1    0    0    0    0 -0.00000000000E+00 -0.00000000000E+00 -0.16682716010E+03  0.16682716010E+03  0.00000000000E+00 0.  1.
        -24    2    1    2    0    0 -0.55672481079E+02 -0.34838387182E+02  0.35066706742E+02  0.10896193432E+03  0.79560611098E+02 0.  0.
         25    2    1    2    0    0 -0.73878729575E+01 -0.92550733092E+02 -0.63008658247E+02  0.16804238833E+03  0.12509170396E+03 0.  0.
         24    2    1    2    0    0  0.63060354037E+02  0.12738912027E+03  0.43934195743E+03  0.46805000347E+03  0.76451644706E+02 0.  0.
        -13    1    5    5    0    0 -0.88362734955E+01  0.28326041899E+02  0.36593692721E+02  0.47112023157E+02  0.00000000000E+00 0.  1.
         14    1    5    5    0    0  0.71896627532E+02  0.99063078374E+02  0.40274826471E+03  0.42093798031E+03  0.00000000000E+00 0. -1.
         13    1    3    3    0    0 -0.35070412689E+01  0.21579938409E+02 -0.48185031410E+01  0.22387743360E+02  0.00000000000E+00 0. -1.
        -14    1    3    3    0    0 -0.52165439811E+02 -0.56418325591E+02  0.39885209883E+02  0.86574190961E+02  0.00000000000E+00 0.  1.
          5    1    4    4  501    0 -0.39698359599E+02  0.80964432780E+01  0.68028598274E+01  0.41294835638E+02  0.41800000000E+01 0.  1.
         -5    1    4    4    0  501  0.32310486641E+02 -0.10064717637E+03 -0.69811518075E+02  0.12674755269E+03  0.41800000000E+01 0.  1.
</event>
<event>
11    1  0.8328696E-009  0.1697752E+03  0.7561462E-02  0.1078227E+00
         22   -1    0    0    0    0  0.00000000000E+00  0.00000000000E+00  0.62654999764E+03  0.62654999764E+03  0.00000000000E+00 0. -1.
         22   -1    0    0    0    0 -0.00000000000E+00 -0.00000000000E+00 -0.20117500056E+04  0.20117500056E+04  0.00000000000E+00 0. -1.
        -24    2    1    2    0    0 -0.51832459328E+02  0.97925186038E+02 -0.17311178396E+04  0.17364633469E+04  0.79120380931E+02 0.  0.
         25    2    1    2    0    0  0.94819215573E+02 -0.15470895704E+03 -0.22854037210E+03  0.31749742560E+03  0.12509343928E+03 0.  0.
         24    2    1    2    0    0 -0.42986756244E+02  0.56783770999E+02  0.57445820379E+03  0.58433923068E+03  0.79861447174E+02 0.  0.
        -11    1    5    5    0    0 -0.36847493925E+02  0.59074568185E+02  0.24200075829E+03  0.25181721432E+03  0.00000000000E+00 0.  1.
         12    1    5    5    0    0 -0.61392623188E+01 -0.22907971856E+01  0.33245744550E+03  0.33252201636E+03  0.00000000000E+00 0. -1.
         13    1    3    3    0    0 -0.68261392898E+02  0.93919359627E+02 -0.16085018263E+04  0.16126867610E+04  0.00000000000E+00 0. -1.
        -14    1    3    3    0    0  0.16428933570E+02  0.40058264105E+01 -0.12261601330E+03  0.12377658592E+03  0.00000000000E+00 0.  1.
          5    1    4    4  501    0  0.16520290372E+00  0.17715080524E+02 -0.44565936612E+02  0.48139863690E+02  0.41800000000E+01 0. -1.
         -5    1    4    4    0  501  0.94654012669E+02 -0.17242403756E+03 -0.18397443549E+03  0.26935756191E+03  0.41800000000E+01 0. -1.
</event>
<event>
11    1  0.8328696E-009  0.1610597E+03  0.7561462E-02  0.1086085E+00
         22   -1    0    0    0    0  0.00000000000E+00  0.00000000000E+00  0.19343328611E+03  0.19343328611E+03  0.00000000000E+00 0. -1.
         22   -1    0    0    0    0 -0.00000000000E+00 -0.00000000000E+00 -0.12208765337E+04  0.12208765337E+04  0.00000000000E+00 0.  1.
        -24    2    1    2    0    0  0.70983540050E+02  0.68504384400E+02 -0.10474404522E+04  0.10550839185E+04  0.79618217885E+02 0.  0.
         25    2    1    2    0    0 -0.11900259621E+03 -0.88367811334E+02 -0.89351120291E+02  0.21354329726E+03  0.12508648658E+03 0.  0.
         24    2    1    2    0    0  0.48019056157E+02  0.19863426935E+02  0.10934832492E+03  0.14568260399E+03  0.81030731570E+02 0.  0.
        -11    1    5    5    0    0 -0.38936571412E+01 -0.25801466472E+02  0.20984758717E+02  0.33484867275E+02  0.00000000000E+00 0.  1.
         12    1    5    5    0    0  0.51912713298E+02  0.45664893407E+02  0.88363566200E+02  0.11219773671E+03  0.00000000000E+00 0. -1.
         13    1    3    3    0    0  0.15615886968E+02  0.48295497504E+02 -0.23061345951E+03  0.23613318003E+03  0.00000000000E+00 0. -1.
        -14    1    3    3    0    0  0.55367653081E+02  0.20208886896E+02 -0.81682699268E+03  0.81895073850E+03  0.00000000000E+00 0.  1.
          5    1    4    4  501    0 -0.15810777938E+02  0.20232089623E+02 -0.53437683489E+02  0.59433799863E+02  0.41800000000E+01 0.  1.
         -5    1    4    4    0  501 -0.10319181827E+03 -0.10859990096E+03 -0.35913436803E+02  0.15410949740E+03  0.41800000000E+01 0.  1.
</event>
<event>
11    1  0.8883972E-009  0.1446688E+03  0.7561462E-02  0.1102454E+00
         22   -1    0    0    0    0  0.00000000000E+00  0.00000000000E+00  0.48987312910E+03  0.48987312910E+03  0.00000000000E+00 0.  1.
         22   -1    0    0    0    0 -0.00000000000E+00 -0.00000000000E+00 -0.83566147568E+03  0.83566147568E+03  0.00000000000E+00 0.  1.
         24    2    1    2    0    0 -0.31012364135E+01  0.24889806972E+02 -0.71993658501E+03  0.72501139854E+03  0.81876256717E+02 0.  0.
         25    2    1    2    0    0 -0.57768033057E+02 -0.63409804278E+02 -0.52524907423E+02  0.16051195588E+03  0.12508906091E+03 0.  0.
        -24    2    1    2    0    0  0.60869269471E+02  0.38519997306E+02  0.42667314586E+03  0.44001125036E+03  0.79818975724E+02 0.  0.
        -13    1    3    3    0    0  0.21614221138E+02 -0.15128477847E+02 -0.46661139674E+03  0.46735665285E+03  0.00000000000E+00 0.  1.
         14    1    3    3    0    0 -0.24715457552E+02  0.40018284819E+02 -0.25332518827E+03  0.25765474569E+03  0.00000000000E+00 0. -1.
         11    1    5    5    0    0  0.11797104245E+02 -0.16839910306E+02  0.29202616919E+02  0.35714802009E+02  0.00000000000E+00 0. -1.
        -12    1    5    5    0    0  0.49072165226E+02  0.55359907612E+02  0.39747052894E+03  0.40429644835E+03  0.00000000000E+00 0.  1.
          5    1    4    4  501    0  0.36438553235E+02 -0.19753346574E+02 -0.36465096654E+02  0.55363693309E+02  0.41800000000E+01 0. -1.
         -5    1    4    4    0  501 -0.94206586293E+02 -0.43656457704E+02 -0.16059810769E+02  0.10514826257E+03  0.41800000000E+01 0. -1.
</event>
<event>
11    1  0.8328696E-009  0.1314869E+03  0.7561462E-02  0.1117455E+00
         22   -1    0    0    0    0  0.00000000000E+00  0.00000000000E+00  0.15710762204E+03  0.15710762204E+03  0.00000000000E+00 0.  1.
         22   -1    0    0    0    0 -0.00000000000E+00 -0.00000000000E+00 -0.88266631740E+03  0.88266631740E+03  0.00000000000E+00 0.  1.
        -24    2    1    2    0    0  0.17427546524E+02 -0.32137375981E+02 -0.78827078623E+03  0.79324160985E+03  0.80776784179E+02 0.  0.
         25    2    1    2    0    0 -0.29113079795E+02  0.60290988214E+02  0.90655636893E+01  0.14216516664E+03  0.12508467326E+03 0.  0.
         24    2    1    2    0    0  0.11685533271E+02 -0.28153612234E+02  0.53646527173E+02  0.10436716296E+03  0.84174682989E+02 0.  0.
        -11    1    5    5    0    0  0.33935265390E+02  0.15228014938E+02  0.37973484343E+02  0.53155246111E+02  0.00000000000E+00 0.  1.
         12    1    5    5    0    0 -0.22249732119E+02 -0.43381627172E+02  0.15673042831E+02  0.51211916846E+02  0.00000000000E+00 0. -1.
         13    1    3    3    0    0 -0.25882220151E+01  0.26537776422E+02 -0.23294403094E+03  0.23446508060E+03  0.00000000000E+00 0. -1.
        -14    1    3    3    0    0  0.20015768539E+02 -0.58675152402E+02 -0.55532675528E+03  0.55877652924E+03  0.00000000000E+00 0.  1.
          5    1    4    4  501    0  0.92102948732E+01 -0.17212515887E+02  0.44390223625E+02  0.48673037591E+02  0.41800000000E+01 0.  1.
         -5    1    4    4    0  501 -0.38323374668E+02  0.77503504102E+02 -0.35324659936E+02  0.93492129046E+02  0.41800000000E+01 0.  1.
</event>
<event>
11    1  0.8328696E-009  0.1475307E+03  0.7561462E-02  0.1099429E+00
         22   -1    0    0    0    0  0.00000000000E+00  0.00000000000E+00  0.14140278092E+04  0.14140278092E+04  0.00000000000E+00 0. -1.
         22   -1    0    0    0    0 -0.00000000000E+00 -0.00000000000E+00 -0.57005220492E+03  0.57005220492E+03  0.00000000000E+00 0. -1.
         24    2    1    2    0    0 -0.61203756865E+02  0.55702338865E+02 -0.52978041277E+03  0.54214183182E+03  0.80011434423E+02 0.  0.
         25    2    1    2    0    0  0.24449939687E+02  0.20011183891E+02  0.10094943230E+03  0.16381996528E+03  0.12509175077E+03 0.  0.
        -24    2    1    2    0    0  0.36753817177E+02 -0.75713522756E+02  0.12728065848E+04  0.12781182171E+04  0.80412647702E+02 0.  0.
        -11    1    3    3    0    0 -0.10603772055E+01 -0.13296409470E+02 -0.18298514890E+03  0.18347066147E+03  0.00000000000E+00 0.  1.
         12    1    3    3    0    0 -0.60143379659E+02  0.68998748336E+02 -0.34679526388E+03  0.35867117034E+03  0.00000000000E+00 0. -1.
         13    1    5    5    0    0  0.54229041402E+02 -0.63520700559E+02  0.11775132722E+04  0.11804715899E+04  0.00000000000E+00 0. -1.
        -14    1    5    5    0    0 -0.17475224225E+02 -0.12192822197E+02  0.95293312609E+02  0.97646627196E+02  0.00000000000E+00 0.  1.
          5    1    4    4  501    0  0.63995754018E+02 -0.20847282664E+02  0.75941873513E+02  0.10156134245E+03  0.41800000000E+01 0. -1.
         -5    1    4    4    0  501 -0.39545814331E+02  0.40858466555E+02  0.25007558792E+02  0.62258622833E+02  0.41800000000E+01 0. -1.
</event>
<event>
11    1  0.8328696E-009  0.1345778E+03  0.7561462E-02  0.1113769E+00
         22   -1    0    0    0    0  0.00000000000E+00  0.00000000000E+00  0.24078805738E+03  0.24078805738E+03  0.00000000000E+00 0. -1.
         22   -1    0    0    0    0 -0.00000000000E+00 -0.00000000000E+00 -0.29123171708E+03  0.29123171708E+03  0.00000000000E+00 0.  1.
        -24    2    1    2    0    0 -0.62633322529E+01  0.82297126337E+01 -0.14558033562E+03  0.16621600877E+03  0.79543509803E+02 0.  0.
         25    2    1    2    0    0  0.28235323391E+02 -0.51781930433E+02 -0.85328954931E+02  0.16250168267E+03  0.12508862664E+03 0.  0.
         24    2    1    2    0    0 -0.21971991138E+02  0.43552217800E+02  0.18046563085E+03  0.20330208301E+03  0.79901996025E+02 0.  0.
        -11    1    5    5    0    0 -0.88117106320E+01 -0.16685899375E+02  0.86501808199E+01  0.20757916813E+02  0.00000000000E+00 0.  1.
         12    1    5    5    0    0 -0.13160280506E+02  0.60238117175E+02  0.17181545003E+03  0.18254416620E+03  0.00000000000E+00 0. -1.
         13    1    3    3    0    0 -0.17393374036E+00  0.18445051820E+02  0.16376713769E+01  0.18518427502E+02  0.00000000000E+00 0. -1.
        -14    1    3    3    0    0 -0.60893985125E+01 -0.10215339186E+02 -0.14721800700E+03  0.14769758127E+03  0.00000000000E+00 0.  1.
          5    1    4    4  501    0  0.59491417922E+01  0.11527395800E+02  0.27762298083E+02  0.30927184431E+02  0.41800000000E+01 0.  1.
         -5    1    4    4    0  501  0.22286181599E+02 -0.63309326234E+02 -0.11309125301E+03  0.13157449824E+03  0.41800000000E+01 0.  1.
</event>
<event>
11    1  0.8328696E-009  0.2146933E+03  0.7561462E-02  0.1044594E+00
         22   -1    0    0    0    0  0.00000000000E+00  0.00000000000E+00  0.30076347533E+04  0.30076347533E+04  0.00000000000E+00 0.  1.
         22   -1    0    0    0    0 -0.00000000000E+00 -0.00000000000E+00 -0.53792809944E+02  0.53792809944E+02  0.00000000000E+00 0. -1.
        -24    2    1    2    0    0  0.91585865007E+02 -0.14217649419E+03  0.17720247106E+03  0.25834414803E+03  0.82090540906E+02 0.  0.
         25    2    1    2    0    0 -0.14342646450E+03  0.15125515977E+03  0.12451442561E+04  0.12686530841E+04  0.12508858983E+03 0.  0.
         24    2    1    2    0    0  0.51840599493E+02 -0.90786655869E+01  0.15314952162E+04  0.15344303311E+04  0.78923847851E+02 0.  0.
        -13    1    5    5    0    0  0.67698110339E+02  0.11423167939E+02  0.11630357161E+04  0.11650603418E+04  0.00000000000E+00 0.  1.
         14    1    5    5    0    0 -0.15857510846E+02 -0.20501833525E+02  0.36845950004E+03  0.36936998930E+03  0.00000000000E+00 0. -1.
         11    1    3    3    0    0  0.10656148697E+03 -0.11521625896E+03  0.14341942937E+03  0.21260119839E+03  0.00000000000E+00 0. -1.
        -12    1    3    3    0    0 -0.14975621967E+02 -0.26960235227E+02  0.33783041686E+02  0.45742949646E+02  0.00000000000E+00 0.  1.
          5    1    4    4  501    0 -0.13557539525E+03  0.17268762171E+03  0.11061854263E+04  0.11277700884E+04  0.41800000000E+01 0.  1.
         -5    1    4    4    0  501 -0.78510692488E+01 -0.21432461934E+02  0.13895882981E+03  0.14088299576E+03  0.41800000000E+01 0.  1.
</event>
<event>
11    1  0.8328696E-009  0.1397496E+03  0.7561462E-02  0.1107838E+00
         22   -1    0    0    0    0  0.00000000000E+00  0.00000000000E+00  0.10922193705E+04  0.10922193705E+04  0.00000000000E+00 0. -1.
         22   -1    0    0    0    0 -0.00000000000E+00 -0.00000000000E+00 -0.79970424350E+03  0.79970424350E+03  0.00000000000E+00 0.  1.
         24    2    1    2    0    0  0.39085088944E+02  0.26061839001E+02 -0.73715292706E+03  0.74300418650E+03  0.80336291027E+02 0.  0.
         25    2    1    2    0    0  0.28425583387E+01 -0.72488516963E+02  0.35084646326E+02  0.14881250359E+03  0.12510620923E+03 0.  0.
        -24    2    1    2    0    0 -0.41927647282E+02  0.46426677963E+02  0.99458340774E+03  0.10001069239E+04  0.84287248590E+02 0.  0.
        -13    1    3    3    0    0  0.22558571617E+02  0.27261509851E+02 -0.71203126364E+03  0.71290995187E+03  0.00000000000E+00 0.  1.
         14    1    3    3    0    0  0.16526517326E+02 -0.11996708506E+01 -0.25121663414E+02  0.30094234627E+02  0.00000000000E+00 0. -1.
         13    1    5    5    0    0 -0.57328983644E+02  0.13673034024E+01  0.54100698105E+03  0.54403771508E+03  0.00000000000E+00 0. -1.
        -14    1    5    5    0    0  0.15401336362E+02  0.45059374560E+02  0.45357642669E+03  0.45606920884E+03  0.00000000000E+00 0.  1.
          5    1    4    4  501    0 -0.15427118640E+02 -0.46152553526E+01  0.68772032082E+02  0.70755645486E+02  0.41800000000E+01 0.  1.
         -5    1    4    4    0  501  0.18269676978E+02 -0.67873261611E+02 -0.33687385756E+02  0.78056858108E+02  0.41800000000E+01 0.  1.
</event>
<event>
11    1  0.8328696E-009  0.1411377E+03  0.7561462E-02  0.1106295E+00
         22   -1    0    0    0    0  0.00000000000E+00  0.00000000000E+00  0.46201390468E+03  0.46201390468E+03  0.00000000000E+00 0.  1.
         22   -1    0    0    0    0 -0.00000000000E+00 -0.00000000000E+00 -0.13441305803E+04  0.13441305803E+04  0.00000000000E+00 0.  1.
        -24    2    1    2    0    0 -0.43617259151E+01 -0.65812100347E+02 -0.12978777593E+04  0.13020304769E+04  0.80289647191E+02 0.  0.
         25    2    1    2    0    0  0.31170689271E+01  0.35105155330E+02  0.69282063277E+02  0.14726712874E+03  0.12508203254E+03 0.  0.
         24    2    1    2    0    0  0.12446569880E+01  0.30706945017E+02  0.34647902034E+03  0.35684687941E+03  0.79671313341E+02 0.  0.
        -11    1    5    5    0    0  0.23128052697E+01  0.55122511626E+02  0.29158377902E+03  0.29675737657E+03  0.00000000000E+00 0.  1.
         12    1    5    5    0    0 -0.10681482817E+01 -0.24415566609E+02  0.54895241314E+02  0.60089502848E+02  0.00000000000E+00 0. -1.
         11    1    3    3    0    0 -0.12776481748E+02  0.48458565745E+01 -0.42608745343E+02  0.44746239971E+02  0.00000000000E+00 0. -1.
        -12    1    3    3    0    0  0.84147558332E+01 -0.70657956922E+02 -0.12552690139E+04  0.12572842369E+04  0.00000000000E+00 0.  1.
          5    1    4    4  501    0  0.51079909883E+02  0.33907323242E+02 -0.17165194380E+01  0.61475870080E+02  0.41800000000E+01 0.  1.
         -5    1    4    4    0  501 -0.47962840956E+02  0.11978320887E+01  0.70998582715E+02  0.85791258656E+02  0.41800000000E+01 0.  1.
</event>
<event>
11    1  0.8328696E-009  0.1406881E+03  0.7561462E-02  0.1106792E+00
         22   -1    0    0    0    0  0.00000000000E+00  0.00000000000E+00  0.69370741829E+03  0.69370741829E+03  0.00000000000E+00 0.  1.
         22   -1    0    0    0    0 -0.00000000000E+00 -0.00000000000E+00 -0.12565247495E+04  0.12565247495E+04  0.00000000000E+00 0. -1.
        -24    2    1    2    0    0 -0.61661100765E+02 -0.21530964307E+02 -0.11995239037E+04  0.12041041842E+04  0.82119529434E+02 0.  0.
         25    2    1    2    0    0  0.39101676048E+02 -0.25271913513E+02  0.36879369486E+02  0.13847575143E+03  0.12509130728E+03 0.  0.
         24    2    1    2    0    0  0.22559424716E+02  0.46802877820E+02  0.59982720294E+03  0.60765223221E+03  0.82153057864E+02 0.  0.
        -13    1    5    5    0    0  0.32078143171E+02  0.64057978142E+02  0.53829617744E+03  0.54304254573E+03  0.00000000000E+00 0.  1.
         14    1    5    5    0    0 -0.95187184550E+01 -0.17255100322E+02  0.61531025500E+02  0.64609686482E+02  0.00000000000E+00 0. -1.
         13    1    3    3    0    0 -0.30517904371E+02 -0.13465858865E+02 -0.10741769412E+04  0.10746947348E+04  0.00000000000E+00 0. -1.
        -14    1    3    3    0    0 -0.31143196394E+02 -0.80651054422E+01 -0.12534696243E+03  0.12940944942E+03  0.00000000000E+00 0.  1.
          5    1    4    4  501    0 -0.36884981712E+02  0.15797775218E+02  0.32643847186E+02  0.51895710197E+02  0.41800000000E+01 0. -1.
         -5    1    4    4    0  501  0.75986657760E+02 -0.41069688732E+02  0.42355222992E+01  0.86580041229E+02  0.41800000000E+01 0. -1.
</event>
<event>
11    1  0.8328696E-009  0.1917054E+03  0.7561462E-02  0.1060549E+00
         22   -1    0    0    0    0  0.00000000000E+00  0.00000000000E+00  0.25381220759E+03  0.25381220759E+03  0.00000000000E+00 0. -1.
         22   -1    0    0    0    0 -0.00000000000E+00 -0.00000000000E+00 -0.17805008027E+04  0.17805008027E+04  0.00000000000E+00 0.  1.
         24    2    1    2    0    0 -0.98225598593E+02 -0.10726887690E+03 -0.15569368316E+04  0.15659526846E+04  0.83669782188E+02 0.  0.
         25    2    1    2    0    0  0.87271318628E+02  0.11469641565E+03 -0.16809219290E+03  0.25431065919E+03  0.12508946896E+03 0.  0.
        -24    2    1    2    0    0  0.10954279965E+02 -0.74275387579E+01  0.19834042938E+03  0.21404966656E+03  0.79392501198E+02 0.  0.
        -13    1    3    3    0    0 -0.18663902350E+02 -0.71644179640E+02 -0.93647552079E+03  0.93939748284E+03  0.00000000000E+00 0.  1.
         14    1    3    3    0    0 -0.79561696242E+02 -0.35624697255E+02 -0.62046131084E+03  0.62655520173E+03  0.00000000000E+00 0. -1.
         11    1    5    5    0    0  0.11213784070E+01 -0.19291450102E+02  0.19768444181E+03  0.19862667512E+03  0.00000000000E+00 0. -1.
        -12    1    5    5    0    0  0.98329015580E+01  0.11863911344E+02  0.65598757804E+00  0.15422991445E+02  0.00000000000E+00 0.  1.
          5    1    4    4  501    0  0.75009748612E+02  0.39744173071E+02 -0.15550106369E+03  0.17721206191E+03  0.41800000000E+01 0. -1.
         -5    1    4    4    0  501  0.12261570016E+02  0.74952242582E+02 -0.12591129217E+02  0.77098597278E+02  0.41800000000E+01 0. -1.
</event>
<event>
11    1  0.8328696E-009  0.1432645E+03  0.7561462E-02  0.1103967E+00
         22   -1    0    0    0    0  0.00000000000E+00  0.00000000000E+00  0.30048619928E+03  0.30048619928E+03  0.00000000000E+00 0. -1.
         22   -1    0    0    0    0 -0.00000000000E+00 -0.00000000000E+00 -0.39342617671E+04  0.39342617671E+04  0.00000000000E+00 0. -1.
        -24    2    1    2    0    0 -0.23871880915E+02  0.63394536750E+02 -0.35341777290E+04  0.35357230053E+04  0.79600353799E+02 0.  0.
         25    2    1    2    0    0  0.59472012073E+02 -0.11043383074E+03 -0.37081340358E+03  0.41095284138E+03  0.12508839425E+03 0.  0.
         24    2    1    2    0    0 -0.35600131158E+02  0.47039293990E+02  0.27121556478E+03  0.28807211962E+03  0.77120678200E+02 0.  0.
        -13    1    5    5    0    0 -0.19402076188E+02 -0.75666375113E+01  0.15161986917E+02  0.25760054560E+02  0.00000000000E+00 0.  1.
         14    1    5    5    0    0 -0.16198054969E+02  0.54605931501E+02  0.25605357787E+03  0.26231206506E+03  0.00000000000E+00 0. -1.
         11    1    3    3    0    0 -0.22710034654E+02  0.28763550396E+02 -0.30825947760E+04  0.30828126184E+04  0.00000000000E+00 0. -1.
        -12    1    3    3    0    0 -0.11618462610E+01  0.34630986354E+02 -0.45158295302E+03  0.45291038690E+03  0.00000000000E+00 0.  1.
          5    1    4    4  501    0  0.35336438437E+02 -0.12843251871E+03 -0.34888353573E+03  0.37347124340E+03  0.41800000000E+01 0.  1.
         -5    1    4    4    0  501  0.24135573636E+02  0.17998687972E+02 -0.21929867844E+02  0.37481597980E+02  0.41800000000E+01 0.  1.
</event>
<event>
11    1  0.8328696E-009  0.1429103E+03  0.7561462E-02  0.1104351E+00
         22   -1    0    0    0    0  0.00000000000E+00  0.00000000000E+00  0.73907396434E+03  0.73907396434E+03  0.00000000000E+00 0. -1.
         22   -1    0    0    0    0 -0.00000000000E+00 -0.00000000000E+00 -0.30518459285E+03  0.30518459285E+03  0.00000000000E+00 0. -1.
        -24    2    1    2    0    0 -0.32252629022E+02  0.57014080965E+02 -0.13095835901E+03  0.16556302223E+03  0.77266972428E+02 0.  0.
         25    2    1    2    0    0  0.55393521506E+02 -0.55315072824E+02 -0.11922225066E+03  0.18970643782E+03  0.12508552271E+03 0.  0.
         24    2    1    2    0    0 -0.23140892484E+02 -0.16990081409E+01  0.68406998117E+03  0.68898909713E+03  0.78840657663E+02 0.  0.
        -13    1    5    5    0    0  0.21525052835E+02  0.98194584251E+01  0.87616109296E+02  0.90754241066E+02  0.00000000000E+00 0.  1.
         14    1    5    5    0    0 -0.44665945320E+02 -0.11518466566E+02  0.59645387187E+03  0.59823485607E+03  0.00000000000E+00 0. -1.
         13    1    3    3    0    0  0.11228700330E+02  0.37841531850E+02 -0.10328794602E+03  0.11057334687E+03  0.00000000000E+00 0. -1.
        -14    1    3    3    0    0 -0.43481329351E+02  0.19172549115E+02 -0.27670412992E+02  0.54989675366E+02  0.00000000000E+00 0.  1.
          5    1    4    4  501    0  0.76612022608E+02 -0.61907745179E+01 -0.11148551322E+03  0.13547774635E+03  0.41800000000E+01 0. -1.
         -5    1    4    4    0  501 -0.21218501102E+02 -0.49124298306E+02 -0.77367374447E+01  0.54228691478E+02  0.41800000000E+01 0. -1.
</event>
<event>
11    1  0.8328696E-009  0.1799403E+03  0.7561462E-02  0.1069691E+00
         22   -1    0    0    0    0  0.00000000000E+00  0.00000000000E+00  0.14181817037E+04  0.14181817037E+04  0.00000000000E+00 0.  1.
         22   -1    0    0    0    0 -0.00000000000E+00 -0.00000000000E+00 -0.34287518510E+03  0.34287518510E+03  0.00000000000E+00 0. -1.
         24    2    1    2    0    0  0.95217366501E+02 -0.86474610552E+02 -0.25904668627E+03  0.30064963799E+03  0.82102460365E+02 0.  0.
         25    2    1    2    0    0 -0.52106291722E+02  0.13990767151E+03  0.95610474469E+02  0.21697631480E+03  0.12509251046E+03 0.  0.
        -24    2    1    2    0    0 -0.43111074778E+02 -0.53433060959E+02  0.12387427304E+04  0.12434309360E+04  0.83206272041E+02 0.  0.
        -13    1    3    3    0    0  0.53438973624E+02  0.29233506769E+01 -0.10164243743E+03  0.11487147152E+03  0.00000000000E+00 0.  1.
         14    1    3    3    0    0  0.41778392877E+02 -0.89397961229E+02 -0.15740424884E+03  0.18577816647E+03  0.00000000000E+00 0. -1.
         13    1    5    5    0    0 -0.23210625012E+01  0.20756654212E+02  0.36461929444E+03  0.36521699838E+03  0.00000000000E+00 0. -1.
        -14    1    5    5    0    0 -0.40790012277E+02 -0.74189715171E+02  0.87412343595E+03  0.87821393761E+03  0.00000000000E+00 0.  1.
          5    1    4    4  501    0 -0.64281014625E+02  0.74918289056E+02 -0.22132131564E+01  0.98828991641E+02  0.41800000000E+01 0.  1.
         -5    1    4    4    0  501  0.12174722902E+02  0.64989382455E+02  0.97823687625E+02  0.11814732316E+03  0.41800000000E+01 0.  1.
</event>
<event>
11    1  0.8328696E-009  0.1474058E+03  0.7561462E-02  0.1099559E+00
         22   -1    0    0    0    0  0.00000000000E+00  0.00000000000E+00  0.37589116500E+03  0.37589116500E+03  0.00000000000E+00 0. -1.
         22   -1    0    0    0    0 -0.00000000000E+00 -0.00000000000E+00 -0.31698453796E+03  0.31698453796E+03  0.00000000000E+00 0. -1.
         24    2    1    2    0    0  0.48543361943E+02  0.21084442110E+02 -0.25274911212E+03  0.27082685206E+03  0.81633684414E+02 0.  0.
         25    2    1    2    0    0 -0.20832176026E+02  0.60805560550E+02  0.79570190314E+02  0.16158992100E+03  0.12509433093E+03 0.  0.
        -24    2    1    2    0    0 -0.27711185917E+02 -0.81890002661E+02  0.23208554884E+03  0.26045892990E+03  0.80630452187E+02 0.  0.
        -13    1    3    3    0    0  0.14387703256E+02 -0.28682336491E+02 -0.51119459438E+02  0.60356288527E+02  0.00000000000E+00 0.  1.
         14    1    3    3    0    0  0.34155658687E+02  0.49766778601E+02 -0.20162965268E+03  0.21047056353E+03  0.00000000000E+00 0. -1.
         11    1    5    5    0    0 -0.36607098222E+01 -0.67778413773E+02  0.21970127380E+03  0.22994774162E+03  0.00000000000E+00 0. -1.
        -12    1    5    5    0    0 -0.24050476095E+02 -0.14111588888E+02  0.12384275046E+02  0.30511188271E+02  0.00000000000E+00 0.  1.
          5    1    4    4  501    0 -0.21413557961E+02  0.92026055103E+02  0.23782688334E+02  0.97521402506E+02  0.41800000000E+01 0. -1.
         -5    1    4    4    0  501  0.58138193435E+00 -0.31220494552E+02  0.55787501980E+02  0.64068518496E+02  0.41800000000E+01 0. -1.
</event>
<event>
11    1  0.8328696E-009  0.1439130E+03  0.7561462E-02  0.1103266E+00
         22   -1    0    0    0    0  0.00000000000E+00  0.00000000000E+00  0.10732800464E+04  0.10732800464E+04  0.00000000000E+00 0. -1.
         22   -1    0    0    0    0 -0.00000000000E+00 -0.00000000000E+00 -0.12693583055E+03  0.12693583055E+03  0.00000000000E+00 0.  1.
        -24    2    1    2    0    0  0.67958740486E+02  0.15912458048E+02 -0.69420312338E+02  0.11920393967E+03  0.67222040573E+02 0.  0.
         25    2    1    2    0    0 -0.72654427551E+02 -0.43510864930E+02  0.15675186719E+03  0.21770071311E+03  0.12510232376E+03 0.  0.
         24    2    1    2    0    0  0.46956870653E+01  0.27598406882E+02  0.85901266097E+03  0.86331122413E+03  0.81362131674E+02 0.  0.
        -13    1    5    5    0    0 -0.26090557235E+02 -0.87056373825E+01  0.54675165929E+03  0.54744304018E+03  0.00000000000E+00 0.  1.
         14    1    5    5    0    0  0.30786244300E+02  0.36304044265E+02  0.31226100168E+03  0.31586818396E+03  0.00000000000E+00 0. -1.
         13    1    3    3    0    0  0.10373131236E+02 -0.13006467499E+02  0.80125438511E+01  0.18465397569E+02  0.00000000000E+00 0. -1.
        -14    1    3    3    0    0  0.57585609250E+02  0.28918925546E+02 -0.77432856189E+02  0.10073854210E+03  0.00000000000E+00 0.  1.
          5    1    4    4  501    0  0.89051079995E+01  0.13269385553E+02 -0.12955519064E+02  0.20992746739E+02  0.41800000000E+01 0.  1.
         -5    1    4    4    0  501 -0.81559535550E+02 -0.56780250483E+02  0.16970738626E+03  0.19670796637E+03  0.41800000000E+01 0.  1.
</event>
<event>
11    1  0.1424875E-008  0.1647285E+03  0.7561462E-02  0.1082712E+00
         22   -1    0    0    0    0  0.00000000000E+00  0.00000000000E+00  0.99996051738E+03  0.99996051738E+03  0.00000000000E+00 0.  1.
         22   -1    0    0    0    0 -0.00000000000E+00 -0.00000000000E+00 -0.12495900688E+04  0.12495900688E+04  0.00000000000E+00 0.  1.
        -24    2    1    2    0    0  0.15496816578E+02 -0.45886102808E+02 -0.10496258229E+04  0.10539047756E+04  0.81579545205E+02 0.  0.
         25    2    1    2    0    0  0.41490116831E+02  0.13581299056E+03 -0.14682115006E+03  0.23952092483E+03  0.12508886891E+03 0.  0.
         24    2    1    2    0    0 -0.56986933409E+02 -0.89926887755E+02  0.94681742155E+03  0.95612488574E+03  0.79857445829E+02 0.  0.
        -13    1    5    5    0    0 -0.51322988345E+02 -0.35024599508E+02  0.72050637073E+03  0.72318061504E+03  0.00000000000E+00 0.  1.
         14    1    5    5    0    0 -0.56639450644E+01 -0.54902288248E+02  0.22631105082E+03  0.23294427070E+03  0.00000000000E+00 0. -1.
         11    1    3    3    0    0 -0.14719518642E+01  0.14088474575E+02 -0.41440147516E+02  0.43794264285E+02  0.00000000000E+00 0. -1.
        -12    1    3    3    0    0  0.16968768443E+02 -0.59974577384E+02 -0.10081856754E+04  0.10101105113E+04  0.00000000000E+00 0.  1.
          5    1    4    4  501    0  0.49023222555E+02  0.85921456198E+02 -0.15912818858E+03  0.18741671693E+03  0.41800000000E+01 0. -1.
         -5    1    4    4    0  501 -0.75331057246E+01  0.49891534366E+02  0.12307038521E+02  0.52104207895E+02  0.41800000000E+01 0. -1.
</event>
<event>
11    1  0.8328696E-009  0.1290882E+03  0.7561462E-02  0.1120394E+00
         22   -1    0    0    0    0  0.00000000000E+00  0.00000000000E+00  0.35307839894E+03  0.35307839894E+03  0.00000000000E+00 0.  1.
         22   -1    0    0    0    0 -0.00000000000E+00 -0.00000000000E+00 -0.22915083384E+03  0.22915083384E+03  0.00000000000E+00 0. -1.
         24    2    1    2    0    0  0.10332590737E+02  0.15683622307E+02 -0.17576662252E+03  0.19384026639E+03  0.79544986293E+02 0.  0.
         25    2    1    2    0    0 -0.53989269183E+01 -0.44525356197E+02  0.85789366787E+02  0.15817556510E+03  0.12509211879E+03 0.  0.
        -24    2    1    2    0    0 -0.49336638192E+01  0.28841733890E+02  0.21390482083E+03  0.23021340130E+03  0.79917151558E+02 0.  0.
        -13    1    3    3    0    0  0.52556369138E+01 -0.24841162503E+02 -0.13018497718E+03  0.13263797856E+03  0.00000000000E+00 0.  1.
         14    1    3    3    0    0  0.50769538236E+01  0.40524784810E+02 -0.45581645335E+02  0.61202287829E+02  0.00000000000E+00 0. -1.
         11    1    5    5    0    0 -0.64338816996E+01  0.31219396225E+02  0.23046303945E+02  0.39334179283E+02  0.00000000000E+00 0. -1.
        -12    1    5    5    0    0  0.15002178804E+01 -0.23776623346E+01  0.19085851688E+03  0.19087922202E+03  0.00000000000E+00 0.  1.
          5    1    4    4  501    0  0.44961091945E+02 -0.14882083691E+02 -0.73835905516E+01  0.48114093707E+02  0.41800000000E+01 0. -1.
         -5    1    4    4    0  501 -0.50360018863E+02 -0.29643272506E+02  0.93172957339E+02  0.11006147139E+03  0.41800000000E+01 0. -1.
</event>
<event>
11    1  0.8328696E-009  0.1628480E+03  0.7561462E-02  0.1084429E+00
         22   -1    0    0    0    0  0.00000000000E+00  0.00000000000E+00  0.78384723014E+03  0.78384723014E+03  0.00000000000E+00 0.  1.
         22   -1    0    0    0    0 -0.00000000000E+00 -0.00000000000E+00 -0.26313491264E+03  0.26313491264E+03  0.00000000000E+00 0.  1.
        -24    2    1    2    0    0  0.12572044934E+02 -0.72986955085E+02 -0.20369272460E+03  0.23104479672E+03  0.80036367436E+02 0.  0.
         25    2    1    2    0    0 -0.44573017707E+02  0.16002095269E+03  0.24199051040E+03  0.31906541947E+03  0.12509946271E+03 0.  0.
         24    2    1    2    0    0  0.32000972773E+02 -0.87033997608E+02  0.48241453171E+03  0.49687192658E+03  0.74558380001E+02 0.  0.
        -13    1    5    5    0    0  0.42579031107E+02 -0.85418191429E+02  0.31563452366E+03  0.32974898612E+03  0.00000000000E+00 0.  1.
         14    1    5    5    0    0 -0.10578058334E+02 -0.16158061791E+01  0.16678000804E+03  0.16712294047E+03  0.00000000000E+00 0. -1.
         13    1    3    3    0    0  0.25330586619E+02  0.47832083345E+01 -0.25774746971E+02  0.36453467351E+02  0.00000000000E+00 0. -1.
        -14    1    3    3    0    0 -0.12758541685E+02 -0.77770163419E+02 -0.17791797763E+03  0.19459132937E+03  0.00000000000E+00 0.  1.
          5    1    4    4  501    0 -0.36890827767E+02  0.61738242125E+02  0.19862317370E+03  0.21128459775E+03  0.41800000000E+01 0. -1.
         -5    1    4    4    0  501 -0.76821899404E+01  0.98282710568E+02  0.43367336696E+02  0.10778082172E+03  0.41800000000E+01 0. -1.
</event>
<event>
11    1  0.8328696E-009  0.1321047E+03  0.7561462E-02  0.1116710E+00
         22   -1    0    0    0    0  0.00000000000E+00  0.00000000000E+00  0.39503695227E+03  0.39503695227E+03  0.00000000000E+00 0. -1.
         22   -1    0    0    0    0 -0.00000000000E+00 -0.00000000000E+00 -0.28348152115E+03  0.28348152115E+03  0.00000000000E+00 0. -1.
         24    2    1    2    0    0  0.32636988787E+01  0.93098474923E+01 -0.20473700519E+03  0.22083611888E+03  0.82182876067E+02 0.  0.
         25    2    1    2    0    0 -0.45115149682E+02 -0.13646024036E+02  0.54610771241E+01  0.13378787298E+03  0.12509109037E+03 0.  0.
        -24    2    1    2    0    0  0.41851450803E+02  0.43361765440E+01  0.31083135918E+03  0.32389448156E+03  0.80753668471E+02 0.  0.
        -11    1    3    3    0    0  0.24847765485E+02  0.35987239029E+02 -0.76814500389E+02  0.88390951417E+02  0.00000000000E+00 0.  1.
         12    1    3    3    0    0 -0.21584066606E+02 -0.26677391537E+02 -0.12792250480E+03  0.13244516746E+03  0.00000000000E+00 0. -1.
         13    1    5    5    0    0 -0.68443600448E+01 -0.17872761167E+02  0.19897193180E+03  0.19989024614E+03  0.00000000000E+00 0. -1.
        -14    1    5    5    0    0  0.48695810848E+02  0.22208937711E+02  0.11185942738E+03  0.12400423542E+03  0.00000000000E+00 0.  1.
          5    1    4    4  501    0  0.34843818706E+02  0.22373433503E+02  0.17539800490E+02  0.45163915131E+02  0.41800000000E+01 0. -1.
         -5    1    4    4    0  501 -0.79958968387E+02 -0.36019457539E+02 -0.12078723366E+02  0.88623957851E+02  0.41800000000E+01 0. -1.
</event>
<event>
11    1  0.8328696E-009  0.1369582E+03  0.7561462E-02  0.1111003E+00
         22   -1    0    0    0    0  0.00000000000E+00  0.00000000000E+00  0.10808543913E+04  0.10808543913E+04  0.00000000000E+00 0.  1.
         22   -1    0    0    0    0 -0.00000000000E+00 -0.00000000000E+00 -0.11224799668E+03  0.11224799668E+03  0.00000000000E+00 0. -1.
         24    2    1    2    0    0 -0.29066200138E+02  0.13602889551E+02 -0.72105199713E+02  0.11387626008E+03  0.82089951818E+02 0.  0.
         25    2    1    2    0    0  0.47797532850E+02 -0.61903868233E+02  0.32242955864E+03  0.35457853276E+03  0.12509365514E+03 0.  0.
        -24    2    1    2    0    0 -0.18731332712E+02  0.48300978682E+02  0.71828203567E+03  0.72464759512E+03  0.80630062509E+02 0.  0.
        -11    1    3    3    0    0  0.27799079291E+02 -0.38391729217E+01 -0.17108326344E+02  0.32866744415E+02  0.00000000000E+00 0.  1.
         12    1    3    3    0    0 -0.56865279429E+02  0.17442062472E+02 -0.54996873368E+02  0.81009515664E+02  0.00000000000E+00 0. -1.
         13    1    5    5    0    0  0.31374161435E+02  0.14161311057E+02  0.30627501558E+03  0.30820328666E+03  0.00000000000E+00 0. -1.
        -14    1    5    5    0    0 -0.50105494146E+02  0.34139667625E+02  0.41200702008E+03  0.41644430846E+03  0.00000000000E+00 0.  1.
          5    1    4    4  501    0  0.55340423001E+02 -0.36896721149E+02  0.32126075838E+03  0.32810040799E+03  0.41800000000E+01 0. -1.
         -5    1    4    4    0  501 -0.75428901506E+01 -0.25007147084E+02  0.11688002632E+01  0.26478124767E+02  0.41800000000E+01 0. -1.
</event>
<event>
11    1  0.8328696E-009  0.1264009E+03  0.7561462E-02  0.1123772E+00
         22   -1    0    0    0    0  0.00000000000E+00  0.00000000000E+00  0.54552716039E+03  0.54552716039E+03  0.00000000000E+00 0.  1.
         22   -1    0    0    0    0 -0.00000000000E+00 -0.00000000000E+00 -0.84028762109E+02  0.84028762109E+02  0.00000000000E+00 0.  1.
        -24    2    1    2    0    0  0.64649775286E+02 -0.28017028542E+02 -0.45631243094E+01  0.10630976219E+03  0.79475757941E+02 0.  0.
         25    2    1    2    0    0 -0.18390580265E+02  0.19714538927E+02  0.24097841957E+03  0.27284915240E+03  0.12509670172E+03 0.  0.
         24    2    1    2    0    0 -0.46259195021E+02  0.83024896154E+01  0.22508310303E+03  0.25039700791E+03  0.99133313501E+02 0.  0.
        -13    1    5    5    0    0 -0.43388640802E+02  0.84068769782E+01  0.23548982198E+03  0.23960113937E+03  0.00000000000E+00 0.  1.
         14    1    5    5    0    0 -0.28705542190E+01 -0.10438736276E+00 -0.10406718953E+02  0.10795868543E+02  0.00000000000E+00 0. -1.
         13    1    3    3    0    0  0.12038299444E+01 -0.41238839900E+02  0.94410523859E+00  0.41267208017E+02  0.00000000000E+00 0. -1.
        -14    1    3    3    0    0  0.63445945342E+02  0.13221811358E+02 -0.55072295480E+01  0.65042554172E+02  0.00000000000E+00 0.  1.
          5    1    4    4  501    0  0.52170907600E+02  0.17856730250E+02  0.12980902816E+03  0.14109756414E+03  0.41800000000E+01 0. -1.
         -5    1    4    4    0  501 -0.70561487866E+02  0.18578086769E+01  0.11116939141E+03  0.13175158826E+03  0.41800000000E+01 0. -1.
</event>
<event>
11    1  0.8328696E-009  0.6390393E+03  0.7561462E-02  0.9127299E-01
         22   -1    0    0    0    0  0.00000000000E+00  0.00000000000E+00  0.24997619306E+04  0.24997619306E+04  0.00000000000E+00 0.  1.
         22   -1    0    0    0    0 -0.00000000000E+00 -0.00000000000E+00 -0.94884824464E+03  0.94884824464E+03  0.00000000000E+00 0.  1.
         24    2    1    2    0    0 -0.27368056576E+02  0.45241072082E+02 -0.71851903148E+03  0.72500624375E+03  0.81047453760E+02 0.  0.
         25    2    1    2    0    0  0.25468793656E+02 -0.66148861329E+03  0.47424957800E+03  0.82387867037E+03  0.12509019264E+03 0.  0.
        -24    2    1    2    0    0  0.18992629197E+01  0.61624754121E+03  0.17951831395E+04  0.18997252611E+04  0.80677905098E+02 0.  0.
        -13    1    3    3    0    0 -0.34229836638E+02  0.59678056171E+01 -0.57510783071E+03  0.57615650076E+03  0.00000000000E+00 0.  1.
         14    1    3    3    0    0  0.68617800617E+01  0.39273266465E+02 -0.14341120077E+03  0.14884974300E+03  0.00000000000E+00 0. -1.
         11    1    5    5    0    0 -0.32774683673E+02  0.30902540899E+03  0.83223443415E+03  0.88836087075E+03  0.00000000000E+00 0. -1.
        -12    1    5    5    0    0  0.34673946593E+02  0.30722213222E+03  0.96294870530E+03  0.10113643904E+04  0.00000000000E+00 0.  1.
          5    1    4    4  501    0  0.13232231925E+02 -0.56781806035E+03  0.34790969852E+03  0.66607137181E+03  0.41800000000E+01 0. -1.
         -5    1    4    4    0  501  0.12236561731E+02 -0.93670552938E+02  0.12633987948E+03  0.15780729856E+03  0.41800000000E+01 0. -1.
</event>
<event>
11    1  0.8328696E-009  0.1575052E+03  0.7561462E-02  0.1089447E+00
         22   -1    0    0    0    0  0.00000000000E+00  0.00000000000E+00  0.87240431653E+03  0.87240431653E+03  0.00000000000E+00 0.  1.
         22   -1    0    0    0    0 -0.00000000000E+00 -0.00000000000E+00 -0.42107156608E+03  0.42107156608E+03  0.00000000000E+00 0. -1.
         24    2    1    2    0    0 -0.63137010541E+01 -0.13560281982E+02 -0.37965618955E+03  0.38890172142E+03  0.82957715676E+02 0.  0.
         25    2    1    2    0    0 -0.86852704680E+02  0.37433752790E+02  0.17605272800E+03  0.23577305142E+03  0.12509872334E+03 0.  0.
        -24    2    1    2    0    0  0.93166405734E+02 -0.23873470808E+02  0.65493621199E+03  0.66880110978E+03  0.95412582488E+02 0.  0.
        -13    1    3    3    0    0 -0.16611884679E+02 -0.29857934665E+02 -0.63082565816E+02  0.71741627281E+02  0.00000000000E+00 0.  1.
         14    1    3    3    0    0  0.10298183624E+02  0.16297652683E+02 -0.31657362373E+03  0.31716009413E+03  0.00000000000E+00 0. -1.
         13    1    5    5    0    0 -0.14615724534E+02 -0.23508163129E+02  0.13730026160E+03  0.14006289649E+03  0.00000000000E+00 0. -1.
        -14    1    5    5    0    0  0.10778213027E+03 -0.36530767817E+00  0.51763595039E+03  0.52873821329E+03  0.00000000000E+00 0.  1.
          5    1    4    4  501    0  0.44315892850E+01  0.48112229283E+02  0.15829769876E+02  0.51014503864E+02  0.41800000000E+01 0.  1.
         -5    1    4    4    0  501 -0.91284293965E+02 -0.10678476493E+02  0.16022295813E+03  0.18475854756E+03  0.41800000000E+01 0.  1.
</event>
<event>
11    1  0.8328696E-009  0.1411692E+03  0.7561462E-02  0.1106260E+00
         22   -1    0    0    0    0  0.00000000000E+00  0.00000000000E+00  0.39929472123E+02  0.39929472123E+02  0.00000000000E+00 0. -1.
         22   -1    0    0    0    0 -0.00000000000E+00 -0.00000000000E+00 -0.19484831470E+04  0.19484831470E+04  0.00000000000E+00 0.  1.
        -24    2    1    2    0    0 -0.16976622085E+02 -0.65169105939E+02 -0.12208496403E+04  0.12254561823E+04  0.82059688293E+02 0.  0.
         25    2    1    2    0    0  0.76429717248E+01  0.59385237718E+02 -0.66479823902E+03  0.67910885725E+03  0.12508844835E+03 0.  0.
         24    2    1    2    0    0  0.93336503602E+01  0.57838682210E+01 -0.22905795492E+02  0.83847579514E+02  0.79907264768E+02 0.  0.
        -13    1    5    5    0    0  0.43463027086E+02  0.12657641218E+01 -0.23479173204E+02  0.49415670152E+02  0.00000000000E+00 0.  1.
         14    1    5    5    0    0 -0.34129376725E+02  0.45181040993E+01  0.57337771240E+00  0.34431909362E+02  0.00000000000E+00 0. -1.
         11    1    3    3    0    0 -0.43199382236E+01 -0.28237439312E+02 -0.10197095840E+03  0.10589660619E+03  0.00000000000E+00 0. -1.
        -12    1    3    3    0    0 -0.12656683861E+02 -0.36931666627E+02 -0.11188786819E+04  0.11195595762E+04  0.00000000000E+00 0.  1.
          5    1    4    4  501    0 -0.46538212169E+02  0.66805810040E+02 -0.45582691646E+03  0.46305990067E+03  0.41800000000E+01 0.  1.
         -5    1    4    4    0  501  0.54181183894E+02 -0.74205723223E+01 -0.20897132257E+03  0.21604895658E+03  0.41800000000E+01 0.  1.
</event>
<event>
11    1  0.8328696E-009  0.1617644E+03  0.7561462E-02  0.1085429E+00
         22   -1    0    0    0    0  0.00000000000E+00  0.00000000000E+00  0.18505031150E+03  0.18505031150E+03  0.00000000000E+00 0. -1.
         22   -1    0    0    0    0 -0.00000000000E+00 -0.00000000000E+00 -0.28255993736E+03  0.28255993736E+03  0.00000000000E+00 0.  1.
        -24    2    1    2    0    0  0.15673417095E+02  0.26421769195E+02 -0.81402266453E+02  0.11893245693E+03  0.81085352792E+02 0.  0.
         25    2    1    2    0    0 -0.53591709589E+02 -0.11531891822E+03 -0.93027792058E+02  0.20119131133E+03  0.12511294668E+03 0.  0.
         24    2    1    2    0    0  0.37918292495E+02  0.88897149022E+02  0.76920432649E+02  0.14748648060E+03  0.80591618617E+02 0.  0.
        -13    1    5    5    0    0  0.21785447477E+02  0.31223296606E+02 -0.12317963435E+02  0.40015399484E+02  0.00000000000E+00 0.  1.
         14    1    5    5    0    0  0.16132845018E+02  0.57673852416E+02  0.89238396084E+02  0.10747108112E+03  0.00000000000E+00 0. -1.
         11    1    3    3    0    0 -0.17614443652E+02 -0.16885950153E+02 -0.48301975373E+01  0.24874379308E+02  0.00000000000E+00 0. -1.
        -12    1    3    3    0    0  0.33287860747E+02  0.43307719348E+02 -0.76572068915E+02  0.94058077623E+02  0.00000000000E+00 0.  1.
          5    1    4    4  501    0  0.15609069605E+02 -0.52957097871E+01 -0.66278526650E+02  0.68425164165E+02  0.41800000000E+01 0. -1.
         -5    1    4    4    0  501 -0.69200779194E+02 -0.11002320843E+03 -0.26749265408E+02  0.13276614717E+03  0.41800000000E+01 0. -1.
</event>
<event>
11    1  0.9263150E-009  0.1696483E+03  0.7561462E-02  0.1078338E+00
         22   -1    0    0    0    0  0.00000000000E+00  0.00000000000E+00  0.37213406940E+03  0.37213406940E+03  0.00000000000E+00 0. -1.
         22   -1    0    0    0    0 -0.00000000000E+00 -0.00000000000E+00 -0.24764210920E+04  0.24764210920E+04  0.00000000000E+00 0.  1.
         24    2    1    2    0    0  0.31338160944E+02 -0.26310025748E+02 -0.17318375442E+04  0.17342729464E+04  0.82262233712E+02 0.  0.
         25    2    1    2    0    0 -0.56582480716E+02 -0.85817759058E+02 -0.72098868967E+03  0.73894442730E+03  0.12509161086E+03 0.  0.
        -24    2    1    2    0    0  0.25244319772E+02  0.11212778481E+03  0.34853921130E+03  0.37533778773E+03  0.78669926109E+02 0.  0.
        -13    1    3    3    0    0 -0.57465278987E+01 -0.38710189212E+02 -0.13207955573E+04  0.13213751948E+04  0.00000000000E+00 0.  1.
         14    1    3    3    0    0  0.37084688843E+02  0.12400163465E+02 -0.41104198693E+03  0.41289775153E+03  0.00000000000E+00 0. -1.
         11    1    5    5    0    0  0.20030306075E+02  0.12118773231E+03  0.27665237312E+03  0.30269492096E+03  0.00000000000E+00 0. -1.
        -12    1    5    5    0    0  0.52140136966E+01 -0.90599475053E+01  0.71886838188E+02  0.72642866769E+02  0.00000000000E+00 0.  1.
          5    1    4    4  501    0  0.26239699087E+02 -0.32526989635E+02 -0.79368076493E+02  0.89795828573E+02  0.41800000000E+01 0. -1.
         -5    1    4    4    0  501 -0.82822179803E+02 -0.53290769423E+02 -0.64162061318E+03  0.64914859873E+03  0.41800000000E+01 0. -1.
</event>
<event>
11    1  0.8328696E-009  0.1878025E+03  0.7561462E-02  0.1063501E+00
         22   -1    0    0    0    0  0.00000000000E+00  0.00000000000E+00  0.12741434572E+03  0.12741434572E+03  0.00000000000E+00 0.  1.
         22   -1    0    0    0    0 -0.00000000000E+00 -0.00000000000E+00 -0.14175685793E+04  0.14175685793E+04  0.00000000000E+00 0.  1.
         24    2    1    2    0    0  0.13503439719E+03  0.11963085502E+02 -0.11543496885E+04  0.11653019042E+04  0.83832694137E+02 0.  0.
         25    2    1    2    0    0 -0.18965904272E+03  0.91506602549E+01 -0.16273518662E+03  0.27961322429E+03  0.12508607901E+03 0.  0.
        -24    2    1    2    0    0  0.54624645531E+02 -0.21113745757E+02  0.26930641591E+02  0.10006779654E+03  0.76541898916E+02 0.  0.
        -13    1    3    3    0    0  0.91278340035E+02  0.40792652378E+02 -0.57876417380E+03  0.58733614287E+03  0.00000000000E+00 0.  1.
         14    1    3    3    0    0  0.43756057159E+02 -0.28829566877E+02 -0.57558551472E+03  0.57796576129E+03  0.00000000000E+00 0. -1.
         11    1    5    5    0    0  0.18967665218E+02  0.21486017860E+00 -0.26371444163E+02  0.32484943528E+02  0.00000000000E+00 0. -1.
        -12    1    5    5    0    0  0.35656980312E+02 -0.21328605935E+02  0.53302085755E+02  0.67582853017E+02  0.00000000000E+00 0.  1.
          5    1    4    4  501    0 -0.18443316712E+03 -0.27903882197E+02 -0.11641229189E+03  0.21991706136E+03  0.41800000000E+01 0. -1.
         -5    1    4    4    0  501 -0.52258756090E+01  0.37054542452E+02 -0.46322894726E+02  0.59696162925E+02  0.41800000000E+01 0. -1.
</event>
<event>
11    1  0.8328696E-009  0.1331146E+03  0.7561462E-02  0.1115500E+00
         22   -1    0    0    0    0  0.00000000000E+00  0.00000000000E+00  0.58453225537E+03  0.58453225537E+03  0.00000000000E+00 0. -1.
         22   -1    0    0    0    0 -0.00000000000E+00 -0.00000000000E+00 -0.96193728521E+02  0.96193728521E+02  0.00000000000E+00 0.  1.
         24    2    1    2    0    0  0.14603421574E+02 -0.43755883602E+02 -0.25446605785E+02  0.96494630980E+02  0.80844584176E+02 0.  0.
         25    2    1    2    0    0 -0.37484376261E+02  0.31276042149E+02  0.11516225409E+03  0.17690168586E+03  0.12509433407E+03 0.  0.
        -24    2    1    2    0    0  0.22880954688E+02  0.12479841453E+02  0.39862287854E+03  0.40732966705E+03  0.79611392582E+02 0.  0.
        -13    1    3    3    0    0  0.94156637020E+01 -0.55175548767E+02 -0.45977421251E+02  0.72435620861E+02  0.00000000000E+00 0.  1.
         14    1    3    3    0    0  0.51877578718E+01  0.11419665165E+02  0.20530815466E+02  0.24059010119E+02  0.00000000000E+00 0. -1.
         11    1    5    5    0    0  0.89136767983E+00 -0.29178244230E+02  0.78356462389E+02  0.83617579914E+02  0.00000000000E+00 0. -1.
        -12    1    5    5    0    0  0.21989587008E+02  0.41658085683E+02  0.32026641616E+03  0.32371208713E+03  0.00000000000E+00 0.  1.
          5    1    4    4  501    0 -0.57400400143E+01  0.96805899850E+00  0.13014140213E+03  0.13033856738E+03  0.41800000000E+01 0. -1.
         -5    1    4    4    0  501 -0.31744336247E+02  0.30307983151E+02 -0.14979148045E+02  0.46563118480E+02  0.41800000000E+01 0. -1.
</event>
<event>
11    1  0.8328696E-009  0.1323509E+03  0.7561462E-02  0.1116414E+00
         22   -1    0    0    0    0  0.00000000000E+00  0.00000000000E+00  0.17996365690E+04  0.17996365690E+04  0.00000000000E+00 0.  1.
         22   -1    0    0    0    0 -0.00000000000E+00 -0.00000000000E+00 -0.37270958491E+02  0.37270958491E+02  0.00000000000E+00 0. -1.
        -24    2    1    2    0    0  0.29688381542E+02  0.25344817338E+02  0.78433741930E+02  0.12508320953E+03  0.89275963556E+02 0.  0.
         25    2    1    2    0    0 -0.75131216246E+02  0.20587237851E+01  0.42752942391E+03  0.45174970507E+03  0.12508976665E+03 0.  0.
         24    2    1    2    0    0  0.45442834704E+02 -0.27403541123E+02  0.12564024446E+04  0.12600746129E+04  0.80155609884E+02 0.  0.
        -11    1    5    5    0    0  0.64270381761E+02 -0.11251547704E+02  0.67580703401E+03  0.67894950219E+03  0.00000000000E+00 0.  1.
         12    1    5    5    0    0 -0.18827547057E+02 -0.16151993420E+02  0.58059541062E+03  0.58112511067E+03  0.00000000000E+00 0. -1.
         11    1    3    3    0    0  0.45376822779E+02 -0.22330395242E+01  0.57726340748E+01  0.45797006618E+02  0.00000000000E+00 0. -1.
        -12    1    3    3    0    0 -0.15688441237E+02  0.27577856862E+02  0.72661107855E+02  0.79286202912E+02  0.00000000000E+00 0.  1.
          5    1    4    4  501    0 -0.53951770200E+02 -0.59659966951E+02  0.23715160608E+03  0.25045650687E+03  0.41800000000E+01 0.  1.
         -5    1    4    4    0  501 -0.21179446046E+02  0.61718690736E+02  0.19037781783E+03  0.20129319820E+03  0.41800000000E+01 0.  1.
</event>
<event>
11    1  0.8328696E-009  0.1408553E+03  0.7561462E-02  0.1106607E+00
         22   -1    0    0    0    0  0.00000000000E+00  0.00000000000E+00  0.46735046198E+03  0.46735046198E+03  0.00000000000E+00 0. -1.
         22   -1    0    0    0    0 -0.00000000000E+00 -0.00000000000E+00 -0.26391513315E+03  0.26391513315E+03  0.00000000000E+00 0. -1.
        -24    2    1    2    0    0 -0.30651376013E+02  0.23520153984E+02 -0.18924034553E+03  0.20989561858E+03  0.82167863714E+02 0.  0.
         25    2    1    2    0    0  0.90478609240E+02 -0.35367085737E+02  0.51845034387E+02  0.16665036462E+03  0.12508887622E+03 0.  0.
         24    2    1    2    0    0 -0.59827233227E+02  0.11846931753E+02  0.34083063998E+03  0.35471961193E+03  0.77076781947E+02 0.  0.
        -11    1    5    5    0    0 -0.23568893088E+02  0.33870824058E+02  0.75697242530E+02  0.86213676238E+02  0.00000000000E+00 0.  1.
         12    1    5    5    0    0 -0.36258340139E+02 -0.22023892305E+02  0.26513339745E+03  0.26850593570E+03  0.00000000000E+00 0. -1.
         13    1    3    3    0    0 -0.17276732344E+02  0.13657581934E+01 -0.18227371605E+03  0.18309576275E+03  0.00000000000E+00 0. -1.
        -14    1    3    3    0    0 -0.13374643669E+02  0.22154395790E+02 -0.69666294853E+01  0.26799855829E+02  0.00000000000E+00 0.  1.
          5    1    4    4  501    0  0.11841916162E+03 -0.29718060151E+02  0.60831671106E+02  0.13647060324E+03  0.41800000000E+01 0.  1.
         -5    1    4    4    0  501 -0.27940552382E+02 -0.56490255856E+01 -0.89866367187E+01  0.30179761380E+02  0.41800000000E+01 0.  1.
</event>
<event>
11    1  0.8328696E-009  0.1348583E+03  0.7561462E-02  0.1113440E+00
         22   -1    0    0    0    0  0.00000000000E+00  0.00000000000E+00  0.70740650111E+03  0.70740650111E+03  0.00000000000E+00 0. -1.
         22   -1    0    0    0    0 -0.00000000000E+00 -0.00000000000E+00 -0.20321586764E+03  0.20321586764E+03  0.00000000000E+00 0.  1.
        -24    2    1    2    0    0 -0.40792506198E+02 -0.29354209056E+01 -0.15212994583E+03  0.17777242824E+03  0.82382465166E+02 0.  0.
         25    2    1    2    0    0  0.78696779937E+02  0.30068515268E+02  0.13220374048E+03  0.20055514088E+03  0.12508891539E+03 0.  0.
         24    2    1    2    0    0 -0.37904273740E+02 -0.27133094363E+02  0.52411683882E+03  0.53229479962E+03  0.80413644282E+02 0.  0.
        -13    1    5    5    0    0 -0.29590833231E+02  0.91899564663E+01  0.68795301869E+02  0.75451085283E+02  0.00000000000E+00 0.  1.
         14    1    5    5    0    0 -0.83134405087E+01 -0.36323050829E+02  0.45532153695E+03  0.45684371433E+03  0.00000000000E+00 0. -1.
         11    1    3    3    0    0  0.15112405378E+02 -0.26902167363E+02 -0.44649415007E+02  0.54274134407E+02  0.00000000000E+00 0. -1.
        -12    1    3    3    0    0 -0.55904911575E+02  0.23966746458E+02 -0.10748053083E+03  0.12349829384E+03  0.00000000000E+00 0.  1.
          5    1    4    4  501    0  0.75217903747E+00  0.14794301322E+02 -0.22115667870E+02  0.26944615237E+02  0.41800000000E+01 0.  1.
         -5    1    4    4    0  501  0.77944600900E+02  0.15274213946E+02  0.15431940835E+03  0.17361052565E+03  0.41800000000E+01 0.  1.
</event>
<event>
11    1  0.8328696E-009  0.1362723E+03  0.7561462E-02  0.1111794E+00
         22   -1    0    0    0    0  0.00000000000E+00  0.00000000000E+00  0.15607066061E+04  0.15607066061E+04  0.00000000000E+00 0. -1.
         22   -1    0    0    0    0 -0.00000000000E+00 -0.00000000000E+00 -0.34975095464E+03  0.34975095464E+03  0.00000000000E+00 0. -1.
        -24    2    1    2    0    0 -0.46414056999E+02 -0.35272187767E+02 -0.33116855710E+03  0.34491676506E+03  0.76789124815E+02 0.  0.
         25    2    1    2    0    0 -0.17275769622E+02  0.22753484860E+02  0.43715484173E+03  0.45559622755E+03  0.12508954240E+03 0.  0.
         24    2    1    2    0    0  0.63689826620E+02  0.12518702908E+02  0.11049693669E+04  0.11099445682E+04  0.82501701582E+02 0.  0.
        -11    1    5    5    0    0  0.27932421289E+02 -0.12826967986E+02  0.11595872451E+03  0.11996323210E+03  0.00000000000E+00 0.  1.
         12    1    5    5    0    0  0.35757405332E+02  0.25345670894E+02  0.98901064236E+03  0.98998133608E+03  0.00000000000E+00 0. -1.
         11    1    3    3    0    0 -0.34298989448E+02 -0.20772292135E+02 -0.32093134962E+03  0.32342671498E+03  0.00000000000E+00 0. -1.
        -12    1    3    3    0    0 -0.12115067550E+02 -0.14499895633E+02 -0.10237207479E+02  0.21490050071E+02  0.00000000000E+00 0.  1.
          5    1    4    4  501    0 -0.32318963929E+02  0.69301766909E+02  0.21959987621E+03  0.23257005043E+03  0.41800000000E+01 0. -1.
         -5    1    4    4    0  501  0.15043194307E+02 -0.46548282049E+02  0.21755496552E+03  0.22302617712E+03  0.41800000000E+01 0. -1.
</event>
<event>
11    1  0.8328696E-009  0.1366586E+03  0.7561462E-02  0.1111348E+00
         22   -1    0    0    0    0  0.00000000000E+00  0.00000000000E+00  0.20702618089E+03  0.20702618089E+03  0.00000000000E+00 0.  1.
         22   -1    0    0    0    0 -0.00000000000E+00 -0.00000000000E+00 -0.98820963602E+03  0.98820963602E+03  0.00000000000E+00 0. -1.
        -24    2    1    2    0    0 -0.55335604380E+02 -0.16103151428E+01 -0.80646041062E+03  0.81362604322E+03  0.92435502231E+02 0.  0.
         25    2    1    2    0    0  0.52677626391E+02 -0.93906054763E+01 -0.14140559153E+03  0.19622944484E+03  0.12508931975E+03 0.  0.
         24    2    1    2    0    0  0.26579779888E+01  0.11000920619E+02  0.16668254702E+03  0.18538032885E+03  0.80341208250E+02 0.  0.
        -11    1    5    5    0    0  0.45765351759E+01 -0.28851184128E+01  0.17070967610E+03  0.17079538078E+03  0.00000000000E+00 0.  1.
         12    1    5    5    0    0 -0.19185571871E+01  0.13886039032E+02 -0.40271290780E+01  0.14584948073E+02  0.00000000000E+00 0. -1.
         13    1    3    3    0    0 -0.38296397909E+02 -0.41019062227E+02 -0.60746682412E+03  0.61005337469E+03  0.00000000000E+00 0. -1.
        -14    1    3    3    0    0 -0.17039206471E+02  0.39408747084E+02 -0.19899358650E+03  0.20357266853E+03  0.00000000000E+00 0.  1.
          5    1    4    4  501    0 -0.15028122481E+02 -0.33361456163E+02 -0.11305059452E+03  0.11889802582E+03  0.41800000000E+01 0. -1.
         -5    1    4    4    0  501  0.67705748872E+02  0.23970850686E+02 -0.28354997002E+02  0.77331419022E+02  0.41800000000E+01 0. -1.
</event>
<event>
11    1  0.8328696E-009  0.1462539E+03  0.7561462E-02  0.1100769E+00
         22   -1    0    0    0    0  0.00000000000E+00  0.00000000000E+00  0.23962646665E+03  0.23962646665E+03  0.00000000000E+00 0.  1.
         22   -1    0    0    0    0 -0.00000000000E+00 -0.00000000000E+00 -0.14234907072E+04  0.14234907072E+04  0.00000000000E+00 0.  1.
        -24    2    1    2    0    0  0.52213617155E+02 -0.58688251168E+02 -0.13079634004E+04  0.13127532523E+04  0.79889122917E+02 0.  0.
         25    2    1    2    0    0 -0.50250290854E+02 -0.18373159416E+02 -0.48920118702E+02  0.14457884029E+03  0.12508876180E+03 0.  0.
         24    2    1    2    0    0 -0.19633263013E+01  0.77061410584E+02  0.17301927852E+03  0.20578508130E+03  0.80433284753E+02 0.  0.
        -13    1    5    5    0    0  0.10303422097E+01  0.23262934733E+02  0.14141337922E+03  0.14331772242E+03  0.00000000000E+00 0.  1.
         14    1    5    5    0    0 -0.29936685109E+01  0.53798475851E+02  0.31605899296E+02  0.62467358880E+02  0.00000000000E+00 0. -1.
         13    1    3    3    0    0  0.58646307911E+01  0.15647357727E+02 -0.45422334869E+03  0.45453061965E+03  0.00000000000E+00 0. -1.
        -14    1    3    3    0    0  0.46348986364E+02 -0.74335608895E+02 -0.85374005172E+03  0.85822263265E+03  0.00000000000E+00 0.  1.
          5    1    4    4  501    0  0.22432020910E+02  0.35734301837E+02 -0.19769524471E+01  0.42444276774E+02  0.41800000000E+01 0.  1.
         -5    1    4    4    0  501 -0.72682311764E+02 -0.54107461254E+02 -0.46943166255E+02  0.10213456352E+03  0.41800000000E+01 0.  1.
</event>
<event>
11    1  0.8328696E-009  0.1361803E+03  0.7561462E-02  0.1111900E+00
         22   -1    0    0    0    0  0.00000000000E+00  0.00000000000E+00  0.77753464803E+03  0.77753464803E+03  0.00000000000E+00 0.  1.
         22   -1    0    0    0    0 -0.00000000000E+00 -0.00000000000E+00 -0.71399887665E+02  0.71399887665E+02  0.00000000000E+00 0. -1.
        -24    2    1    2    0    0  0.57624276995E+01  0.21642757221E+02 -0.89083387158E+01  0.84254140319E+02  0.80732813336E+02 0.  0.
         25    2    1    2    0    0  0.47451031934E+02 -0.39583143154E+01  0.20388451538E+03  0.24389617058E+03  0.12509667353E+03 0.  0.
         24    2    1    2    0    0 -0.53213459633E+02 -0.17684442906E+02  0.51115858371E+03  0.52078422480E+03  0.82393563460E+02 0.  0.
        -13    1    5    5    0    0 -0.61013095310E+02 -0.16906083427E+02  0.50861953693E+03  0.51254487297E+03  0.00000000000E+00 0.  1.
         14    1    5    5    0    0  0.77996356766E+01 -0.77835947888E+00  0.25390467762E+01  0.82393518373E+01  0.00000000000E+00 0. -1.
         11    1    3    3    0    0 -0.25650629462E+01 -0.42663973925E+01 -0.41498112472E+02  0.41795634143E+02  0.00000000000E+00 0. -1.
        -12    1    3    3    0    0  0.83274906456E+01  0.25909154614E+02  0.32589773756E+02  0.42458506176E+02  0.00000000000E+00 0.  1.
          5    1    4    4  501    0 -0.78878619662E+01  0.31406353433E+02  0.33283283356E+01  0.32819621751E+02  0.41800000000E+01 0. -1.
         -5    1    4    4    0  501  0.55338893900E+02 -0.35364667749E+02  0.20055618704E+03  0.21107654882E+03  0.41800000000E+01 0. -1.
</event>
<event>
11    1  0.8328696E-009  0.1759505E+03  0.7561462E-02  0.1072966E+00
         22   -1    0    0    0    0  0.00000000000E+00  0.00000000000E+00  0.90883863451E+03  0.90883863451E+03  0.00000000000E+00 0. -1.
         22   -1    0    0    0    0 -0.00000000000E+00 -0.00000000000E+00 -0.22809618072E+03  0.22809618072E+03  0.00000000000E+00 0. -1.
        -24    2    1    2    0    0 -0.53285999713E+02 -0.10989402840E+03 -0.15045316465E+03  0.21545427673E+03  0.94171627168E+02 0.  0.
         25    2    1    2    0    0  0.90991095163E+02  0.10364657649E+03  0.16289635012E+03  0.24740785272E+03  0.12511367826E+03 0.  0.
         24    2    1    2    0    0 -0.37705095450E+02  0.62474519177E+01  0.66829926832E+03  0.67407268578E+03  0.79305540731E+02 0.  0.
        -11    1    5    5    0    0 -0.28947809853E+02 -0.16220029500E+02  0.10202945402E+03  0.10728967583E+03  0.00000000000E+00 0.  1.
         12    1    5    5    0    0 -0.87572855964E+01  0.22467481418E+02  0.56626981431E+03  0.56678300995E+03  0.00000000000E+00 0. -1.
         13    1    3    3    0    0 -0.50621494601E+02 -0.60859139423E+02 -0.14608375346E+03  0.16615304268E+03  0.00000000000E+00 0. -1.
        -14    1    3    3    0    0 -0.26645051122E+01 -0.49034888981E+02 -0.43694111935E+01  0.49301234052E+02  0.00000000000E+00 0.  1.
          5    1    4    4  501    0  0.51942782603E+02  0.12082882756E+03  0.15584229188E+03  0.20396556223E+03  0.41800000000E+01 0. -1.
         -5    1    4    4    0  501  0.39048312560E+02 -0.17182251077E+02  0.70540582397E+01  0.43442290496E+02  0.41800000000E+01 0. -1.
</event>
<event>
11    1  0.8328696E-009  0.1300227E+03  0.7561462E-02  0.1119241E+00
         22   -1    0    0    0    0  0.00000000000E+00  0.00000000000E+00  0.24383253417E+04  0.24383253417E+04  0.00000000000E+00 0.  1.
         22   -1    0    0    0    0 -0.00000000000E+00 -0.00000000000E+00 -0.93522813303E+03  0.93522813303E+03  0.00000000000E+00 0.  1.
         24    2    1    2    0    0 -0.15003871493E+02  0.32186603871E+02 -0.89926297579E+03  0.90354747564E+03  0.80393081042E+02 0.  0.
         25    2    1    2    0    0  0.63026527674E+02 -0.65348167172E+01  0.11496921860E+03  0.18132893821E+03  0.12508883079E+03 0.  0.
        -24    2    1    2    0    0 -0.48022656181E+02 -0.25651787154E+02  0.22873909658E+04  0.22886770608E+04  0.54046911049E+02 0.  0.
        -13    1    3    3    0    0 -0.28214320542E+02  0.31502348878E+02 -0.21303328696E+03  0.21719030186E+03  0.00000000000E+00 0.  1.
         14    1    3    3    0    0  0.13210449048E+02  0.68425499355E+00 -0.68622968883E+03  0.68635717378E+03  0.00000000000E+00 0. -1.
         13    1    5    5    0    0 -0.19087991159E+02  0.14153500485E+02  0.44977070058E+03  0.45039799743E+03  0.00000000000E+00 0. -1.
        -14    1    5    5    0    0 -0.28934665022E+02 -0.39805287639E+02  0.18376202652E+04  0.18382790634E+04  0.00000000000E+00 0.  1.
          5    1    4    4  501    0  0.60900204140E+02 -0.51113548139E+02  0.29664058883E+02  0.84963865596E+02  0.41800000000E+01 0.  1.
         -5    1    4    4    0  501  0.21263235344E+01  0.44578731422E+02  0.85305159713E+02  0.96365072618E+02  0.41800000000E+01 0.  1.
</event>
<event>
11    1  0.8328696E-009  0.1477365E+03  0.7561462E-02  0.1099214E+00
         22   -1    0    0    0    0  0.00000000000E+00  0.00000000000E+00  0.70660819844E+03  0.70660819844E+03  0.00000000000E+00 0. -1.
         22   -1    0    0    0    0 -0.00000000000E+00 -0.00000000000E+00 -0.14483346017E+03  0.14483346017E+03  0.00000000000E+00 0.  1.
        -24    2    1    2    0    0 -0.28650357121E+02 -0.51550842820E+01 -0.81042364652E+02  0.11808645775E+03  0.80803024564E+02 0.  0.
         25    2    1    2    0    0 -0.51874747464E+02  0.19967840065E+02  0.77797053990E+02  0.15744467738E+03  0.12508693283E+03 0.  0.
         24    2    1    2    0    0  0.80525104585E+02 -0.14812755783E+02  0.56502004894E+03  0.57591052348E+03  0.75641028191E+02 0.  0.
        -13    1    5    5    0    0 -0.10536731123E+02  0.55048911592E+01  0.15288438659E+03  0.15334589069E+03  0.00000000000E+00 0.  1.
         14    1    5    5    0    0  0.91061835708E+02 -0.20317646942E+02  0.41213566235E+03  0.42256463279E+03  0.00000000000E+00 0. -1.
         11    1    3    3    0    0 -0.50039388706E+02 -0.24046181678E+01 -0.21057315766E+02  0.54342737858E+02  0.00000000000E+00 0. -1.
        -12    1    3    3    0    0  0.21389031585E+02 -0.27504661142E+01 -0.59985048887E+02  0.63743719894E+02  0.00000000000E+00 0.  1.
          5    1    4    4  501    0 -0.15188429434E+02 -0.39567974175E+02  0.76289755030E+02  0.87372261569E+02  0.41800000000E+01 0. -1.
         -5    1    4    4    0  501 -0.36686318031E+02  0.59535814240E+02  0.15072989595E+01  0.70072415814E+02  0.41800000000E+01 0. -1.
</event>
<event>
11    1  0.8328696E-009  0.1322582E+03  0.7561462E-02  0.1116525E+00
         22   -1    0    0    0    0  0.00000000000E+00  0.00000000000E+00  0.92507746067E+03  0.92507746067E+03  0.00000000000E+00 0. -1.
         22   -1    0    0    0    0 -0.00000000000E+00 -0.00000000000E+00 -0.34362313173E+02  0.34362313173E+02  0.00000000000E+00 0. -1.
         24    2    1    2    0    0  0.40138582316E+02 -0.64965302564E+01  0.58939558189E+02  0.94255499477E+02  0.61293694345E+02 0.  0.
         25    2    1    2    0    0 -0.44754676090E+02  0.41150887596E+02  0.32488310652E+03  0.35340006416E+03  0.12508475472E+03 0.  0.
        -24    2    1    2    0    0  0.46160937746E+01 -0.34654357339E+02  0.50689248280E+03  0.51178421021E+03  0.61325817604E+02 0.  0.
        -11    1    3    3    0    0 -0.11748036609E+02 -0.14272094312E+02  0.27357774671E+02  0.33017523759E+02  0.00000000000E+00 0.  1.
         12    1    3    3    0    0  0.51886618925E+02  0.77755640553E+01  0.31581783517E+02  0.61237975718E+02  0.00000000000E+00 0. -1.
         11    1    5    5    0    0  0.16237640160E+02 -0.24864259787E+02  0.47982447420E+03  0.48074256980E+03  0.00000000000E+00 0. -1.
        -12    1    5    5    0    0 -0.11621546386E+02 -0.97900975524E+01  0.27068008595E+02  0.31041640417E+02  0.00000000000E+00 0.  1.
          5    1    4    4  501    0  0.36152945500E+02  0.23257599301E+02  0.49031990431E+02  0.65341869266E+02  0.41800000000E+01 0. -1.
         -5    1    4    4    0  501 -0.80907621591E+02  0.17893288295E+02  0.27585111609E+03  0.28805819489E+03  0.41800000000E+01 0. -1.
</event>
<event>
11    1  0.8328696E-009  0.1368731E+03  0.7561462E-02  0.1111101E+00
         22   -1    0    0    0    0  0.00000000000E+00  0.00000000000E+00  0.12451683464E+04  0.12451683464E+04  0.00000000000E+00 0.  1.
         22   -1    0    0    0    0 -0.00000000000E+00 -0.00000000000E+00 -0.25988493885E+03  0.25988493885E+03  0.00000000000E+00 0.  1.
        -24    2    1    2    0    0 -0.99566558641E+01  0.54682695931E+02 -0.23595043938E+03  0.25530678864E+03  0.80122495298E+02 0.  0.
         25    2    1    2    0    0  0.32252159395E+02 -0.49650330711E+02  0.38777730234E+03  0.41173257938E+03  0.12508846304E+03 0.  0.
         24    2    1    2    0    0 -0.22295503531E+02 -0.50323652199E+01  0.83345654462E+03  0.83801391727E+03  0.84232414142E+02 0.  0.
        -11    1    5    5    0    0 -0.21781882724E+02 -0.12117988880E+02  0.82951523813E+03  0.82988964710E+03  0.00000000000E+00 0.  1.
         12    1    5    5    0    0 -0.51362080778E+00  0.70856236601E+01  0.39413064879E+01  0.81242701714E+01  0.00000000000E+00 0. -1.
         11    1    3    3    0    0  0.63399733259E+01 -0.12083639278E+02 -0.11806186201E+03  0.11884785594E+03  0.00000000000E+00 0. -1.
        -12    1    3    3    0    0 -0.16296629190E+02  0.66766335209E+02 -0.11788857737E+03  0.13645893270E+03  0.00000000000E+00 0.  1.
          5    1    4    4  501    0 -0.49180030510E+01  0.23331013340E+02  0.25164676565E+03  0.25280840571E+03  0.41800000000E+01 0. -1.
         -5    1    4    4    0  501  0.37170162446E+02 -0.72981344051E+02  0.13613053670E+03  0.15892417367E+03  0.41800000000E+01 0. -1.
</event>
<event>
11    1  0.8328696E-009  0.2540334E+03  0.7561462E-02  0.1021772E+00
         22   -1    0    0    0    0  0.00000000000E+00  0.00000000000E+00  0.10977592021E+04  0.10977592021E+04  0.00000000000E+00 0. -1.
         22   -1    0    0    0    0 -0.00000000000E+00 -0.00000000000E+00 -0.89894503305E+03  0.89894503305E+03  0.00000000000E+00 0.  1.
        -24    2    1    2    0    0 -0.86531601641E+02 -0.10251121505E+03 -0.68512536517E+03  0.70265087022E+03  0.79531202224E+02 0.  0.
         25    2    1    2    0    0  0.27975570937E+03 -0.55342563156E+00 -0.68084438462E+02  0.31392028153E+03  0.12508752612E+03 0.  0.
         24    2    1    2    0    0 -0.19322410773E+03  0.10306464068E+03  0.95202397270E+03  0.98013308342E+03  0.79707845536E+02 0.  0.
        -13    1    5    5    0    0 -0.56183770834E+02  0.57595699064E+02  0.22611697215E+03  0.24000576191E+03  0.00000000000E+00 0.  1.
         14    1    5    5    0    0 -0.13704033689E+03  0.45468941613E+02  0.72590700056E+03  0.74012732151E+03  0.00000000000E+00 0. -1.
         11    1    3    3    0    0 -0.20579271950E+02  0.65480014435E+01 -0.44412181210E+02  0.49384457035E+02  0.00000000000E+00 0. -1.
        -12    1    3    3    0    0 -0.65952329691E+02 -0.10905921649E+03 -0.64071318396E+03  0.65326641319E+03  0.00000000000E+00 0.  1.
          5    1    4    4  501    0  0.17074031034E+03 -0.53998649631E+02 -0.10370371870E+02  0.17942442629E+03  0.41800000000E+01 0. -1.
         -5    1    4    4    0  501  0.10901539903E+03  0.53445223999E+02 -0.57714066592E+02  0.13449585524E+03  0.41800000000E+01 0. -1.
</event>
<event>
11    1  0.8328696E-009  0.2935272E+03  0.7561462E-02  0.1002968E+00
         22   -1    0    0    0    0  0.00000000000E+00  0.00000000000E+00  0.25578961023E+03  0.25578961023E+03  0.00000000000E+00 0. -1.
         22   -1    0    0    0    0 -0.00000000000E+00 -0.00000000000E+00 -0.95096066198E+03  0.95096066198E+03  0.00000000000E+00 0. -1.
        -24    2    1    2    0    0 -0.10489581906E+02  0.23975931470E+03 -0.36470966641E+03  0.44467725723E+03  0.84440286645E+02 0.  0.
         25    2    1    2    0    0  0.11386651715E+03 -0.28683779579E+03 -0.46281743777E+03  0.57016675654E+03  0.12509454320E+03 0.  0.
         24    2    1    2    0    0 -0.10337693525E+03  0.47078481086E+02  0.13235605243E+03  0.19190625844E+03  0.80041947070E+02 0.  0.
        -11    1    5    5    0    0 -0.35101829351E+02  0.15259880038E+02 -0.15074102022E+01  0.38305021187E+02  0.00000000000E+00 0.  1.
         12    1    5    5    0    0 -0.68275105897E+02  0.31818601047E+02  0.13386346263E+03  0.15360123725E+03  0.00000000000E+00 0. -1.
         11    1    3    3    0    0 -0.23715368072E+02  0.23974250351E+03 -0.34079337555E+03  0.41734759073E+03  0.00000000000E+00 0. -1.
        -12    1    3    3    0    0  0.13225786166E+02  0.16811194313E-01 -0.23916290863E+02  0.27329666499E+02  0.00000000000E+00 0.  1.
          5    1    4    4  501    0 -0.12494168560E+02 -0.19443340596E+02 -0.96646494259E+02  0.99459363531E+02  0.41800000000E+01 0.  1.
         -5    1    4    4    0  501  0.12636068571E+03 -0.26739445519E+03 -0.36617094351E+03  0.47070739301E+03  0.41800000000E+01 0.  1.
</event>
<event>
11    1  0.8328696E-009  0.1393042E+03  0.7561462E-02  0.1108338E+00
         22   -1    0    0    0    0  0.00000000000E+00  0.00000000000E+00  0.40731334646E+03  0.40731334646E+03  0.00000000000E+00 0. -1.
         22   -1    0    0    0    0 -0.00000000000E+00 -0.00000000000E+00 -0.80234028356E+03  0.80234028356E+03  0.00000000000E+00 0. -1.
        -24    2    1    2    0    0 -0.15320006987E+02 -0.58146335176E+02 -0.72261863207E+03  0.72966971691E+03  0.81391089489E+02 0.  0.
         25    2    1    2    0    0  0.45942053355E+02  0.79788842646E+02  0.16283795676E+02  0.15618634813E+03  0.12510827976E+03 0.  0.
         24    2    1    2    0    0 -0.30622046368E+02 -0.21642507470E+02  0.31130789929E+03  0.32379756498E+03  0.80784571996E+02 0.  0.
        -11    1    5    5    0    0  0.18315929644E+02 -0.17914862686E+02  0.36219302588E+02  0.44365002690E+02  0.00000000000E+00 0.  1.
         12    1    5    5    0    0 -0.48937976011E+02 -0.37276447842E+01  0.27508859670E+03  0.27943256229E+03  0.00000000000E+00 0. -1.
         11    1    3    3    0    0  0.16987767540E+02 -0.47644343975E+02 -0.60858274942E+03  0.61068120214E+03  0.00000000000E+00 0. -1.
        -12    1    3    3    0    0 -0.32307774528E+02 -0.10501991201E+02 -0.11403588265E+03  0.11898851477E+03  0.00000000000E+00 0.  1.
          5    1    4    4  501    0  0.44660413725E+02 -0.11918967092E+02 -0.28050932397E+02  0.54230448449E+02  0.41800000000E+01 0.  1.
         -5    1    4    4    0  501  0.12816396300E+01  0.91707809738E+02  0.44334728073E+02  0.10195589968E+03  0.41800000000E+01 0.  1.
</event>
<event>
11    1  0.8328696E-009  0.1536604E+03  0.7561462E-02  0.1093196E+00
         22   -1    0    0    0    0  0.00000000000E+00  0.00000000000E+00  0.32860403467E+03  0.32860403467E+03  0.00000000000E+00 0.  1.
         22   -1    0    0    0    0 -0.00000000000E+00 -0.00000000000E+00 -0.11418949690E+04  0.11418949690E+04  0.00000000000E+00 0.  1.
         24    2    1    2    0    0 -0.50707544779E+01 -0.45576412263E+02 -0.99469330492E+03  0.99903198439E+03  0.80914850738E+02 0.  0.
         25    2    1    2    0    0  0.70627264363E+02 -0.18568985379E+02 -0.92215757736E+02  0.17171439766E+03  0.12509624574E+03 0.  0.
        -24    2    1    2    0    0 -0.65556509885E+02  0.64145397642E+02  0.27361812832E+03  0.29975262163E+03  0.81070746883E+02 0.  0.
        -11    1    3    3    0    0  0.32719624413E+02 -0.16436308870E+02 -0.65258592155E+03  0.65361235536E+03  0.00000000000E+00 0.  1.
         12    1    3    3    0    0 -0.37790378891E+02 -0.29140103392E+02 -0.34210738337E+03  0.34541962903E+03  0.00000000000E+00 0. -1.
         13    1    5    5    0    0  0.89833204230E+01 -0.11945801246E+02  0.47613205319E+02  0.49904103379E+02  0.00000000000E+00 0. -1.
        -14    1    5    5    0    0 -0.74539830308E+02  0.76091198888E+02  0.22600492300E+03  0.24984851825E+03  0.00000000000E+00 0.  1.
          5    1    4    4  501    0  0.84357906361E+02 -0.50553838666E+02 -0.94669111936E+02  0.13657108085E+03  0.41800000000E+01 0.  1.
         -5    1    4    4    0  501 -0.13730641998E+02  0.31984853287E+02  0.24533541995E+01  0.35143316808E+02  0.41800000000E+01 0.  1.
</event>
<event>
11    1  0.8328696E-009  0.1329318E+03  0.7561462E-02  0.1115718E+00
         22   -1    0    0    0    0  0.00000000000E+00  0.00000000000E+00  0.11904448732E+04  0.11904448732E+04  0.00000000000E+00 0. -1.
         22   -1    0    0    0    0 -0.00000000000E+00 -0.00000000000E+00 -0.10417078497E+04  0.10417078497E+04  0.00000000000E+00 0. -1.
         24    2    1    2    0    0 -0.39841838645E+02 -0.14585724499E+02 -0.88029894152E+03  0.88474322624E+03  0.77744674797E+02 0.  0.
         25    2    1    2    0    0  0.61915448826E+02 -0.24515015905E+02 -0.12527245504E+03  0.18914145387E+03  0.12508714072E+03 0.  0.
        -24    2    1    2    0    0 -0.22073610182E+02  0.39100740404E+02  0.11543084201E+04  0.11582680428E+04  0.84503362092E+02 0.  0.
        -13    1    3    3    0    0 -0.39266625937E+02 -0.25784605859E+02 -0.25180858605E+03  0.25615284074E+03  0.00000000000E+00 0.  1.
         14    1    3    3    0    0 -0.57521270778E+00  0.11198881360E+02 -0.62849035548E+03  0.62859038550E+03  0.00000000000E+00 0. -1.
         11    1    5    5    0    0 -0.19743084434E+02  0.11605774893E+02  0.10535692144E+04  0.10538180929E+04  0.00000000000E+00 0. -1.
        -12    1    5    5    0    0 -0.23305257471E+01  0.27494965511E+02  0.10073920565E+03  0.10444994990E+03  0.00000000000E+00 0.  1.
          5    1    4    4  501    0  0.23954682008E+02  0.40508435440E+02 -0.54432382870E+01  0.47559030425E+02  0.41800000000E+01 0. -1.
         -5    1    4    4    0  501  0.37960766819E+02 -0.65023451345E+02 -0.11982921675E+03  0.14158242345E+03  0.41800000000E+01 0. -1.
</event>
<event>
11    1  0.8328696E-009  0.1715562E+03  0.7561462E-02  0.1076685E+00
         22   -1    0    0    0    0  0.00000000000E+00  0.00000000000E+00  0.22386073150E+04  0.22386073150E+04  0.00000000000E+00 0.  1.
         22   -1    0    0    0    0 -0.00000000000E+00 -0.00000000000E+00 -0.15854108198E+04  0.15854108198E+04  0.00000000000E+00 0. -1.
         24    2    1    2    0    0  0.34885918938E+02 -0.19272284654E+02 -0.13895256621E+04  0.13923659242E+04  0.79453464671E+02 0.  0.
         25    2    1    2    0    0 -0.17649503709E+01  0.13179882006E+03 -0.14914093742E+03  0.23508431226E+03  0.12509024998E+03 0.  0.
        -24    2    1    2    0    0 -0.33120968567E+02 -0.11252653541E+03  0.21918630946E+04  0.21965678983E+04  0.82990881677E+02 0.  0.
        -13    1    3    3    0    0  0.37134373829E+02 -0.26433570389E+02 -0.36793702885E+03  0.37074971688E+03  0.00000000000E+00 0.  1.
         14    1    3    3    0    0 -0.22484548918E+01  0.71612857352E+01 -0.10215886332E+04  0.10216162073E+04  0.00000000000E+00 0. -1.
         11    1    5    5    0    0 -0.27003246083E+02 -0.38989105800E+02  0.34658226184E+03  0.34981222090E+03  0.00000000000E+00 0. -1.
        -12    1    5    5    0    0 -0.61177224839E+01 -0.73537429606E+02  0.18452808328E+04  0.18467556774E+04  0.00000000000E+00 0.  1.
          5    1    4    4  501    0  0.27663940548E+01  0.15596956542E+03 -0.13541446487E+03  0.20661245841E+03  0.41800000000E+01 0. -1.
         -5    1    4    4    0  501 -0.45313444258E+01 -0.24170745357E+02 -0.13726472543E+02  0.28471853854E+02  0.41800000000E+01 0. -1.
</event>
<event>
11    1  0.8328696E-009  0.1286880E+03  0.7561462E-02  0.1120892E+00
         22   -1    0    0    0    0  0.00000000000E+00  0.00000000000E+00  0.22522582117E+03  0.22522582117E+03  0.00000000000E+00 0. -1.
         22   -1    0    0    0    0 -0.00000000000E+00 -0.00000000000E+00 -0.22125507054E+04  0.22125507054E+04  0.00000000000E+00 0. -1.
         24    2    1    2    0    0 -0.19494432994E+02 -0.24195761470E+02 -0.20888997278E+04  0.20914727800E+04  0.98948717572E+02 0.  0.
         25    2    1    2    0    0 -0.36704643193E+02  0.32001998723E+02 -0.67997984304E+02  0.15047301184E+03  0.12508813960E+03 0.  0.
        -24    2    1    2    0    0  0.56199076186E+02 -0.78062372527E+01  0.16957282794E+03  0.19583073470E+03  0.79846472524E+02 0.  0.
        -11    1    3    3    0    0 -0.26818409080E+02 -0.59159720517E+02 -0.15711758157E+04  0.15725178992E+04  0.00000000000E+00 0.  1.
         12    1    3    3    0    0  0.73239760865E+01  0.34963959047E+02 -0.51772391220E+03  0.51895488081E+03  0.00000000000E+00 0. -1.
         11    1    5    5    0    0  0.51436241653E+02 -0.13574443090E+02  0.17728042273E+03  0.18508998013E+03  0.00000000000E+00 0. -1.
        -12    1    5    5    0    0  0.47628345337E+01  0.57682058377E+01 -0.77075947903E+01  0.10740754575E+02  0.00000000000E+00 0.  1.
          5    1    4    4  501    0 -0.21474176008E+02 -0.42369154425E+02  0.11555275659E+01  0.47697936286E+02  0.41800000000E+01 0. -1.
         -5    1    4    4    0  501 -0.15230467185E+02  0.74371153148E+02 -0.69153511870E+02  0.10277507555E+03  0.41800000000E+01 0. -1.
</event>
<event>
11    1  0.8328696E-009  0.1398365E+03  0.7561462E-02  0.1107741E+00
         22   -1    0    0    0    0  0.00000000000E+00  0.00000000000E+00  0.62756759925E+03  0.62756759925E+03  0.00000000000E+00 0.  1.
         22   -1    0    0    0    0 -0.00000000000E+00 -0.00000000000E+00 -0.16136584568E+04  0.16136584568E+04  0.00000000000E+00 0. -1.
         24    2    1    2    0    0 -0.40914887320E+01 -0.39668736343E+02 -0.11807378949E+04  0.11840399358E+04  0.78855844949E+02 0.  0.
         25    2    1    2    0    0  0.33172014716E+02 -0.16015920059E+02 -0.41716005241E+03  0.43706672996E+03  0.12509166580E+03 0.  0.
        -24    2    1    2    0    0 -0.29080525984E+02  0.55684656402E+02  0.61180708978E+03  0.62011939023E+03  0.79332749169E+02 0.  0.
        -13    1    3    3    0    0  0.24340475672E+02 -0.14329234914E+00 -0.13551871096E+03  0.13768732807E+03  0.00000000000E+00 0.  1.
         14    1    3    3    0    0 -0.28431964404E+02 -0.39525443994E+02 -0.10452191839E+04  0.10463526077E+04  0.00000000000E+00 0. -1.
         11    1    5    5    0    0 -0.77928324517E+00  0.67867146602E+02  0.35129212421E+03  0.35778864348E+03  0.00000000000E+00 0. -1.
        -12    1    5    5    0    0 -0.28301242738E+02 -0.12182490200E+02  0.26051496557E+03  0.26233074676E+03  0.00000000000E+00 0.  1.
          5    1    4    4  501    0  0.78102567621E+02  0.45719788878E+01 -0.29486737420E+03  0.30509859853E+03  0.41800000000E+01 0. -1.
         -5    1    4    4    0  501 -0.44930552906E+02 -0.20587898947E+02 -0.12229267822E+03  0.13196813143E+03  0.41800000000E+01 0. -1.
</event>
<event>
11    1  0.8328696E-009  0.1465476E+03  0.7561462E-02  0.1100460E+00
         22   -1    0    0    0    0  0.00000000000E+00  0.00000000000E+00  0.11067034492E+03  0.11067034492E+03  0.00000000000E+00 0.  1.
         22   -1    0    0    0    0 -0.00000000000E+00 -0.00000000000E+00 -0.29480245747E+04  0.29480245747E+04  0.00000000000E+00 0.  1.
        -24    2    1    2    0    0 -0.21768639001E+02 -0.13368465785E+01 -0.18701225816E+04  0.18723330218E+04  0.88299567313E+02 0.  0.
         25    2    1    2    0    0  0.24667598262E+02  0.77538517326E+02 -0.10407978882E+04  0.10514429448E+04  0.12510519632E+03 0.  0.
         24    2    1    2    0    0 -0.28989592609E+01 -0.76201670748E+02  0.73566239927E+02  0.13491895304E+03  0.83522653469E+02 0.  0.
        -13    1    5    5    0    0  0.26792561898E+01 -0.66102043058E+02  0.91912916827E+02  0.11324593940E+03  0.00000000000E+00 0.  1.
         14    1    5    5    0    0 -0.55782154507E+01 -0.10099627690E+02 -0.18346676900E+02  0.21673013643E+02  0.00000000000E+00 0. -1.
         11    1    3    3    0    0  0.59755469560E+01 -0.72942810394E+01 -0.21313705698E+02  0.23306388564E+02  0.00000000000E+00 0. -1.
        -12    1    3    3    0    0 -0.27744185957E+02  0.59574344610E+01 -0.18488088759E+04  0.18490266332E+04  0.00000000000E+00 0.  1.
          5    1    4    4  501    0  0.39977225890E+02  0.29469193087E+02 -0.12980467239E+03  0.13904437171E+03  0.41800000000E+01 0.  1.
         -5    1    4    4    0  501 -0.15309627629E+02  0.48069324240E+02 -0.91099321577E+03  0.91239857311E+03  0.41800000000E+01 0.  1.
</event>
<event>
11    1  0.8967827E-009  0.2738701E+03  0.7561462E-02  0.1011899E+00
         22   -1    0    0    0    0  0.00000000000E+00  0.00000000000E+00  0.28728945699E+04  0.28728945699E+04  0.00000000000E+00 0.  1.
         22   -1    0    0    0    0 -0.00000000000E+00 -0.00000000000E+00 -0.12588838647E+04  0.12588838647E+04  0.00000000000E+00 0.  1.
        -24    2    1    2    0    0 -0.27639755252E+02 -0.91284579317E+02 -0.11122932858E+04  0.11194205152E+04  0.82517305662E+02 0.  0.
         25    2    1    2    0    0  0.26714099745E+03  0.12536760984E+03  0.50425921675E+02  0.32445711506E+03  0.12509314856E+03 0.  0.
         24    2    1    2    0    0 -0.23950124220E+03 -0.34083030525E+02  0.26758780694E+04  0.26879008043E+04  0.77232076040E+02 0.  0.
        -11    1    5    5    0    0 -0.22709283529E+03 -0.17506446360E+02  0.22447393972E+04  0.22562651868E+04  0.00000000000E+00 0.  1.
         12    1    5    5    0    0 -0.12408406908E+02 -0.16576584165E+02  0.43113867211E+03  0.43163561750E+03  0.00000000000E+00 0. -1.
         11    1    3    3    0    0 -0.87657776140E+01 -0.61346067251E+02 -0.29883070589E+03  0.30518841656E+03  0.00000000000E+00 0. -1.
        -12    1    3    3    0    0 -0.18873977638E+02 -0.29938512066E+02 -0.81346257994E+03  0.81423209866E+03  0.00000000000E+00 0.  1.
          5    1    4    4  501    0  0.64541071756E+02  0.95532670619E+02  0.11220620603E+02  0.11591124115E+03  0.41800000000E+01 0.  1.
         -5    1    4    4    0  501  0.20259992569E+03  0.29834939224E+02  0.39205301072E+02  0.20854587390E+03  0.41800000000E+01 0.  1.
</event>
<event>
11    1  0.8328696E-009  0.1471013E+03  0.7561462E-02  0.1099878E+00
         22   -1    0    0    0    0  0.00000000000E+00  0.00000000000E+00  0.65971348353E+03  0.65971348353E+03  0.00000000000E+00 0.  1.
         22   -1    0    0    0    0 -0.00000000000E+00 -0.00000000000E+00 -0.50444321097E+03  0.50444321097E+03  0.00000000000E+00 0. -1.
        -24    2    1    2    0    0  0.18241514965E+02  0.76028387640E+02 -0.43314445487E+03  0.44738325437E+03  0.80153533345E+02 0.  0.
         25    2    1    2    0    0  0.41819878856E+02 -0.18383189229E+02  0.17685849124E+02  0.13436637238E+03  0.12511869906E+03 0.  0.
         24    2    1    2    0    0 -0.60061393821E+02 -0.57645198411E+02  0.57072887830E+03  0.58240706776E+03  0.80846769368E+02 0.  0.
        -13    1    5    5    0    0 -0.46843884120E+02  0.84538702576E+01  0.27536931985E+03  0.27945317983E+03  0.00000000000E+00 0.  1.
         14    1    5    5    0    0 -0.13217509702E+02 -0.66099068669E+02  0.29535955845E+03  0.30295388793E+03  0.00000000000E+00 0. -1.
         13    1    3    3    0    0  0.42362497218E+02  0.75652731855E+02 -0.36280495210E+03  0.37302191662E+03  0.00000000000E+00 0. -1.
        -14    1    3    3    0    0 -0.24120982253E+02  0.37565578526E+00 -0.70339502770E+02  0.74361337750E+02  0.00000000000E+00 0.  1.
          5    1    4    4  501    0 -0.18821853134E+02  0.15692635707E+02 -0.37832434328E+02  0.45269045252E+02  0.41800000000E+01 0. -1.
         -5    1    4    4    0  501  0.60641731990E+02 -0.34075824936E+02  0.55518283451E+02  0.89097327127E+02  0.41800000000E+01 0. -1.
</event>
<event>
11    1  0.8328696E-009  0.1724879E+03  0.7561462E-02  0.1075887E+00
         22   -1    0    0    0    0  0.00000000000E+00  0.00000000000E+00  0.33402550118E+03  0.33402550118E+03  0.00000000000E+00 0.  1.
         22   -1    0    0    0    0 -0.00000000000E+00 -0.00000000000E+00 -0.19289490675E+04  0.19289490675E+04  0.00000000000E+00 0. -1.
        -24    2    1    2    0    0 -0.11955427717E+03  0.56708512092E+02 -0.13431023778E+04  0.13520001362E+04  0.80444331591E+02 0.  0.
         25    2    1    2    0    0  0.67054052052E+02 -0.60167582045E+02 -0.56339545372E+03  0.58410485450E+03  0.12509060695E+03 0.  0.
         24    2    1    2    0    0  0.52500225121E+02  0.34590699535E+01  0.31157426528E+03  0.32686957790E+03  0.83647829405E+02 0.  0.
        -11    1    5    5    0    0  0.52935851393E+02  0.55678818600E+01  0.31678801076E+03  0.32122865600E+03  0.00000000000E+00 0.  1.
         12    1    5    5    0    0 -0.43562627245E+00 -0.21088119065E+01 -0.52137454807E+01  0.56409218967E+01  0.00000000000E+00 0. -1.
         13    1    3    3    0    0 -0.80781240969E+02  0.62777298466E+02 -0.11719021740E+04  0.11763593428E+04  0.00000000000E+00 0. -1.
        -14    1    3    3    0    0 -0.38773036204E+02 -0.60687863745E+01 -0.17120020386E+03  0.17564079340E+03  0.00000000000E+00 0.  1.
          5    1    4    4  501    0  0.73758845392E+02  0.79067219332E+01 -0.40126105432E+03  0.40808184184E+03  0.41800000000E+01 0.  1.
         -5    1    4    4    0  501 -0.67047933400E+01 -0.68074303978E+02 -0.16213439939E+03  0.17602301265E+03  0.41800000000E+01 0.  1.
</event>
<event>
11    1  0.8328696E-009  0.1865228E+03  0.7561462E-02  0.1064485E+00
         22   -1    0    0    0    0  0.00000000000E+00  0.00000000000E+00  0.17728100050E+03  0.17728100050E+03  0.00000000000E+00 0. -1.
         22   -1    0    0    0    0 -0.00000000000E+00 -0.00000000000E+00 -0.79196135089E+03  0.79196135089E+03  0.00000000000E+00 0. -1.
         24    2    1    2    0    0 -0.52893013093E+02 -0.13091275570E+03 -0.58465256315E+03  0.60684056110E+03  0.80628943665E+02 0.  0.
         25    2    1    2    0    0  0.86521027676E+02  0.10008660837E+03 -0.13227168052E+03  0.22505012542E+03  0.12509414086E+03 0.  0.
        -24    2    1    2    0    0 -0.33628014583E+02  0.30826147337E+02  0.10224389327E+03  0.13735166487E+03  0.79564888029E+02 0.  0.
        -11    1    3    3    0    0 -0.26200445968E+02 -0.29263527160E+01 -0.51057853994E+02  0.57462434369E+02  0.00000000000E+00 0.  1.
         12    1    3    3    0    0 -0.26692567125E+02 -0.12798640299E+03 -0.53359470915E+03  0.54937812673E+03  0.00000000000E+00 0. -1.
         11    1    5    5    0    0 -0.48149051225E+02  0.17872910782E+02  0.10576617620E+03  0.11757659674E+03  0.00000000000E+00 0. -1.
        -12    1    5    5    0    0  0.14521036642E+02  0.12953236556E+02 -0.35222829285E+01  0.19775068128E+02  0.00000000000E+00 0.  1.
          5    1    4    4  501    0  0.75490620362E+02  0.12797690054E+03 -0.12422542381E+03  0.19371718859E+03  0.41800000000E+01 0. -1.
         -5    1    4    4    0  501  0.11030407314E+02 -0.27890292174E+02 -0.80462567052E+01  0.31332936824E+02  0.41800000000E+01 0. -1.
</event>
<event>
11    1  0.8328696E-009  0.1279313E+03  0.7561462E-02  0.1121837E+00
         22   -1    0    0    0    0  0.00000000000E+00  0.00000000000E+00  0.60011814307E+02  0.60011814307E+02  0.00000000000E+00 0. -1.
         22   -1    0    0    0    0 -0.00000000000E+00 -0.00000000000E+00 -0.10262244919E+04  0.10262244919E+04  0.00000000000E+00 0. -1.
         24    2    1    2    0    0  0.13764218346E+02  0.84028960601E+01 -0.49351183359E+03  0.50028171585E+03  0.80422651996E+02 0.  0.
         25    2    1    2    0    0 -0.38514118136E+02 -0.15602867034E+02 -0.48396178699E+03  0.50158865925E+03  0.12508151369E+03 0.  0.
        -24    2    1    2    0    0  0.24749899791E+02  0.71999709740E+01  0.11260942960E+02  0.84365931129E+02  0.79538697357E+02 0.  0.
        -11    1    3    3    0    0  0.22438654191E+02 -0.32897498215E+02 -0.23855449981E+03  0.24185530379E+03  0.00000000000E+00 0.  1.
         12    1    3    3    0    0 -0.86744358448E+01  0.41300394275E+02 -0.25495733377E+03  0.25842641206E+03  0.00000000000E+00 0. -1.
         13    1    5    5    0    0  0.33708910866E+02  0.88674923173E+01  0.40678490787E+02  0.53569232816E+02  0.00000000000E+00 0. -1.
        -14    1    5    5    0    0 -0.89590110754E+01 -0.16675213433E+01 -0.29417547826E+02  0.30796698313E+02  0.00000000000E+00 0.  1.
          5    1    4    4  501    0 -0.74425863794E+02  0.17847172075E+02 -0.21745623899E+03  0.23056977041E+03  0.41800000000E+01 0.  1.
         -5    1    4    4    0  501  0.35911745657E+02 -0.33450039109E+02 -0.26650554800E+03  0.27101888884E+03  0.41800000000E+01 0.  1.
</event>
<event>
11    1  0.8328696E-009  0.3250865E+03  0.7561462E-02  0.9900996E-01
         22   -1    0    0    0    0  0.00000000000E+00  0.00000000000E+00  0.10499952009E+04  0.10499952009E+04  0.00000000000E+00 0.  1.
         22   -1    0    0    0    0 -0.00000000000E+00 -0.00000000000E+00 -0.82026421695E+03  0.82026421695E+03  0.00000000000E+00 0.  1.
         24    2    1    2    0    0 -0.10744742280E+02 -0.44492795862E+01 -0.68916834902E+03  0.69393993253E+03  0.80401312804E+02 0.  0.
         25    2    1    2    0    0 -0.87991136110E+02 -0.28086781016E+03  0.16457599563E+03  0.35966871534E+03  0.12508860713E+03 0.  0.
        -24    2    1    2    0    0  0.98735878390E+02  0.28531708975E+03  0.75432333730E+03  0.81665076995E+03  0.82220237588E+02 0.  0.
        -13    1    3    3    0    0  0.18889613408E+02  0.30739626027E+01 -0.58658796421E+03  0.58690008221E+03  0.00000000000E+00 0.  1.
         14    1    3    3    0    0 -0.29634355689E+02 -0.75232421889E+01 -0.10258038481E+03  0.10703985033E+03  0.00000000000E+00 0. -1.
         11    1    5    5    0    0  0.56895913871E+02  0.56508788749E+02  0.20345917023E+03  0.21869161432E+03  0.00000000000E+00 0. -1.
        -12    1    5    5    0    0  0.41839964520E+02  0.22880830100E+03  0.55086416707E+03  0.59795915563E+03  0.00000000000E+00 0.  1.
          5    1    4    4  501    0 -0.11129916423E+03 -0.26518324704E+03  0.16434439886E+03  0.33126456543E+03  0.41800000000E+01 0. -1.
         -5    1    4    4    0  501  0.23308028120E+02 -0.15684563121E+02  0.23159677269E+00  0.28404149912E+02  0.41800000000E+01 0. -1.
</event>
<event>
11    1  0.8328696E-009  0.1296759E+03  0.7561462E-02  0.1119668E+00
         22   -1    0    0    0    0  0.00000000000E+00  0.00000000000E+00  0.47566226120E+03  0.47566226120E+03  0.00000000000E+00 0.  1.
         22   -1    0    0    0    0 -0.00000000000E+00 -0.00000000000E+00 -0.11149279748E+04  0.11149279748E+04  0.00000000000E+00 0.  1.
         24    2    1    2    0    0 -0.28222226090E+02  0.96223812967E+01 -0.94509440982E+03  0.94881927360E+03  0.78520610103E+02 0.  0.
         25    2    1    2    0    0 -0.29823681839E+01 -0.24817494348E+02 -0.13883072706E+03  0.18853885216E+03  0.12509246762E+03 0.  0.
        -24    2    1    2    0    0  0.31204594274E+02  0.15195113051E+02  0.44465942324E+03  0.45323211029E+03  0.80577446956E+02 0.  0.
        -11    1    3    3    0    0  0.17028906143E+02 -0.48598002979E+01 -0.62181467095E+03  0.62206678605E+03  0.00000000000E+00 0.  1.
         12    1    3    3    0    0 -0.45251132234E+02  0.14482181595E+02 -0.32327973887E+03  0.32675248754E+03  0.00000000000E+00 0. -1.
         11    1    5    5    0    0 -0.21386131512E+02  0.12678479218E+02  0.59421835490E+02  0.64413236134E+02  0.00000000000E+00 0. -1.
        -12    1    5    5    0    0  0.52590725786E+02  0.25166338332E+01  0.38523758775E+03  0.38881887415E+03  0.00000000000E+00 0.  1.
          5    1    4    4  501    0 -0.31907801762E+01 -0.73773977688E+02 -0.10671248564E+03  0.12983762110E+03  0.41800000000E+01 0.  1.
         -5    1    4    4    0  501  0.20841199234E+00  0.48956483340E+02 -0.32118241415E+02  0.58701231062E+02  0.41800000000E+01 0.  1.
</event>
<event>
11    1  0.8328696E-009  0.1387858E+03  0.7561462E-02  0.1108922E+00
         22   -1    0    0    0    0  0.00000000000E+00  0.00000000000E+00  0.57502071811E+03  0.57502071811E+03  0.00000000000E+00 0. -1.
         22   -1    0    0    0    0 -0.00000000000E+00 -0.00000000000E+00 -0.25943780676E+04  0.25943780676E+04  0.00000000000E+00 0. -1.
        -24    2    1    2    0    0  0.32697083603E+02 -0.56968282993E+02 -0.19458884209E+04  0.19487873058E+04  0.83520847942E+02 0.  0.
         25    2    1    2    0    0 -0.60432107469E+02 -0.32845368662E+01 -0.63463652532E+03  0.64967289889E+03  0.12509407853E+03 0.  0.
         24    2    1    2    0    0  0.27735023866E+02  0.60252819859E+02  0.56116759671E+03  0.57093858106E+03  0.81622042934E+02 0.  0.
        -13    1    5    5    0    0 -0.81972827405E+01  0.98369839704E+01  0.98480376587E+01  0.16153808953E+02  0.00000000000E+00 0.  1.
         14    1    5    5    0    0  0.35932306606E+02  0.50415835889E+02  0.55131955905E+03  0.55478477210E+03  0.00000000000E+00 0. -1.
         13    1    3    3    0    0 -0.18010789853E+02 -0.33821088311E+02 -0.12788502435E+04  0.12794241673E+04  0.00000000000E+00 0. -1.
        -14    1    3    3    0    0  0.50707873456E+02 -0.23147194682E+02 -0.66703817734E+03  0.66936313843E+03  0.00000000000E+00 0.  1.
          5    1    4    4  501    0  0.98248732157E+01 -0.49783312607E+02 -0.17076467357E+03  0.17819358149E+03  0.41800000000E+01 0. -1.
         -5    1    4    4    0  501 -0.70256980684E+02  0.46498775741E+02 -0.46387185176E+03  0.47147931740E+03  0.41800000000E+01 0. -1.
</event>
<event>
11    1  0.8328696E-009  0.1999127E+03  0.7561462E-02  0.1054585E+00
         22   -1    0    0    0    0  0.00000000000E+00  0.00000000000E+00  0.30846323433E+03  0.30846323433E+03  0.00000000000E+00 0. -1.
         22   -1    0    0    0    0 -0.00000000000E+00 -0.00000000000E+00 -0.27297743405E+03  0.27297743405E+03  0.00000000000E+00 0. -1.
         24    2    1    2    0    0 -0.11884446545E+03  0.84626028605E+02 -0.48283781784E+00  0.16601979545E+03  0.79226054188E+02 0.  0.
         25    2    1    2    0    0 -0.57944540105E+01 -0.18708062877E+03 -0.23644099696E+02  0.22635968258E+03  0.12508766960E+03 0.  0.
        -24    2    1    2    0    0  0.12463891946E+03  0.10245460017E+03  0.59612737793E+02  0.18906119037E+03  0.78477065793E+02 0.  0.
        -11    1    3    3    0    0 -0.76546281724E+02  0.65753768202E+02  0.35916231710E+02  0.10711146987E+03  0.00000000000E+00 0.  1.
         12    1    3    3    0    0 -0.42298183725E+02  0.18872260403E+02 -0.36399069527E+02  0.58908325571E+02  0.00000000000E+00 0. -1.
         11    1    5    5    0    0 -0.91624578560E+00  0.28971372627E+02  0.27764256461E+02  0.40137686469E+02  0.00000000000E+00 0. -1.
        -12    1    5    5    0    0  0.12555516524E+03  0.73483227541E+02  0.31848481332E+02  0.14892350390E+03  0.00000000000E+00 0.  1.
          5    1    4    4  501    0 -0.11102474666E+02 -0.20063086498E+03 -0.33113081036E+01  0.20100857218E+03  0.41800000000E+01 0.  1.
         -5    1    4    4    0  501  0.53080206555E+01  0.13550236207E+02 -0.20332791592E+02  0.25351110400E+02  0.41800000000E+01 0.  1.
</event>
<event>
11    1  0.8328696E-009  0.1288775E+03  0.7561462E-02  0.1120656E+00
         22   -1    0    0    0    0  0.00000000000E+00  0.00000000000E+00  0.73056728657E+02  0.73056728657E+02  0.00000000000E+00 0.  1.
         22   -1    0    0    0    0 -0.00000000000E+00 -0.00000000000E+00 -0.13322611004E+04  0.13322611004E+04  0.00000000000E+00 0.  1.
         24    2    1    2    0    0  0.19827449937E+02  0.23061987779E+02 -0.10337020168E+04  0.10361188539E+04  0.63854809795E+02 0.  0.
         25    2    1    2    0    0  0.95123561532E+01 -0.35506700491E+02 -0.24824140839E+03  0.28039756418E+03  0.12509111264E+03 0.  0.
        -24    2    1    2    0    0 -0.29339806090E+02  0.12444712712E+02  0.22739053501E+02  0.88801410962E+02  0.79705275477E+02 0.  0.
        -11    1    3    3    0    0 -0.61031879691E+01  0.17499316282E+02 -0.87646762198E+03  0.87666354284E+03  0.00000000000E+00 0.  1.
         12    1    3    3    0    0  0.25930637906E+02  0.55626714971E+01 -0.15723439487E+03  0.15945531106E+03  0.00000000000E+00 0. -1.
         11    1    5    5    0    0 -0.82593620636E+01 -0.38940576957E+01 -0.29102511365E+02  0.30501424800E+02  0.00000000000E+00 0. -1.
        -12    1    5    5    0    0 -0.21080444026E+02  0.16338770408E+02  0.51841564866E+02  0.58299986163E+02  0.00000000000E+00 0.  1.
          5    1    4    4  501    0 -0.41219883465E+01 -0.28082829409E+02  0.28143213180E+01  0.28827571872E+02  0.41800000000E+01 0. -1.
         -5    1    4    4    0  501  0.13634344500E+02 -0.74238710818E+01 -0.25105572970E+03  0.25156999231E+03  0.41800000000E+01 0. -1.
</event>
<event>
11    1  0.8328696E-009  0.2666157E+03  0.7561462E-02  0.1015402E+00
         22   -1    0    0    0    0  0.00000000000E+00  0.00000000000E+00  0.25125690227E+03  0.25125690227E+03  0.00000000000E+00 0.  1.
         22   -1    0    0    0    0 -0.00000000000E+00 -0.00000000000E+00 -0.28461246111E+04  0.28461246111E+04  0.00000000000E+00 0. -1.
         24    2    1    2    0    0  0.24430876916E+03  0.18673780404E+02 -0.20300687345E+04  0.20468836984E+04  0.92294763825E+02 0.  0.
         25    2    1    2    0    0 -0.21379981660E+03 -0.43324475245E+01 -0.78077372511E+03  0.81913713717E+03  0.12509559542E+03 0.  0.
        -24    2    1    2    0    0 -0.30508952563E+02 -0.14341332879E+02  0.21597475081E+03  0.23136067772E+03  0.75803695099E+02 0.  0.
        -13    1    3    3    0    0  0.15609234636E+02  0.13409713745E+02 -0.57057538037E+02  0.60655018552E+02  0.00000000000E+00 0.  1.
         14    1    3    3    0    0  0.22869953453E+03  0.52640666590E+01 -0.19730111965E+04  0.19862286799E+04  0.00000000000E+00 0. -1.
         11    1    5    5    0    0  0.25214584850E+01  0.21263079168E+02  0.19460914463E+02  0.28934468724E+02  0.00000000000E+00 0. -1.
        -12    1    5    5    0    0 -0.33030411048E+02 -0.35604412047E+02  0.19651383635E+03  0.20242620899E+03  0.00000000000E+00 0.  1.
          5    1    4    4  501    0 -0.14281041642E+02 -0.42089790010E+02 -0.14028397675E+03  0.14721604908E+03  0.41800000000E+01 0. -1.
         -5    1    4    4    0  501 -0.19951877496E+03  0.37757342485E+02 -0.64048974836E+03  0.67192108809E+03  0.41800000000E+01 0. -1.
</event>
<event>
11    1  0.8328696E-009  0.1539404E+03  0.7561462E-02  0.1092919E+00
         22   -1    0    0    0    0  0.00000000000E+00  0.00000000000E+00  0.40141524141E+03  0.40141524141E+03  0.00000000000E+00 0. -1.
         22   -1    0    0    0    0 -0.00000000000E+00 -0.00000000000E+00 -0.22898074378E+03  0.22898074378E+03  0.00000000000E+00 0. -1.
        -24    2    1    2    0    0 -0.53849339212E+02  0.69286668593E+02 -0.14392591219E+03  0.18624139276E+03  0.79188347636E+02 0.  0.
         25    2    1    2    0    0  0.64966413834E+02 -0.76224897553E+02  0.53292591814E+02  0.16887404060E+03  0.12508985296E+03 0.  0.
         24    2    1    2    0    0 -0.11117074623E+02  0.69382289602E+01  0.26306781800E+03  0.27528055183E+03  0.80018603964E+02 0.  0.
        -13    1    5    5    0    0  0.71703011365E+01 -0.33247666282E+02  0.79353917937E+02  0.86335767927E+02  0.00000000000E+00 0.  1.
         14    1    5    5    0    0 -0.18287375759E+02  0.40185895242E+02  0.18371390007E+03  0.18894478391E+03  0.00000000000E+00 0. -1.
         11    1    3    3    0    0 -0.73537241507E+02  0.48077342093E+02 -0.11980749713E+03  0.14856982561E+03  0.00000000000E+00 0. -1.
        -12    1    3    3    0    0  0.19687902295E+02  0.21209326500E+02 -0.24118415051E+02  0.37671567156E+02  0.00000000000E+00 0.  1.
          5    1    4    4  501    0  0.76027620209E+02 -0.96233482407E+02  0.14385313939E+02  0.12355359901E+03  0.41800000000E+01 0.  1.
         -5    1    4    4    0  501 -0.11061206375E+02  0.20008584854E+02  0.38907277875E+02  0.45320441591E+02  0.41800000000E+01 0.  1.
</event>
<event>
11    1  0.8328696E-009  0.2240432E+03  0.7561462E-02  0.1038714E+00
         22   -1    0    0    0    0  0.00000000000E+00  0.00000000000E+00  0.11329740462E+04  0.11329740462E+04  0.00000000000E+00 0.  1.
         22   -1    0    0    0    0 -0.00000000000E+00 -0.00000000000E+00 -0.74047236524E+03  0.74047236524E+03  0.00000000000E+00 0.  1.
         24    2    1    2    0    0  0.10991541801E+03 -0.14415709803E+03 -0.58257424824E+03  0.61502612763E+03  0.77470735945E+02 0.  0.
         25    2    1    2    0    0 -0.14675522326E+03  0.16195323348E+03 -0.25881682588E+02  0.25315891403E+03  0.12511446307E+03 0.  0.
        -24    2    1    2    0    0  0.36839805250E+02 -0.17796135455E+02  0.10009576118E+04  0.10052613698E+04  0.83429055380E+02 0.  0.
        -13    1    3    3    0    0  0.12209015517E+03 -0.13392486240E+03 -0.53751459348E+03  0.56724228770E+03  0.00000000000E+00 0.  1.
         14    1    3    3    0    0 -0.12174737159E+02 -0.10232235624E+02 -0.45059654762E+02  0.47783839925E+02  0.00000000000E+00 0. -1.
         11    1    5    5    0    0  0.63199978775E+02 -0.11609672241E+02  0.61254891796E+03  0.61591005731E+03  0.00000000000E+00 0. -1.
        -12    1    5    5    0    0 -0.26360173525E+02 -0.61864632142E+01  0.38840869385E+03  0.38935131249E+03  0.00000000000E+00 0.  1.
          5    1    4    4  501    0 -0.52922272781E+02  0.14127469878E+03 -0.39553031710E+02  0.15601673689E+03  0.41800000000E+01 0. -1.
         -5    1    4    4    0  501 -0.93832950480E+02  0.20678534706E+02  0.13671349123E+02  0.97142177144E+02  0.41800000000E+01 0. -1.
</event>
<event>
11    1  0.8328696E-009  0.2100418E+03  0.7561462E-02  0.1047641E+00
         22   -1    0    0    0    0  0.00000000000E+00  0.00000000000E+00  0.16489038106E+04  0.16489038106E+04  0.00000000000E+00 0. -1.
         22   -1    0    0    0    0 -0.00000000000E+00 -0.00000000000E+00 -0.84895097048E+03  0.84895097048E+03  0.00000000000E+00 0.  1.
         24    2    1    2    0    0 -0.15932332605E+03  0.55062718355E+02 -0.78695089696E+03  0.80875844690E+03  0.79891714379E+02 0.  0.
         25    2    1    2    0    0  0.15431464241E+03 -0.80231356644E+02  0.18034161833E+03  0.28003640853E+03  0.12508881384E+03 0.  0.
        -24    2    1    2    0    0  0.50086836398E+01  0.25168638290E+02  0.14065621187E+04  0.14090599256E+04  0.79839419636E+02 0.  0.
        -11    1    3    3    0    0 -0.84290977407E+02  0.65495195545E+01 -0.53034810175E+03  0.53704466677E+03  0.00000000000E+00 0.  1.
         12    1    3    3    0    0 -0.75032348642E+02  0.48513198800E+02 -0.25660279521E+03  0.27171378013E+03  0.00000000000E+00 0. -1.
         11    1    5    5    0    0  0.39083565953E+02  0.22764627717E+02  0.10161917637E+04  0.10171978441E+04  0.00000000000E+00 0. -1.
        -12    1    5    5    0    0 -0.34074882313E+02  0.24040105721E+01  0.39037035498E+03  0.39186208151E+03  0.00000000000E+00 0.  1.
          5    1    4    4  501    0  0.13050198788E+03 -0.49447501245E+02  0.19361440285E+03  0.23870449013E+03  0.41800000000E+01 0.  1.
         -5    1    4    4    0  501  0.23812654533E+02 -0.30783855399E+02 -0.13272784521E+02  0.41331918394E+02  0.41800000000E+01 0.  1.
</event>
<event>
11    1  0.8328696E-009  0.1476802E+03  0.7561462E-02  0.1099273E+00
         22   -1    0    0    0    0  0.00000000000E+00  0.00000000000E+00  0.14460407762E+04  0.14460407762E+04  0.00000000000E+00 0.  1.
         22   -1    0    0    0    0 -0.00000000000E+00 -0.00000000000E+00 -0.18808274258E+03  0.18808274258E+03  0.00000000000E+00 0. -1.
        -24    2    1    2    0    0  0.23179155145E+02  0.11749301795E+02 -0.16468377616E+03  0.18506667312E+03  0.80334351580E+02 0.  0.
         25    2    1    2    0    0 -0.95122295059E+02 -0.12020738877E+02  0.64309457693E+03  0.66212540812E+03  0.12508665805E+03 0.  0.
         24    2    1    2    0    0  0.71943139914E+02  0.27143708148E+00  0.77954723288E+03  0.78693143757E+03  0.79945669541E+02 0.  0.
        -13    1    5    5    0    0  0.50898859640E+02 -0.19595384752E+02  0.70273170031E+03  0.70484502951E+03  0.00000000000E+00 0.  1.
         14    1    5    5    0    0  0.21044280274E+02  0.19866821833E+02  0.76815532576E+02  0.82086408052E+02  0.00000000000E+00 0. -1.
         13    1    3    3    0    0  0.28665421003E+02 -0.26647493607E+02 -0.11828233048E+03  0.12458934538E+03  0.00000000000E+00 0. -1.
        -14    1    3    3    0    0 -0.54862658587E+01  0.38396795402E+02 -0.46401445675E+02  0.60477327743E+02  0.00000000000E+00 0.  1.
          5    1    4    4  501    0 -0.79117955563E+02 -0.63393681755E+02  0.46928100497E+03  0.48012555004E+03  0.41800000000E+01 0.  1.
         -5    1    4    4    0  501 -0.16004339495E+02  0.51372942878E+02  0.17381357196E+03  0.18199985808E+03  0.41800000000E+01 0.  1.
</event>
<event>
11    1  0.8328696E-009  0.1354964E+03  0.7561462E-02  0.1112694E+00
         22   -1    0    0    0    0  0.00000000000E+00  0.00000000000E+00  0.95001008289E+03  0.95001008289E+03  0.00000000000E+00 0.  1.
         22   -1    0    0    0    0 -0.00000000000E+00 -0.00000000000E+00 -0.35200157704E+03  0.35200157704E+03  0.00000000000E+00 0. -1.
        -24    2    1    2    0    0 -0.40358144138E+02 -0.24993168749E+02 -0.26757359185E+03  0.28582707346E+03  0.88589223881E+02 0.  0.
         25    2    1    2    0    0  0.89879846687E+02  0.35538455194E+02  0.13339714219E+02  0.15864247221E+03  0.12509243532E+03 0.  0.
         24    2    1    2    0    0 -0.49521702549E+02 -0.10545286445E+02  0.85224238348E+03  0.85754211427E+03  0.80608904302E+02 0.  0.
        -13    1    5    5    0    0 -0.35597013694E+02  0.10987876873E+02  0.77990045306E+03  0.78078972682E+03  0.00000000000E+00 0.  1.
         14    1    5    5    0    0 -0.13924688855E+02 -0.21533163318E+02  0.72341930417E+02  0.76752387446E+02  0.00000000000E+00 0. -1.
         13    1    3    3    0    0  0.12670927186E+02 -0.76239613181E+01 -0.18832030600E+03  0.18890001279E+03  0.00000000000E+00 0. -1.
        -14    1    3    3    0    0 -0.53029071324E+02 -0.17369207431E+02 -0.79253285851E+02  0.96927060672E+02  0.00000000000E+00 0.  1.
          5    1    4    4  501    0  0.90658606293E+02 -0.14819758896E+02  0.41389884428E+02  0.10084246666E+03  0.41800000000E+01 0.  1.
         -5    1    4    4    0  501 -0.77875960667E+00  0.50358214090E+02 -0.28050170209E+02  0.57800005550E+02  0.41800000000E+01 0.  1.
</event>
<event>
11    1  0.8328696E-009  0.1665116E+03  0.7561462E-02  0.1081108E+00
         22   -1    0    0    0    0  0.00000000000E+00  0.00000000000E+00  0.21583182424E+04  0.21583182424E+04  0.00000000000E+00 0. -1.
         22   -1    0    0    0    0 -0.00000000000E+00 -0.00000000000E+00 -0.49819990387E+02  0.49819990387E+02  0.00000000000E+00 0.  1.
         24    2    1    2    0    0  0.73354427716E+01 -0.56249942754E+02  0.54231854178E+02  0.11402535017E+03  0.82721349689E+02 0.  0.
         25    2    1    2    0    0  0.69613488228E+02  0.12750281287E+03  0.52347321053E+03  0.55747218146E+03  0.12509206978E+03 0.  0.
        -24    2    1    2    0    0 -0.76948930999E+02 -0.71252870119E+02  0.15307931873E+04  0.15366407012E+04  0.83299175627E+02 0.  0.
        -11    1    3    3    0    0  0.39638314389E+02 -0.12486399918E+02  0.73244496973E+01  0.42198977640E+02  0.00000000000E+00 0.  1.
         12    1    3    3    0    0 -0.32302871618E+02 -0.43763542836E+02  0.46907404480E+02  0.71826372534E+02  0.00000000000E+00 0. -1.
         11    1    5    5    0    0  0.13186482882E+02 -0.29410938079E+02  0.51162227774E+03  0.51263655906E+03  0.00000000000E+00 0. -1.
        -12    1    5    5    0    0 -0.90135413881E+02 -0.41841932040E+02  0.10191709096E+04  0.10240041421E+04  0.00000000000E+00 0.  1.
          5    1    4    4  501    0 -0.20975034161E+01  0.94240039527E+02  0.16238062332E+03  0.18780448291E+03  0.41800000000E+01 0. -1.
         -5    1    4    4    0  501  0.71710991644E+02  0.33262773346E+02  0.36109258720E+03  0.36966769854E+03  0.41800000000E+01 0. -1.
</event>
<event>
11    1  0.8328696E-009  0.2054510E+03  0.7561462E-02  0.1050734E+00
         22   -1    0    0    0    0  0.00000000000E+00  0.00000000000E+00  0.17197545374E+04  0.17197545374E+04  0.00000000000E+00 0.  1.
         22   -1    0    0    0    0 -0.00000000000E+00 -0.00000000000E+00 -0.61304886919E+03  0.61304886919E+03  0.00000000000E+00 0.  1.
        -24    2    1    2    0    0  0.15974025259E+03 -0.35870065740E+02 -0.57673486091E+03  0.60470114119E+03  0.78973162888E+02 0.  0.
         25    2    1    2    0    0 -0.12628877229E+03  0.72764796905E+02  0.42696485312E+03  0.46817773177E+03  0.12509129886E+03 0.  0.
         24    2    1    2    0    0 -0.33451480295E+02 -0.36894731165E+02  0.12564756760E+04  0.12599245337E+04  0.78730447481E+02 0.  0.
        -13    1    5    5    0    0 -0.11445282431E+01 -0.56470242422E+01  0.96384814360E+03  0.96386536547E+03  0.00000000000E+00 0.  1.
         14    1    5    5    0    0 -0.32306952052E+02 -0.31247706923E+02  0.29262753241E+03  0.29605916818E+03  0.00000000000E+00 0. -1.
         11    1    3    3    0    0  0.31249227907E+02  0.12735003386E+02 -0.49821317216E+02  0.60173567330E+02  0.00000000000E+00 0. -1.
        -12    1    3    3    0    0  0.12849102468E+03 -0.48605069125E+02 -0.52691354369E+03  0.54452757386E+03  0.00000000000E+00 0.  1.
          5    1    4    4  501    0 -0.20405568794E+02  0.58036345185E+02  0.60380434741E+02  0.86301065461E+02  0.41800000000E+01 0.  1.
         -5    1    4    4    0  501 -0.10588320350E+03  0.14728451719E+02  0.36658441838E+03  0.38187666631E+03  0.41800000000E+01 0.  1.
</event>
<event>
11    1  0.8328696E-009  0.1495336E+03  0.7561462E-02  0.1097356E+00
         22   -1    0    0    0    0  0.00000000000E+00  0.00000000000E+00  0.13071522087E+04  0.13071522087E+04  0.00000000000E+00 0.  1.
         22   -1    0    0    0    0 -0.00000000000E+00 -0.00000000000E+00 -0.55794255315E+02  0.55794255315E+02  0.00000000000E+00 0. -1.
         24    2    1    2    0    0  0.76871600607E+02  0.28398755503E+02  0.41416259933E+02  0.12403384865E+03  0.83386789897E+02 0.  0.
         25    2    1    2    0    0 -0.75471193326E+02 -0.31941307293E+02  0.43762833429E+03  0.46247282822E+03  0.12508560961E+03 0.  0.
        -24    2    1    2    0    0 -0.14004072809E+01  0.35425517892E+01  0.77231335917E+03  0.77643978716E+03  0.79851784685E+02 0.  0.
        -13    1    3    3    0    0  0.51094975735E+02  0.48135102789E+02  0.54663187247E+02  0.88970493456E+02  0.00000000000E+00 0.  1.
         14    1    3    3    0    0  0.25776624872E+02 -0.19736347286E+02 -0.13246927314E+02  0.35063355191E+02  0.00000000000E+00 0. -1.
         13    1    5    5    0    0 -0.19703697811E+02  0.90765848551E+01  0.58864927291E+02  0.62735155734E+02  0.00000000000E+00 0. -1.
        -14    1    5    5    0    0  0.18303290530E+02 -0.55340330659E+01  0.71344843188E+03  0.71370463142E+03  0.00000000000E+00 0.  1.
          5    1    4    4  501    0 -0.13078221092E+02 -0.20217412024E+02  0.36541200899E+03  0.36622833360E+03  0.41800000000E+01 0. -1.
         -5    1    4    4    0  501 -0.62392972234E+02 -0.11723895269E+02  0.72216325296E+02  0.96244494615E+02  0.41800000000E+01 0. -1.
</event>
<event>
11    1  0.8328696E-009  0.1414006E+03  0.7561462E-02  0.1106004E+00
         22   -1    0    0    0    0  0.00000000000E+00  0.00000000000E+00  0.33445118749E+03  0.33445118749E+03  0.00000000000E+00 0.  1.
         22   -1    0    0    0    0 -0.00000000000E+00 -0.00000000000E+00 -0.79686504901E+03  0.79686504901E+03  0.00000000000E+00 0.  1.
        -24    2    1    2    0    0 -0.18461509624E+02 -0.43268744865E+02 -0.40134643257E+03  0.41202165932E+03  0.80435546816E+02 0.  0.
         25    2    1    2    0    0  0.56971257610E+02  0.95560007221E+02 -0.36343266458E+03  0.40013557183E+03  0.12509090687E+03 0.  0.
         24    2    1    2    0    0 -0.38509747986E+02 -0.52291262356E+02  0.30236523564E+03  0.31915900535E+03  0.78869247283E+02 0.  0.
        -13    1    5    5    0    0 -0.29179838626E+02  0.16622479757E+01  0.20812384852E+03  0.21016603525E+03  0.00000000000E+00 0.  1.
         14    1    5    5    0    0 -0.93299093598E+01 -0.53953510332E+02  0.94241387119E+02  0.10899297010E+03  0.00000000000E+00 0. -1.
         11    1    3    3    0    0  0.10521259905E+02 -0.26058792331E+02 -0.38781551680E+02  0.47893280514E+02  0.00000000000E+00 0. -1.
        -12    1    3    3    0    0 -0.28982769530E+02 -0.17209952534E+02 -0.36256488089E+03  0.36412837881E+03  0.00000000000E+00 0.  1.
          5    1    4    4  501    0  0.98826894780E+00  0.10401402365E+03 -0.17800157881E+03  0.20620845824E+03  0.41800000000E+01 0. -1.
         -5    1    4    4    0  501  0.55982988662E+02 -0.84540164273E+01 -0.18543108577E+03  0.19392711359E+03  0.41800000000E+01 0. -1.
</event>
<event>
11    1  0.8328696E-009  0.1722299E+03  0.7561462E-02  0.1076107E+00
         22   -1    0    0    0    0  0.00000000000E+00  0.00000000000E+00  0.20854839788E+03  0.20854839788E+03  0.00000000000E+00 0.  1.
         22   -1    0    0    0    0 -0.00000000000E+00 -0.00000000000E+00 -0.75455129750E+03  0.75455129750E+03  0.00000000000E+00 0. -1.
        -24    2    1    2    0    0 -0.58836176928E+02  0.10400183573E+03 -0.61172910336E+03  0.62850809251E+03  0.80819854629E+02 0.  0.
         25    2    1    2    0    0  0.51412784287E+02 -0.98325452068E+02 -0.65672408067E+02  0.17964209516E+03  0.12508896138E+03 0.  0.
         24    2    1    2    0    0  0.74233926409E+01 -0.56763836629E+01  0.13139861180E+03  0.15494950771E+03  0.81586927058E+02 0.  0.
        -13    1    5    5    0    0 -0.35588835428E+02 -0.70864270518E+01  0.80466548773E+02  0.88270312829E+02  0.00000000000E+00 0.  1.
         14    1    5    5    0    0  0.43012228069E+02  0.14100433889E+01  0.50932063030E+02  0.66679194884E+02  0.00000000000E+00 0. -1.
         13    1    3    3    0    0 -0.16451288135E+02  0.99692901247E+02 -0.40280776497E+03  0.41528714760E+03  0.00000000000E+00 0. -1.
        -14    1    3    3    0    0 -0.42384888793E+02  0.43089344837E+01 -0.20892133839E+03  0.21322094491E+03  0.00000000000E+00 0.  1.
          5    1    4    4  501    0 -0.25942604785E+02  0.96397359939E+01  0.60545294545E+01  0.28636916384E+02  0.41800000000E+01 0.  1.
         -5    1    4    4    0  501  0.77355389072E+02 -0.10796518806E+03 -0.71726937522E+02  0.15100517878E+03  0.41800000000E+01 0.  1.
</event>
<event>
11    1  0.8954508E-009  0.1813463E+03  0.7561462E-02  0.1068559E+00
         22   -1    0    0    0    0  0.00000000000E+00  0.00000000000E+00  0.18385959342E+03  0.18385959342E+03  0.00000000000E+00 0.  1.
         22   -1    0    0    0    0 -0.00000000000E+00 -0.00000000000E+00 -0.22397777151E+04  0.22397777151E+04  0.00000000000E+00 0.  1.
         24    2    1    2    0    0 -0.79478752130E+02 -0.16072470807E+01 -0.17824161779E+04  0.17860687411E+04  0.81943037219E+02 0.  0.
         25    2    1    2    0    0  0.18513406417E+01 -0.10891195998E+03 -0.40160848788E+03  0.43451368407E+03  0.12509005402E+03 0.  0.
        -24    2    1    2    0    0  0.77627411488E+02  0.11051920706E+03  0.12810654416E+03  0.20305488332E+03  0.81114048358E+02 0.  0.
        -13    1    3    3    0    0 -0.13357322982E+02  0.22861612416E+02 -0.10340210660E+04  0.10343600129E+04  0.00000000000E+00 0.  1.
         14    1    3    3    0    0 -0.66121429148E+02 -0.24468859497E+02 -0.74839511198E+03  0.75170872824E+03  0.00000000000E+00 0. -1.
         13    1    5    5    0    0 -0.61251598590E+01  0.37291483781E+02  0.66929176312E+01  0.38379258621E+02  0.00000000000E+00 0. -1.
        -14    1    5    5    0    0  0.83752571347E+02  0.73227723278E+02  0.12141362653E+03  0.16467562470E+03  0.00000000000E+00 0.  1.
          5    1    4    4  501    0  0.10276378309E+02 -0.61434229120E+02 -0.51087949064E+02  0.80667337865E+02  0.41800000000E+01 0.  1.
         -5    1    4    4    0  501 -0.84250376670E+01 -0.47477730859E+02 -0.35052053882E+03  0.35384634620E+03  0.41800000000E+01 0.  1.
</event>
<event>
11    1  0.8328696E-009  0.1291861E+03  0.7561462E-02  0.1120273E+00
         22   -1    0    0    0    0  0.00000000000E+00  0.00000000000E+00  0.15724049885E+03  0.15724049885E+03  0.00000000000E+00 0. -1.
         22   -1    0    0    0    0 -0.00000000000E+00 -0.00000000000E+00 -0.42290012646E+03  0.42290012646E+03  0.00000000000E+00 0.  1.
         24    2    1    2    0    0  0.27770184472E+02  0.22078856159E+02 -0.28117613362E+03  0.29526556994E+03  0.82843706096E+02 0.  0.
         25    2    1    2    0    0  0.29062177478E+01 -0.27755797825E+02 -0.84000609105E+02  0.15324222079E+03  0.12509294740E+03 0.  0.
        -24    2    1    2    0    0 -0.30676402220E+02  0.56769416659E+01  0.99517115117E+02  0.13163283457E+03  0.80313620372E+02 0.  0.
        -11    1    3    3    0    0 -0.18897249508E+02  0.27977951096E+02 -0.18668739089E+03  0.18971571813E+03  0.00000000000E+00 0.  1.
         12    1    3    3    0    0  0.46667433980E+02 -0.58990949373E+01 -0.94488742727E+02  0.10554985181E+03  0.00000000000E+00 0. -1.
         13    1    5    5    0    0 -0.47939807154E+02  0.12664771220E+02  0.26386947269E+02  0.56168429978E+02  0.00000000000E+00 0. -1.
        -14    1    5    5    0    0  0.17263404934E+02 -0.69878295538E+01  0.73130167847E+02  0.75464404597E+02  0.00000000000E+00 0.  1.
          5    1    4    4  501    0 -0.40204400883E+02 -0.53217081679E+02 -0.77890804220E+02  0.10262992456E+03  0.41800000000E+01 0. -1.
         -5    1    4    4    0  501  0.43110618630E+02  0.25461283854E+02 -0.61098048845E+01  0.50612296233E+02  0.41800000000E+01 0. -1.
</event>
<event>
11    1  0.8328696E-009  0.6625998E+03  0.7561462E-02  0.9089310E-01
         22   -1    0    0    0    0  0.00000000000E+00  0.00000000000E+00  0.22138810351E+04  0.22138810351E+04  0.00000000000E+00 0.  1.
         22   -1    0    0    0    0 -0.00000000000E+00 -0.00000000000E+00 -0.78837264333E+03  0.78837264333E+03  0.00000000000E+00 0. -1.
         24    2    1    2    0    0 -0.19160561448E+03 -0.53587714036E+01 -0.53483983375E+03  0.57364946935E+03  0.79237856990E+02 0.  0.
         25    2    1    2    0    0  0.61286263054E+03 -0.43463877660E+03  0.73817864876E+03  0.10606912954E+04  0.12508731614E+03 0.  0.
        -24    2    1    2    0    0 -0.42125701607E+03  0.43999754800E+03  0.12221695768E+04  0.13679129137E+04  0.80199433657E+02 0.  0.
        -11    1    3    3    0    0  0.56799353856E+00 -0.12857932263E+02 -0.59531762127E+02  0.60907140310E+02  0.00000000000E+00 0.  1.
         12    1    3    3    0    0 -0.19217360802E+03  0.74991608596E+01 -0.47530807163E+03  0.51274232904E+03  0.00000000000E+00 0. -1.
         11    1    5    5    0    0 -0.18649793861E+03  0.23229955985E+03  0.52764557079E+03  0.60593268189E+03  0.00000000000E+00 0. -1.
        -12    1    5    5    0    0 -0.23475907745E+03  0.20769798816E+03  0.69452400598E+03  0.76198023177E+03  0.00000000000E+00 0.  1.
          5    1    4    4  501    0  0.43194572542E+03 -0.31374787051E+03  0.59885724236E+03  0.80228567549E+03  0.41800000000E+01 0.  1.
         -5    1    4    4    0  501  0.18091690512E+03 -0.12089090609E+03  0.13932140639E+03  0.25840561994E+03  0.41800000000E+01 0.  1.
</event>
<event>
11    1  0.8328696E-009  0.1917429E+03  0.7561462E-02  0.1060521E+00
         22   -1    0    0    0    0  0.00000000000E+00  0.00000000000E+00  0.77744427130E+03  0.77744427130E+03  0.00000000000E+00 0.  1.
         22   -1    0    0    0    0 -0.00000000000E+00 -0.00000000000E+00 -0.12826754223E+03  0.12826754223E+03  0.00000000000E+00 0. -1.
        -24    2    1    2    0    0 -0.11847098465E+03 -0.79303719114E+02 -0.13651011417E+02  0.16310000353E+03  0.78043622217E+02 0.  0.
         25    2    1    2    0    0  0.95457258035E+02  0.13579101237E+03  0.29236638772E+03  0.35872835586E+03  0.12512650192E+03 0.  0.
         24    2    1    2    0    0  0.23013726619E+02 -0.56487293258E+02  0.37046135277E+03  0.38388345413E+03  0.80027786118E+02 0.  0.
        -13    1    5    5    0    0 -0.11532685206E+02 -0.59564582299E+02  0.28978002759E+03  0.29606318022E+03  0.00000000000E+00 0.  1.
         14    1    5    5    0    0  0.34546411825E+02  0.30772890404E+01  0.80681325182E+02  0.87820273917E+02  0.00000000000E+00 0. -1.
         11    1    3    3    0    0 -0.13546707614E+02 -0.20300073478E+02 -0.33139313571E+02  0.41156049061E+02  0.00000000000E+00 0. -1.
        -12    1    3    3    0    0 -0.10492427704E+03 -0.59003645637E+02  0.19488302154E+02  0.12194395447E+03  0.00000000000E+00 0.  1.
          5    1    4    4  501    0  0.41987039012E+02 -0.13822001102E+02  0.98463532538E+02  0.10801156790E+03  0.41800000000E+01 0.  1.
         -5    1    4    4    0  501  0.53470219023E+02  0.14961301347E+03  0.19390285518E+03  0.25071678797E+03  0.41800000000E+01 0.  1.
</event>
<event>
11    1  0.8328696E-009  0.1339856E+03  0.7561462E-02  0.1114467E+00
         22   -1    0    0    0    0  0.00000000000E+00  0.00000000000E+00  0.12456865272E+04  0.12456865272E+04  0.00000000000E+00 0. -1.
         22   -1    0    0    0    0 -0.00000000000E+00 -0.00000000000E+00 -0.50204825694E+02  0.50204825694E+02  0.00000000000E+00 0. -1.
         24    2    1    2    0    0 -0.14502049984E+02 -0.34698646277E+02  0.64857401572E+02  0.11414328652E+03  0.86069168758E+02 0.  0.
         25    2    1    2    0    0  0.16793269699E+02  0.73129773684E+02  0.20372791633E+03  0.25056302641E+03  0.12508712405E+03 0.  0.
        -24    2    1    2    0    0 -0.22912197144E+01 -0.38431127406E+02  0.92689638363E+03  0.93118504000E+03  0.80538633505E+02 0.  0.
        -13    1    3    3    0    0 -0.20497908743E+02 -0.24244469553E+02  0.84963783959E+02  0.90701726287E+02  0.00000000000E+00 0.  1.
         14    1    3    3    0    0  0.59958587593E+01 -0.10454176724E+02 -0.20106382387E+02  0.23441560228E+02  0.00000000000E+00 0. -1.
         11    1    5    5    0    0  0.26518420824E+02 -0.29769568514E+02  0.79075804423E+03  0.79176242546E+03  0.00000000000E+00 0. -1.
        -12    1    5    5    0    0 -0.28809640538E+02 -0.86615588921E+01  0.13613833940E+03  0.13942261454E+03  0.00000000000E+00 0.  1.
          5    1    4    4  501    0 -0.33627339825E+01  0.23777815094E+02  0.19483718303E+03  0.19635603572E+03  0.41800000000E+01 0. -1.
         -5    1    4    4    0  501  0.20156003681E+02  0.49351958590E+02  0.88907332966E+01  0.54206990689E+02  0.41800000000E+01 0. -1.
</event>
<event>
11    1  0.8328696E-009  0.1660156E+03  0.7561462E-02  0.1081552E+00
         22   -1    0    0    0    0  0.00000000000E+00  0.00000000000E+00  0.69582173383E+02  0.69582173383E+02  0.00000000000E+00 0. -1.
         22   -1    0    0    0    0 -0.00000000000E+00 -0.00000000000E+00 -0.16039371670E+04  0.16039371670E+04  0.00000000000E+00 0. -1.
        -24    2    1    2    0    0  0.56632280402E+01 -0.99896945183E+02 -0.10493188409E+04  0.10574027214E+04  0.83779553900E+02 0.  0.
         25    2    1    2    0    0 -0.59382158160E+02  0.15509345334E+03 -0.45549316314E+03  0.50070185732E+03  0.12509239898E+03 0.  0.
         24    2    1    2    0    0  0.53718930120E+02 -0.55196508156E+02 -0.29542989566E+02  0.11541476160E+03  0.80718033901E+02 0.  0.
        -13    1    5    5    0    0  0.14672829377E+01 -0.19531588457E+02  0.25087679365E+02  0.31828093295E+02  0.00000000000E+00 0.  1.
         14    1    5    5    0    0  0.52251647182E+02 -0.35664919699E+02 -0.54630668932E+02  0.83586668305E+02  0.00000000000E+00 0. -1.
         11    1    3    3    0    0 -0.15213004841E+02 -0.10706407512E+03 -0.89635376237E+03  0.90285337625E+03  0.00000000000E+00 0. -1.
        -12    1    3    3    0    0  0.20876232881E+02  0.71671299341E+01 -0.15296507851E+03  0.15454934517E+03  0.00000000000E+00 0.  1.
          5    1    4    4  501    0  0.15153337862E+02  0.22506370126E+01 -0.15170252948E+03  0.15253137011E+03  0.41800000000E+01 0. -1.
         -5    1    4    4    0  501 -0.74535496022E+02  0.15284281633E+03 -0.30379063366E+03  0.34817048721E+03  0.41800000000E+01 0. -1.
</event>
<event>
11    1  0.8328696E-009  0.1504746E+03  0.7561462E-02  0.1096395E+00
         22   -1    0    0    0    0  0.00000000000E+00  0.00000000000E+00  0.10235826095E+04  0.10235826095E+04  0.00000000000E+00 0.  1.
         22   -1    0    0    0    0 -0.00000000000E+00 -0.00000000000E+00 -0.28880925803E+03  0.28880925803E+03  0.00000000000E+00 0. -1.
        -24    2    1    2    0    0 -0.18757748671E+01 -0.83417714809E+02 -0.25913925067E+03  0.28396673337E+03  0.80758409742E+02 0.  0.
         25    2    1    2    0    0  0.18816147295E+02  0.90046068680E+02  0.40634646863E+03  0.43500179407E+03  0.12508703526E+03 0.  0.
         24    2    1    2    0    0 -0.16940372428E+02 -0.66283538714E+01  0.58756613348E+03  0.59342334008E+03  0.81156564990E+02 0.  0.
        -11    1    5    5    0    0 -0.42483026970E+02 -0.22961308862E+01  0.50727335307E+03  0.50905435322E+03  0.00000000000E+00 0.  1.
         12    1    5    5    0    0  0.25542654542E+02 -0.43322229853E+01  0.80292780411E+02  0.84368986856E+02  0.00000000000E+00 0. -1.
         13    1    3    3    0    0  0.25346017576E+02  0.14197306802E+01 -0.79341297181E+02  0.83303527420E+02  0.00000000000E+00 0. -1.
        -14    1    3    3    0    0 -0.27221792443E+02 -0.84837445489E+02 -0.17979795349E+03  0.20066320595E+03  0.00000000000E+00 0.  1.
          5    1    4    4  501    0  0.44777856848E+02  0.37139160857E+02  0.60092315142E+02  0.83743253293E+02  0.41800000000E+01 0. -1.
         -5    1    4    4    0  501 -0.25961709553E+02  0.52906907823E+02  0.34625415349E+03  0.35125854078E+03  0.41800000000E+01 0. -1.
</event>
<event>
11    1  0.8328696E-009  0.1282960E+03  0.7561462E-02  0.1121381E+00
         22   -1    0    0    0    0  0.00000000000E+00  0.00000000000E+00  0.23825594285E+04  0.23825594285E+04  0.00000000000E+00 0. -1.
         22   -1    0    0    0    0 -0.00000000000E+00 -0.00000000000E+00 -0.96853844038E+02  0.96853844038E+02  0.00000000000E+00 0. -1.
        -24    2    1    2    0    0 -0.29094030686E+01 -0.27856200458E+02 -0.58696226603E+02  0.12078014187E+03  0.10177506140E+03 0.  0.
         25    2    1    2    0    0  0.85238451409E+01  0.38918302572E+02  0.69869564613E+03  0.71092241350E+03  0.12509109434E+03 0.  0.
         24    2    1    2    0    0 -0.56144420723E+01 -0.11062102113E+02  0.16457061650E+04  0.16477107172E+04  0.80299029189E+02 0.  0.
        -13    1    5    5    0    0  0.92897808897E+01 -0.19030746070E+02  0.11637291747E+03  0.11828408703E+03  0.00000000000E+00 0.  1.
         14    1    5    5    0    0 -0.14904222962E+02  0.79686439566E+01  0.15293332475E+04  0.15294266302E+04  0.00000000000E+00 0. -1.
         13    1    3    3    0    0  0.29549481615E+02 -0.41655315983E+02 -0.67291409104E+02  0.84477635813E+02  0.00000000000E+00 0. -1.
        -14    1    3    3    0    0 -0.32458884683E+02  0.13799115525E+02  0.85951825008E+01  0.36302506062E+02  0.00000000000E+00 0.  1.
          5    1    4    4  501    0  0.56219124305E+02  0.11000167300E+02  0.53551629913E+03  0.53858775761E+03  0.41800000000E+01 0.  1.
         -5    1    4    4    0  501 -0.47695279164E+02  0.27918135272E+02  0.16317934700E+03  0.17233465589E+03  0.41800000000E+01 0.  1.
</event>
<event>
11    1  0.8328696E-009  0.1290094E+03  0.7561462E-02  0.1120492E+00
         22   -1    0    0    0    0  0.00000000000E+00  0.00000000000E+00  0.16503073255E+03  0.16503073255E+03  0.00000000000E+00 0.  1.
         22   -1    0    0    0    0 -0.00000000000E+00 -0.00000000000E+00 -0.66953930482E+03  0.66953930482E+03  0.00000000000E+00 0. -1.
        -24    2    1    2    0    0  0.20060269010E+02  0.12913424087E+02 -0.40232032132E+03  0.41107737679E+03  0.80955530072E+02 0.  0.
         25    2    1    2    0    0 -0.55110871125E+01  0.16241343704E+02 -0.23373109238E+03  0.26565309286E+03  0.12508872400E+03 0.  0.
         24    2    1    2    0    0 -0.14549181898E+02 -0.29154767791E+02  0.13154284143E+03  0.15783956772E+03  0.80920521667E+02 0.  0.
        -11    1    5    5    0    0  0.31653288112E+02 -0.53305598458E+00  0.61638926281E+02  0.69293376524E+02  0.00000000000E+00 0.  1.
         12    1    5    5    0    0 -0.46202470010E+02 -0.28621711806E+02  0.69903915152E+02  0.88546191196E+02  0.00000000000E+00 0. -1.
         13    1    3    3    0    0  0.29566199715E+02  0.57508565291E+01 -0.39682712230E+03  0.39796858859E+03  0.00000000000E+00 0. -1.
        -14    1    3    3    0    0 -0.95059307048E+01  0.71625675578E+01 -0.54931990256E+01  0.13108788202E+02  0.00000000000E+00 0.  1.
          5    1    4    4  501    0  0.57262018197E+01  0.11616340944E+02  0.12862124106E+02  0.18725261032E+02  0.41800000000E+01 0.  1.
         -5    1    4    4    0  501 -0.11237288932E+02  0.46250027601E+01 -0.24659321649E+03  0.24692783183E+03  0.41800000000E+01 0.  1.
</event>
<event>
11    1  0.8328696E-009  0.1552587E+03  0.7561462E-02  0.1091623E+00
         22   -1    0    0    0    0  0.00000000000E+00  0.00000000000E+00  0.42359631737E+03  0.42359631737E+03  0.00000000000E+00 0. -1.
         22   -1    0    0    0    0 -0.00000000000E+00 -0.00000000000E+00 -0.32526817133E+03  0.32526817133E+03  0.00000000000E+00 0.  1.
         24    2    1    2    0    0 -0.59249335286E+01 -0.30011856519E+01 -0.24453024809E+03  0.25775532433E+03  0.81232093633E+02 0.  0.
         25    2    1    2    0    0  0.19880578876E+02 -0.88226839461E+02  0.33295146286E+02  0.15790996158E+03  0.12509107315E+03 0.  0.
        -24    2    1    2    0    0 -0.13955645348E+02  0.91228025113E+02  0.30956324785E+03  0.33319920279E+03  0.81700622526E+02 0.  0.
        -13    1    3    3    0    0 -0.14665239164E+02 -0.23534810177E+02 -0.22874677962E+03  0.23042145238E+03  0.00000000000E+00 0.  1.
         14    1    3    3    0    0  0.87403056356E+01  0.20533624526E+02 -0.15783468467E+02  0.27333871947E+02  0.00000000000E+00 0. -1.
         13    1    5    5    0    0  0.10073516542E+02  0.54668667820E+02  0.26493421265E+03  0.27070329885E+03  0.00000000000E+00 0. -1.
        -14    1    5    5    0    0 -0.24029161889E+02  0.36559357293E+02  0.44629035197E+02  0.62495903941E+02  0.00000000000E+00 0.  1.
          5    1    4    4  501    0  0.11207253003E+02 -0.57089625018E+02  0.81194371447E+02  0.99974127449E+02  0.41800000000E+01 0.  1.
         -5    1    4    4    0  501  0.86733258728E+01 -0.31137214443E+02 -0.47899225161E+02  0.57935834127E+02  0.41800000000E+01 0.  1.
</event>
<event>
11    1  0.8328696E-009  0.1471649E+03  0.7561462E-02  0.1099811E+00
         22   -1    0    0    0    0  0.00000000000E+00  0.00000000000E+00  0.40832173985E+03  0.40832173985E+03  0.00000000000E+00 0.  1.
         22   -1    0    0    0    0 -0.00000000000E+00 -0.00000000000E+00 -0.46122286458E+03  0.46122286458E+03  0.00000000000E+00 0.  1.
        -24    2    1    2    0    0 -0.62946240186E+01  0.43202612057E+02 -0.39898664810E+03  0.40927515309E+03  0.80060711894E+02 0.  0.
         25    2    1    2    0    0  0.18509825109E+02  0.41714108638E+02  0.51114756367E+02  0.14263152421E+03  0.12509337671E+03 0.  0.
         24    2    1    2    0    0 -0.12215201091E+02 -0.84916720696E+02  0.29497076700E+03  0.31763792713E+03  0.80783901690E+02 0.  0.
        -11    1    5    5    0    0 -0.28450022865E+02 -0.34814162705E+02  0.22824511514E+03  0.23263117227E+03  0.00000000000E+00 0.  1.
         12    1    5    5    0    0  0.16234821774E+02 -0.50102557991E+02  0.66725651868E+02  0.85006754864E+02  0.00000000000E+00 0. -1.
         13    1    3    3    0    0 -0.80887196143E+01 -0.38662242249E+01 -0.16002860933E+01  0.91069199149E+01  0.00000000000E+00 0. -1.
        -14    1    3    3    0    0  0.17940955957E+01  0.47068836282E+02 -0.39738636201E+03  0.40016823317E+03  0.00000000000E+00 0.  1.
          5    1    4    4  501    0 -0.48400269510E+02 -0.39327640102E+01  0.41641876060E+01  0.48916925290E+02  0.41800000000E+01 0.  1.
         -5    1    4    4    0  501  0.66910094619E+02  0.45646872649E+02  0.46950568761E+02  0.93714598925E+02  0.41800000000E+01 0.  1.
</event>
<event>
11    1  0.8328696E-009  0.1346884E+03  0.7561462E-02  0.1113639E+00
         22   -1    0    0    0    0  0.00000000000E+00  0.00000000000E+00  0.10711912637E+04  0.10711912637E+04  0.00000000000E+00 0.  1.
         22   -1    0    0    0    0 -0.00000000000E+00 -0.00000000000E+00 -0.66174703543E+03  0.66174703543E+03  0.00000000000E+00 0.  1.
        -24    2    1    2    0    0  0.49534810816E+02 -0.19284198772E+01 -0.62688258920E+03  0.63382550009E+03  0.79344613144E+02 0.  0.
         25    2    1    2    0    0 -0.69172762794E+02  0.39538572418E+02  0.15981112187E+03  0.21802063816E+03  0.12508091049E+03 0.  0.
         24    2    1    2    0    0  0.19637951978E+02 -0.37610152541E+02  0.87651569560E+03  0.88109216088E+03  0.79015559287E+02 0.  0.
        -11    1    5    5    0    0  0.31454080966E+02 -0.35358565490E+02  0.85602186415E+03  0.85732900293E+03  0.00000000000E+00 0.  1.
         12    1    5    5    0    0 -0.11816128988E+02 -0.22515870509E+01  0.20493831450E+02  0.23763157955E+02  0.00000000000E+00 0. -1.
         13    1    3    3    0    0  0.21796892908E+02  0.59314575474E+00 -0.34660536378E+02  0.40948860110E+02  0.00000000000E+00 0. -1.
        -14    1    3    3    0    0  0.27737917908E+02 -0.25215656320E+01 -0.59222205282E+03  0.59287663998E+03  0.00000000000E+00 0.  1.
          5    1    4    4  501    0 -0.47297897410E+02  0.85004019480E+02  0.98370274311E+02  0.13840866192E+03  0.41800000000E+01 0. -1.
         -5    1    4    4    0  501 -0.21874865384E+02 -0.45465447062E+02  0.61440847558E+02  0.79611976239E+02  0.41800000000E+01 0. -1.
</event>
<event>
11    1  0.8328696E-009  0.1456477E+03  0.7561462E-02  0.1101411E+00
         22   -1    0    0    0    0  0.00000000000E+00  0.00000000000E+00  0.47207636249E+03  0.47207636249E+03  0.00000000000E+00 0. -1.
         22   -1    0    0    0    0 -0.00000000000E+00 -0.00000000000E+00 -0.69340774975E+03  0.69340774975E+03  0.00000000000E+00 0.  1.
        -24    2    1    2    0    0 -0.44434433003E+02 -0.35373658573E+02 -0.44757419190E+03  0.45795293048E+03  0.78565353186E+02 0.  0.
         25    2    1    2    0    0  0.11403027189E+03  0.57913948864E+02 -0.19976173147E+03  0.26815027804E+03  0.12507155503E+03 0.  0.
         24    2    1    2    0    0 -0.69595838888E+02 -0.22540290291E+02  0.42600453611E+03  0.43938090372E+03  0.78892764493E+02 0.  0.
        -11    1    5    5    0    0 -0.13447259333E+01  0.21386271352E+02  0.45194046820E+02  0.50016824751E+02  0.00000000000E+00 0.  1.
         12    1    5    5    0    0 -0.68251112955E+02 -0.43926561643E+02  0.38081048929E+03  0.38936407897E+03  0.00000000000E+00 0. -1.
         13    1    3    3    0    0 -0.44651977948E+02 -0.20039184660E+02 -0.11444582774E+03  0.12447174596E+03  0.00000000000E+00 0. -1.
        -14    1    3    3    0    0  0.21754494508E+00 -0.15334473912E+02 -0.33312836417E+03  0.33348118452E+03  0.00000000000E+00 0.  1.
          5    1    4    4  501    0  0.82052751824E+02 -0.24755589467E+02 -0.12763532243E+03  0.15379772828E+03  0.41800000000E+01 0. -1.
         -5    1    4    4    0  501  0.31977520067E+02  0.82669538331E+02 -0.72126409034E+02  0.11435254976E+03  0.41800000000E+01 0. -1.
</event>
<event>
11    1  0.8328696E-009  0.1499564E+03  0.7561462E-02  0.1096923E+00
         22   -1    0    0    0    0  0.00000000000E+00  0.00000000000E+00  0.21575370602E+03  0.21575370602E+03  0.00000000000E+00 0. -1.
         22   -1    0    0    0    0 -0.00000000000E+00 -0.00000000000E+00 -0.11527975150E+04  0.11527975150E+04  0.00000000000E+00 0. -1.
         24    2    1    2    0    0 -0.39818887235E+02 -0.77128038868E+02 -0.99610811024E+03  0.10031703188E+04  0.81148278859E+02 0.  0.
         25    2    1    2    0    0 -0.21494377055E+01  0.51446400842E+02 -0.10884471551E+03  0.17362530217E+03  0.12508885329E+03 0.  0.
        -24    2    1    2    0    0  0.41968324940E+02  0.25681638026E+02  0.16790901680E+03  0.19175559998E+03  0.78459450483E+02 0.  0.
        -13    1    3    3    0    0  0.76424195211E+01  0.10735967937E+02 -0.46674105493E+02  0.48498862948E+02  0.00000000000E+00 0.  1.
         14    1    3    3    0    0 -0.47461306756E+02 -0.87864006805E+02 -0.94943400475E+03  0.95467145590E+03  0.00000000000E+00 0. -1.
         11    1    5    5    0    0 -0.27304968191E+01  0.43045491181E+02  0.96965356383E+02  0.10612563433E+03  0.00000000000E+00 0. -1.
        -12    1    5    5    0    0  0.44698821759E+02 -0.17363853156E+02  0.70943660419E+02  0.85629965647E+02  0.00000000000E+00 0.  1.
          5    1    4    4  501    0 -0.34290368268E+02 -0.30795659533E+02 -0.45284581201E+02  0.64748495709E+02  0.41800000000E+01 0.  1.
         -5    1    4    4    0  501  0.32140930563E+02  0.82242060375E+02 -0.63560134307E+02  0.10887680646E+03  0.41800000000E+01 0.  1.
</event>
<event>
11    1  0.8328696E-009  0.1657263E+03  0.7561462E-02  0.1081812E+00
         22   -1    0    0    0    0  0.00000000000E+00  0.00000000000E+00  0.58604687800E+02  0.58604687800E+02  0.00000000000E+00 0. -1.
         22   -1    0    0    0    0 -0.00000000000E+00 -0.00000000000E+00 -0.16974267814E+04  0.16974267814E+04  0.00000000000E+00 0. -1.
         24    2    1    2    0    0 -0.23805419773E+02 -0.92264931187E+02 -0.97605697122E+03  0.98409244966E+03  0.81677554316E+02 0.  0.
         25    2    1    2    0    0  0.79646443241E+02  0.15288520387E+03 -0.60826062615E+03  0.64447333081E+03  0.12508974105E+03 0.  0.
        -24    2    1    2    0    0 -0.55841023469E+02 -0.60620272682E+02 -0.54504496259E+02  0.12746568876E+03  0.80521576833E+02 0.  0.
        -13    1    3    3    0    0 -0.25094844543E+02  0.32776541795E+01 -0.11510347334E+03  0.11785289057E+03  0.00000000000E+00 0.  1.
         14    1    3    3    0    0  0.12894247706E+01 -0.95542585366E+02 -0.86095349788E+03  0.86623955909E+03  0.00000000000E+00 0. -1.
         11    1    5    5    0    0 -0.26638788706E+02 -0.49147729767E+02  0.90102001297E+01  0.56624271398E+02  0.00000000000E+00 0. -1.
        -12    1    5    5    0    0 -0.29202234763E+02 -0.11472542915E+02 -0.63514696388E+02  0.70841417359E+02  0.00000000000E+00 0.  1.
          5    1    4    4  501    0 -0.29054791680E+02  0.38900517070E+02 -0.22251977394E+03  0.22779366397E+03  0.41800000000E+01 0.  1.
         -5    1    4    4    0  501  0.10870123492E+03  0.11398468680E+03 -0.38574085221E+03  0.41667966684E+03  0.41800000000E+01 0.  1.
</event>
<event>
11    1  0.8328696E-009  0.1558770E+03  0.7561462E-02  0.1091020E+00
         22   -1    0    0    0    0  0.00000000000E+00  0.00000000000E+00  0.15133871279E+04  0.15133871279E+04  0.00000000000E+00 0. -1.
         22   -1    0    0    0    0 -0.00000000000E+00 -0.00000000000E+00 -0.57945534859E+02  0.57945534859E+02  0.00000000000E+00 0.  1.
        -24    2    1    2    0    0  0.44340137314E+02 -0.80461720971E+02  0.61059575371E+02  0.13632492107E+03  0.80100412248E+02 0.  0.
         25    2    1    2    0    0 -0.55433689574E+02  0.80031057079E+02  0.31656278714E+03  0.35402405958E+03  0.12507266897E+03 0.  0.
         24    2    1    2    0    0  0.11093552260E+02  0.43066389201E+00  0.10778192306E+04  0.10809836821E+04  0.81903448698E+02 0.  0.
        -13    1    5    5    0    0  0.88572519721E+01  0.39209915850E+02  0.38936327312E+03  0.39143278716E+03  0.00000000000E+00 0.  1.
         14    1    5    5    0    0  0.22363002881E+01 -0.38779251958E+02  0.68845595745E+03  0.68955089498E+03  0.00000000000E+00 0. -1.
         13    1    3    3    0    0 -0.49093638516E+01  0.13875310357E+01  0.37623889024E+02  0.37968198813E+02  0.00000000000E+00 0. -1.
        -14    1    3    3    0    0  0.49249501165E+02 -0.81849252006E+02  0.23435686347E+02  0.98356722259E+02  0.00000000000E+00 0.  1.
          5    1    4    4  501    0 -0.37528454821E+02  0.93232535436E-01  0.23617610367E+03  0.23917570520E+03  0.41800000000E+01 0.  1.
         -5    1    4    4    0  501 -0.17905234753E+02  0.79937824543E+02  0.80386683470E+02  0.11484835438E+03  0.41800000000E+01 0.  1.
</event>
<event>
11    1  0.8328696E-009  0.1667042E+03  0.7561462E-02  0.1080936E+00
         22   -1    0    0    0    0  0.00000000000E+00  0.00000000000E+00  0.32757173903E+03  0.32757173903E+03  0.00000000000E+00 0. -1.
         22   -1    0    0    0    0 -0.00000000000E+00 -0.00000000000E+00 -0.23875651461E+03  0.23875651461E+03  0.00000000000E+00 0. -1.
        -24    2    1    2    0    0  0.58970058270E+02  0.33610967238E+02 -0.12953945689E+03  0.17087112608E+03  0.88370277489E+02 0.  0.
         25    2    1    2    0    0 -0.14637358072E+03 -0.59891737054E+02  0.97160333049E+02  0.22383156417E+03  0.12509273961E+03 0.  0.
         24    2    1    2    0    0  0.87403522447E+02  0.26280769816E+02  0.12119434827E+03  0.17162556340E+03  0.80232221463E+02 0.  0.
        -11    1    5    5    0    0  0.26679812189E+02 -0.13022931238E+02  0.86400127918E+02  0.91358585917E+02  0.00000000000E+00 0.  1.
         12    1    5    5    0    0  0.60723710257E+02  0.39303701054E+02  0.34794220349E+02  0.80266977479E+02  0.00000000000E+00 0. -1.
         13    1    3    3    0    0  0.33680689005E+02  0.68742568365E+01 -0.12958710323E+03  0.13406886866E+03  0.00000000000E+00 0. -1.
        -14    1    3    3    0    0  0.25289369265E+02  0.26736710402E+02  0.47646340343E-01  0.36802257419E+02  0.00000000000E+00 0.  1.
          5    1    4    4  501    0 -0.77350846718E+02 -0.37141245502E+02 -0.17827926584E+02  0.87737865097E+02  0.41800000000E+01 0. -1.
         -5    1    4    4    0  501 -0.69022733999E+02 -0.22750491552E+02  0.11498825963E+03  0.13609369907E+03  0.41800000000E+01 0. -1.
</event>
<event>
11    1  0.8328696E-009  0.4319954E+03  0.7561462E-02  0.9559802E-01
         22   -1    0    0    0    0  0.00000000000E+00  0.00000000000E+00  0.27277190042E+03  0.27277190042E+03  0.00000000000E+00 0.  1.
         22   -1    0    0    0    0 -0.00000000000E+00 -0.00000000000E+00 -0.21009043411E+04  0.21009043411E+04  0.00000000000E+00 0. -1.
         24    2    1    2    0    0 -0.29036178314E+02  0.14531782486E+03 -0.12921032595E+04  0.13047852801E+04  0.10475411205E+03 0.  0.
         25    2    1    2    0    0  0.12134871206E+03  0.30156588749E+03 -0.49284183302E+03  0.60349617089E+03  0.12508821479E+03 0.  0.
        -24    2    1    2    0    0 -0.92312533745E+02 -0.44688371235E+03 -0.43187348125E+02  0.46539479054E+03  0.80625726487E+02 0.  0.
        -13    1    3    3    0    0 -0.17496436421E+02  0.39632874684E+02 -0.80732348018E+03  0.80848505966E+03  0.00000000000E+00 0.  1.
         14    1    3    3    0    0 -0.11539741893E+02  0.10568495018E+03 -0.48477977932E+03  0.49630022040E+03  0.00000000000E+00 0. -1.
         11    1    5    5    0    0 -0.73394256246E+02 -0.31046643316E+03 -0.66044060271E+02  0.32578818405E+03  0.00000000000E+00 0. -1.
        -12    1    5    5    0    0 -0.18918277499E+02 -0.13641727919E+03  0.22856712146E+02  0.13960660649E+03  0.00000000000E+00 0.  1.
          5    1    4    4  501    0  0.46437633701E+02  0.25043985706E+03 -0.39499233965E+03  0.47001382598E+03  0.41800000000E+01 0. -1.
         -5    1    4    4    0  501  0.74911078358E+02  0.51126030435E+02 -0.97849493367E+02  0.13348234490E+03  0.41800000000E+01 0. -1.
</event>
<event>
11    1  0.8328696E-009  0.1560013E+03  0.7561462E-02  0.1090900E+00
         22   -1    0    0    0    0  0.00000000000E+00  0.00000000000E+00  0.23605868227E+04  0.23605868227E+04  0.00000000000E+00 0.  1.
         22   -1    0    0    0    0 -0.00000000000E+00 -0.00000000000E+00 -0.72355910139E+02  0.72355910139E+02  0.00000000000E+00 0. -1.
        -24    2    1    2    0    0 -0.83615075406E+02  0.39194265300E+02 -0.47425105124E+01  0.12125349722E+03  0.78436266570E+02 0.  0.
         25    2    1    2    0    0  0.85083315148E+02 -0.66887624242E+02  0.82630451870E+03  0.84269809356E+03  0.12509114465E+03 0.  0.
         24    2    1    2    0    0 -0.14682397421E+01  0.27693358942E+02  0.14666689044E+04  0.14689911421E+04  0.77770319227E+02 0.  0.
        -13    1    5    5    0    0  0.18716171599E+02 -0.11957477728E+01  0.11820392548E+04  0.11821880243E+04  0.00000000000E+00 0.  1.
         14    1    5    5    0    0 -0.20184411341E+02  0.28889106715E+02  0.28462964959E+03  0.28680311779E+03  0.00000000000E+00 0. -1.
         11    1    3    3    0    0 -0.25174717761E+02  0.75480692465E+01 -0.38576124163E+02  0.46678229606E+02  0.00000000000E+00 0. -1.
        -12    1    3    3    0    0 -0.58440357645E+02  0.31646196054E+02  0.33833613651E+02  0.74575267609E+02  0.00000000000E+00 0.  1.
          5    1    4    4  501    0 -0.24836694348E+02 -0.20376393376E+02  0.71412816014E+02  0.78417609529E+02  0.41800000000E+01 0. -1.
         -5    1    4    4    0  501  0.10992000950E+03 -0.46511230866E+02  0.75489170269E+03  0.76428048403E+03  0.41800000000E+01 0. -1.
</event>
<event>
11    1  0.8328696E-009  0.1374306E+03  0.7561462E-02  0.1110462E+00
         22   -1    0    0    0    0  0.00000000000E+00  0.00000000000E+00  0.19342170365E+03  0.19342170365E+03  0.00000000000E+00 0. -1.
         22   -1    0    0    0    0 -0.00000000000E+00 -0.00000000000E+00 -0.16861162615E+04  0.16861162615E+04  0.00000000000E+00 0.  1.
         24    2    1    2    0    0  0.46909752895E+02 -0.28150920816E+02 -0.14638577723E+04  0.14670760423E+04  0.80246726495E+02 0.  0.
         25    2    1    2    0    0 -0.10232421339E+03  0.26579959205E+02 -0.17330459419E+03  0.23844913769E+03  0.12508704977E+03 0.  0.
        -24    2    1    2    0    0  0.55414460496E+02  0.15709616109E+01  0.14446780857E+03  0.17401278522E+03  0.79600699469E+02 0.  0.
        -13    1    3    3    0    0  0.11594988419E+02 -0.14202203642E+02 -0.12314931527E+04  0.12316296243E+04  0.00000000000E+00 0.  1.
         14    1    3    3    0    0  0.35314764475E+02 -0.13948717175E+02 -0.23236461961E+03  0.23544641800E+03  0.00000000000E+00 0. -1.
         11    1    5    5    0    0  0.51799318202E+02 -0.25595624791E+02  0.52567477315E+02  0.78113027376E+02  0.00000000000E+00 0. -1.
        -12    1    5    5    0    0  0.36151422941E+01  0.27166586402E+02  0.91900331255E+02  0.95899757848E+02  0.00000000000E+00 0.  1.
          5    1    4    4  501    0  0.18502429103E+02  0.37283665410E+02 -0.53445483173E+02  0.67869755124E+02  0.41800000000E+01 0.  1.
         -5    1    4    4    0  501 -0.12082664249E+03 -0.10703706204E+02 -0.11985911102E+03  0.17057938257E+03  0.41800000000E+01 0.  1.
</event>
<event>
11    1  0.8328696E-009  0.1476255E+03  0.7561462E-02  0.1099330E+00
         22   -1    0    0    0    0  0.00000000000E+00  0.00000000000E+00  0.12441532810E+04  0.12441532810E+04  0.00000000000E+00 0. -1.
         22   -1    0    0    0    0 -0.00000000000E+00 -0.00000000000E+00 -0.58137350070E+03  0.58137350070E+03  0.00000000000E+00 0. -1.
        -24    2    1    2    0    0  0.63024087368E+02  0.49884600578E+02 -0.54308352484E+03  0.55506487936E+03  0.81833956173E+02 0.  0.
         25    2    1    2    0    0 -0.25601340266E+02 -0.20438571755E+02  0.10765332784E+03  0.16825524725E+03  0.12508966941E+03 0.  0.
         24    2    1    2    0    0 -0.37422747102E+02 -0.29446028824E+02  0.10982099773E+04  0.11022066551E+04  0.80788772037E+02 0.  0.
        -13    1    5    5    0    0  0.11262141002E+02 -0.22455893112E+01  0.24591594615E+02  0.27140836705E+02  0.00000000000E+00 0.  1.
         14    1    5    5    0    0 -0.48684888105E+02 -0.27200439512E+02  0.10736183826E+04  0.10750658184E+04  0.00000000000E+00 0. -1.
         13    1    3    3    0    0  0.77948835677E+02  0.48729823334E+02 -0.51595568441E+03  0.52408099082E+03  0.00000000000E+00 0. -1.
        -14    1    3    3    0    0 -0.14924748309E+02  0.11547772438E+01 -0.27127840433E+02  0.30983888541E+02  0.00000000000E+00 0.  1.
          5    1    4    4  501    0 -0.48017214085E+02  0.41013405281E+02  0.45685107873E+02  0.78053531263E+02  0.41800000000E+01 0. -1.
         -5    1    4    4    0  501  0.22415873819E+02 -0.61451977036E+02  0.61968219969E+02  0.90201715986E+02  0.41800000000E+01 0. -1.
</event>
<event>
11    1  0.8328696E-009  0.2326559E+03  0.7561462E-02  0.1033567E+00
         22   -1    0    0    0    0  0.00000000000E+00  0.00000000000E+00  0.59033159617E+03  0.59033159617E+03  0.00000000000E+00 0. -1.
         22   -1    0    0    0    0 -0.00000000000E+00 -0.00000000000E+00 -0.40736276595E+03  0.40736276595E+03  0.00000000000E+00 0. -1.
         24    2    1    2    0    0 -0.20490144306E+03  0.59024030980E+02 -0.28108498037E+03  0.36133014376E+03  0.77988903055E+02 0.  0.
         25    2    1    2    0    0  0.95526360587E+02 -0.13136460718E+03  0.75583771212E+02  0.21850129584E+03  0.12509182319E+03 0.  0.
        -24    2    1    2    0    0  0.10937508248E+03  0.72340576199E+02  0.38847003937E+03  0.41786292251E+03  0.80649754431E+02 0.  0.
        -13    1    3    3    0    0 -0.15822152122E+02 -0.16201879102E+02 -0.38801711582E+02  0.44926764917E+02  0.00000000000E+00 0.  1.
         14    1    3    3    0    0 -0.18907929094E+03  0.75225910082E+02 -0.24228326879E+03  0.31640337885E+03  0.00000000000E+00 0. -1.
         11    1    5    5    0    0  0.82021921310E+02  0.89648083714E+02  0.30144397370E+03  0.32501206711E+03  0.00000000000E+00 0. -1.
        -12    1    5    5    0    0  0.27353161166E+02 -0.17307507515E+02  0.87026065668E+02  0.92850855397E+02  0.00000000000E+00 0.  1.
          5    1    4    4  501    0  0.42295248698E+02 -0.92447132114E+02 -0.18617770374E+02  0.10343816545E+03  0.41800000000E+01 0. -1.
         -5    1    4    4    0  501  0.53231111889E+02 -0.38917475064E+02  0.94201541586E+02  0.11506313039E+03  0.41800000000E+01 0. -1.
</event>
<event>
11    1  0.8328696E-009  0.1771946E+03  0.7561462E-02  0.1071935E+00
         22   -1    0    0    0    0  0.00000000000E+00  0.00000000000E+00  0.35091530606E+03  0.35091530606E+03  0.00000000000E+00 0.  1.
         22   -1    0    0    0    0 -0.00000000000E+00 -0.00000000000E+00 -0.49446495490E+03  0.49446495490E+03  0.00000000000E+00 0. -1.
        -24    2    1    2    0    0 -0.80523601337E+02 -0.95094092922E+02 -0.40212839639E+03  0.42982672595E+03  0.86699655572E+02 0.  0.
         25    2    1    2    0    0  0.43147321134E+02  0.13810146615E+03  0.71249055158E+02  0.20409936877E+03  0.12508564345E+03 0.  0.
         24    2    1    2    0    0  0.37376280203E+02 -0.43007373232E+02  0.18732969240E+03  0.21145416624E+03  0.79836271801E+02 0.  0.
        -11    1    5    5    0    0  0.20770076653E+02 -0.65997610311E+02  0.14246503897E+03  0.15837729629E+03  0.00000000000E+00 0.  1.
         12    1    5    5    0    0  0.16606203550E+02  0.22990237080E+02  0.44864653424E+02  0.53076869954E+02  0.00000000000E+00 0. -1.
         11    1    3    3    0    0 -0.63873390652E+02 -0.27762266488E+02 -0.28777318680E+03  0.29608100330E+03  0.00000000000E+00 0. -1.
        -12    1    3    3    0    0 -0.16650210685E+02 -0.67331826434E+02 -0.11435520959E+03  0.13374572265E+03  0.00000000000E+00 0.  1.
          5    1    4    4  501    0  0.62734715483E+02  0.15048435754E+03  0.76236630586E+02  0.18002967153E+03  0.41800000000E+01 0.  1.
         -5    1    4    4    0  501 -0.19587394349E+02 -0.12382891383E+02 -0.49875754283E+01  0.24069697236E+02  0.41800000000E+01 0.  1.
</event>
<event>
11    1  0.8328696E-009  0.1401179E+03  0.7561462E-02  0.1107427E+00
         22   -1    0    0    0    0  0.00000000000E+00  0.00000000000E+00  0.11774452747E+04  0.11774452747E+04  0.00000000000E+00 0.  1.
         22   -1    0    0    0    0 -0.00000000000E+00 -0.00000000000E+00 -0.26380084301E+03  0.26380084301E+03  0.00000000000E+00 0. -1.
        -24    2    1    2    0    0 -0.14970929522E+02  0.65588400585E+02 -0.20934914028E+03  0.23524022980E+03  0.83575930481E+02 0.  0.
         25    2    1    2    0    0  0.44771682476E+02 -0.15962987252E+02  0.74354038609E+02  0.15308180393E+03  0.12508475176E+03 0.  0.
         24    2    1    2    0    0 -0.29800752954E+02 -0.49625413333E+02  0.10486395333E+04  0.10529240839E+04  0.75189688031E+02 0.  0.
        -11    1    5    5    0    0 -0.10517024551E+02 -0.22738096232E+02  0.91169124907E+03  0.91203539540E+03  0.00000000000E+00 0.  1.
         12    1    5    5    0    0 -0.19283728403E+02 -0.26887317101E+02  0.13694828425E+03  0.14088868854E+03  0.00000000000E+00 0. -1.
         11    1    3    3    0    0  0.28337794944E+02  0.54383658323E+02 -0.13822205689E+03  0.15121491304E+03  0.00000000000E+00 0. -1.
        -12    1    3    3    0    0 -0.43308724467E+02  0.11204742262E+02 -0.71127083392E+02  0.84025316756E+02  0.00000000000E+00 0.  1.
          5    1    4    4  501    0  0.57547620187E+02 -0.15737503219E+02 -0.15857872999E+02  0.61873598027E+02  0.41800000000E+01 0.  1.
         -5    1    4    4    0  501 -0.12775937711E+02 -0.22548403332E+00  0.90211911608E+02  0.91208205900E+02  0.41800000000E+01 0.  1.
</event>
<event>
11    1  0.8328696E-009  0.1412901E+03  0.7561462E-02  0.1106126E+00
         22   -1    0    0    0    0  0.00000000000E+00  0.00000000000E+00  0.81315540203E+03  0.81315540203E+03  0.00000000000E+00 0.  1.
         22   -1    0    0    0    0 -0.00000000000E+00 -0.00000000000E+00 -0.18680113701E+03  0.18680113701E+03  0.00000000000E+00 0.  1.
         24    2    1    2    0    0 -0.30916193276E+02 -0.51452368265E+02 -0.11520394115E+03  0.15364676617E+03  0.82050127914E+02 0.  0.
         25    2    1    2    0    0  0.48929553085E+02  0.94404393831E+02  0.88070165666E+02  0.18630503195E+03  0.12508764971E+03 0.  0.
        -24    2    1    2    0    0 -0.18013359809E+02 -0.42952025565E+02  0.65348804051E+03  0.66000474092E+03  0.79939235097E+02 0.  0.
        -13    1    3    3    0    0 -0.28287260641E+02 -0.43600505729E+02 -0.12814494958E+03  0.13828340941E+03  0.00000000000E+00 0.  1.
         14    1    3    3    0    0 -0.26289326350E+01 -0.78518625360E+01  0.12941008424E+02  0.15363356766E+02  0.00000000000E+00 0. -1.
         13    1    5    5    0    0 -0.42070125822E+02 -0.34501675029E+02  0.25692158612E+03  0.26261942518E+03  0.00000000000E+00 0. -1.
        -14    1    5    5    0    0  0.24056766013E+02 -0.84503505361E+01  0.39656645439E+03  0.39738531574E+03  0.00000000000E+00 0.  1.
          5    1    4    4  501    0  0.45087601016E+01 -0.11090426779E+02  0.69037819178E+02  0.70192730112E+02  0.41800000000E+01 0.  1.
         -5    1    4    4    0  501  0.44420792983E+02  0.10549482061E+03  0.19032346489E+02  0.11611230184E+03  0.41800000000E+01 0.  1.
</event>
<event>
11    1  0.8328696E-009  0.1510797E+03  0.7561462E-02  0.1095781E+00
         22   -1    0    0    0    0  0.00000000000E+00  0.00000000000E+00  0.27046298621E+03  0.27046298621E+03  0.00000000000E+00 0. -1.
         22   -1    0    0    0    0 -0.00000000000E+00 -0.00000000000E+00 -0.57071243365E+03  0.57071243365E+03  0.00000000000E+00 0.  1.
        -24    2    1    2    0    0  0.21963918531E+02 -0.81057157080E+02 -0.46015841143E+03  0.47641816658E+03  0.90420293084E+02 0.  0.
         25    2    1    2    0    0 -0.36016319248E+02  0.83858078409E+02 -0.31153896565E+02  0.15794903676E+03  0.12509188773E+03 0.  0.
         24    2    1    2    0    0  0.14052400717E+02 -0.28009213282E+01  0.19106286056E+03  0.20680821652E+03  0.77841548085E+02 0.  0.
        -11    1    5    5    0    0  0.10035403413E+02  0.36441350862E+02  0.71048445920E+02  0.80477096381E+02  0.00000000000E+00 0.  1.
         12    1    5    5    0    0  0.40169973041E+01 -0.39242272190E+02  0.12001441464E+03  0.12633112014E+03  0.00000000000E+00 0. -1.
         13    1    3    3    0    0 -0.30700392065E+02 -0.52782111354E+02 -0.28076876460E+03  0.28733180215E+03  0.00000000000E+00 0. -1.
        -14    1    3    3    0    0  0.52664310597E+02 -0.28275045726E+02 -0.17938964683E+03  0.18908636443E+03  0.00000000000E+00 0.  1.
          5    1    4    4  501    0 -0.28460565371E+02 -0.29472516952E+02 -0.78319845545E+01  0.41921896650E+02  0.41800000000E+01 0.  1.
         -5    1    4    4    0  501 -0.75557538777E+01  0.11333059536E+03 -0.23321912010E+02  0.11602714011E+03  0.41800000000E+01 0.  1.
</event>
<event>
11    1  0.8328696E-009  0.1502654E+03  0.7561462E-02  0.1096608E+00
         22   -1    0    0    0    0  0.00000000000E+00  0.00000000000E+00  0.47895909876E+03  0.47895909876E+03  0.00000000000E+00 0. -1.
         22   -1    0    0    0    0 -0.00000000000E+00 -0.00000000000E+00 -0.16449389622E+04  0.16449389622E+04  0.00000000000E+00 0.  1.
         24    2    1    2    0    0  0.54886096939E+01  0.11011684897E+02 -0.12015047555E+04  0.12042373141E+04  0.80140184097E+02 0.  0.
         25    2    1    2    0    0 -0.87717342951E+02 -0.23330961137E+02 -0.42121660261E+03  0.44867528044E+03  0.12508962769E+03 0.  0.
        -24    2    1    2    0    0  0.82228733257E+02  0.12319276239E+02  0.45674149472E+03  0.47098546638E+03  0.79380018891E+02 0.  0.
        -11    1    3    3    0    0  0.21514532443E+01 -0.30630085777E+02 -0.79475102013E+03  0.79534396013E+03  0.00000000000E+00 0.  1.
         12    1    3    3    0    0  0.33371564495E+01  0.41641770674E+02 -0.40675373541E+03  0.40889335401E+03  0.00000000000E+00 0. -1.
         11    1    5    5    0    0  0.79605170737E+01 -0.22915365641E+02  0.19848893417E+03  0.19996584909E+03  0.00000000000E+00 0. -1.
        -12    1    5    5    0    0  0.74268216183E+02  0.35234641881E+02  0.25825256056E+03  0.27101961729E+03  0.00000000000E+00 0.  1.
          5    1    4    4  501    0 -0.71370700120E+02  0.26847907699E+02 -0.35877283378E+03  0.36681058551E+03  0.41800000000E+01 0.  1.
         -5    1    4    4    0  501 -0.16346642831E+02 -0.50178868836E+02 -0.62443768832E+02  0.81864694927E+02  0.41800000000E+01 0.  1.
</event>
<event>
11    1  0.8328696E-009  0.1627264E+03  0.7561462E-02  0.1084541E+00
         22   -1    0    0    0    0  0.00000000000E+00  0.00000000000E+00  0.36208227225E+03  0.36208227225E+03  0.00000000000E+00 0.  1.
         22   -1    0    0    0    0 -0.00000000000E+00 -0.00000000000E+00 -0.11778097633E+03  0.11778097633E+03  0.00000000000E+00 0. -1.
        -24    2    1    2    0    0 -0.80532961087E+02 -0.73678671900E+02  0.23895776852E+02  0.13753563405E+03  0.80193129188E+02 0.  0.
         25    2    1    2    0    0  0.10087861476E+03  0.23045923600E+02  0.11333502412E+03  0.19798934081E+03  0.12508933556E+03 0.  0.
         24    2    1    2    0    0 -0.20345653678E+02  0.50632748300E+02  0.10707049494E+03  0.14433827371E+03  0.79948893351E+02 0.  0.
        -13    1    5    5    0    0 -0.11513752328E+02  0.73044665930E+01  0.98320666765E+02  0.99261650389E+02  0.00000000000E+00 0.  1.
         14    1    5    5    0    0 -0.88319013498E+01  0.43328281707E+02  0.87498281723E+01  0.45076623323E+02  0.00000000000E+00 0. -1.
         11    1    3    3    0    0 -0.10897414015E+02 -0.13609699294E+02 -0.27216646381E+02  0.32322181042E+02  0.00000000000E+00 0. -1.
        -12    1    3    3    0    0 -0.69635547071E+02 -0.60068972607E+02  0.51112423233E+02  0.10521345301E+03  0.00000000000E+00 0.  1.
          5    1    4    4  501    0  0.53168791683E+02  0.18131737161E+02 -0.17168196427E+02  0.58888875606E+02  0.41800000000E+01 0. -1.
         -5    1    4    4    0  501  0.47709823081E+02  0.49141864384E+01  0.13050322055E+03  0.13910046521E+03  0.41800000000E+01 0. -1.
</event>
<event>
11    1  0.8328696E-009  0.1428102E+03  0.7561462E-02  0.1104460E+00
         22   -1    0    0    0    0  0.00000000000E+00  0.00000000000E+00  0.20007726243E+03  0.20007726243E+03  0.00000000000E+00 0.  1.
         22   -1    0    0    0    0 -0.00000000000E+00 -0.00000000000E+00 -0.17482229186E+03  0.17482229186E+03  0.00000000000E+00 0. -1.
         24    2    1    2    0    0 -0.18511632397E+02  0.31867057348E+02 -0.13890740400E+02  0.89205554119E+02  0.80040541845E+02 0.  0.
         25    2    1    2    0    0 -0.32903371552E+02 -0.75042098765E+02 -0.39638717052E+02  0.15469908951E+03  0.12508649791E+03 0.  0.
        -24    2    1    2    0    0  0.51415003949E+02  0.43175041418E+02  0.78784428027E+02  0.13099491065E+03  0.80281340825E+02 0.  0.
        -11    1    3    3    0    0  0.30626609048E+01  0.26546904191E+02  0.29898929308E+02  0.40100673157E+02  0.00000000000E+00 0.  1.
         12    1    3    3    0    0 -0.21574293302E+02  0.53201531569E+01 -0.43789669708E+02  0.49104880962E+02  0.00000000000E+00 0. -1.
         13    1    5    5    0    0  0.74145986137E+01  0.53814582729E+01 -0.16830187853E+02  0.19162243838E+02  0.00000000000E+00 0. -1.
        -14    1    5    5    0    0  0.44000405335E+02  0.37793583145E+02  0.95614615881E+02  0.11183266681E+03  0.00000000000E+00 0.  1.
          5    1    4    4  501    0  0.40747730199E+02 -0.45319403729E+02  0.85862542046E+01  0.61688102840E+02  0.41800000000E+01 0.  1.
         -5    1    4    4    0  501 -0.73651101751E+02 -0.29722695036E+02 -0.48224971257E+02  0.93010986674E+02  0.41800000000E+01 0.  1.
</event>
<event>
11    1  0.8328696E-009  0.2616579E+03  0.7561462E-02  0.1017866E+00
         22   -1    0    0    0    0  0.00000000000E+00  0.00000000000E+00  0.57387114411E+03  0.57387114411E+03  0.00000000000E+00 0. -1.
         22   -1    0    0    0    0 -0.00000000000E+00 -0.00000000000E+00 -0.59053964446E+03  0.59053964446E+03  0.00000000000E+00 0. -1.
         24    2    1    2    0    0  0.18714626604E+03 -0.96255939962E+02 -0.35485884476E+03  0.42059541052E+03  0.81772665216E+02 0.  0.
         25    2    1    2    0    0 -0.31091140396E+03  0.25659715262E+03  0.12279082042E+03  0.43958323717E+03  0.12509131455E+03 0.  0.
        -24    2    1    2    0    0  0.12376513793E+03 -0.16034121266E+03  0.21539952400E+03  0.30423214088E+03  0.71645842606E+02 0.  0.
        -13    1    3    3    0    0  0.16943256350E+03 -0.60095838017E+02 -0.24723812894E+03  0.30568872358E+03  0.00000000000E+00 0.  1.
         14    1    3    3    0    0  0.17713702537E+02 -0.36160101945E+02 -0.10762071583E+03  0.11490668695E+03  0.00000000000E+00 0. -1.
         11    1    5    5    0    0  0.12196490522E+03 -0.11549785447E+03  0.15187600388E+03  0.22645421844E+03  0.00000000000E+00 0. -1.
        -12    1    5    5    0    0  0.18002327026E+01 -0.44843358184E+02  0.63523520114E+02  0.77777922437E+02  0.00000000000E+00 0.  1.
          5    1    4    4  501    0 -0.19027255018E+03  0.22060283912E+03  0.11549069652E+03  0.31340840666E+03  0.41800000000E+01 0.  1.
         -5    1    4    4    0  501 -0.12063885378E+03  0.35994313493E+02  0.73001239071E+01  0.12617483051E+03  0.41800000000E+01 0.  1.
</event>
<event>
11    1  0.8328696E-009  0.1370497E+03  0.7561462E-02  0.1110898E+00
         22   -1    0    0    0    0  0.00000000000E+00  0.00000000000E+00  0.42224962180E+03  0.42224962180E+03  0.00000000000E+00 0. -1.
         22   -1    0    0    0    0 -0.00000000000E+00 -0.00000000000E+00 -0.38030087921E+03  0.38030087921E+03  0.00000000000E+00 0.  1.
         24    2    1    2    0    0  0.43818989489E+02  0.36603472755E+02 -0.33288807716E+03  0.34760790207E+03  0.82200143610E+02 0.  0.
         25    2    1    2    0    0 -0.37627582207E+02 -0.12467931167E+02  0.93030639059E+02  0.16085209222E+03  0.12508961395E+03 0.  0.
        -24    2    1    2    0    0 -0.61914072813E+01 -0.24135541587E+02  0.28180618070E+03  0.29409050671E+03  0.80334580155E+02 0.  0.
        -11    1    3    3    0    0  0.36340270023E+02 -0.59112257153E+01 -0.26226582826E+03  0.26483753980E+03  0.00000000000E+00 0.  1.
         12    1    3    3    0    0  0.74787194661E+01  0.42514698470E+02 -0.70622248908E+02  0.82770362278E+02  0.00000000000E+00 0. -1.
         11    1    5    5    0    0  0.75141690177E+01 -0.48244310531E+02  0.23201791075E+03  0.23709974092E+03  0.00000000000E+00 0. -1.
        -12    1    5    5    0    0 -0.13705576299E+02  0.24108768944E+02  0.49788269942E+02  0.56990765791E+02  0.00000000000E+00 0.  1.
          5    1    4    4  501    0 -0.57225228655E+01  0.25805667253E+02 -0.22501258469E+02  0.34963677767E+02  0.41800000000E+01 0. -1.
         -5    1    4    4    0  501 -0.31905059342E+02 -0.38273598420E+02  0.11553189753E+03  0.12588841445E+03  0.41800000000E+01 0. -1.
</event>
<event>
11    1  0.8328696E-009  0.1367905E+03  0.7561462E-02  0.1111196E+00
         22   -1    0    0    0    0  0.00000000000E+00  0.00000000000E+00  0.53715603978E+03  0.53715603978E+03  0.00000000000E+00 0. -1.
         22   -1    0    0    0    0 -0.00000000000E+00 -0.00000000000E+00 -0.26145281054E+03  0.26145281054E+03  0.00000000000E+00 0. -1.
         24    2    1    2    0    0 -0.79593749077E+01  0.25939550997E+02 -0.17298607963E+03  0.19227012297E+03  0.79419169526E+02 0.  0.
         25    2    1    2    0    0 -0.47904359166E+02 -0.25733758104E+02 -0.10611890774E+02  0.13680576788E+03  0.12508457925E+03 0.  0.
        -24    2    1    2    0    0  0.55863734074E+02 -0.20579289325E+00  0.45930119964E+03  0.46953295946E+03  0.79892483335E+02 0.  0.
        -11    1    3    3    0    0  0.15040035154E+02  0.36543922806E+01  0.85749955094E+00  0.15501372387E+02  0.00000000000E+00 0.  1.
         12    1    3    3    0    0 -0.22999410062E+02  0.22285158716E+02 -0.17384357918E+03  0.17676875058E+03  0.00000000000E+00 0. -1.
         11    1    5    5    0    0 -0.13734941758E+02  0.72276042070E+01  0.21056185081E+03  0.21113308576E+03  0.00000000000E+00 0. -1.
        -12    1    5    5    0    0  0.69598675832E+02 -0.74333971003E+01  0.24873934884E+03  0.25839987370E+03  0.00000000000E+00 0.  1.
          5    1    4    4  501    0 -0.14779669551E+01 -0.70771694978E+02 -0.12285115837E+02  0.71966753904E+02  0.41800000000E+01 0.  1.
         -5    1    4    4    0  501 -0.46426392211E+02  0.45037936874E+02  0.16732250634E+01  0.64839013978E+02  0.41800000000E+01 0.  1.
</event>
<event>
11    1  0.8328696E-009  0.1402712E+03  0.7561462E-02  0.1107256E+00
         22   -1    0    0    0    0  0.00000000000E+00  0.00000000000E+00  0.15085531955E+03  0.15085531955E+03  0.00000000000E+00 0. -1.
         22   -1    0    0    0    0 -0.00000000000E+00 -0.00000000000E+00 -0.55096474124E+03  0.55096474124E+03  0.00000000000E+00 0.  1.
         24    2    1    2    0    0  0.64668376515E+02  0.12055185261E+02 -0.42747504292E+03  0.43979311964E+03  0.79722953734E+02 0.  0.
         25    2    1    2    0    0 -0.27660188727E+02 -0.63772071438E+02 -0.27788874448E+02  0.14577838097E+03  0.12508857534E+03 0.  0.
        -24    2    1    2    0    0 -0.37008187788E+02  0.51716886177E+02  0.55154495684E+02  0.11624856017E+03  0.80171485379E+02 0.  0.
        -11    1    3    3    0    0  0.74410506719E+02  0.48443513831E+01 -0.41746812941E+03  0.42407550074E+03  0.00000000000E+00 0.  1.
         12    1    3    3    0    0 -0.97421302040E+01  0.72108338779E+01 -0.10006913512E+02  0.15717618909E+02  0.00000000000E+00 0. -1.
         13    1    5    5    0    0  0.98095836904E+01  0.19775724649E+02  0.55331533651E+02  0.59572525829E+02  0.00000000000E+00 0. -1.
        -14    1    5    5    0    0 -0.46817771478E+02  0.31941161529E+02 -0.17703796642E+00  0.56676034339E+02  0.00000000000E+00 0.  1.
          5    1    4    4  501    0 -0.72607013207E+02 -0.47669317512E+02  0.59594433119E+01  0.87161514233E+02  0.41800000000E+01 0. -1.
         -5    1    4    4    0  501  0.44946824480E+02 -0.16102753927E+02 -0.33748317760E+02  0.58616866741E+02  0.41800000000E+01 0. -1.
</event>
<event>
11    1  0.8328696E-009  0.1767103E+03  0.7561462E-02  0.1072335E+00
         22   -1    0    0    0    0  0.00000000000E+00  0.00000000000E+00  0.14739890827E+04  0.14739890827E+04  0.00000000000E+00 0. -1.
         22   -1    0    0    0    0 -0.00000000000E+00 -0.00000000000E+00 -0.42298086263E+03  0.42298086263E+03  0.00000000000E+00 0.  1.
         24    2    1    2    0    0  0.10030064101E+03  0.71592122947E+02 -0.30751611746E+03  0.34099785275E+03  0.80794321756E+02 0.  0.
         25    2    1    2    0    0 -0.97226266987E+02 -0.92314014426E+02 -0.11037019080E+02  0.18369592014E+03  0.12509017161E+03 0.  0.
        -24    2    1    2    0    0 -0.30743740268E+01  0.20721891479E+02  0.13695613566E+04  0.13722761724E+04  0.83694297312E+02 0.  0.
        -11    1    3    3    0    0  0.10650990005E+03  0.73644643192E+02 -0.30832030744E+03  0.33440888783E+03  0.00000000000E+00 0.  1.
         12    1    3    3    0    0 -0.62092590397E+01 -0.20525202447E+01  0.80418998255E+00  0.65889649191E+01  0.00000000000E+00 0. -1.
         13    1    5    5    0    0  0.11756394930E+02  0.46743360660E+02  0.11000979935E+04  0.11011533725E+04  0.00000000000E+00 0. -1.
        -14    1    5    5    0    0 -0.14830768956E+02 -0.26021469180E+02  0.26946336312E+03  0.27112279991E+03  0.00000000000E+00 0.  1.
          5    1    4    4  501    0 -0.18128200793E+02 -0.85735985995E+02  0.31909514881E+02  0.93354059893E+02  0.41800000000E+01 0. -1.
         -5    1    4    4    0  501 -0.79098066193E+02 -0.65780284313E+01 -0.42946533960E+02  0.90341860246E+02  0.41800000000E+01 0. -1.
</event>
<event>
11    1  0.8328696E-009  0.7976741E+03  0.7561462E-02  0.8899579E-01
         22   -1    0    0    0    0  0.00000000000E+00  0.00000000000E+00  0.67066845416E+03  0.67066845416E+03  0.00000000000E+00 0.  1.
         22   -1    0    0    0    0 -0.00000000000E+00 -0.00000000000E+00 -0.29682555008E+04  0.29682555008E+04  0.00000000000E+00 0. -1.
         24    2    1    2    0    0 -0.25522198455E+03  0.18940031116E+03 -0.16217902028E+03  0.36474967416E+03  0.75693797073E+02 0.  0.
         25    2    1    2    0    0 -0.30725217806E+03 -0.73432847304E+03 -0.23282515330E+04  0.24637461980E+04  0.12509164554E+03 0.  0.
        -24    2    1    2    0    0  0.56247416261E+03  0.54492816188E+03  0.19284350668E+03  0.81042808280E+03  0.79253858611E+02 0.  0.
        -13    1    3    3    0    0 -0.25017467498E+03  0.16018547116E+03 -0.14755911288E+03  0.33169329955E+03  0.00000000000E+00 0.  1.
         14    1    3    3    0    0 -0.50473095718E+01  0.29214839997E+02 -0.14619907398E+02  0.33056374609E+02  0.00000000000E+00 0. -1.
         11    1    5    5    0    0  0.21603278217E+03  0.18067284578E+03  0.36500605484E+02  0.28398086973E+03  0.00000000000E+00 0. -1.
        -12    1    5    5    0    0  0.34644138045E+03  0.36425531610E+03  0.15634290120E+03  0.52644721307E+03  0.00000000000E+00 0.  1.
          5    1    4    4  501    0 -0.83503162177E+02 -0.33919533872E+03 -0.11060960177E+04  0.11599535028E+04  0.41800000000E+01 0.  1.
         -5    1    4    4    0  501 -0.22374901588E+03 -0.39513313432E+03 -0.12221555153E+04  0.13037926952E+04  0.41800000000E+01 0.  1.
</event>
<event>
11    1  0.8328696E-009  0.1360454E+03  0.7561462E-02  0.1112057E+00
         22   -1    0    0    0    0  0.00000000000E+00  0.00000000000E+00  0.81954341195E+02  0.81954341195E+02  0.00000000000E+00 0.  1.
         22   -1    0    0    0    0 -0.00000000000E+00 -0.00000000000E+00 -0.12660255924E+04  0.12660255924E+04  0.00000000000E+00 0.  1.
        -24    2    1    2    0    0 -0.30796546450E+02 -0.61140735375E+01 -0.64232434218E+03  0.64798335257E+03  0.79473614963E+02 0.  0.
         25    2    1    2    0    0  0.82633365103E+02  0.67207660080E+01 -0.57852536796E+03  0.59767406801E+03  0.12509695629E+03 0.  0.
         24    2    1    2    0    0 -0.51836818653E+02 -0.60669247051E+00  0.36778458958E+02  0.10232251300E+03  0.80186144561E+02 0.  0.
        -11    1    5    5    0    0 -0.24353546103E+02 -0.48125814108E+01  0.60740967907E+02  0.65617995473E+02  0.00000000000E+00 0.  1.
         12    1    5    5    0    0 -0.27483272550E+02  0.42058889403E+01 -0.23962508949E+02  0.36704517528E+02  0.00000000000E+00 0. -1.
         13    1    3    3    0    0 -0.10803535243E+02 -0.35270995698E+02 -0.15302204053E+03  0.15740554119E+03  0.00000000000E+00 0. -1.
        -14    1    3    3    0    0 -0.19993011207E+02  0.29156922160E+02 -0.48930230166E+03  0.49057781137E+03  0.00000000000E+00 0.  1.
          5    1    4    4  501    0  0.49604883501E+02  0.28009616532E+02 -0.84049618697E+02  0.10162181798E+03  0.41800000000E+01 0.  1.
         -5    1    4    4    0  501  0.33028481601E+02 -0.21288850524E+02 -0.49447574926E+03  0.49605225003E+03  0.41800000000E+01 0.  1.
</event>
<event>
11    1  0.8328696E-009  0.1424904E+03  0.7561462E-02  0.1104809E+00
         22   -1    0    0    0    0  0.00000000000E+00  0.00000000000E+00  0.61627476294E+03  0.61627476294E+03  0.00000000000E+00 0.  1.
         22   -1    0    0    0    0 -0.00000000000E+00 -0.00000000000E+00 -0.20411719084E+03  0.20411719084E+03  0.00000000000E+00 0. -1.
         24    2    1    2    0    0  0.72253586554E+02  0.10890480408E+02 -0.15711284334E+03  0.19110470067E+03  0.80606313300E+02 0.  0.
         25    2    1    2    0    0 -0.10578492294E+02 -0.35660378636E+02  0.15837983547E+03  0.20522090130E+03  0.12509148229E+03 0.  0.
        -24    2    1    2    0    0 -0.61675094260E+02  0.24769898228E+02  0.41089057996E+03  0.42406635181E+03  0.81140846209E+02 0.  0.
        -11    1    3    3    0    0  0.20110230355E+02 -0.26313602686E+02 -0.99801926855E+02  0.10515346716E+03  0.00000000000E+00 0.  1.
         12    1    3    3    0    0  0.52143356199E+02  0.37204083095E+02 -0.57310916483E+02  0.85951233515E+02  0.00000000000E+00 0. -1.
         11    1    5    5    0    0  0.12852451292E+02  0.13053288879E+02  0.25719511083E+02  0.31576369410E+02  0.00000000000E+00 0. -1.
        -12    1    5    5    0    0 -0.74527545552E+02  0.11716609349E+02  0.38517106888E+03  0.39248998240E+03  0.00000000000E+00 0.  1.
          5    1    4    4  501    0 -0.40953029443E+02 -0.35893784724E+02  0.12335271958E+02  0.55992372129E+02  0.41800000000E+01 0. -1.
         -5    1    4    4    0  501  0.30374537149E+02  0.23340608773E+00  0.14604456352E+03  0.14922852917E+03  0.41800000000E+01 0. -1.
</event>
<event>
11    1  0.8328696E-009  0.1279806E+03  0.7561462E-02  0.1121775E+00
         22   -1    0    0    0    0  0.00000000000E+00  0.00000000000E+00  0.55905227439E+03  0.55905227439E+03  0.00000000000E+00 0. -1.
         22   -1    0    0    0    0 -0.00000000000E+00 -0.00000000000E+00 -0.77294511796E+03  0.77294511796E+03  0.00000000000E+00 0.  1.
         24    2    1    2    0    0 -0.25391507990E+02  0.45049581431E+01 -0.65389685784E+03  0.65865879950E+03  0.74734798722E+02 0.  0.
         25    2    1    2    0    0  0.43441174082E+02 -0.28130308545E+02 -0.74031880459E+02  0.15429568490E+03  0.12509192296E+03 0.  0.
        -24    2    1    2    0    0 -0.18049666092E+02  0.23625350402E+02  0.51403589473E+03  0.51904290795E+03  0.65488102735E+02 0.  0.
        -13    1    3    3    0    0  0.37559596846E-02  0.11761687413E+02 -0.58109542265E+03  0.58121444195E+03  0.00000000000E+00 0.  1.
         14    1    3    3    0    0 -0.25395263950E+02 -0.72567292698E+01 -0.72801435184E+02  0.77444357546E+02  0.00000000000E+00 0. -1.
         11    1    5    5    0    0 -0.11484143097E+02  0.43487034074E+02  0.43377899817E+03  0.43610460549E+03  0.00000000000E+00 0. -1.
        -12    1    5    5    0    0 -0.65655229948E+01 -0.19861683672E+02  0.80256896555E+02  0.82938302462E+02  0.00000000000E+00 0.  1.
          5    1    4    4  501    0  0.34413298685E+02  0.42977626248E+02 -0.62737415842E+01  0.55571428970E+02  0.41800000000E+01 0.  1.
         -5    1    4    4    0  501  0.90278753965E+01 -0.71107934793E+02 -0.67758138875E+02  0.98724255928E+02  0.41800000000E+01 0.  1.
</event>
<event>
11    1  0.8328696E-009  0.1504197E+03  0.7561462E-02  0.1096451E+00
         22   -1    0    0    0    0  0.00000000000E+00  0.00000000000E+00  0.46493833437E+03  0.46493833437E+03  0.00000000000E+00 0. -1.
         22   -1    0    0    0    0 -0.00000000000E+00 -0.00000000000E+00 -0.44777159277E+03  0.44777159277E+03  0.00000000000E+00 0.  1.
         24    2    1    2    0    0  0.78209179954E+02  0.38803376416E+02 -0.37537888877E+03  0.39368451454E+03  0.80348049166E+02 0.  0.
         25    2    1    2    0    0 -0.59719297870E+02  0.12919175549E+02  0.27672615374E+02  0.14193973058E+03  0.12509122208E+03 0.  0.
        -24    2    1    2    0    0 -0.18489882085E+02 -0.51722551965E+02  0.36487301500E+03  0.37708568202E+03  0.77744429953E+02 0.  0.
        -13    1    3    3    0    0  0.74869884317E+02  0.42156634172E+02 -0.37842476303E+03  0.38805667455E+03  0.00000000000E+00 0.  1.
         14    1    3    3    0    0  0.33392956378E+01 -0.33532577562E+01  0.30458742665E+01  0.56278399927E+01  0.00000000000E+00 0. -1.
         13    1    5    5    0    0  0.10920987670E+02 -0.62636960019E+02  0.23147231544E+03  0.24004601548E+03  0.00000000000E+00 0. -1.
        -14    1    5    5    0    0 -0.29410869755E+02  0.10914408054E+02  0.13340069956E+03  0.13703966654E+03  0.00000000000E+00 0.  1.
          5    1    4    4  501    0 -0.62867360410E+02 -0.17767574451E+02  0.65733002753E+02  0.92770101637E+02  0.41800000000E+01 0. -1.
         -5    1    4    4    0  501  0.31480625406E+01  0.30686750000E+02 -0.38060387379E+02  0.49169628947E+02  0.41800000000E+01 0. -1.
</event>
<event>
11    1  0.8328696E-009  0.1357499E+03  0.7561462E-02  0.1112399E+00
         22   -1    0    0    0    0  0.00000000000E+00  0.00000000000E+00  0.15136627578E+04  0.15136627578E+04  0.00000000000E+00 0.  1.
         22   -1    0    0    0    0 -0.00000000000E+00 -0.00000000000E+00 -0.35931197024E+03  0.35931197024E+03  0.00000000000E+00 0.  1.
        -24    2    1    2    0    0  0.22361334172E+02  0.47519454829E+02 -0.34078677469E+03  0.35402462440E+03  0.80247623176E+02 0.  0.
         25    2    1    2    0    0 -0.29575401684E+02 -0.61364252162E+02  0.47635946692E+03  0.49719865019E+03  0.12509148733E+03 0.  0.
         24    2    1    2    0    0  0.72140675123E+01  0.13844797332E+02  0.10187780954E+04  0.10217514535E+04  0.76311885674E+02 0.  0.
        -11    1    5    5    0    0  0.21614611655E+02  0.17658362251E+02  0.97697028338E+03  0.97736888829E+03  0.00000000000E+00 0.  1.
         12    1    5    5    0    0 -0.14400544143E+02 -0.38135649189E+01  0.41807811980E+02  0.44382565175E+02  0.00000000000E+00 0. -1.
         13    1    3    3    0    0  0.66007553341E+01 -0.22294359840E+02 -0.62595057645E+02  0.66773869838E+02  0.00000000000E+00 0. -1.
        -14    1    3    3    0    0  0.15760578838E+02  0.69813814669E+02 -0.27819171705E+03  0.28725075457E+03  0.00000000000E+00 0.  1.
          5    1    4    4  501    0  0.41996048439E+02 -0.48776114152E+02  0.29092661757E+03  0.29799084987E+03  0.41800000000E+01 0. -1.
         -5    1    4    4    0  501 -0.71571450123E+02 -0.12588138009E+02  0.18543284935E+03  0.19920780032E+03  0.41800000000E+01 0. -1.
</event>
<event>
11    1  0.8328696E-009  0.2793582E+03  0.7561462E-02  0.1009327E+00
         22   -1    0    0    0    0  0.00000000000E+00  0.00000000000E+00  0.11067026817E+04  0.11067026817E+04  0.00000000000E+00 0. -1.
         22   -1    0    0    0    0 -0.00000000000E+00 -0.00000000000E+00 -0.31442435151E+03  0.31442435151E+03  0.00000000000E+00 0.  1.
        -24    2    1    2    0    0 -0.28672772308E+02 -0.70938302494E+02 -0.18001217883E+03  0.21130027248E+03  0.79931533158E+02 0.  0.
         25    2    1    2    0    0  0.23125231761E+03 -0.80153124166E+02  0.91827744732E+02  0.28979585073E+03  0.12508853939E+03 0.  0.
         24    2    1    2    0    0 -0.20257954530E+03  0.15109142666E+03  0.88046276433E+03  0.92003091004E+03  0.85878429661E+02 0.  0.
        -13    1    5    5    0    0 -0.34927593715E+02 -0.79253960758E+01  0.12263641305E+03  0.12775929912E+03  0.00000000000E+00 0.  1.
         14    1    5    5    0    0 -0.16765195158E+03  0.15901682273E+03  0.75782635128E+03  0.79227161092E+03  0.00000000000E+00 0. -1.
         13    1    3    3    0    0 -0.10382709133E+01  0.37488069770E+01 -0.94009021643E+02  0.94089466522E+02  0.00000000000E+00 0. -1.
        -14    1    3    3    0    0 -0.27634501394E+02 -0.74687109471E+02 -0.86003157185E+02  0.11721080596E+03  0.00000000000E+00 0.  1.
          5    1    4    4  501    0  0.13595387737E+03 -0.96053597516E+02  0.97435508784E+02  0.19292719130E+03  0.41800000000E+01 0.  1.
         -5    1    4    4    0  501  0.95298440231E+02  0.15900473350E+02 -0.56077640521E+01  0.96868659436E+02  0.41800000000E+01 0.  1.
</event>
<event>
11    1  0.8328696E-009  0.3952967E+03  0.7561462E-02  0.9663738E-01
         22   -1    0    0    0    0  0.00000000000E+00  0.00000000000E+00  0.13832033601E+04  0.13832033601E+04  0.00000000000E+00 0. -1.
         22   -1    0    0    0    0 -0.00000000000E+00 -0.00000000000E+00 -0.26067084550E+03  0.26067084550E+03  0.00000000000E+00 0. -1.
         24    2    1    2    0    0 -0.38162464973E+03  0.67048376202E+02 -0.14411930122E+02  0.39566251066E+03  0.78792515984E+02 0.  0.
         25    2    1    2    0    0  0.33531236896E+03 -0.15962510268E+02  0.58156331573E+03  0.68304574127E+03  0.12508560249E+03 0.  0.
        -24    2    1    2    0    0  0.46312280770E+02 -0.51085865934E+02  0.55538112901E+03  0.56516595368E+03  0.78802053866E+02 0.  0.
        -11    1    3    3    0    0 -0.47241175837E+02 -0.17149746813E+02 -0.71589774071E+01  0.50765081185E+02  0.00000000000E+00 0.  1.
         12    1    3    3    0    0 -0.33438347389E+03  0.84198123015E+02 -0.72529527145E+01  0.34489742947E+03  0.00000000000E+00 0. -1.
         13    1    5    5    0    0  0.41601803250E+02 -0.68859383640E+02  0.35789937195E+03  0.36683004947E+03  0.00000000000E+00 0. -1.
        -14    1    5    5    0    0  0.47104775193E+01  0.17773517706E+02  0.19748175705E+03  0.19833590421E+03  0.00000000000E+00 0.  1.
          5    1    4    4  501    0  0.17064581926E+03 -0.12272274212E+02  0.17693438444E+03  0.24615818724E+03  0.41800000000E+01 0. -1.
         -5    1    4    4    0  501  0.16466654970E+03 -0.36902360555E+01  0.40462893129E+03  0.43688755403E+03  0.41800000000E+01 0. -1.
</event>
<event>
11    1  0.8328696E-009  0.2301194E+03  0.7561462E-02  0.1035057E+00
         22   -1    0    0    0    0  0.00000000000E+00  0.00000000000E+00  0.19386982968E+04  0.19386982968E+04  0.00000000000E+00 0.  1.
         22   -1    0    0    0    0 -0.00000000000E+00 -0.00000000000E+00 -0.24289059680E+04  0.24289059680E+04  0.00000000000E+00 0.  1.
        -24    2    1    2    0    0 -0.14070610507E+03 -0.12617056936E+03 -0.20249557585E+04  0.20353277203E+04  0.79974273110E+02 0.  0.
         25    2    1    2    0    0  0.19170650251E+03  0.12679925540E+03 -0.35456142116E+03  0.44067100663E+03  0.12509076878E+03 0.  0.
         24    2    1    2    0    0 -0.51000397446E+02 -0.62868603563E+00  0.18893095085E+04  0.18916055379E+04  0.77972149926E+02 0.  0.
        -11    1    5    5    0    0  0.13972006552E+00  0.30140762869E+02  0.89420353060E+03  0.89471137203E+03  0.00000000000E+00 0.  1.
         12    1    5    5    0    0 -0.51140117511E+02 -0.30769448905E+02  0.99510597792E+03  0.99689416585E+03  0.00000000000E+00 0. -1.
         11    1    3    3    0    0 -0.16336922211E+02 -0.64048302308E+02 -0.62397715297E+03  0.62746837967E+03  0.00000000000E+00 0. -1.
        -12    1    3    3    0    0 -0.12436918286E+03 -0.62122267053E+02 -0.14009786056E+04  0.14078593406E+04  0.00000000000E+00 0.  1.
          5    1    4    4  501    0  0.12187900809E+03  0.13838647692E+03 -0.20897143900E+03  0.27873256775E+03  0.41800000000E+01 0.  1.
         -5    1    4    4    0  501  0.69827494428E+02 -0.11587221527E+02 -0.14558998216E+03  0.16193843888E+03  0.41800000000E+01 0.  1.
</event>
<event>
11    1  0.8328696E-009  0.2085584E+03  0.7561462E-02  0.1048631E+00
         22   -1    0    0    0    0  0.00000000000E+00  0.00000000000E+00  0.11928168796E+04  0.11928168796E+04  0.00000000000E+00 0. -1.
         22   -1    0    0    0    0 -0.00000000000E+00 -0.00000000000E+00 -0.45401939634E+03  0.45401939634E+03  0.00000000000E+00 0. -1.
        -24    2    1    2    0    0  0.16217429574E+03 -0.47198137985E+02 -0.34699098157E+03  0.39524957912E+03  0.85389238668E+02 0.  0.
         25    2    1    2    0    0 -0.16139747490E+03  0.10348027587E+01  0.46949332378E+02  0.20952191398E+03  0.12507988210E+03 0.  0.
         24    2    1    2    0    0 -0.77682083933E+00  0.46163335226E+02  0.10388391324E+04  0.10420647828E+04  0.67680215384E+02 0.  0.
        -13    1    5    5    0    0 -0.17024442853E+02  0.44970589499E+01  0.69546928158E+02  0.71741413492E+02  0.00000000000E+00 0.  1.
         14    1    5    5    0    0  0.16247622014E+02  0.41666276276E+02  0.96929220425E+03  0.97032336930E+03  0.00000000000E+00 0. -1.
         11    1    3    3    0    0  0.15810191357E+03 -0.62811664992E+02 -0.29203097332E+03  0.33796983550E+03  0.00000000000E+00 0. -1.
        -12    1    3    3    0    0  0.40723821661E+01  0.15613527007E+02 -0.54960008251E+02  0.57279743619E+02  0.00000000000E+00 0.  1.
          5    1    4    4  501    0 -0.47494260301E+02 -0.22169607923E+02 -0.38519013027E+02  0.65179621367E+02  0.41800000000E+01 0.  1.
         -5    1    4    4    0  501 -0.11390321460E+03  0.23204410681E+02  0.85468345404E+02  0.14434229261E+03  0.41800000000E+01 0.  1.
</event>
<event>
11    1  0.8328696E-009  0.1424331E+03  0.7561462E-02  0.1104871E+00
         22   -1    0    0    0    0  0.00000000000E+00  0.00000000000E+00  0.74576257615E+03  0.74576257615E+03  0.00000000000E+00 0. -1.
         22   -1    0    0    0    0 -0.00000000000E+00 -0.00000000000E+00 -0.51588361651E+03  0.51588361651E+03  0.00000000000E+00 0. -1.
        -24    2    1    2    0    0 -0.67134686625E+02 -0.13062781530E+02 -0.47726849519E+03  0.48881964275E+03  0.80509156154E+02 0.  0.
         25    2    1    2    0    0 -0.10550543806E+01  0.47966509068E+02  0.13602647551E+03  0.19092286377E+03  0.12508572556E+03 0.  0.
         24    2    1    2    0    0  0.68189741006E+02 -0.34903727539E+02  0.57112097933E+03  0.58190368614E+03  0.81022317524E+02 0.  0.
        -11    1    5    5    0    0 -0.36001935475E+01 -0.35843958002E+02  0.12674312260E+03  0.13176330993E+03  0.00000000000E+00 0.  1.
         12    1    5    5    0    0  0.71789934553E+02  0.94023046354E+00  0.44437785674E+03  0.45014037621E+03  0.00000000000E+00 0. -1.
         11    1    3    3    0    0 -0.68152975528E+00 -0.58849631416E+01 -0.28860953183E+03  0.28867032950E+03  0.00000000000E+00 0. -1.
        -12    1    3    3    0    0 -0.66453156870E+02 -0.71778183882E+01 -0.18865896337E+03  0.20014931325E+03  0.00000000000E+00 0.  1.
          5    1    4    4  501    0 -0.43248453235E+02 -0.94362013731E+01  0.10320041109E+03  0.11237111663E+03  0.41800000000E+01 0. -1.
         -5    1    4    4    0  501  0.42193398854E+02  0.57402710441E+02  0.32826064413E+02  0.78551747134E+02  0.41800000000E+01 0. -1.
</event>
<event>
11    1  0.8328696E-009  0.1470128E+03  0.7561462E-02  0.1099971E+00
         22   -1    0    0    0    0  0.00000000000E+00  0.00000000000E+00  0.97106963687E+03  0.97106963687E+03  0.00000000000E+00 0. -1.
         22   -1    0    0    0    0 -0.00000000000E+00 -0.00000000000E+00 -0.50103023489E+03  0.50103023489E+03  0.00000000000E+00 0.  1.
         24    2    1    2    0    0  0.41770613070E+02 -0.19214291648E+02 -0.46944425458E+03  0.47747410832E+03  0.74092123993E+02 0.  0.
         25    2    1    2    0    0  0.17153077732E+02  0.72993261106E+02  0.20397946998E+03  0.25072737645E+03  0.12503738994E+03 0.  0.
        -24    2    1    2    0    0 -0.58923690802E+02 -0.53778969457E+02  0.73550418658E+03  0.74389838699E+03  0.77808886332E+02 0.  0.
        -13    1    3    3    0    0  0.12825347562E+02  0.10652918706E+02 -0.36011520438E+03  0.36050094957E+03  0.00000000000E+00 0.  1.
         14    1    3    3    0    0  0.28945265508E+02 -0.29867210354E+02 -0.10932905020E+03  0.11697315875E+03  0.00000000000E+00 0. -1.
         13    1    5    5    0    0 -0.90497378001E+01 -0.32150807303E+02  0.53840163346E+03  0.53943664232E+03  0.00000000000E+00 0. -1.
        -14    1    5    5    0    0 -0.49873953002E+02 -0.21628162155E+02  0.19710255312E+03  0.20446174466E+03  0.00000000000E+00 0.  1.
          5    1    4    4  501    0  0.25211020683E+02  0.10606446724E+03  0.17290962373E+03  0.20445164992E+03  0.41800000000E+01 0. -1.
         -5    1    4    4    0  501 -0.80579429506E+01 -0.33071206136E+02  0.31069846246E+02  0.46275726527E+02  0.41800000000E+01 0. -1.
</event>
<event>
11    1  0.8328696E-009  0.1356726E+03  0.7561462E-02  0.1112489E+00
         22   -1    0    0    0    0  0.00000000000E+00  0.00000000000E+00  0.81340964934E+02  0.81340964934E+02  0.00000000000E+00 0.  1.
         22   -1    0    0    0    0 -0.00000000000E+00 -0.00000000000E+00 -0.14296316862E+04  0.14296316862E+04  0.00000000000E+00 0.  1.
         24    2    1    2    0    0  0.34124133864E+02  0.38533502523E+02 -0.11460014049E+04  0.11500320114E+04  0.81271888047E+02 0.  0.
         25    2    1    2    0    0 -0.78823488945E+02 -0.13801832369E+02 -0.21865113215E+03  0.26430985136E+03  0.12509095471E+03 0.  0.
        -24    2    1    2    0    0  0.44699355081E+02 -0.24731670154E+02  0.16361815750E+02  0.96630788444E+02  0.80374824463E+02 0.  0.
        -11    1    3    3    0    0 -0.19557437013E+02  0.99704395972E-01 -0.55676515839E+03  0.55710855754E+03  0.00000000000E+00 0.  1.
         12    1    3    3    0    0  0.53681570877E+02  0.38433798127E+02 -0.58923624650E+03  0.59292345381E+03  0.00000000000E+00 0. -1.
         13    1    5    5    0    0 -0.34974873875E+01 -0.33016426865E+02 -0.17128161682E+02  0.37358945162E+02  0.00000000000E+00 0. -1.
        -14    1    5    5    0    0  0.48196842469E+02  0.82847567113E+01  0.33489977432E+02  0.59271843283E+02  0.00000000000E+00 0.  1.
          5    1    4    4  501    0  0.32889171784E+02 -0.15704579060E+02 -0.54942415251E+02  0.66064156831E+02  0.41800000000E+01 0.  1.
         -5    1    4    4    0  501 -0.11171266073E+03  0.19027466913E+01 -0.16370871690E+03  0.19824569453E+03  0.41800000000E+01 0.  1.
</event>
<event>
11    1  0.8328696E-009  0.1385613E+03  0.7561462E-02  0.1109176E+00
         22   -1    0    0    0    0  0.00000000000E+00  0.00000000000E+00  0.71877403097E+03  0.71877403097E+03  0.00000000000E+00 0. -1.
         22   -1    0    0    0    0 -0.00000000000E+00 -0.00000000000E+00 -0.24774082677E+03  0.24774082677E+03  0.00000000000E+00 0.  1.
        -24    2    1    2    0    0  0.38958555938E+02 -0.41005214729E+02 -0.11611595742E+03  0.15195318676E+03  0.80047852447E+02 0.  0.
         25    2    1    2    0    0 -0.57838075015E+02  0.37407618247E+02 -0.65187403313E+02  0.15695408533E+03  0.12506244251E+03 0.  0.
         24    2    1    2    0    0  0.18879519078E+02  0.35975964827E+01  0.65233656494E+03  0.65760758565E+03  0.80841597003E+02 0.  0.
        -13    1    5    5    0    0  0.25123109427E+02 -0.20377735628E+02  0.10881051583E+03  0.11351718413E+03  0.00000000000E+00 0.  1.
         14    1    5    5    0    0 -0.62435903493E+01  0.23975332111E+02  0.54352604911E+03  0.54409040152E+03  0.00000000000E+00 0. -1.
         13    1    3    3    0    0  0.14809702099E+02 -0.87327828097E+01  0.97678597051E+01  0.19773716269E+02  0.00000000000E+00 0. -1.
        -14    1    3    3    0    0  0.24148853839E+02 -0.32272431920E+02 -0.12588381713E+03  0.13217947049E+03  0.00000000000E+00 0.  1.
          5    1    4    4  501    0 -0.96632154601E+02  0.27971271554E+02 -0.57924551692E+02  0.11615890592E+03  0.41800000000E+01 0.  1.
         -5    1    4    4    0  501  0.38794079586E+02  0.94363466924E+01 -0.72628516211E+01  0.40795179415E+02  0.41800000000E+01 0.  1.
</event>
<event>
11    1  0.8328696E-009  0.1382328E+03  0.7561462E-02  0.1109548E+00
         22   -1    0    0    0    0  0.00000000000E+00  0.00000000000E+00  0.25222624589E+03  0.25222624589E+03  0.00000000000E+00 0. -1.
         22   -1    0    0    0    0 -0.00000000000E+00 -0.00000000000E+00 -0.30914435656E+03  0.30914435656E+03  0.00000000000E+00 0.  1.
        -24    2    1    2    0    0  0.64162248029E+02  0.91120739800E+01 -0.20008652196E+03  0.22524208487E+03  0.80619827333E+02 0.  0.
         25    2    1    2    0    0 -0.27808550126E+02 -0.35571349687E+02 -0.33138010781E+02  0.13705360489E+03  0.12508767516E+03 0.  0.
         24    2    1    2    0    0 -0.36353697902E+02  0.26459275707E+02  0.17630642208E+03  0.19907491269E+03  0.80778597254E+02 0.  0.
        -13    1    5    5    0    0 -0.43304871469E+02 -0.12721680300E+02  0.53571553226E+02  0.70050441524E+02  0.00000000000E+00 0.  1.
         14    1    5    5    0    0  0.69511735666E+01  0.39180956007E+02  0.12273486886E+03  0.12902447117E+03  0.00000000000E+00 0. -1.
         13    1    3    3    0    0  0.39004186407E+02 -0.95836089334E+01 -0.24862720042E+02  0.47236923750E+02  0.00000000000E+00 0. -1.
        -14    1    3    3    0    0  0.25158061621E+02  0.18695682913E+02 -0.17522380192E+03  0.17800516112E+03  0.00000000000E+00 0.  1.
          5    1    4    4  501    0 -0.11934464237E+02  0.45239723893E+02 -0.27427004642E+02  0.54394641631E+02  0.41800000000E+01 0. -1.
         -5    1    4    4    0  501 -0.15874085889E+02 -0.80811073580E+02 -0.57110061388E+01  0.82658963259E+02  0.41800000000E+01 0. -1.
</event>
<event>
11    1  0.8328696E-009  0.1288575E+03  0.7561462E-02  0.1120681E+00
         22   -1    0    0    0    0  0.00000000000E+00  0.00000000000E+00  0.35209692723E+03  0.35209692723E+03  0.00000000000E+00 0. -1.
         22   -1    0    0    0    0 -0.00000000000E+00 -0.00000000000E+00 -0.94463185800E+03  0.94463185800E+03  0.00000000000E+00 0. -1.
         24    2    1    2    0    0  0.25745046089E+02  0.27155107470E+02 -0.83450523212E+03  0.83922658760E+03  0.80635449025E+02 0.  0.
         25    2    1    2    0    0  0.30475206144E+01 -0.40785058979E+02 -0.53413246689E+02  0.14202881465E+03  0.12508597384E+03 0.  0.
        -24    2    1    2    0    0 -0.28792566704E+02  0.13629951509E+02  0.29538354804E+03  0.31547338298E+03  0.10610008220E+03 0.  0.
        -13    1    3    3    0    0  0.25760491092E+02 -0.25257569695E+02 -0.30159149098E+03  0.30374162566E+03  0.00000000000E+00 0.  1.
         14    1    3    3    0    0 -0.15445002621E-01  0.52412677165E+02 -0.53291374114E+03  0.53548496193E+03  0.00000000000E+00 0. -1.
         13    1    5    5    0    0 -0.83344220559E+01  0.55465841600E+02  0.21851136314E+03  0.22559507529E+03  0.00000000000E+00 0. -1.
        -14    1    5    5    0    0 -0.20458144648E+02 -0.41835890091E+02  0.76872184895E+02  0.89878307687E+02  0.00000000000E+00 0.  1.
          5    1    4    4  501    0 -0.45715529518E+02 -0.11858851185E+02  0.18030436596E+02  0.50725841879E+02  0.41800000000E+01 0. -1.
         -5    1    4    4    0  501  0.48763050132E+02 -0.28926207794E+02 -0.71443683284E+02  0.91302972771E+02  0.41800000000E+01 0. -1.
</event>
<event>
11    1  0.8328696E-009  0.1499100E+03  0.7561462E-02  0.1096971E+00
         22   -1    0    0    0    0  0.00000000000E+00  0.00000000000E+00  0.85618006968E+03  0.85618006968E+03  0.00000000000E+00 0. -1.
         22   -1    0    0    0    0 -0.00000000000E+00 -0.00000000000E+00 -0.61042032799E+03  0.61042032799E+03  0.00000000000E+00 0. -1.
         24    2    1    2    0    0 -0.78940432185E+02  0.57328794374E+01 -0.49821554803E+03  0.51113100805E+03  0.82290445101E+02 0.  0.
         25    2    1    2    0    0  0.12591754914E+03  0.22118571160E+02 -0.24882044513E+02  0.18058513325E+03  0.12508962323E+03 0.  0.
        -24    2    1    2    0    0 -0.46977116953E+02 -0.27851450597E+02  0.76885733423E+03  0.77488425637E+03  0.79507594263E+02 0.  0.
        -13    1    3    3    0    0 -0.63332042351E+02 -0.63781457996E+01 -0.15796335180E+03  0.17030575106E+03  0.00000000000E+00 0.  1.
         14    1    3    3    0    0 -0.15608389833E+02  0.12111025237E+02 -0.34025219623E+03  0.34082525699E+03  0.00000000000E+00 0. -1.
         13    1    5    5    0    0 -0.40550212772E+02  0.20698736837E+02  0.29339223186E+03  0.29690361934E+03  0.00000000000E+00 0. -1.
        -14    1    5    5    0    0 -0.64269041810E+01 -0.48550187434E+02  0.47546510238E+03  0.47798063703E+03  0.00000000000E+00 0.  1.
          5    1    4    4  501    0  0.10660972310E+03 -0.21718075394E+02  0.24563147840E+02  0.11161598671E+03  0.41800000000E+01 0.  1.
         -5    1    4    4    0  501  0.19307826040E+02  0.43836646553E+02 -0.49445192353E+02  0.68969146539E+02  0.41800000000E+01 0.  1.
</event>
<event>
11    1  0.8328696E-009  0.1727676E+03  0.7561462E-02  0.1075648E+00
         22   -1    0    0    0    0  0.00000000000E+00  0.00000000000E+00  0.23646839126E+03  0.23646839126E+03  0.00000000000E+00 0.  1.
         22   -1    0    0    0    0 -0.00000000000E+00 -0.00000000000E+00 -0.25454151499E+04  0.25454151499E+04  0.00000000000E+00 0. -1.
         24    2    1    2    0    0 -0.38118128576E+01 -0.53676759513E+02 -0.21877395400E+04  0.21898958931E+04  0.80895015533E+02 0.  0.
         25    2    1    2    0    0  0.12257060663E+03  0.55220858640E+02 -0.30447469805E+03  0.35556209935E+03  0.12508664157E+03 0.  0.
        -24    2    1    2    0    0 -0.11875879378E+03 -0.15440991271E+01  0.18326747940E+03  0.23642554868E+03  0.90576132184E+02 0.  0.
        -11    1    3    3    0    0 -0.17522582442E+02 -0.12636423160E+02 -0.13641727511E+03  0.13811731620E+03  0.00000000000E+00 0.  1.
         12    1    3    3    0    0  0.13710769584E+02 -0.41040336353E+02 -0.20513222649E+04  0.20517785769E+04  0.00000000000E+00 0. -1.
         11    1    5    5    0    0 -0.32384937908E+02  0.41493778568E+02  0.70997677754E+02  0.88380926164E+02  0.00000000000E+00 0. -1.
        -12    1    5    5    0    0 -0.86373855869E+02 -0.43037877695E+02  0.11226980164E+03  0.14804462251E+03  0.00000000000E+00 0.  1.
          5    1    4    4  501    0 -0.21947242722E+02  0.14256613701E+02 -0.89012311042E+02  0.92874089037E+02  0.41800000000E+01 0.  1.
         -5    1    4    4    0  501  0.14451784936E+03  0.40964244939E+02 -0.21546238701E+03  0.26268801031E+03  0.41800000000E+01 0.  1.
</event>
<event>
11    1  0.8328696E-009  0.1648947E+03  0.7561462E-02  0.1082562E+00
         22   -1    0    0    0    0  0.00000000000E+00  0.00000000000E+00  0.35279951506E+03  0.35279951506E+03  0.00000000000E+00 0.  1.
         22   -1    0    0    0    0 -0.00000000000E+00 -0.00000000000E+00 -0.19612248543E+04  0.19612248543E+04  0.00000000000E+00 0. -1.
         24    2    1    2    0    0  0.23060042826E+01 -0.22535976163E+02 -0.15691994316E+04  0.15714408123E+04  0.80784791453E+02 0.  0.
         25    2    1    2    0    0 -0.71923545915E+02  0.10352194728E+03 -0.35655147941E+03  0.39832935163E+03  0.12509006704E+03 0.  0.
        -24    2    1    2    0    0  0.69617541632E+02 -0.80985971115E+02  0.31732557182E+03  0.34425420540E+03  0.80063161208E+02 0.  0.
        -13    1    3    3    0    0 -0.67950937660E+00  0.29134059395E+02 -0.38007754665E+03  0.38119312247E+03  0.00000000000E+00 0.  1.
         14    1    3    3    0    0  0.29855136592E+01 -0.51670035558E+02 -0.11891218850E+04  0.11902476899E+04  0.00000000000E+00 0. -1.
         11    1    5    5    0    0 -0.73543865423E+01 -0.32010155827E+02  0.15119673454E+03  0.15472294469E+03  0.00000000000E+00 0. -1.
        -12    1    5    5    0    0  0.76971928175E+02 -0.48975815289E+02  0.16612883728E+03  0.18953126071E+03  0.00000000000E+00 0.  1.
          5    1    4    4  501    0 -0.66525160492E+02  0.16436453026E+02 -0.25641539571E+03  0.26544694672E+03  0.41800000000E+01 0.  1.
         -5    1    4    4    0  501 -0.53983854231E+01  0.87085494253E+02 -0.10013608371E+03  0.13288240491E+03  0.41800000000E+01 0.  1.
</event>
<event>
11    1  0.8328696E-009  0.1416273E+03  0.7561462E-02  0.1105755E+00
         22   -1    0    0    0    0  0.00000000000E+00  0.00000000000E+00  0.30626041469E+03  0.30626041469E+03  0.00000000000E+00 0. -1.
         22   -1    0    0    0    0 -0.00000000000E+00 -0.00000000000E+00 -0.36572604160E+03  0.36572604160E+03  0.00000000000E+00 0. -1.
         24    2    1    2    0    0 -0.24610083365E+01  0.63321492064E+02 -0.21951916122E+03  0.24345877721E+03  0.84070483170E+02 0.  0.
         25    2    1    2    0    0 -0.17673874014E+02 -0.77431429520E+02 -0.84364617972E+02  0.17050618776E+03  0.12508788590E+03 0.  0.
        -24    2    1    2    0    0  0.20134882351E+02  0.14109937456E+02  0.24441815228E+03  0.25802149131E+03  0.78932585119E+02 0.  0.
        -11    1    3    3    0    0 -0.82453166431E+01  0.10024796389E+02  0.40143031492E+01  0.13586626475E+02  0.00000000000E+00 0.  1.
         12    1    3    3    0    0  0.57843083066E+01  0.53296695675E+02 -0.22353346437E+03  0.22987215074E+03  0.00000000000E+00 0. -1.
         13    1    5    5    0    0 -0.11704036977E+02 -0.56951647592E+01  0.19764956922E+03  0.19807769080E+03  0.00000000000E+00 0. -1.
        -14    1    5    5    0    0  0.31838919328E+02  0.19805102215E+02  0.46768583065E+02  0.59943800510E+02  0.00000000000E+00 0.  1.
          5    1    4    4  501    0  0.45122299344E+02 -0.59435462527E+02 -0.17145555262E+02  0.76681409540E+02  0.41800000000E+01 0.  1.
         -5    1    4    4    0  501 -0.62796173359E+02 -0.17995966993E+02 -0.67219062710E+02  0.93824778220E+02  0.41800000000E+01 0.  1.
</event>
<event>
11    1  0.8328696E-009  0.1722742E+03  0.7561462E-02  0.1076069E+00
         22   -1    0    0    0    0  0.00000000000E+00  0.00000000000E+00  0.30353910162E+03  0.30353910162E+03  0.00000000000E+00 0. -1.
         22   -1    0    0    0    0 -0.00000000000E+00 -0.00000000000E+00 -0.45549005531E+03  0.45549005531E+03  0.00000000000E+00 0. -1.
        -24    2    1    2    0    0 -0.23183503525E+02 -0.10806624508E+03 -0.18478100389E+03  0.23092995132E+03  0.83479547544E+02 0.  0.
         25    2    1    2    0    0  0.11970979673E+03  0.95737457471E+02 -0.18818397341E+03  0.27305533733E+03  0.12509961312E+03 0.  0.
         24    2    1    2    0    0 -0.96526293207E+02  0.12328787608E+02  0.22101402361E+03  0.25504386828E+03  0.82041768818E+02 0.  0.
        -13    1    5    5    0    0  0.61456428063E+01  0.12048786668E+02  0.27011100996E+01  0.13792685795E+02  0.00000000000E+00 0.  1.
         14    1    5    5    0    0 -0.10267193601E+03  0.28000093982E+00  0.21831291351E+03  0.24125118248E+03  0.00000000000E+00 0. -1.
         11    1    3    3    0    0 -0.27162627470E+02 -0.12131113512E+03 -0.17093944651E+03  0.21136341738E+03  0.00000000000E+00 0. -1.
        -12    1    3    3    0    0  0.39791239451E+01  0.13244890043E+02 -0.13841557378E+02  0.19566533936E+02  0.00000000000E+00 0.  1.
          5    1    4    4  501    0 -0.65798903874E+01  0.60727811318E+02 -0.91707103175E+02  0.11026707214E+03  0.41800000000E+01 0. -1.
         -5    1    4    4    0  501  0.12628968712E+03  0.35009646153E+02 -0.96476870231E+02  0.16278826520E+03  0.41800000000E+01 0. -1.
</event>
<event>
11    1  0.8328696E-009  0.1539818E+03  0.7561462E-02  0.1092878E+00
         22   -1    0    0    0    0  0.00000000000E+00  0.00000000000E+00  0.32350278135E+03  0.32350278135E+03  0.00000000000E+00 0.  1.
         22   -1    0    0    0    0 -0.00000000000E+00 -0.00000000000E+00 -0.77342588380E+03  0.77342588380E+03  0.00000000000E+00 0.  1.
        -24    2    1    2    0    0  0.69827239362E+02 -0.86453687686E+01 -0.67882607853E+03  0.68651849105E+03  0.74513139145E+02 0.  0.
         25    2    1    2    0    0 -0.14092317343E+03  0.41131628241E+02  0.48652837078E+02  0.19891169912E+03  0.12509042265E+03 0.  0.
         24    2    1    2    0    0  0.71095934072E+02 -0.32486259472E+02  0.18025013900E+03  0.21149847497E+03  0.78303916952E+02 0.  0.
        -11    1    5    5    0    0  0.56019231987E+02 -0.54441634787E+02  0.99688687495E+02  0.12664864928E+03  0.00000000000E+00 0.  1.
         12    1    5    5    0    0  0.15076702084E+02  0.21955375315E+02  0.80561451505E+02  0.84849825689E+02  0.00000000000E+00 0. -1.
         11    1    3    3    0    0  0.24071066793E+02  0.29491865463E+02 -0.16956639204E+03  0.17378707574E+03  0.00000000000E+00 0. -1.
        -12    1    3    3    0    0  0.45756172570E+02 -0.38137234231E+02 -0.50925968649E+03  0.51273141531E+03  0.00000000000E+00 0.  1.
          5    1    4    4  501    0 -0.24681347374E+02  0.44120696949E+02 -0.29560691800E+02  0.58712108693E+02  0.41800000000E+01 0.  1.
         -5    1    4    4    0  501 -0.11624182606E+03 -0.29890687082E+01  0.78213528877E+02  0.14019959043E+03  0.41800000000E+01 0.  1.
</event>
<event>
11    1  0.8328696E-009  0.1674902E+03  0.7561462E-02  0.1080237E+00
         22   -1    0    0    0    0  0.00000000000E+00  0.00000000000E+00  0.54613176643E+03  0.54613176643E+03  0.00000000000E+00 0. -1.
         22   -1    0    0    0    0 -0.00000000000E+00 -0.00000000000E+00 -0.38744543462E+03  0.38744543462E+03  0.00000000000E+00 0.  1.
        -24    2    1    2    0    0  0.63439012352E+02 -0.65277351827E+02 -0.27918004907E+03  0.30694615396E+03  0.89380091072E+02 0.  0.
         25    2    1    2    0    0 -0.10804918553E+03 -0.40918846220E+02  0.41805900328E+01  0.17033919046E+03  0.12509589923E+03 0.  0.
         24    2    1    2    0    0  0.44610173174E+02  0.10619619805E+03  0.43368579085E+03  0.45629185662E+03  0.82771934897E+02 0.  0.
        -13    1    5    5    0    0 -0.14373247026E+02  0.15054150262E+01  0.15534024849E+02  0.21217031660E+02  0.00000000000E+00 0.  1.
         14    1    5    5    0    0  0.58983420200E+02  0.10469078302E+03  0.41815176600E+03  0.43507482496E+03  0.00000000000E+00 0. -1.
         13    1    3    3    0    0  0.65867277626E+02 -0.12801832963E+02 -0.10158912555E+03  0.12174865756E+03  0.00000000000E+00 0. -1.
        -14    1    3    3    0    0 -0.24282652740E+01 -0.52475518865E+02 -0.17759092352E+03  0.18519749639E+03  0.00000000000E+00 0.  1.
          5    1    4    4  501    0 -0.67001580473E+02 -0.16447056172E+02 -0.59094014120E+02  0.90935649486E+02  0.41800000000E+01 0. -1.
         -5    1    4    4    0  501 -0.41047605053E+02 -0.24471790048E+02  0.63274604153E+02  0.79403540975E+02  0.41800000000E+01 0. -1.
</event>
<event>
11    1  0.8328696E-009  0.1546565E+03  0.7561462E-02  0.1092214E+00
         22   -1    0    0    0    0  0.00000000000E+00  0.00000000000E+00  0.33910313132E+03  0.33910313132E+03  0.00000000000E+00 0.  1.
         22   -1    0    0    0    0 -0.00000000000E+00 -0.00000000000E+00 -0.44967213521E+03  0.44967213521E+03  0.00000000000E+00 0. -1.
        -24    2    1    2    0    0  0.71185723564E+01 -0.26562734789E+02 -0.30017713289E+03  0.31265047299E+03  0.82992494825E+02 0.  0.
         25    2    1    2    0    0 -0.56042164174E+01 -0.66778842487E+02 -0.91690220462E+02  0.16895318124E+03  0.12508900781E+03 0.  0.
         24    2    1    2    0    0 -0.15143559390E+01  0.93341577276E+02  0.28129834945E+03  0.30717161230E+03  0.80688875797E+02 0.  0.
        -13    1    5    5    0    0 -0.58301996593E+01  0.89590164324E+02  0.28600504067E+03  0.29976536168E+03  0.00000000000E+00 0.  1.
         14    1    5    5    0    0  0.43158437203E+01  0.37514129528E+01 -0.47066912165E+01  0.74062506282E+01  0.00000000000E+00 0. -1.
         11    1    3    3    0    0  0.46197423447E+01  0.25925905064E+02 -0.17380070424E+03  0.17578446851E+03  0.00000000000E+00 0. -1.
        -12    1    3    3    0    0  0.24988300117E+01 -0.52488639853E+02 -0.12637642865E+03  0.13686600448E+03  0.00000000000E+00 0.  1.
          5    1    4    4  501    0 -0.16375712639E+02 -0.66181670445E+02 -0.12016271802E+03  0.13821985628E+03  0.41800000000E+01 0.  1.
         -5    1    4    4    0  501  0.10771496221E+02 -0.59717204191E+00  0.28472497563E+02  0.30733324955E+02  0.41800000000E+01 0.  1.
</event>
<event>
11    1  0.8328696E-009  0.1317207E+03  0.7561462E-02  0.1117173E+00
         22   -1    0    0    0    0  0.00000000000E+00  0.00000000000E+00  0.72020113739E+02  0.72020113739E+02  0.00000000000E+00 0. -1.
         22   -1    0    0    0    0 -0.00000000000E+00 -0.00000000000E+00 -0.13685882532E+04  0.13685882532E+04  0.00000000000E+00 0.  1.
         24    2    1    2    0    0 -0.48883534986E+02 -0.11142873626E+01 -0.71892954600E+03  0.72513516237E+03  0.81058435503E+02 0.  0.
         25    2    1    2    0    0  0.23612849810E+02 -0.19540701474E+02 -0.60765454237E+03  0.62115209102E+03  0.12508585700E+03 0.  0.
        -24    2    1    2    0    0  0.25270685176E+02  0.20654988836E+02  0.30015948897E+02  0.94321113563E+02  0.83248298377E+02 0.  0.
        -13    1    3    3    0    0  0.86480669767E+01  0.18502160930E+02 -0.39653315481E+03  0.39705876377E+03  0.00000000000E+00 0.  1.
         14    1    3    3    0    0 -0.57531601962E+02 -0.19616448292E+02 -0.32239639119E+03  0.32807639861E+03  0.00000000000E+00 0. -1.
         13    1    5    5    0    0  0.35974447267E+00 -0.25707226743E+02 -0.10631591566E+02  0.27821244798E+02  0.00000000000E+00 0. -1.
        -14    1    5    5    0    0  0.24910940703E+02  0.46362215579E+02  0.40647540462E+02  0.66499868765E+02  0.00000000000E+00 0.  1.
          5    1    4    4  501    0  0.15076735942E+01 -0.25217473232E+02 -0.18618736069E+02  0.31659497291E+02  0.41800000000E+01 0.  1.
         -5    1    4    4    0  501  0.22105176216E+02  0.56767717587E+01 -0.58903580631E+03  0.58949259373E+03  0.41800000000E+01 0.  1.
</event>
<event>
11    1  0.8328696E-009  0.3455160E+03  0.7561462E-02  0.9825784E-01
         22   -1    0    0    0    0  0.00000000000E+00  0.00000000000E+00  0.75335885431E+03  0.75335885431E+03  0.00000000000E+00 0. -1.
         22   -1    0    0    0    0 -0.00000000000E+00 -0.00000000000E+00 -0.49208887024E+03  0.49208887024E+03  0.00000000000E+00 0.  1.
         24    2    1    2    0    0  0.29699665121E+03  0.13033333634E+03 -0.36112662686E+03  0.49176381023E+03  0.78901299313E+02 0.  0.
         25    2    1    2    0    0 -0.26698129447E+03 -0.15048077756E+03  0.43463759627E+03  0.54633399326E+03  0.12509003191E+03 0.  0.
        -24    2    1    2    0    0 -0.30015356745E+02  0.20147441226E+02  0.18775901466E+03  0.20734992106E+03  0.80210355625E+02 0.  0.
        -13    1    3    3    0    0  0.20627389224E+03  0.54657450559E+02 -0.25912156333E+03  0.33567892413E+03  0.00000000000E+00 0.  1.
         14    1    3    3    0    0  0.90722758975E+02  0.75675885777E+02 -0.10200506353E+03  0.15608488610E+03  0.00000000000E+00 0. -1.
         11    1    5    5    0    0 -0.52932977727E+02  0.18361938286E+02  0.83282561809E+02  0.10037452869E+03  0.00000000000E+00 0. -1.
        -12    1    5    5    0    0  0.22917620982E+02  0.17855029394E+01  0.10447645285E+03  0.10697539237E+03  0.00000000000E+00 0.  1.
          5    1    4    4  501    0 -0.22658254088E+03 -0.64262952655E+02  0.31689175085E+03  0.39485089473E+03  0.41800000000E+01 0. -1.
         -5    1    4    4    0  501 -0.40398753583E+02 -0.86217824908E+02  0.11774584543E+03  0.15148309852E+03  0.41800000000E+01 0. -1.
</event>
<event>
11    1  0.8328696E-009  0.4600125E+03  0.7561462E-02  0.9487600E-01
         22   -1    0    0    0    0  0.00000000000E+00  0.00000000000E+00  0.14134618577E+04  0.14134618577E+04  0.00000000000E+00 0.  1.
         22   -1    0    0    0    0 -0.00000000000E+00 -0.00000000000E+00 -0.58463960917E+03  0.58463960917E+03  0.00000000000E+00 0.  1.
         24    2    1    2    0    0 -0.42921440173E+02  0.41807929024E+03 -0.22670334241E+03  0.48402610369E+03  0.79084262911E+02 0.  0.
         25    2    1    2    0    0 -0.30704574623E+03 -0.59789459728E+03  0.66919135749E+03  0.95667176683E+03  0.12509499098E+03 0.  0.
        -24    2    1    2    0    0  0.34996718641E+03  0.17981530704E+03  0.38633423349E+03  0.55740359640E+03  0.81449696779E+02 0.  0.
        -13    1    3    3    0    0 -0.57144526155E+02  0.36067613870E+03 -0.17275278769E+03  0.40397561752E+03  0.00000000000E+00 0.  1.
         14    1    3    3    0    0  0.14223085982E+02  0.57403151542E+02 -0.53950554717E+02  0.80050486170E+02  0.00000000000E+00 0. -1.
         13    1    5    5    0    0  0.15793698829E+03  0.12431882963E+03  0.21252108405E+03  0.29251405922E+03  0.00000000000E+00 0. -1.
        -14    1    5    5    0    0  0.19203019811E+03  0.55496477411E+02  0.17381314944E+03  0.26488953719E+03  0.00000000000E+00 0.  1.
          5    1    4    4  501    0 -0.13192915141E+03 -0.13820825218E+03  0.20589034645E+03  0.28091836737E+03  0.41800000000E+01 0.  1.
         -5    1    4    4    0  501 -0.17511659483E+03 -0.45968634510E+03  0.46330101104E+03  0.67575339946E+03  0.41800000000E+01 0.  1.
</event>
<event>
11    1  0.8328696E-009  0.1306901E+03  0.7561462E-02  0.1118424E+00
         22   -1    0    0    0    0  0.00000000000E+00  0.00000000000E+00  0.15399934951E+03  0.15399934951E+03  0.00000000000E+00 0.  1.
         22   -1    0    0    0    0 -0.00000000000E+00 -0.00000000000E+00 -0.38794803852E+03  0.38794803852E+03  0.00000000000E+00 0.  1.
         24    2    1    2    0    0 -0.18852957559E+02 -0.47023437981E+01 -0.23964129731E+03  0.25337333794E+03  0.79953429907E+02 0.  0.
         25    2    1    2    0    0  0.32937384132E+02  0.38279227724E+02 -0.86499964877E+02  0.16022524168E+03  0.12505884054E+03 0.  0.
        -24    2    1    2    0    0 -0.14084426574E+02 -0.33576883926E+02  0.92192573176E+02  0.12834880842E+03  0.81536297862E+02 0.  0.
        -13    1    3    3    0    0 -0.46715034148E+02 -0.66039432011E+01 -0.19571374041E+03  0.20132008013E+03  0.00000000000E+00 0.  1.
         14    1    3    3    0    0  0.27862076590E+02  0.19015994030E+01 -0.43927556905E+02  0.52053257802E+02  0.00000000000E+00 0. -1.
         13    1    5    5    0    0  0.19721576192E+02  0.18609568713E+02  0.28390140648E+02  0.39258842331E+02  0.00000000000E+00 0. -1.
        -14    1    5    5    0    0 -0.33806002765E+02 -0.52186452639E+02  0.63802432528E+02  0.89089966094E+02  0.00000000000E+00 0.  1.
          5    1    4    4  501    0 -0.20533846167E+02  0.28765451180E+02  0.19840262748E+02  0.40745532834E+02  0.41800000000E+01 0. -1.
         -5    1    4    4    0  501  0.53471230300E+02  0.95137765442E+01 -0.10634022762E+03  0.11947970884E+03  0.41800000000E+01 0. -1.
</event>
<event>
11    1  0.8328696E-009  0.1297986E+03  0.7561462E-02  0.1119517E+00
         22   -1    0    0    0    0  0.00000000000E+00  0.00000000000E+00  0.17798820909E+04  0.17798820909E+04  0.00000000000E+00 0.  1.
         22   -1    0    0    0    0 -0.00000000000E+00 -0.00000000000E+00 -0.12177401549E+03  0.12177401549E+03  0.00000000000E+00 0.  1.
        -24    2    1    2    0    0 -0.17106007946E+02  0.29529734083E+02 -0.85421694509E+02  0.12194442870E+03  0.80055962267E+02 0.  0.
         25    2    1    2    0    0  0.16473696130E+02 -0.37413143408E+02  0.23700284461E+03  0.27109864613E+03  0.12511195632E+03 0.  0.
         24    2    1    2    0    0  0.63231181568E+00  0.78834093246E+01  0.15065269253E+04  0.15086130315E+04  0.78913588088E+02 0.  0.
        -11    1    5    5    0    0  0.17764680353E+02  0.35542484933E+02  0.11249602349E+04  0.11256617530E+04  0.00000000000E+00 0.  1.
         12    1    5    5    0    0 -0.17132368538E+02 -0.27659075608E+02  0.38156669037E+03  0.38295127852E+03  0.00000000000E+00 0. -1.
         11    1    3    3    0    0 -0.28072531668E+02  0.30476808939E+02 -0.61230772727E+01  0.41885498596E+02  0.00000000000E+00 0. -1.
        -12    1    3    3    0    0  0.10966523722E+02 -0.94707485554E+00 -0.79298617236E+02  0.80058930101E+02  0.00000000000E+00 0.  1.
          5    1    4    4  501    0 -0.10263730893E+02 -0.30503928268E+02 -0.10439941389E-02  0.32454679366E+02  0.41800000000E+01 0.  1.
         -5    1    4    4    0  501  0.26737427024E+02 -0.69092151398E+01  0.23700388861E+03  0.23864396676E+03  0.41800000000E+01 0.  1.
</event>
<event>
11    1  0.8328696E-009  0.1346754E+03  0.7561462E-02  0.1113654E+00
         22   -1    0    0    0    0  0.00000000000E+00  0.00000000000E+00  0.19204369341E+03  0.19204369341E+03  0.00000000000E+00 0. -1.
         22   -1    0    0    0    0 -0.00000000000E+00 -0.00000000000E+00 -0.12050209708E+04  0.12050209708E+04  0.00000000000E+00 0.  1.
         24    2    1    2    0    0  0.48884041243E+02 -0.76427880837E+01 -0.72191257332E+03  0.72817993918E+03  0.81487413850E+02 0.  0.
         25    2    1    2    0    0 -0.53199772868E+02 -0.25528503040E+02 -0.45900770400E+03  0.47939286517E+03  0.12509007370E+03 0.  0.
        -24    2    1    2    0    0  0.43157316246E+01  0.33171291124E+02  0.16794299989E+03  0.18949185989E+03  0.81137868203E+02 0.  0.
        -11    1    3    3    0    0  0.18034660121E+02  0.45294461041E+00 -0.64033778995E+03  0.64059186645E+03  0.00000000000E+00 0.  1.
         12    1    3    3    0    0  0.30849381122E+02 -0.80957326941E+01 -0.81574783370E+02  0.87588072734E+02  0.00000000000E+00 0. -1.
         11    1    5    5    0    0 -0.27373354629E+02  0.15003822808E+02  0.14017357668E+03  0.14360726598E+03  0.00000000000E+00 0. -1.
        -12    1    5    5    0    0  0.31689086253E+02  0.18167468317E+02  0.27769423210E+02  0.45884593907E+02  0.00000000000E+00 0.  1.
          5    1    4    4  501    0 -0.27609695934E+02  0.18378399226E+02 -0.40004534058E+03  0.40143966892E+03  0.41800000000E+01 0. -1.
         -5    1    4    4    0  501 -0.25590076934E+02 -0.43906902266E+02 -0.58962363428E+02  0.77953196247E+02  0.41800000000E+01 0. -1.
</event>
<event>
11    1  0.8328696E-009  0.8126463E+03  0.7561462E-02  0.8881005E-01
         22   -1    0    0    0    0  0.00000000000E+00  0.00000000000E+00  0.20237844675E+04  0.20237844675E+04  0.00000000000E+00 0. -1.
         22   -1    0    0    0    0 -0.00000000000E+00 -0.00000000000E+00 -0.83132337614E+03  0.83132337614E+03  0.00000000000E+00 0. -1.
         24    2    1    2    0    0  0.49113398936E+03 -0.17342713042E+03  0.44926482872E+02  0.52894909162E+03  0.80493400925E+02 0.  0.
         25    2    1    2    0    0 -0.18828679235E+03  0.91429362202E+03  0.21649468202E+02  0.94207297918E+03  0.12509218672E+03 0.  0.
        -24    2    1    2    0    0 -0.30284719701E+03 -0.74086649160E+03  0.11258851403E+04  0.13840857728E+04  0.86466724078E+02 0.  0.
        -13    1    3    3    0    0  0.31548137057E+03 -0.91952610647E+02  0.62590875838E+02  0.33451665956E+03  0.00000000000E+00 0.  1.
         14    1    3    3    0    0  0.17565261879E+03 -0.81474519774E+02 -0.17664392967E+02  0.19443243207E+03  0.00000000000E+00 0. -1.
         11    1    5    5    0    0 -0.13505969613E+03 -0.26546926999E+03  0.47734252590E+03  0.56264637372E+03  0.00000000000E+00 0. -1.
        -12    1    5    5    0    0 -0.16778750088E+03 -0.47539722161E+03  0.64854261437E+03  0.82143939912E+03  0.00000000000E+00 0.  1.
          5    1    4    4  501    0  0.11587240858E+02  0.61136835778E+02  0.20999162089E+02  0.65805881562E+02  0.41800000000E+01 0.  1.
         -5    1    4    4    0  501 -0.19987403321E+03  0.85315678624E+03  0.65030611307E+00  0.87626709761E+03  0.41800000000E+01 0.  1.
</event>
<event>
11    1  0.8328696E-009  0.1428483E+03  0.7561462E-02  0.1104419E+00
         22   -1    0    0    0    0  0.00000000000E+00  0.00000000000E+00  0.25685891846E+03  0.25685891846E+03  0.00000000000E+00 0. -1.
         22   -1    0    0    0    0 -0.00000000000E+00 -0.00000000000E+00 -0.22659578489E+03  0.22659578489E+03  0.00000000000E+00 0. -1.
        -24    2    1    2    0    0  0.24814602137E+02 -0.67065755473E+02 -0.13233393283E+03  0.17039402770E+03  0.80051701176E+02 0.  0.
         25    2    1    2    0    0 -0.11822020791E+01  0.61753300224E+02  0.11154372819E+02  0.13995336289E+03  0.12509059141E+03 0.  0.
         24    2    1    2    0    0 -0.23632400058E+02  0.53124552487E+01  0.15144269358E+03  0.17310731276E+03  0.80277890967E+02 0.  0.
        -13    1    5    5    0    0  0.93379532102E+01  0.75876926814E+01 -0.51334189518E+01  0.13081377623E+02  0.00000000000E+00 0.  1.
         14    1    5    5    0    0 -0.32970353268E+02 -0.22752374327E+01  0.15657611253E+03  0.16002593513E+03  0.00000000000E+00 0. -1.
         11    1    3    3    0    0  0.24711836028E+02 -0.62272752680E+02 -0.14343041742E+03  0.15830620710E+03  0.00000000000E+00 0. -1.
        -12    1    3    3    0    0  0.10276610955E+00 -0.47930027933E+01  0.11096484587E+02  0.12087820599E+02  0.00000000000E+00 0.  1.
          5    1    4    4  501    0 -0.20580768326E+02  0.92122003086E+02 -0.14403825881E+02  0.95577058322E+02  0.41800000000E+01 0.  1.
         -5    1    4    4    0  501  0.19398566247E+02 -0.30368702862E+02  0.25558198701E+02  0.44376304564E+02  0.41800000000E+01 0.  1.
</event>
<event>
11    1  0.8328696E-009  0.2547165E+03  0.7561462E-02  0.1021416E+00
         22   -1    0    0    0    0  0.00000000000E+00  0.00000000000E+00  0.88332562273E+03  0.88332562273E+03  0.00000000000E+00 0. -1.
         22   -1    0    0    0    0 -0.00000000000E+00 -0.00000000000E+00 -0.42447639006E+03  0.42447639006E+03  0.00000000000E+00 0. -1.
         24    2    1    2    0    0  0.30431417390E+02  0.22469401701E+03 -0.30280059277E+03  0.38671996149E+03  0.80315983362E+02 0.  0.
         25    2    1    2    0    0 -0.25455066366E+02 -0.19917942120E+03  0.10518643302E+03  0.25890607663E+03  0.12509104122E+03 0.  0.
        -24    2    1    2    0    0 -0.49763510240E+01 -0.25514595815E+02  0.65646339242E+03  0.66217597467E+03  0.82807470487E+02 0.  0.
        -11    1    3    3    0    0  0.37203481153E+02  0.94659832024E+02 -0.83135897638E+02  0.13136270508E+03  0.00000000000E+00 0.  1.
         12    1    3    3    0    0 -0.67720637639E+01  0.13003418499E+03 -0.21966469513E+03  0.25535725641E+03  0.00000000000E+00 0. -1.
         13    1    5    5    0    0  0.32440724100E+02  0.59453963479E+01  0.37958720327E+03  0.38101731353E+03  0.00000000000E+00 0. -1.
        -14    1    5    5    0    0 -0.37417075124E+02 -0.31459992163E+02  0.27687618915E+03  0.28115866114E+03  0.00000000000E+00 0.  1.
          5    1    4    4  501    0 -0.95379476224E+01 -0.21060044001E+03  0.77320428501E+02  0.22458726331E+03  0.41800000000E+01 0. -1.
         -5    1    4    4    0  501 -0.15917118743E+02  0.11421018815E+02  0.27866004517E+02  0.34318813319E+02  0.41800000000E+01 0. -1.
</event>
<event>
11    1  0.8328696E-009  0.1828349E+03  0.7561462E-02  0.1067373E+00
         22   -1    0    0    0    0  0.00000000000E+00  0.00000000000E+00  0.14407974402E+03  0.14407974402E+03  0.00000000000E+00 0.  1.
         22   -1    0    0    0    0 -0.00000000000E+00 -0.00000000000E+00 -0.28055789859E+04  0.28055789859E+04  0.00000000000E+00 0.  1.
        -24    2    1    2    0    0  0.12858127618E+03 -0.30230808637E+02 -0.23790117374E+04  0.23840266772E+04  0.80245275252E+02 0.  0.
         25    2    1    2    0    0 -0.14729311902E+03  0.48883526658E+01 -0.38529656857E+03  0.43106916674E+03  0.12509205356E+03 0.  0.
         24    2    1    2    0    0  0.18711842839E+02  0.25342455972E+02  0.10280906411E+03  0.13456288602E+03  0.80901752103E+02 0.  0.
        -11    1    5    5    0    0 -0.11135896776E+01  0.33681539846E+02  0.10740638787E+03  0.11256917146E+03  0.00000000000E+00 0.  1.
         12    1    5    5    0    0  0.19825432516E+02 -0.83390838739E+01 -0.45973237581E+01  0.21993714558E+02  0.00000000000E+00 0. -1.
         11    1    3    3    0    0 -0.58240267388E+01  0.13432091807E+01 -0.17695530818E+02  0.18677668732E+02  0.00000000000E+00 0. -1.
        -12    1    3    3    0    0  0.13440530292E+03 -0.31574017818E+02 -0.23613162066E+04  0.23653490084E+04  0.00000000000E+00 0.  1.
          5    1    4    4  501    0  0.13948509706E+02 -0.35835565953E+01 -0.11662160352E+03  0.11758177414E+03  0.41800000000E+01 0. -1.
         -5    1    4    4    0  501 -0.16124162872E+03  0.84719092610E+01 -0.26867496504E+03  0.31348739260E+03  0.41800000000E+01 0. -1.
</event>
<event>
11    1  0.8328696E-009  0.2693648E+03  0.7561462E-02  0.1014061E+00
         22   -1    0    0    0    0  0.00000000000E+00  0.00000000000E+00  0.13597608954E+04  0.13597608954E+04  0.00000000000E+00 0. -1.
         22   -1    0    0    0    0 -0.00000000000E+00 -0.00000000000E+00 -0.18393304883E+03  0.18393304883E+03  0.00000000000E+00 0.  1.
        -24    2    1    2    0    0 -0.16573386144E+03 -0.19297972891E+03  0.17142170000E+02  0.26775175039E+03  0.81781765971E+02 0.  0.
         25    2    1    2    0    0  0.30715992796E+02  0.22618884370E+03  0.28521390244E+03  0.38613368849E+03  0.12508952800E+03 0.  0.
         24    2    1    2    0    0  0.13501786864E+03 -0.33209114794E+02  0.87347177415E+03  0.88980850538E+03  0.97332244649E+02 0.  0.
        -11    1    5    5    0    0  0.13732748358E+03 -0.21331770294E+02  0.59266109633E+03  0.60873726456E+03  0.00000000000E+00 0.  1.
         12    1    5    5    0    0 -0.23096149330E+01 -0.11877344500E+02  0.28081067782E+03  0.28107124082E+03  0.00000000000E+00 0. -1.
         11    1    3    3    0    0 -0.19337058648E+02 -0.14456697348E+02 -0.23080277523E+02  0.33400855466E+02  0.00000000000E+00 0. -1.
        -12    1    3    3    0    0 -0.14639680279E+03 -0.17852303156E+03  0.40222447523E+02  0.23435089492E+03  0.00000000000E+00 0.  1.
          5    1    4    4  501    0 -0.20943365154E+02  0.49857568225E+02  0.14546217227E+03  0.15524534652E+03  0.41800000000E+01 0. -1.
         -5    1    4    4    0  501  0.51659357951E+02  0.17633127548E+03  0.13975173017E+03  0.23088834198E+03  0.41800000000E+01 0. -1.
</event>
<event>
11    1  0.8328696E-009  0.1615161E+03  0.7561462E-02  0.1085660E+00
         22   -1    0    0    0    0  0.00000000000E+00  0.00000000000E+00  0.25177169998E+03  0.25177169998E+03  0.00000000000E+00 0. -1.
         22   -1    0    0    0    0 -0.00000000000E+00 -0.00000000000E+00 -0.19546459284E+04  0.19546459284E+04  0.00000000000E+00 0. -1.
         24    2    1    2    0    0 -0.18529593091E+02  0.16068731100E+02 -0.12754261085E+04  0.12781625988E+04  0.79914459774E+02 0.  0.
         25    2    1    2    0    0  0.73500080082E+02 -0.10138104509E+03 -0.64618677206E+03  0.66998908290E+03  0.12509056217E+03 0.  0.
        -24    2    1    2    0    0 -0.54970486990E+02  0.85312313991E+02  0.21873865208E+03  0.25826594670E+03  0.92491923700E+02 0.  0.
        -11    1    3    3    0    0 -0.33559452140E+02  0.41310489838E+02 -0.72339294681E+03  0.72534829488E+03  0.00000000000E+00 0.  1.
         12    1    3    3    0    0  0.15029859049E+02 -0.25241758738E+02 -0.55203316167E+03  0.55281430393E+03  0.00000000000E+00 0. -1.
         11    1    5    5    0    0 -0.52419634473E+02  0.46886019392E+00  0.82088036040E+02  0.97398580939E+02  0.00000000000E+00 0. -1.
        -12    1    5    5    0    0 -0.25508525176E+01  0.84843453797E+02  0.13665061604E+03  0.16086736576E+03  0.00000000000E+00 0.  1.
          5    1    4    4  501    0 -0.16413441292E+02 -0.40190206557E+02 -0.62325211400E+02  0.76069429696E+02  0.41800000000E+01 0.  1.
         -5    1    4    4    0  501  0.89913521373E+02 -0.61190838534E+02 -0.58386156066E+03  0.59391965320E+03  0.41800000000E+01 0.  1.
</event>
<event>
11    1  0.8328696E-009  0.1526237E+03  0.7561462E-02  0.1094228E+00
         22   -1    0    0    0    0  0.00000000000E+00  0.00000000000E+00  0.64905487288E+03  0.64905487288E+03  0.00000000000E+00 0. -1.
         22   -1    0    0    0    0 -0.00000000000E+00 -0.00000000000E+00 -0.50789999170E+03  0.50789999170E+03  0.00000000000E+00 0.  1.
         24    2    1    2    0    0 -0.28403628868E+02 -0.88797746501E+02 -0.44316366087E+03  0.46001401569E+03  0.80790212309E+02 0.  0.
         25    2    1    2    0    0  0.70781218750E+02  0.29920682538E+01  0.56310818796E+02  0.15439269640E+03  0.12508902025E+03 0.  0.
        -24    2    1    2    0    0 -0.42377589882E+02  0.85805678247E+02  0.52800772325E+03  0.54254815249E+03  0.80049156218E+02 0.  0.
        -13    1    3    3    0    0  0.22441076172E+02 -0.51944455434E+02 -0.15287834815E+03  0.16301416406E+03  0.00000000000E+00 0.  1.
         14    1    3    3    0    0 -0.50844705039E+02 -0.36853291067E+02 -0.29028531271E+03  0.29699985163E+03  0.00000000000E+00 0. -1.
         11    1    5    5    0    0 -0.43797368057E+02  0.32290872161E+02  0.12959935875E+03  0.14055925321E+03  0.00000000000E+00 0. -1.
        -12    1    5    5    0    0  0.14197781749E+01  0.53514806086E+02  0.39840836450E+03  0.40198889928E+03  0.00000000000E+00 0.  1.
          5    1    4    4  501    0  0.93496966650E+02  0.18746395346E+02  0.74462306168E+02  0.12105873596E+03  0.41800000000E+01 0.  1.
         -5    1    4    4    0  501 -0.22715747900E+02 -0.15754327093E+02 -0.18151487373E+02  0.33333960440E+02  0.41800000000E+01 0.  1.
</event>
<event>
11    1  0.8328696E-009  0.1483822E+03  0.7561462E-02  0.1098543E+00
         22   -1    0    0    0    0  0.00000000000E+00  0.00000000000E+00  0.12523678646E+04  0.12523678646E+04  0.00000000000E+00 0.  1.
         22   -1    0    0    0    0 -0.00000000000E+00 -0.00000000000E+00 -0.22890193352E+03  0.22890193352E+03  0.00000000000E+00 0.  1.
         24    2    1    2    0    0 -0.79823727791E+02 -0.28137344122E+01 -0.20266593776E+03  0.23238023242E+03  0.80915668893E+02 0.  0.
         25    2    1    2    0    0  0.76976759116E+02  0.71563963861E+01  0.61645589538E+03  0.63375231548E+03  0.12508993154E+03 0.  0.
        -24    2    1    2    0    0  0.28469686740E+01 -0.43426619739E+01  0.60967597348E+03  0.61513725024E+03  0.81621566118E+02 0.  0.
        -13    1    3    3    0    0 -0.35668216415E+02 -0.38573864120E+02 -0.12943586645E+03  0.13969183290E+03  0.00000000000E+00 0.  1.
         14    1    3    3    0    0 -0.44155511376E+02  0.35760129708E+02 -0.73230071303E+02  0.92688399515E+02  0.00000000000E+00 0. -1.
         13    1    5    5    0    0  0.19022727942E+02  0.33630719005E+02  0.36065563422E+03  0.36271941764E+03  0.00000000000E+00 0. -1.
        -14    1    5    5    0    0 -0.16175759268E+02 -0.37973380979E+02  0.24902033926E+03  0.25241783260E+03  0.00000000000E+00 0.  1.
          5    1    4    4  501    0  0.26942571948E+02 -0.42464636095E+02  0.45170360599E+03  0.45451377050E+03  0.41800000000E+01 0. -1.
         -5    1    4    4    0  501  0.50034187168E+02  0.49621032481E+02  0.16475228939E+03  0.17923854499E+03  0.41800000000E+01 0. -1.
</event>
<event>
11    1  0.8328696E-009  0.1839874E+03  0.7561462E-02  0.1066462E+00
         22   -1    0    0    0    0  0.00000000000E+00  0.00000000000E+00  0.53792110512E+03  0.53792110512E+03  0.00000000000E+00 0.  1.
         22   -1    0    0    0    0 -0.00000000000E+00 -0.00000000000E+00 -0.59334333967E+03  0.59334333967E+03  0.00000000000E+00 0.  1.
         24    2    1    2    0    0 -0.13042461896E+03  0.47013781839E+02 -0.54527805233E+03  0.56922811414E+03  0.86438502232E+02 0.  0.
         25    2    1    2    0    0  0.38120074736E+02 -0.68700212794E+02  0.22007862318E+03  0.26505631442E+03  0.12508952832E+03 0.  0.
        -24    2    1    2    0    0  0.92304544221E+02  0.21686430954E+02  0.26977719460E+03  0.29698001623E+03  0.80168354998E+02 0.  0.
        -11    1    3    3    0    0 -0.46330163240E+02  0.62146937607E+02 -0.23913908525E+03  0.25138859953E+03  0.00000000000E+00 0.  1.
         12    1    3    3    0    0 -0.84094455717E+02 -0.15133155768E+02 -0.30613896708E+03  0.31783951461E+03  0.00000000000E+00 0. -1.
         13    1    5    5    0    0  0.35907484234E+02 -0.30628604079E+02  0.10651144179E+03  0.11649955384E+03  0.00000000000E+00 0. -1.
        -14    1    5    5    0    0  0.56397059987E+02  0.52315035034E+02  0.16326575281E+03  0.18048046240E+03  0.00000000000E+00 0.  1.
          5    1    4    4  501    0 -0.37109303251E+02 -0.25317299753E+02  0.13913469571E+03  0.14626688622E+03  0.41800000000E+01 0.  1.
         -5    1    4    4    0  501  0.75229377988E+02 -0.43382913041E+02  0.80943927469E+02  0.11878942819E+03  0.41800000000E+01 0.  1.
</event>
<event>
11    1  0.8328696E-009  0.1850221E+03  0.7561462E-02  0.1065651E+00
         22   -1    0    0    0    0  0.00000000000E+00  0.00000000000E+00  0.22346540768E+04  0.22346540768E+04  0.00000000000E+00 0. -1.
         22   -1    0    0    0    0 -0.00000000000E+00 -0.00000000000E+00 -0.44005900367E+02  0.44005900367E+02  0.00000000000E+00 0.  1.
         24    2    1    2    0    0  0.14004982296E+03  0.89602195898E+01  0.15031312938E+03  0.22116806373E+03  0.81406615826E+02 0.  0.
         25    2    1    2    0    0 -0.10262867603E+03  0.26515602186E+01  0.15727840999E+04  0.15810875402E+04  0.12509320129E+03 0.  0.
        -24    2    1    2    0    0 -0.37421146930E+02 -0.11611779808E+02  0.46755094716E+03  0.47640437324E+03  0.82595780637E+02 0.  0.
        -13    1    3    3    0    0  0.12956847210E+03  0.34839014219E+02  0.12788809756E+03  0.18535671385E+03  0.00000000000E+00 0.  1.
         14    1    3    3    0    0  0.10481350868E+02 -0.25878794629E+02  0.22425031825E+02  0.35811349874E+02  0.00000000000E+00 0. -1.
         11    1    5    5    0    0 -0.29575258265E+02  0.27257750139E+02  0.11917683890E+03  0.12578076074E+03  0.00000000000E+00 0. -1.
        -12    1    5    5    0    0 -0.78458886653E+01 -0.38869529947E+02  0.34837410827E+03  0.35062361249E+03  0.00000000000E+00 0.  1.
          5    1    4    4  501    0 -0.72483471446E+02 -0.15786601543E+02  0.35064565736E+03  0.35843119263E+03  0.41800000000E+01 0.  1.
         -5    1    4    4    0  501 -0.30145204589E+02  0.18438161761E+02  0.12221384425E+04  0.12226563476E+04  0.41800000000E+01 0.  1.
</event>
<event>
11    1  0.8328696E-009  0.1437925E+03  0.7561462E-02  0.1103396E+00
         22   -1    0    0    0    0  0.00000000000E+00  0.00000000000E+00  0.31695697074E+03  0.31695697074E+03  0.00000000000E+00 0. -1.
         22   -1    0    0    0    0 -0.00000000000E+00 -0.00000000000E+00 -0.31365365130E+04  0.31365365130E+04  0.00000000000E+00 0. -1.
         24    2    1    2    0    0  0.26479470877E+02  0.29007073030E+02 -0.30698719914E+04  0.30711286518E+04  0.78578496337E+02 0.  0.
         25    2    1    2    0    0  0.14597372588E+02 -0.84342545803E+02  0.57262974475E+02  0.16202728474E+03  0.12508814666E+03 0.  0.
        -24    2    1    2    0    0 -0.41076843466E+02  0.55335472773E+02  0.19302947462E+03  0.22033754717E+03  0.80863681609E+02 0.  0.
        -11    1    3    3    0    0 -0.17584561368E+02 -0.72781414699E+01 -0.26782492785E+03  0.26850024231E+03  0.00000000000E+00 0.  1.
         12    1    3    3    0    0  0.44064032246E+02  0.36285214500E+02 -0.28020470635E+04  0.28026284095E+04  0.00000000000E+00 0. -1.
         13    1    5    5    0    0 -0.90946225998E+01  0.50632250894E+02  0.17686652127E+03  0.18419582877E+03  0.00000000000E+00 0. -1.
        -14    1    5    5    0    0 -0.31982220866E+02  0.47032218790E+01  0.16162953350E+02  0.36141718395E+02  0.00000000000E+00 0.  1.
          5    1    4    4  501    0  0.20790742265E+02 -0.11562336860E+03  0.34115400872E+02  0.12240241545E+03  0.41800000000E+01 0.  1.
         -5    1    4    4    0  501 -0.61933696764E+01  0.31280822797E+02  0.23147573603E+02  0.39624869293E+02  0.41800000000E+01 0.  1.
</event>
<event>
11    1  0.8328696E-009  0.2115398E+03  0.7561462E-02  0.1046650E+00
         22   -1    0    0    0    0  0.00000000000E+00  0.00000000000E+00  0.46784085201E+03  0.46784085201E+03  0.00000000000E+00 0. -1.
         22   -1    0    0    0    0 -0.00000000000E+00 -0.00000000000E+00 -0.24216381975E+04  0.24216381975E+04  0.00000000000E+00 0.  1.
        -24    2    1    2    0    0  0.83997767390E+02 -0.32235937809E+02 -0.22721053834E+04  0.22753089563E+04  0.80456152234E+02 0.  0.
         25    2    1    2    0    0 -0.23813872323E+03 -0.18645603652E+01  0.23526095203E+02  0.27002797572E+03  0.12509237558E+03 0.  0.
         24    2    1    2    0    0  0.15414095584E+03  0.34100498174E+02  0.29478194274E+03  0.34414211753E+03  0.81333419022E+02 0.  0.
        -11    1    5    5    0    0  0.13925176840E+03  0.68485429544E+01  0.19553144446E+03  0.24014683699E+03  0.00000000000E+00 0.  1.
         12    1    5    5    0    0  0.14889187436E+02  0.27251955220E+02  0.99250498274E+02  0.10399528053E+03  0.00000000000E+00 0. -1.
         11    1    3    3    0    0 -0.66230153427E+01  0.15611129591E+02 -0.22369633813E+03  0.22433818978E+03  0.00000000000E+00 0. -1.
        -12    1    3    3    0    0  0.90620782732E+02 -0.47847067400E+02 -0.20484090453E+04  0.20509707665E+04  0.00000000000E+00 0.  1.
          5    1    4    4  501    0 -0.16963783104E+03 -0.29570925343E+02 -0.34886102794E+02  0.17574397832E+03  0.41800000000E+01 0.  1.
         -5    1    4    4    0  501 -0.68500892185E+02  0.27706364978E+02  0.58412197997E+02  0.94283997398E+02  0.41800000000E+01 0.  1.
</event>
<event>
11    1  0.8328696E-009  0.1324057E+03  0.7561462E-02  0.1116348E+00
         22   -1    0    0    0    0  0.00000000000E+00  0.00000000000E+00  0.35820904773E+02  0.35820904773E+02  0.00000000000E+00 0. -1.
         22   -1    0    0    0    0 -0.00000000000E+00 -0.00000000000E+00 -0.22597913543E+04  0.22597913543E+04  0.00000000000E+00 0. -1.
        -24    2    1    2    0    0 -0.34124640724E+01 -0.42462669433E+02 -0.17887031903E+04  0.17908994799E+04  0.77763235740E+02 0.  0.
         25    2    1    2    0    0 -0.28925528929E+02  0.63557342700E+02 -0.36102321964E+03  0.38840898893E+03  0.12509018958E+03 0.  0.
         24    2    1    2    0    0  0.32337993001E+02 -0.21094673267E+02 -0.74244039554E+02  0.11630379023E+03  0.80769196980E+02 0.  0.
        -13    1    5    5    0    0  0.26638196915E+02  0.39220809501E+01 -0.84489414975E+02  0.88676025490E+02  0.00000000000E+00 0.  1.
         14    1    5    5    0    0  0.56997960866E+01 -0.25016754217E+02  0.10245375421E+02  0.27627764739E+02  0.00000000000E+00 0. -1.
         13    1    3    3    0    0  0.94602232595E+01 -0.61706400673E+02 -0.14867166182E+04  0.14880267062E+04  0.00000000000E+00 0. -1.
        -14    1    3    3    0    0 -0.12872687332E+02  0.19243731240E+02 -0.30198657216E+03  0.30287277368E+03  0.00000000000E+00 0.  1.
          5    1    4    4  501    0 -0.22323948381E+02 -0.34089703055E+02 -0.67349889609E+02  0.78828589713E+02  0.41800000000E+01 0. -1.
         -5    1    4    4    0  501 -0.66015805477E+01  0.97647045754E+02 -0.29367333003E+03  0.30958039922E+03  0.41800000000E+01 0. -1.
</event>
<event>
11    1  0.8328696E-009  0.2971585E+03  0.7561462E-02  0.1001401E+00
         22   -1    0    0    0    0  0.00000000000E+00  0.00000000000E+00  0.43281195934E+03  0.43281195934E+03  0.00000000000E+00 0.  1.
         22   -1    0    0    0    0 -0.00000000000E+00 -0.00000000000E+00 -0.10098900109E+04  0.10098900109E+04  0.00000000000E+00 0. -1.
         24    2    1    2    0    0 -0.20978402601E+03  0.18121572698E+03 -0.78833232891E+03  0.83955580524E+03  0.80855500947E+02 0.  0.
         25    2    1    2    0    0  0.17558598880E+03 -0.16461488628E+03 -0.93135279178E+02  0.28679948408E+03  0.12510501027E+03 0.  0.
        -24    2    1    2    0    0  0.34198037208E+02 -0.16600840705E+02  0.30438955653E+03  0.31634668092E+03  0.77311879677E+02 0.  0.
        -11    1    3    3    0    0 -0.32994247827E+02  0.46372012626E+02 -0.26335323775E+03  0.26943257371E+03  0.00000000000E+00 0.  1.
         12    1    3    3    0    0 -0.17678977818E+03  0.13484371435E+03 -0.52497909116E+03  0.57012323152E+03  0.00000000000E+00 0. -1.
         13    1    5    5    0    0 -0.94121234704E+01 -0.49021825671E+01  0.22450863256E+01  0.10847113660E+02  0.00000000000E+00 0. -1.
        -14    1    5    5    0    0  0.43610160679E+02 -0.11698658138E+02  0.30214447021E+03  0.30549956726E+03  0.00000000000E+00 0.  1.
          5    1    4    4  501    0  0.13167753440E+02  0.84016593961E+01 -0.40614007127E+02  0.43714386490E+02  0.41800000000E+01 0. -1.
         -5    1    4    4    0  501  0.16241823536E+03 -0.17301654567E+03 -0.52521272052E+02  0.24308509759E+03  0.41800000000E+01 0. -1.
</event>
<event>
11    1  0.8328696E-009  0.1830517E+03  0.7561462E-02  0.1067201E+00
         22   -1    0    0    0    0  0.00000000000E+00  0.00000000000E+00  0.53728369353E+03  0.53728369353E+03  0.00000000000E+00 0.  1.
         22   -1    0    0    0    0 -0.00000000000E+00 -0.00000000000E+00 -0.10478467626E+04  0.10478467626E+04  0.00000000000E+00 0. -1.
        -24    2    1    2    0    0 -0.21025516730E+02 -0.85753143660E+01 -0.98699107987E+03  0.99068004523E+03  0.82340463246E+02 0.  0.
         25    2    1    2    0    0 -0.11912910801E+03  0.15366413396E+02  0.14921688507E+03  0.22877918160E+03  0.12508542724E+03 0.  0.
         24    2    1    2    0    0  0.14015462474E+03 -0.67910990301E+01  0.32721112575E+03  0.36567122928E+03  0.83419957155E+02 0.  0.
        -11    1    5    5    0    0  0.76316273116E+02  0.26861556897E+02  0.23526028744E+03  0.24878327843E+03  0.00000000000E+00 0.  1.
         12    1    5    5    0    0  0.63838351623E+02 -0.33652655927E+02  0.91950838304E+02  0.11688795085E+03  0.00000000000E+00 0. -1.
         11    1    3    3    0    0 -0.16324495312E+02 -0.22455786796E+01 -0.98001172968E+03  0.98015025485E+03  0.00000000000E+00 0. -1.
        -12    1    3    3    0    0 -0.47010214176E+01 -0.63297356864E+01 -0.69793501919E+01  0.10529790374E+02  0.00000000000E+00 0.  1.
          5    1    4    4  501    0 -0.45925985191E+02  0.65061798916E+02  0.98409905658E+02  0.12666576383E+03  0.41800000000E+01 0. -1.
         -5    1    4    4    0  501 -0.73203122818E+02 -0.49695385520E+02  0.50806979417E+02  0.10211341778E+03  0.41800000000E+01 0. -1.
</event>
<event>
11    1  0.8328696E-009  0.2500490E+03  0.7561462E-02  0.1023873E+00
         22   -1    0    0    0    0  0.00000000000E+00  0.00000000000E+00  0.11872994855E+04  0.11872994855E+04  0.00000000000E+00 0.  1.
         22   -1    0    0    0    0 -0.00000000000E+00 -0.00000000000E+00 -0.13399418552E+04  0.13399418552E+04  0.00000000000E+00 0.  1.
        -24    2    1    2    0    0 -0.18677865780E+03 -0.93774304442E+02 -0.11059966969E+04  0.11283918659E+04  0.79747240534E+02 0.  0.
         25    2    1    2    0    0  0.32772900531E+03  0.41598115413E+02 -0.71098287731E+02  0.36033172304E+03  0.12508908819E+03 0.  0.
         24    2    1    2    0    0 -0.14095034752E+03  0.52176189029E+02  0.10244526149E+04  0.10385177518E+04  0.80166111116E+02 0.  0.
        -11    1    5    5    0    0 -0.13895090417E+03  0.39727549339E+02  0.10049920473E+04  0.10153298218E+04  0.00000000000E+00 0.  1.
         12    1    5    5    0    0 -0.19994433445E+01  0.12448639690E+02  0.19460567676E+02  0.23187930008E+02  0.00000000000E+00 0. -1.
         11    1    3    3    0    0 -0.39895737560E+02 -0.90389663639E+01 -0.97428320895E+02  0.10566764169E+03  0.00000000000E+00 0. -1.
        -12    1    3    3    0    0 -0.14688292024E+03 -0.84735338078E+02 -0.10085683760E+04  0.10227242242E+04  0.00000000000E+00 0.  1.
          5    1    4    4  501    0  0.12485163516E+03 -0.42545515250E+02 -0.43383105324E+02  0.13891586626E+03  0.41800000000E+01 0. -1.
         -5    1    4    4    0  501  0.20287737015E+03  0.84143630662E+02 -0.27715182407E+02  0.22141585679E+03  0.41800000000E+01 0. -1.
</event>
<event>
11    1  0.8328696E-009  0.1346569E+03  0.7561462E-02  0.1113676E+00
         22   -1    0    0    0    0  0.00000000000E+00  0.00000000000E+00  0.50830646791E+03  0.50830646791E+03  0.00000000000E+00 0. -1.
         22   -1    0    0    0    0 -0.00000000000E+00 -0.00000000000E+00 -0.85994932917E+03  0.85994932917E+03  0.00000000000E+00 0. -1.
        -24    2    1    2    0    0 -0.47967506208E+02  0.18180556990E+02 -0.80792778290E+03  0.81361750877E+03  0.81207966923E+02 0.  0.
         25    2    1    2    0    0  0.63074423455E+00 -0.88586359077E+01  0.45915021767E+02  0.13355106801E+03  0.12509526479E+03 0.  0.
         24    2    1    2    0    0  0.47336761974E+02 -0.93219210822E+01  0.41036989987E+03  0.42108722030E+03  0.81137692396E+02 0.  0.
        -11    1    5    5    0    0  0.38335490919E+02 -0.40393366112E+02  0.17888163323E+03  0.18734959994E+03  0.00000000000E+00 0.  1.
         12    1    5    5    0    0  0.90012710547E+01  0.31071445030E+02  0.23148826665E+03  0.23373762036E+03  0.00000000000E+00 0. -1.
         13    1    3    3    0    0  0.10232649804E+02  0.15363933039E+02 -0.49294880143E+03  0.49329431214E+03  0.00000000000E+00 0. -1.
        -14    1    3    3    0    0 -0.58200156013E+02  0.28166239504E+01 -0.31497898147E+03  0.32032319663E+03  0.00000000000E+00 0.  1.
          5    1    4    4  501    0  0.57288373657E+02 -0.26918082359E+02  0.10750963702E+02  0.64339696415E+02  0.41800000000E+01 0.  1.
         -5    1    4    4    0  501 -0.56657629423E+02  0.18059446451E+02  0.35164058065E+02  0.69211371591E+02  0.41800000000E+01 0.  1.
</event>
<event>
11    1  0.8328696E-009  0.1258370E+03  0.7561462E-02  0.1124492E+00
         22   -1    0    0    0    0  0.00000000000E+00  0.00000000000E+00  0.18008405344E+03  0.18008405344E+03  0.00000000000E+00 0.  1.
         22   -1    0    0    0    0 -0.00000000000E+00 -0.00000000000E+00 -0.67219445480E+03  0.67219445480E+03  0.00000000000E+00 0. -1.
        -24    2    1    2    0    0 -0.53014404957E+00 -0.47193739230E+01 -0.38302515028E+03  0.39150036142E+03  0.80880861154E+02 0.  0.
         25    2    1    2    0    0  0.88249495936E+01  0.47446863552E+02 -0.25915476295E+03  0.29178273839E+03  0.12508753202E+03 0.  0.
         24    2    1    2    0    0 -0.82948055441E+01 -0.42727489629E+02  0.15006951187E+03  0.16899540843E+03  0.64375053483E+02 0.  0.
        -13    1    5    5    0    0  0.18520296544E+00 -0.32583856085E+02  0.15216002381E+03  0.15560981596E+03  0.00000000000E+00 0.  1.
         14    1    5    5    0    0 -0.84800085095E+01 -0.10143633545E+02 -0.20905119390E+01  0.13385592478E+02  0.00000000000E+00 0. -1.
         13    1    3    3    0    0  0.13670604149E+02 -0.37984662721E+02 -0.26500134822E+03  0.26805864019E+03  0.00000000000E+00 0. -1.
        -14    1    3    3    0    0 -0.14200748199E+02  0.33265288798E+02 -0.11802380206E+03  0.12344172123E+03  0.00000000000E+00 0.  1.
          5    1    4    4  501    0 -0.39090819494E+02 -0.25375753755E+02 -0.92136769020E+02  0.10333768748E+03  0.41800000000E+01 0. -1.
         -5    1    4    4    0  501  0.47915769088E+02  0.72822617307E+02 -0.16701799393E+03  0.18844505091E+03  0.41800000000E+01 0. -1.
</event>
<event>
11    1  0.8328696E-009  0.1384812E+03  0.7561462E-02  0.1109266E+00
         22   -1    0    0    0    0  0.00000000000E+00  0.00000000000E+00  0.20325052754E+04  0.20325052754E+04  0.00000000000E+00 0.  1.
         22   -1    0    0    0    0 -0.00000000000E+00 -0.00000000000E+00 -0.11944482239E+03  0.11944482239E+03  0.00000000000E+00 0. -1.
         24    2    1    2    0    0  0.17040862473E+00  0.15406016331E+02 -0.68620521035E+02  0.10666703678E+03  0.80197920480E+02 0.  0.
         25    2    1    2    0    0  0.56847735101E+02 -0.31456943924E+02  0.13267438363E+03  0.19357536531E+03  0.12509086968E+03 0.  0.
        -24    2    1    2    0    0 -0.57018143725E+02  0.16050927592E+02  0.18490065904E+04  0.18517076957E+04  0.80543888381E+02 0.  0.
        -11    1    3    3    0    0 -0.38035746429E+02  0.12300888331E+02 -0.19841065789E+02  0.44628441064E+02  0.00000000000E+00 0.  1.
         12    1    3    3    0    0  0.38206155054E+02  0.31051280001E+01 -0.48779455246E+02  0.62038595712E+02  0.00000000000E+00 0. -1.
         11    1    5    5    0    0  0.19250231763E+02 -0.67120385310E+01  0.37924120421E+03  0.37978877531E+03  0.00000000000E+00 0. -1.
        -12    1    5    5    0    0 -0.76268375488E+02  0.22762966123E+02  0.14697653862E+04  0.14719189204E+04  0.00000000000E+00 0.  1.
          5    1    4    4  501    0 -0.32133183307E+02  0.18278931239E+02  0.49630810546E+02  0.62027014697E+02  0.41800000000E+01 0.  1.
         -5    1    4    4    0  501  0.88980918407E+02 -0.49735875163E+02  0.83043573087E+02  0.13154835062E+03  0.41800000000E+01 0.  1.
</event>
<event>
11    1  0.8328696E-009  0.1848991E+03  0.7561462E-02  0.1065747E+00
         22   -1    0    0    0    0  0.00000000000E+00  0.00000000000E+00  0.39740024826E+03  0.39740024826E+03  0.00000000000E+00 0.  1.
         22   -1    0    0    0    0 -0.00000000000E+00 -0.00000000000E+00 -0.37995760052E+03  0.37995760052E+03  0.00000000000E+00 0. -1.
        -24    2    1    2    0    0  0.48971672696E+02  0.61330435071E+02 -0.26316547193E+03  0.28923725866E+03  0.90788100486E+02 0.  0.
         25    2    1    2    0    0 -0.16714827102E+03 -0.89713459712E+02  0.81336190996E+02  0.24135048011E+03  0.12508968353E+03 0.  0.
         24    2    1    2    0    0  0.11817659832E+03  0.28383024641E+02  0.19927192867E+03  0.24677011000E+03  0.80092953214E+02 0.  0.
        -11    1    5    5    0    0  0.51763434640E+02  0.11769667834E+02  0.15835269058E+03  0.16701363076E+03  0.00000000000E+00 0.  1.
         12    1    5    5    0    0  0.66413163684E+02  0.16613356807E+02  0.40919238096E+02  0.79756479243E+02  0.00000000000E+00 0. -1.
         13    1    3    3    0    0  0.41624826495E+02  0.84907796107E+02 -0.22084513215E+03  0.24023849070E+03  0.00000000000E+00 0. -1.
        -14    1    3    3    0    0  0.73468462006E+01 -0.23577361036E+02 -0.42320339779E+02  0.48998767959E+02  0.00000000000E+00 0.  1.
          5    1    4    4  501    0 -0.94108885552E+01  0.28128756243E+02  0.63652297917E+01  0.30623198746E+02  0.41800000000E+01 0. -1.
         -5    1    4    4    0  501 -0.15773738246E+03 -0.11784221595E+03  0.74970961204E+02  0.21072728137E+03  0.41800000000E+01 0. -1.
</event>
<event>
11    1  0.8328696E-009  0.1823213E+03  0.7561462E-02  0.1067780E+00
         22   -1    0    0    0    0  0.00000000000E+00  0.00000000000E+00  0.25620738254E+03  0.25620738254E+03  0.00000000000E+00 0. -1.
         22   -1    0    0    0    0 -0.00000000000E+00 -0.00000000000E+00 -0.73755684554E+03  0.73755684554E+03  0.00000000000E+00 0. -1.
         24    2    1    2    0    0  0.13655878627E+03 -0.43878368633E+02 -0.45142295621E+03  0.48036539906E+03  0.79966354718E+02 0.  0.
         25    2    1    2    0    0 -0.11854284797E+03 -0.15112763908E+02 -0.23605895298E+03  0.29266483689E+03  0.12509226606E+03 0.  0.
        -24    2    1    2    0    0 -0.18015938301E+02  0.58991132541E+02  0.20613244620E+03  0.22073399213E+03  0.49278617633E+02 0.  0.
        -11    1    3    3    0    0  0.85553614758E+02 -0.66520516131E+02 -0.30318044322E+03  0.32196704989E+03  0.00000000000E+00 0.  1.
         12    1    3    3    0    0  0.51005171512E+02  0.22642147498E+02 -0.14824251299E+03  0.15839834918E+03  0.00000000000E+00 0. -1.
         13    1    5    5    0    0 -0.41942169107E+01  0.31312343514E+02  0.17111706954E+03  0.17400892449E+03  0.00000000000E+00 0. -1.
        -14    1    5    5    0    0 -0.13821721391E+02  0.27678789027E+02  0.35015376653E+02  0.46725067644E+02  0.00000000000E+00 0.  1.
          5    1    4    4  501    0 -0.43928067571E+02  0.43425542644E+02 -0.15822523373E+03  0.16990629730E+03  0.41800000000E+01 0.  1.
         -5    1    4    4    0  501 -0.74614780397E+02 -0.58538306553E+02 -0.77833719258E+02  0.12275853959E+03  0.41800000000E+01 0.  1.
</event>
<event>
11    1  0.8328696E-009  0.1368472E+03  0.7561462E-02  0.1111131E+00
         22   -1    0    0    0    0  0.00000000000E+00  0.00000000000E+00  0.90741551681E+03  0.90741551681E+03  0.00000000000E+00 0. -1.
         22   -1    0    0    0    0 -0.00000000000E+00 -0.00000000000E+00 -0.91662847069E+02  0.91662847069E+02  0.00000000000E+00 0. -1.
         24    2    1    2    0    0  0.36561048920E+01 -0.14797864863E+02 -0.51031374273E+02  0.95863573104E+02  0.79707462515E+02 0.  0.
         25    2    1    2    0    0 -0.56138910306E+02 -0.41093251195E+01  0.32635864605E+03  0.35400923340E+03  0.12507640734E+03 0.  0.
        -24    2    1    2    0    0  0.52482805414E+02  0.18907189982E+02  0.54042539796E+03  0.54920555738E+03  0.80344301590E+02 0.  0.
        -11    1    3    3    0    0  0.52534900427E+00 -0.46012024475E+02 -0.15711090868E+02  0.48623253327E+02  0.00000000000E+00 0.  1.
         12    1    3    3    0    0  0.31307558877E+01  0.31214159612E+02 -0.35320283406E+02  0.47240319777E+02  0.00000000000E+00 0. -1.
         13    1    5    5    0    0  0.67229407631E+02  0.80359380385E+01  0.50299970662E+03  0.50753627891E+03  0.00000000000E+00 0. -1.
        -14    1    5    5    0    0 -0.14746602217E+02  0.10871251944E+02  0.37425691343E+02  0.41669278471E+02  0.00000000000E+00 0.  1.
          5    1    4    4  501    0 -0.41166613549E+02 -0.51462908621E+02  0.27350076644E+03  0.28135966783E+03  0.41800000000E+01 0. -1.
         -5    1    4    4    0  501 -0.14972296757E+02  0.47353583501E+02  0.52857879610E+02  0.72649565570E+02  0.41800000000E+01 0. -1.
</event>
<event>
11    1  0.8328696E-009  0.1793784E+03  0.7561462E-02  0.1070147E+00
         22   -1    0    0    0    0  0.00000000000E+00  0.00000000000E+00  0.58155131146E+03  0.58155131146E+03  0.00000000000E+00 0. -1.
         22   -1    0    0    0    0 -0.00000000000E+00 -0.00000000000E+00 -0.32167071469E+03  0.32167071469E+03  0.00000000000E+00 0. -1.
         24    2    1    2    0    0 -0.99799627769E+02  0.86076617711E+02 -0.23486018234E+03  0.28152998849E+03  0.82040717644E+02 0.  0.
         25    2    1    2    0    0  0.12623036897E+03 -0.16379542448E+02  0.84691402478E+02  0.19754639284E+03  0.12509815431E+03 0.  0.
        -24    2    1    2    0    0 -0.26430741196E+02 -0.69697075262E+02  0.41004937663E+03  0.42414564482E+03  0.78757668582E+02 0.  0.
        -13    1    3    3    0    0  0.11921216329E+02  0.35503062804E+01 -0.59787393860E+01  0.13800920190E+02  0.00000000000E+00 0.  1.
         14    1    3    3    0    0 -0.11172084410E+03  0.82526311430E+02 -0.22888144296E+03  0.26772906830E+03  0.00000000000E+00 0. -1.
         13    1    5    5    0    0 -0.40099223672E+01 -0.59972560481E+02  0.38301396044E+03  0.38770153647E+03  0.00000000000E+00 0. -1.
        -14    1    5    5    0    0 -0.22420818829E+02 -0.97245147813E+01  0.27035416195E+02  0.36444108352E+02  0.00000000000E+00 0.  1.
          5    1    4    4  501    0  0.59118441429E+02 -0.64874112946E+02  0.14790645191E+02  0.89105983148E+02  0.41800000000E+01 0.  1.
         -5    1    4    4    0  501  0.67111927537E+02  0.48494570498E+02  0.69900757287E+02  0.10844040969E+03  0.41800000000E+01 0.  1.
</event>
<event>
11    1  0.8328696E-009  0.1748009E+03  0.7561462E-02  0.1073928E+00
         22   -1    0    0    0    0  0.00000000000E+00  0.00000000000E+00  0.18017178585E+04  0.18017178585E+04  0.00000000000E+00 0.  1.
         22   -1    0    0    0    0 -0.00000000000E+00 -0.00000000000E+00 -0.22791759448E+03  0.22791759448E+03  0.00000000000E+00 0. -1.
         24    2    1    2    0    0 -0.12200706990E+03 -0.20316016802E+01 -0.19363214101E+03  0.24258057946E+03  0.80387057370E+02 0.  0.
         25    2    1    2    0    0  0.12510681514E+03 -0.53639347103E+01  0.10286803991E+04  0.10437971758E+04  0.12509473840E+03 0.  0.
        -24    2    1    2    0    0 -0.30997452462E+01  0.73955363906E+01  0.73875200595E+03  0.74325769780E+03  0.81321440399E+02 0.  0.
        -11    1    3    3    0    0 -0.20873927190E+02  0.32986573227E+02 -0.54927332042E+02  0.67385804550E+02  0.00000000000E+00 0.  1.
         12    1    3    3    0    0 -0.10113314271E+03 -0.35018174908E+02 -0.13870480896E+03  0.17519477491E+03  0.00000000000E+00 0. -1.
         11    1    5    5    0    0  0.35901921260E+02  0.12069000884E+02  0.48575759167E+03  0.48723202542E+03  0.00000000000E+00 0. -1.
        -12    1    5    5    0    0 -0.39001666507E+02 -0.46734644937E+01  0.25299441428E+03  0.25602567238E+03  0.00000000000E+00 0.  1.
          5    1    4    4  501    0  0.85320629293E+01  0.44475167233E+02  0.38990024224E+03  0.39254363820E+03  0.41800000000E+01 0.  1.
         -5    1    4    4    0  501  0.11657475221E+03 -0.49839101943E+02  0.63878015689E+03  0.65125353755E+03  0.41800000000E+01 0.  1.
</event>
<event>
11    1  0.8328696E-009  0.1451671E+03  0.7561462E-02  0.1101922E+00
         22   -1    0    0    0    0  0.00000000000E+00  0.00000000000E+00  0.12888721152E+04  0.12888721152E+04  0.00000000000E+00 0. -1.
         22   -1    0    0    0    0 -0.00000000000E+00 -0.00000000000E+00 -0.39802761973E+03  0.39802761973E+03  0.00000000000E+00 0.  1.
         24    2    1    2    0    0 -0.28800778073E+02 -0.19455542920E+02 -0.25023671169E+03  0.26527806940E+03  0.80907597058E+02 0.  0.
         25    2    1    2    0    0  0.18144382466E+02  0.92074964004E+02 -0.93476431201E+02  0.18218777506E+03  0.12509006587E+03 0.  0.
        -24    2    1    2    0    0  0.10656395607E+02 -0.72619421084E+02  0.12345576383E+04  0.12394338904E+04  0.81710876449E+02 0.  0.
        -13    1    3    3    0    0 -0.48963521229E+02 -0.44703550127E+01 -0.22245012746E+03  0.22781894059E+03  0.00000000000E+00 0.  1.
         14    1    3    3    0    0  0.20162743157E+02 -0.14985187908E+02 -0.27786584226E+02  0.37459128810E+02  0.00000000000E+00 0. -1.
         11    1    5    5    0    0 -0.26100391064E+02 -0.52728560710E+02  0.95038421535E+03  0.95220359604E+03  0.00000000000E+00 0. -1.
        -12    1    5    5    0    0  0.36756786671E+02 -0.19890860374E+02  0.28417342298E+03  0.28723029440E+03  0.00000000000E+00 0.  1.
          5    1    4    4  501    0  0.50093646992E+02  0.51121186823E+02  0.38397710479E+01  0.71798088086E+02  0.41800000000E+01 0.  1.
         -5    1    4    4    0  501 -0.31949264527E+02  0.40953777181E+02 -0.97316202249E+02  0.11038968697E+03  0.41800000000E+01 0.  1.
</event>
<event>
11    1  0.8328696E-009  0.4183961E+03  0.7561462E-02  0.9596986E-01
         22   -1    0    0    0    0  0.00000000000E+00  0.00000000000E+00  0.25081145359E+04  0.25081145359E+04  0.00000000000E+00 0.  1.
         22   -1    0    0    0    0 -0.00000000000E+00 -0.00000000000E+00 -0.15985909276E+04  0.15985909276E+04  0.00000000000E+00 0.  1.
         24    2    1    2    0    0 -0.12921600271E+03 -0.36054029847E+03 -0.12280047301E+04  0.12889302119E+04  0.81605096889E+02 0.  0.
         25    2    1    2    0    0  0.14393532414E+03  0.48745067208E+03 -0.13471286551E+03  0.54048202491E+03  0.12509087842E+03 0.  0.
        -24    2    1    2    0    0 -0.14719321432E+02 -0.12691037361E+03  0.22722412039E+04  0.22772932266E+04  0.81617706346E+02 0.  0.
        -13    1    3    3    0    0 -0.94573161659E+02 -0.33621219835E+03 -0.10941689427E+04  0.11485592716E+04  0.00000000000E+00 0.  1.
         14    1    3    3    0    0 -0.34642841050E+02 -0.24328100125E+02 -0.13383578745E+03  0.14037094034E+03  0.00000000000E+00 0. -1.
         13    1    5    5    0    0 -0.28647956371E+02 -0.85522471491E+02  0.93521931255E+03  0.93955838621E+03  0.00000000000E+00 0. -1.
        -14    1    5    5    0    0  0.13928634939E+02 -0.41387902118E+02  0.13370218914E+04  0.13377348404E+04  0.00000000000E+00 0.  1.
          5    1    4    4  501    0  0.89908540312E+02  0.18589729245E+03 -0.10763688389E+03  0.23290453008E+03  0.41800000000E+01 0. -1.
         -5    1    4    4    0  501  0.54026783829E+02  0.30155337964E+03 -0.27075981619E+02  0.30757749482E+03  0.41800000000E+01 0. -1.
</event>
<event>
11    1  0.8328696E-009  0.1406143E+03  0.7561462E-02  0.1106874E+00
         22   -1    0    0    0    0  0.00000000000E+00  0.00000000000E+00  0.25362203416E+04  0.25362203416E+04  0.00000000000E+00 0.  1.
         22   -1    0    0    0    0 -0.00000000000E+00 -0.00000000000E+00 -0.14839177613E+04  0.14839177613E+04  0.00000000000E+00 0. -1.
        -24    2    1    2    0    0 -0.58309233984E+01 -0.30615710528E+02 -0.14757395884E+04  0.14782233313E+04  0.79784477855E+02 0.  0.
         25    2    1    2    0    0 -0.54750281535E+02  0.46936943159E+02  0.10861553005E+04  0.10957119969E+04  0.12510305078E+03 0.  0.
         24    2    1    2    0    0  0.60581204933E+02 -0.16321232631E+02  0.14418868682E+04  0.14462027748E+04  0.92348578905E+02 0.  0.
        -13    1    5    5    0    0  0.24343175869E+02 -0.44626106208E+02  0.11078804331E+04  0.11090460466E+04  0.00000000000E+00 0.  1.
         14    1    5    5    0    0  0.36238029064E+02  0.28304873576E+02  0.33400643514E+03  0.33715672814E+03  0.00000000000E+00 0. -1.
         11    1    3    3    0    0  0.92268464694E+01  0.25553147790E+02 -0.41108063316E+03  0.41197740838E+03  0.00000000000E+00 0. -1.
        -12    1    3    3    0    0 -0.15057769868E+02 -0.56168858318E+02 -0.10646589552E+04  0.10662459229E+04  0.00000000000E+00 0.  1.
          5    1    4    4  501    0 -0.21813242857E+02 -0.13071590753E+01  0.27207892557E+02  0.35146380271E+02  0.41800000000E+01 0.  1.
         -5    1    4    4    0  501 -0.32937038677E+02  0.48244102235E+02  0.10589474080E+04  0.10605656166E+04  0.41800000000E+01 0.  1.
</event>
<event>
11    1  0.8328696E-009  0.1341504E+03  0.7561462E-02  0.1114272E+00
         22   -1    0    0    0    0  0.00000000000E+00  0.00000000000E+00  0.37435540122E+03  0.37435540122E+03  0.00000000000E+00 0.  1.
         22   -1    0    0    0    0 -0.00000000000E+00 -0.00000000000E+00 -0.31887722788E+03  0.31887722788E+03  0.00000000000E+00 0. -1.
         24    2    1    2    0    0  0.10050176192E+02  0.48416875918E+01 -0.23790376650E+03  0.25151271264E+03  0.80845497861E+02 0.  0.
         25    2    1    2    0    0 -0.54259542315E+02  0.13133905850E+02  0.34340404068E+01  0.13702135908E+03  0.12508582172E+03 0.  0.
        -24    2    1    2    0    0  0.44209366123E+02 -0.17975593442E+02  0.28994789944E+03  0.30469855738E+03  0.80584343841E+02 0.  0.
        -13    1    3    3    0    0 -0.24368105953E+02 -0.15351067446E+01 -0.22240793885E+02  0.33027474216E+02  0.00000000000E+00 0.  1.
         14    1    3    3    0    0  0.34418282145E+02  0.63767943363E+01 -0.21566297262E+03  0.21848523842E+03  0.00000000000E+00 0. -1.
         11    1    5    5    0    0 -0.19744049258E+02 -0.21453351414E+02  0.10509689789E+03  0.10906618043E+03  0.00000000000E+00 0. -1.
        -12    1    5    5    0    0  0.63953415381E+02  0.34777579718E+01  0.18485100155E+03  0.19563237695E+03  0.00000000000E+00 0.  1.
          5    1    4    4  501    0 -0.58282766991E+02 -0.26625861601E+02 -0.41721820269E+02  0.76576759665E+02  0.41800000000E+01 0.  1.
         -5    1    4    4    0  501  0.40232246762E+01  0.39759767452E+02  0.45155860676E+02  0.60444599411E+02  0.41800000000E+01 0.  1.
</event>
<event>
11    1  0.8328696E-009  0.1422257E+03  0.7561462E-02  0.1105098E+00
         22   -1    0    0    0    0  0.00000000000E+00  0.00000000000E+00  0.24335761282E+03  0.24335761282E+03  0.00000000000E+00 0. -1.
         22   -1    0    0    0    0 -0.00000000000E+00 -0.00000000000E+00 -0.10962315900E+04  0.10962315900E+04  0.00000000000E+00 0.  1.
         24    2    1    2    0    0 -0.55217064573E+02  0.37623094069E+02 -0.10035671825E+04  0.10090916840E+04  0.81575214059E+02 0.  0.
         25    2    1    2    0    0  0.87147239407E+02 -0.35656556094E+02 -0.94807164127E+00  0.15656833578E+03  0.12508682425E+03 0.  0.
        -24    2    1    2    0    0 -0.31930174834E+02 -0.19665379753E+01  0.15164127693E+03  0.17392918305E+03  0.78948594101E+02 0.  0.
        -11    1    3    3    0    0 -0.37980093486E+02  0.41996644573E+02 -0.96457722820E+03  0.96623777344E+03  0.00000000000E+00 0.  1.
         12    1    3    3    0    0 -0.17236971088E+02 -0.43735505042E+01 -0.38989954309E+02  0.42853910596E+02  0.00000000000E+00 0. -1.
         13    1    5    5    0    0 -0.27614705297E+02  0.21913639557E+01  0.16069866805E+03  0.16306880737E+03  0.00000000000E+00 0. -1.
        -14    1    5    5    0    0 -0.43154695362E+01 -0.41579019310E+01 -0.90573911242E+01  0.10860375673E+02  0.00000000000E+00 0.  1.
          5    1    4    4  501    0 -0.54324292584E+01 -0.53804478241E+02  0.23359881700E+02  0.59055817999E+02  0.41800000000E+01 0.  1.
         -5    1    4    4    0  501  0.92579668666E+02  0.18147922147E+02 -0.24307953342E+02  0.97512517782E+02  0.41800000000E+01 0.  1.
</event>
<event>
11    1  0.8328696E-009  0.2322147E+03  0.7561462E-02  0.1033825E+00
         22   -1    0    0    0    0  0.00000000000E+00  0.00000000000E+00  0.37950153317E+03  0.37950153317E+03  0.00000000000E+00 0.  1.
         22   -1    0    0    0    0 -0.00000000000E+00 -0.00000000000E+00 -0.24138531545E+03  0.24138531545E+03  0.00000000000E+00 0.  1.
        -24    2    1    2    0    0  0.22790793706E+02 -0.11596777468E+03  0.30592901213E+02  0.14868124662E+03  0.84866026483E+02 0.  0.
         25    2    1    2    0    0 -0.13637922726E+03 -0.90159202011E+02  0.15171473093E+02  0.20641362501E+03  0.12509370750E+03 0.  0.
         24    2    1    2    0    0  0.11358843356E+03  0.20612697669E+03  0.92351843418E+02  0.26579197699E+03  0.82011275397E+02 0.  0.
        -11    1    5    5    0    0  0.93225487440E+02  0.18234088929E+03  0.10718487441E+03  0.23114451912E+03  0.00000000000E+00 0.  1.
         12    1    5    5    0    0  0.20362946117E+02  0.23786087397E+02 -0.14833030997E+02  0.34647457868E+02  0.00000000000E+00 0. -1.
         11    1    3    3    0    0  0.25862972607E+02 -0.18389996820E+02  0.39477882776E+02  0.50651639298E+02  0.00000000000E+00 0. -1.
        -12    1    3    3    0    0 -0.30721789003E+01 -0.97577777858E+02 -0.88849815625E+01  0.98029607325E+02  0.00000000000E+00 0.  1.
          5    1    4    4  501    0  0.36330366262E+01 -0.11627545772E+02  0.41706044163E+02  0.43649344732E+02  0.41800000000E+01 0.  1.
         -5    1    4    4    0  501 -0.14001226389E+03 -0.78531656239E+02 -0.26534571070E+02  0.16276428027E+03  0.41800000000E+01 0.  1.
</event>
<event>
11    1  0.8328696E-009  0.1337477E+03  0.7561462E-02  0.1114748E+00
         22   -1    0    0    0    0  0.00000000000E+00  0.00000000000E+00  0.51902720289E+03  0.51902720289E+03  0.00000000000E+00 0. -1.
         22   -1    0    0    0    0 -0.00000000000E+00 -0.00000000000E+00 -0.49281217056E+03  0.49281217056E+03  0.00000000000E+00 0. -1.
        -24    2    1    2    0    0  0.18151386005E+02 -0.40197096159E+01 -0.34663837602E+03  0.35616718174E+03  0.79694835087E+02 0.  0.
         25    2    1    2    0    0 -0.62184983028E+02  0.19719098069E+02 -0.10029096199E+03  0.17308713117E+03  0.12508022616E+03 0.  0.
         24    2    1    2    0    0  0.44033597024E+02 -0.15699388453E+02  0.47314437035E+03  0.48258506055E+03  0.82688070512E+02 0.  0.
        -13    1    5    5    0    0  0.19742374049E+02  0.30047359264E+02  0.10902311351E+03  0.11479827704E+03  0.00000000000E+00 0.  1.
         14    1    5    5    0    0  0.24291222975E+02 -0.45746747718E+02  0.36412125683E+03  0.36778678350E+03  0.00000000000E+00 0. -1.
         11    1    3    3    0    0 -0.65512611539E+01  0.30259108893E+02 -0.23072749375E+03  0.23279542321E+03  0.00000000000E+00 0. -1.
        -12    1    3    3    0    0  0.24702647158E+02 -0.34278818509E+02 -0.11591088227E+03  0.12337175853E+03  0.00000000000E+00 0.  1.
          5    1    4    4  501    0 -0.23192508843E+02 -0.42611734112E+02 -0.38378955419E-01  0.48694211395E+02  0.41800000000E+01 0. -1.
         -5    1    4    4    0  501 -0.38992474185E+02  0.62330832181E+02 -0.10025258304E+03  0.12439291977E+03  0.41800000000E+01 0. -1.
</event>
<event>
11    1  0.8328696E-009  0.1501552E+03  0.7561462E-02  0.1096720E+00
         22   -1    0    0    0    0  0.00000000000E+00  0.00000000000E+00  0.13215152917E+04  0.13215152917E+04  0.00000000000E+00 0.  1.
         22   -1    0    0    0    0 -0.00000000000E+00 -0.00000000000E+00 -0.31201182622E+03  0.31201182622E+03  0.00000000000E+00 0. -1.
        -24    2    1    2    0    0 -0.17011097144E+02 -0.31940710945E+02 -0.28749497611E+03  0.30063999883E+03  0.80134020034E+02 0.  0.
         25    2    1    2    0    0  0.84194769477E+02  0.68984660414E+02  0.46818997474E+03  0.49668521660E+03  0.12508680734E+03 0.  0.
         24    2    1    2    0    0 -0.67183672333E+02 -0.37043949468E+02  0.82880846683E+03  0.83620190246E+03  0.80151400298E+02 0.  0.
        -13    1    5    5    0    0 -0.60052826186E+02 -0.56435733105E+02  0.75722967764E+03  0.76170080649E+03  0.00000000000E+00 0.  1.
         14    1    5    5    0    0 -0.71308461472E+01  0.19391783637E+02  0.71578789185E+02  0.74501095969E+02  0.00000000000E+00 0. -1.
         13    1    3    3    0    0 -0.59612559121E+01  0.56866821279E+01 -0.23484703801E+03  0.23499150238E+03  0.00000000000E+00 0. -1.
        -14    1    3    3    0    0 -0.11049841232E+02 -0.37627393073E+02 -0.52647938091E+02  0.65648496449E+02  0.00000000000E+00 0.  1.
          5    1    4    4  501    0  0.53819424143E+02  0.13079397425E+02  0.39800463115E+03  0.40186161781E+03  0.41800000000E+01 0.  1.
         -5    1    4    4    0  501  0.30375345334E+02  0.55905262988E+02  0.70185343581E+02  0.94823598791E+02  0.41800000000E+01 0.  1.
</event>
<event>
11    1  0.8328696E-009  0.1659728E+03  0.7561462E-02  0.1081590E+00
         22   -1    0    0    0    0  0.00000000000E+00  0.00000000000E+00  0.20612114467E+04  0.20612114467E+04  0.00000000000E+00 0. -1.
         22   -1    0    0    0    0 -0.00000000000E+00 -0.00000000000E+00 -0.17744557428E+03  0.17744557428E+03  0.00000000000E+00 0.  1.
         24    2    1    2    0    0  0.37776929068E+01 -0.45124494484E+02 -0.10592994471E+03  0.14011284115E+03  0.79749383084E+02 0.  0.
         25    2    1    2    0    0  0.55787325422E+02  0.13462952641E+03  0.12523792386E+03  0.22927890537E+03  0.12508774447E+03 0.  0.
        -24    2    1    2    0    0 -0.59565018329E+02 -0.89505031922E+02  0.18644578932E+04  0.18692652744E+04  0.79939279482E+02 0.  0.
        -13    1    3    3    0    0 -0.22317568194E+02 -0.57741426181E+02 -0.63088639118E+02  0.88387343739E+02  0.00000000000E+00 0.  1.
         14    1    3    3    0    0  0.26095261101E+02  0.12616931697E+02 -0.42841305594E+02  0.51725497411E+02  0.00000000000E+00 0. -1.
         13    1    5    5    0    0  0.61300263112E+01 -0.15606976848E+02  0.81194023524E+03  0.81211335449E+03  0.00000000000E+00 0. -1.
        -14    1    5    5    0    0 -0.65695044640E+02 -0.73898055074E+02  0.10525176580E+04  0.10571519199E+04  0.00000000000E+00 0.  1.
          5    1    4    4  501    0  0.72183687838E+02  0.97922652661E+02  0.14066115053E+03  0.18601710234E+03  0.41800000000E+01 0.  1.
         -5    1    4    4    0  501 -0.16396362416E+02  0.36706873745E+02 -0.15423226671E+02  0.43261803032E+02  0.41800000000E+01 0.  1.
</event>
<event>
11    1  0.8328696E-009  0.2293770E+03  0.7561462E-02  0.1035497E+00
         22   -1    0    0    0    0  0.00000000000E+00  0.00000000000E+00  0.16229842660E+04  0.16229842660E+04  0.00000000000E+00 0.  1.
         22   -1    0    0    0    0 -0.00000000000E+00 -0.00000000000E+00 -0.18814421163E+03  0.18814421163E+03  0.00000000000E+00 0.  1.
         24    2    1    2    0    0 -0.17074694644E+03  0.21302227297E+02 -0.35832491786E+02  0.19370179695E+03  0.81413230308E+02 0.  0.
         25    2    1    2    0    0  0.27392446863E+03 -0.42343320361E+02  0.26167796507E+03  0.40118362131E+03  0.12508145074E+03 0.  0.
        -24    2    1    2    0    0 -0.10317752219E+03  0.21041093064E+02  0.12089945811E+04  0.12162430594E+04  0.80566454889E+02 0.  0.
        -11    1    3    3    0    0 -0.55472132717E+02  0.12440082883E+02 -0.51897863661E+02  0.76975979518E+02  0.00000000000E+00 0.  1.
         12    1    3    3    0    0 -0.11527481372E+03  0.88621444138E+01  0.16065371875E+02  0.11672581743E+03  0.00000000000E+00 0. -1.
         11    1    5    5    0    0 -0.11934035117E+02 -0.79890958027E+01  0.28912333512E+02  0.32282655948E+02  0.00000000000E+00 0. -1.
        -12    1    5    5    0    0 -0.91243487071E+02  0.29030188867E+02  0.11800822476E+04  0.11839604034E+04  0.00000000000E+00 0.  1.
          5    1    4    4  501    0  0.69445583405E+02  0.67873522434E+01  0.14422676733E+03  0.16027348508E+03  0.41800000000E+01 0. -1.
         -5    1    4    4    0  501  0.20447888522E+03 -0.49130672604E+02  0.11745119774E+03  0.24091013624E+03  0.41800000000E+01 0. -1.
</event>
<event>
11    1  0.8328696E-009  0.1301638E+03  0.7561462E-02  0.1119068E+00
         22   -1    0    0    0    0  0.00000000000E+00  0.00000000000E+00  0.30954398793E+03  0.30954398793E+03  0.00000000000E+00 0. -1.
         22   -1    0    0    0    0 -0.00000000000E+00 -0.00000000000E+00 -0.93452955065E+03  0.93452955065E+03  0.00000000000E+00 0. -1.
         24    2    1    2    0    0  0.32834938765E+02  0.41488770793E+01 -0.88523188910E+03  0.88941695868E+03  0.79571870242E+02 0.  0.
         25    2    1    2    0    0  0.17068799312E+01 -0.26387773052E+02  0.72778554811E+02  0.14712005764E+03  0.12509342635E+03 0.  0.
        -24    2    1    2    0    0 -0.34541818696E+02  0.22238895973E+02  0.18746777157E+03  0.20753652226E+03  0.78990739705E+02 0.  0.
        -11    1    3    3    0    0  0.37064495331E+02  0.37438928293E+01 -0.16421411541E+03  0.16838666588E+03  0.00000000000E+00 0.  1.
         12    1    3    3    0    0 -0.42295565662E+01  0.40498425006E+00 -0.72101777369E+03  0.72103029280E+03  0.00000000000E+00 0. -1.
         11    1    5    5    0    0 -0.32934375504E+02  0.49212960818E+02  0.10250504404E+03  0.11838020382E+03  0.00000000000E+00 0. -1.
        -12    1    5    5    0    0 -0.16074431925E+01 -0.26974064845E+02  0.84962727530E+02  0.89156318437E+02  0.00000000000E+00 0.  1.
          5    1    4    4  501    0  0.26359999071E+02  0.14140767331E+02  0.91191025576E+02  0.96062929361E+02  0.41800000000E+01 0.  1.
         -5    1    4    4    0  501 -0.24653119140E+02 -0.40528540384E+02 -0.18412470765E+02  0.51057128284E+02  0.41800000000E+01 0.  1.
</event>
<event>
11    1  0.8328696E-009  0.1558304E+03  0.7561462E-02  0.1091066E+00
         22   -1    0    0    0    0  0.00000000000E+00  0.00000000000E+00  0.14212027119E+04  0.14212027119E+04  0.00000000000E+00 0.  1.
         22   -1    0    0    0    0 -0.00000000000E+00 -0.00000000000E+00 -0.21811347294E+03  0.21811347294E+03  0.00000000000E+00 0. -1.
         24    2    1    2    0    0 -0.74637116191E+02 -0.51036049665E+02 -0.17005053738E+03  0.20888423237E+03  0.80870636132E+02 0.  0.
         25    2    1    2    0    0  0.89224898350E+02  0.11227715107E+03  0.31893057081E+03  0.37139135226E+03  0.12509031295E+03 0.  0.
        -24    2    1    2    0    0 -0.14587782159E+02 -0.61241101406E+02  0.10542092055E+04  0.10590406002E+04  0.79035865264E+02 0.  0.
        -13    1    3    3    0    0 -0.54517877231E+02 -0.18253972636E+01 -0.37849676118E+02  0.66393742139E+02  0.00000000000E+00 0.  1.
         14    1    3    3    0    0 -0.20119238959E+02 -0.49210652401E+02 -0.13220086126E+03  0.14249049023E+03  0.00000000000E+00 0. -1.
         11    1    5    5    0    0 -0.22071596451E+02  0.58049648565E+01  0.10572323490E+03  0.10815847348E+03  0.00000000000E+00 0. -1.
        -12    1    5    5    0    0  0.74838142919E+01 -0.67046066262E+02  0.94848597061E+03  0.95088212672E+03  0.00000000000E+00 0.  1.
          5    1    4    4  501    0  0.75819279257E+02  0.21414169975E+02  0.23127075807E+03  0.24435786405E+03  0.41800000000E+01 0. -1.
         -5    1    4    4    0  501  0.13405619092E+02  0.90862981096E+02  0.87659812738E+02  0.12703348821E+03  0.41800000000E+01 0. -1.
</event>
<event>
11    1  0.8328696E-009  0.1646316E+03  0.7561462E-02  0.1082800E+00
         22   -1    0    0    0    0  0.00000000000E+00  0.00000000000E+00  0.87114862720E+03  0.87114862720E+03  0.00000000000E+00 0.  1.
         22   -1    0    0    0    0 -0.00000000000E+00 -0.00000000000E+00 -0.19492626941E+04  0.19492626941E+04  0.00000000000E+00 0.  1.
         24    2    1    2    0    0 -0.39257368890E+02  0.99006306698E+02 -0.19026237036E+04  0.19075918573E+04  0.87099636282E+02 0.  0.
         25    2    1    2    0    0  0.12249506041E+03 -0.16878565457E+03  0.40839822461E+03  0.47531963705E+03  0.12508401372E+03 0.  0.
        -24    2    1    2    0    0 -0.83237691517E+02  0.69779347868E+02  0.41611141209E+03  0.43749982696E+03  0.80372387306E+02 0.  0.
        -13    1    3    3    0    0 -0.53894464030E+02  0.10776475739E+03 -0.16515197920E+04  0.16559092607E+04  0.00000000000E+00 0.  1.
         14    1    3    3    0    0  0.14637095139E+02 -0.87584506899E+01 -0.25110391164E+03  0.25168259664E+03  0.00000000000E+00 0. -1.
         13    1    5    5    0    0 -0.68262605418E+02  0.19141003183E+02  0.14633829018E+03  0.16260706157E+03  0.00000000000E+00 0. -1.
        -14    1    5    5    0    0 -0.14975086098E+02  0.50638344686E+02  0.26977312191E+03  0.27489276539E+03  0.00000000000E+00 0.  1.
          5    1    4    4  501    0  0.12023805668E+03 -0.16329533000E+03  0.41721067976E+03  0.46390169086E+03  0.41800000000E+01 0.  1.
         -5    1    4    4    0  501  0.22570037290E+01 -0.54903245615E+01 -0.88124551452E+01  0.11417946195E+02  0.41800000000E+01 0.  1.
</event>
<event>
11    1  0.8328696E-009  0.1793303E+03  0.7561462E-02  0.1070186E+00
         22   -1    0    0    0    0  0.00000000000E+00  0.00000000000E+00  0.28371830173E+04  0.28371830173E+04  0.00000000000E+00 0.  1.
         22   -1    0    0    0    0 -0.00000000000E+00 -0.00000000000E+00 -0.29625370766E+03  0.29625370766E+03  0.00000000000E+00 0.  1.
        -24    2    1    2    0    0  0.37374384417E+02  0.61486397462E+02 -0.25653301754E+03  0.28588320069E+03  0.10364648410E+03 0.  0.
         25    2    1    2    0    0  0.19993293954E+02 -0.17233707807E+03  0.48181430661E+03  0.52715523635E+03  0.12509123422E+03 0.  0.
         24    2    1    2    0    0 -0.57367678370E+02  0.11085068061E+03  0.23156480206E+04  0.23203982880E+04  0.80271635963E+02 0.  0.
        -11    1    5    5    0    0 -0.19036236103E+02  0.41206102865E+02  0.15438140648E+04  0.15444812035E+04  0.00000000000E+00 0.  1.
         12    1    5    5    0    0 -0.38331442267E+02  0.69644577743E+02  0.77183395579E+03  0.77591708448E+03  0.00000000000E+00 0. -1.
         11    1    3    3    0    0  0.33320612707E+02  0.11019206863E+02 -0.13451424817E+02  0.37584930234E+02  0.00000000000E+00 0. -1.
        -12    1    3    3    0    0  0.40537717091E+01  0.50467190599E+02 -0.24308159272E+03  0.24829827046E+03  0.00000000000E+00 0.  1.
          5    1    4    4  501    0  0.47198996321E+02 -0.15598502345E+03  0.46098040432E+03  0.48895754249E+03  0.41800000000E+01 0.  1.
         -5    1    4    4    0  501 -0.27205702367E+02 -0.16352054615E+02  0.20833902291E+02  0.38197693858E+02  0.41800000000E+01 0.  1.
</event>
<event>
11    1  0.8328696E-009  0.1496211E+03  0.7561462E-02  0.1097267E+00
         22   -1    0    0    0    0  0.00000000000E+00  0.00000000000E+00  0.29420585451E+03  0.29420585451E+03  0.00000000000E+00 0. -1.
         22   -1    0    0    0    0 -0.00000000000E+00 -0.00000000000E+00 -0.37681091743E+03  0.37681091743E+03  0.00000000000E+00 0.  1.
         24    2    1    2    0    0  0.18320159582E+02 -0.22327707679E+01 -0.19743022607E+03  0.21548990385E+03  0.84359889638E+02 0.  0.
         25    2    1    2    0    0 -0.95419123687E+02  0.25627687080E+02 -0.11544310960E+03  0.19681638142E+03  0.12509192192E+03 0.  0.
        -24    2    1    2    0    0  0.77098964104E+02 -0.23394916312E+02  0.23026827275E+03  0.25871048668E+03  0.86116584388E+02 0.  0.
        -13    1    3    3    0    0  0.33319473499E+02  0.28682183876E+02 -0.63582825141E+02  0.77302203326E+02  0.00000000000E+00 0.  1.
         14    1    3    3    0    0 -0.14999313917E+02 -0.30914954644E+02 -0.13384740093E+03  0.13818770052E+03  0.00000000000E+00 0. -1.
         13    1    5    5    0    0  0.73994539353E+02 -0.25963037371E+02  0.23767590878E+03  0.25027806292E+03  0.00000000000E+00 0. -1.
        -14    1    5    5    0    0  0.31044247512E+01  0.25681210582E+01 -0.74076360335E+01  0.84324237566E+01  0.00000000000E+00 0.  1.
          5    1    4    4  501    0 -0.24080869659E+02  0.64232685348E+02 -0.86752958081E+02  0.11067643962E+03  0.41800000000E+01 0. -1.
         -5    1    4    4    0  501 -0.71338254028E+02 -0.38604998268E+02 -0.28690151518E+02  0.86139941799E+02  0.41800000000E+01 0. -1.
</event>
<event>
11    1  0.8328696E-009  0.1349244E+03  0.7561462E-02  0.1113362E+00
         22   -1    0    0    0    0  0.00000000000E+00  0.00000000000E+00  0.37480583366E+03  0.37480583366E+03  0.00000000000E+00 0.  1.
         22   -1    0    0    0    0 -0.00000000000E+00 -0.00000000000E+00 -0.14269723229E+04  0.14269723229E+04  0.00000000000E+00 0.  1.
         24    2    1    2    0    0 -0.13245041923E+02  0.50861555996E+02 -0.92870065127E+03  0.93353355134E+03  0.78978875650E+02 0.  0.
         25    2    1    2    0    0  0.38793741966E+02 -0.32414306860E+02 -0.48155641771E+03  0.50010006813E+03  0.12509137860E+03 0.  0.
        -24    2    1    2    0    0 -0.25548700043E+02 -0.18447249136E+02  0.35809057973E+03  0.36814453709E+03  0.79426065147E+02 0.  0.
        -11    1    3    3    0    0 -0.51280668359E+01  0.69846044320E+02 -0.57832035742E+03  0.58254545126E+03  0.00000000000E+00 0.  1.
         12    1    3    3    0    0 -0.81169750874E+01 -0.18984488324E+02 -0.35038029386E+03  0.35098810009E+03  0.00000000000E+00 0. -1.
         11    1    5    5    0    0  0.23257819204E+02 -0.76349724212E+01  0.46308427726E+02  0.52380238988E+02  0.00000000000E+00 0. -1.
        -12    1    5    5    0    0 -0.48806519247E+02 -0.10812276715E+02  0.31178215200E+03  0.31576429810E+03  0.00000000000E+00 0.  1.
          5    1    4    4  501    0 -0.17009455224E+02 -0.53519927873E+02 -0.10813368081E+03  0.12191829055E+03  0.41800000000E+01 0.  1.
         -5    1    4    4    0  501  0.55803197190E+02  0.21105621013E+02 -0.37342273690E+03  0.37818177757E+03  0.41800000000E+01 0.  1.
</event>
<event>
11    1  0.8328696E-009  0.1844948E+03  0.7561462E-02  0.1066064E+00
         22   -1    0    0    0    0  0.00000000000E+00  0.00000000000E+00  0.67850646809E+03  0.67850646809E+03  0.00000000000E+00 0.  1.
         22   -1    0    0    0    0 -0.00000000000E+00 -0.00000000000E+00 -0.23190203760E+04  0.23190203760E+04  0.00000000000E+00 0. -1.
         24    2    1    2    0    0 -0.86150189983E+02  0.10552193903E+03 -0.22918202152E+04  0.22973313238E+04  0.82064472983E+02 0.  0.
         25    2    1    2    0    0  0.56529535835E+02 -0.32973243555E+02  0.31986512053E+03  0.34963463547E+03  0.12509140568E+03 0.  0.
        -24    2    1    2    0    0  0.29620654148E+02 -0.72548695470E+02  0.33144118681E+03  0.35056088476E+03  0.83060082158E+02 0.  0.
        -13    1    3    3    0    0 -0.80810105123E+02  0.35530195975E+02 -0.11799456883E+04  0.11832432105E+04  0.00000000000E+00 0.  1.
         14    1    3    3    0    0 -0.53400848601E+01  0.69991743051E+02 -0.11118745269E+04  0.11140881133E+04  0.00000000000E+00 0. -1.
         13    1    5    5    0    0  0.28135089682E+02 -0.88532080185E+02  0.31095755668E+03  0.32453676918E+03  0.00000000000E+00 0. -1.
        -14    1    5    5    0    0  0.14855644657E+01  0.15983384715E+02  0.20483630121E+02  0.26024115578E+02  0.00000000000E+00 0.  1.
          5    1    4    4  501    0  0.73391188773E+02  0.23295514092E+02  0.13332084720E+03  0.15401580524E+03  0.41800000000E+01 0.  1.
         -5    1    4    4    0  501 -0.16861652938E+02 -0.56268757647E+02  0.18654427334E+03  0.19561883023E+03  0.41800000000E+01 0.  1.
</event>
<event>
11    1  0.8328696E-009  0.1702093E+03  0.7561462E-02  0.1077850E+00
         22   -1    0    0    0    0  0.00000000000E+00  0.00000000000E+00  0.99985464729E+03  0.99985464729E+03  0.00000000000E+00 0. -1.
         22   -1    0    0    0    0 -0.00000000000E+00 -0.00000000000E+00 -0.74636077778E+02  0.74636077778E+02  0.00000000000E+00 0.  1.
         24    2    1    2    0    0 -0.10612046615E+03 -0.20468743219E+02  0.76356238242E+02  0.15562789435E+03  0.81909972515E+02 0.  0.
         25    2    1    2    0    0  0.13845518930E+03 -0.20101590384E+02  0.27469991125E+03  0.33268807825E+03  0.12508957907E+03 0.  0.
        -24    2    1    2    0    0 -0.32334723146E+02  0.40570333603E+02  0.57416242003E+03  0.58617475247E+03  0.10605125915E+03 0.  0.
        -13    1    3    3    0    0 -0.11269383749E+03 -0.18320380379E+01  0.75859006559E+02  0.13585965644E+03  0.00000000000E+00 0.  1.
         14    1    3    3    0    0  0.65733713419E+01 -0.18636705181E+02  0.49723168302E+00  0.19768237912E+02  0.00000000000E+00 0. -1.
         11    1    5    5    0    0 -0.37161397293E+02  0.73635360790E+02  0.35339536579E+03  0.36289312528E+03  0.00000000000E+00 0. -1.
        -12    1    5    5    0    0  0.48266741466E+01 -0.33065027187E+02  0.22076705423E+03  0.22328162719E+03  0.00000000000E+00 0.  1.
          5    1    4    4  501    0 -0.17298317541E+02 -0.26275026508E+02  0.45378091658E+02  0.55373751998E+02  0.41800000000E+01 0. -1.
         -5    1    4    4    0  501  0.15575350684E+03  0.61734361241E+01  0.22932181959E+03  0.27731432625E+03  0.41800000000E+01 0. -1.
</event>
<event>
11    1  0.8328696E-009  0.1276974E+03  0.7561462E-02  0.1122131E+00
         22   -1    0    0    0    0  0.00000000000E+00  0.00000000000E+00  0.18508660093E+03  0.18508660093E+03  0.00000000000E+00 0. -1.
         22   -1    0    0    0    0 -0.00000000000E+00 -0.00000000000E+00 -0.60679494628E+03  0.60679494628E+03  0.00000000000E+00 0.  1.
         24    2    1    2    0    0  0.48576129712E+01  0.20488442175E+01 -0.49048091315E+03  0.49710567428E+03  0.80713884002E+02 0.  0.
         25    2    1    2    0    0  0.90203939336E+01  0.20120000457E+02 -0.59925361259E+02  0.14044582689E+03  0.12509116453E+03 0.  0.
        -24    2    1    2    0    0 -0.13878006905E+02 -0.22168844674E+02  0.12869792906E+03  0.15433004603E+03  0.81058925572E+02 0.  0.
        -11    1    3    3    0    0  0.27457016724E+02  0.15946692016E+02 -0.42863348151E+03  0.42980791783E+03  0.00000000000E+00 0.  1.
         12    1    3    3    0    0 -0.22599403753E+02 -0.13897847798E+02 -0.61847431635E+02  0.67297756450E+02  0.00000000000E+00 0. -1.
         11    1    5    5    0    0 -0.10584885274E+02 -0.16216196603E+01  0.13270665570E+03  0.13313799575E+03  0.00000000000E+00 0. -1.
        -12    1    5    5    0    0 -0.32931216311E+01 -0.20547225014E+02 -0.40087266395E+01  0.21192050281E+02  0.00000000000E+00 0.  1.
          5    1    4    4  501    0  0.26545135029E+02  0.14160588305E+02  0.33437384032E+02  0.45174080021E+02  0.41800000000E+01 0.  1.
         -5    1    4    4    0  501 -0.17524741095E+02  0.59594121518E+01 -0.93362745291E+02  0.95271746871E+02  0.41800000000E+01 0.  1.
</event>
<event>
11    1  0.8328696E-009  0.2150010E+03  0.7561462E-02  0.1044395E+00
         22   -1    0    0    0    0  0.00000000000E+00  0.00000000000E+00  0.36725507321E+03  0.36725507321E+03  0.00000000000E+00 0. -1.
         22   -1    0    0    0    0 -0.00000000000E+00 -0.00000000000E+00 -0.62047655606E+03  0.62047655606E+03  0.00000000000E+00 0.  1.
         24    2    1    2    0    0 -0.17709482180E+03 -0.35856513487E+02 -0.48176936770E+03  0.52031755079E+03  0.77332816715E+02 0.  0.
         25    2    1    2    0    0  0.14846034618E+03  0.19172318420E+02 -0.28558746059E+02  0.19716173823E+03  0.12509635033E+03 0.  0.
        -24    2    1    2    0    0  0.28634475624E+02  0.16684195067E+02  0.25710663091E+03  0.27025234025E+03  0.76382014854E+02 0.  0.
        -11    1    3    3    0    0 -0.14022193098E+03 -0.22799189208E+02 -0.44308807521E+03  0.46530531412E+03  0.00000000000E+00 0.  1.
         12    1    3    3    0    0 -0.36872890825E+02 -0.13057324279E+02 -0.38681292492E+02  0.55012236675E+02  0.00000000000E+00 0. -1.
         11    1    5    5    0    0  0.39844464660E+02  0.40573811974E+02  0.17712438802E+03  0.18602920312E+03  0.00000000000E+00 0. -1.
        -12    1    5    5    0    0 -0.11209989036E+02 -0.23889616907E+02  0.79982242885E+02  0.84223137125E+02  0.00000000000E+00 0.  1.
          5    1    4    4  501    0  0.34015312880E+02 -0.48807620318E+02 -0.22836290639E+02  0.63860738185E+02  0.41800000000E+01 0. -1.
         -5    1    4    4    0  501  0.11444503330E+03  0.67979938738E+02 -0.57224554201E+01  0.13330100005E+03  0.41800000000E+01 0. -1.
</event>
<event>
11    1  0.8328696E-009  0.1821591E+03  0.7561462E-02  0.1067910E+00
         22   -1    0    0    0    0  0.00000000000E+00  0.00000000000E+00  0.31781769582E+03  0.31781769582E+03  0.00000000000E+00 0. -1.
         22   -1    0    0    0    0 -0.00000000000E+00 -0.00000000000E+00 -0.32594548136E+03  0.32594548136E+03  0.00000000000E+00 0. -1.
        -24    2    1    2    0    0 -0.25848727483E+02  0.97066843173E+01 -0.16066290911E+03  0.18136817905E+03  0.79495091504E+02 0.  0.
         25    2    1    2    0    0 -0.84473334660E+02  0.71044332724E+02 -0.76298251643E+02  0.18344169857E+03  0.12508553909E+03 0.  0.
         24    2    1    2    0    0  0.11032206214E+03 -0.80751017041E+02  0.22883337522E+03  0.27895329957E+03  0.82210373896E+02 0.  0.
        -13    1    5    5    0    0  0.86463554215E+01 -0.37868734485E+02  0.22300798027E+02  0.44789799132E+02  0.00000000000E+00 0.  1.
         14    1    5    5    0    0  0.10167570672E+03 -0.42882282556E+02  0.20653257719E+03  0.23416350043E+03  0.00000000000E+00 0. -1.
         13    1    3    3    0    0 -0.51073106462E+02 -0.77787493272E+01 -0.11798530676E+03  0.12880024750E+03  0.00000000000E+00 0. -1.
        -14    1    3    3    0    0  0.25224378979E+02  0.17485433644E+02 -0.42677602358E+02  0.52567931551E+02  0.00000000000E+00 0.  1.
          5    1    4    4  501    0  0.24884231582E+02 -0.12237631199E+02 -0.21775494072E+02  0.35505339610E+02  0.41800000000E+01 0.  1.
         -5    1    4    4    0  501 -0.10935756624E+03  0.83281963923E+02 -0.54522757571E+02  0.14793635896E+03  0.41800000000E+01 0.  1.
</event>
<event>
11    1  0.1124252E-008  0.1566849E+03  0.7561462E-02  0.1090237E+00
         22   -1    0    0    0    0  0.00000000000E+00  0.00000000000E+00  0.72527099994E+03  0.72527099994E+03  0.00000000000E+00 0.  1.
         22   -1    0    0    0    0 -0.00000000000E+00 -0.00000000000E+00 -0.19653323323E+04  0.19653323323E+04  0.00000000000E+00 0.  1.
        -24    2    1    2    0    0 -0.64373151793E+02 -0.76927573431E+02 -0.17581839599E+04  0.17628833959E+04  0.80531214768E+02 0.  0.
         25    2    1    2    0    0  0.84592075142E+01  0.43306576465E+02 -0.17907038789E+03  0.22284738217E+03  0.12509090359E+03 0.  0.
         24    2    1    2    0    0  0.55913944279E+02  0.33620996966E+02  0.69719301544E+03  0.70487255414E+03  0.80687521948E+02 0.  0.
        -11    1    5    5    0    0  0.52241705357E+02 -0.13071213689E+02  0.28647605634E+03  0.29149371050E+03  0.00000000000E+00 0.  1.
         12    1    5    5    0    0  0.36722389226E+01  0.46692210655E+02  0.41071695910E+03  0.41337884364E+03  0.00000000000E+00 0. -1.
         13    1    3    3    0    0 -0.21725624854E+02  0.14716984275E+02 -0.47499338320E+03  0.47571767519E+03  0.00000000000E+00 0. -1.
        -14    1    3    3    0    0 -0.42647526940E+02 -0.91644557706E+02 -0.12831905767E+04  0.12871657207E+04  0.00000000000E+00 0.  1.
          5    1    4    4  501    0  0.57502460551E+02  0.14380726375E+01 -0.42114397452E+02  0.71412155093E+02  0.41800000000E+01 0.  1.
         -5    1    4    4    0  501 -0.49043253037E+02  0.41868503827E+02 -0.13695599044E+03  0.15143522707E+03  0.41800000000E+01 0.  1.
</event>
<event>
11    1  0.8328696E-009  0.2155928E+03  0.7561462E-02  0.1044014E+00
         22   -1    0    0    0    0  0.00000000000E+00  0.00000000000E+00  0.48623032069E+03  0.48623032069E+03  0.00000000000E+00 0.  1.
         22   -1    0    0    0    0 -0.00000000000E+00 -0.00000000000E+00 -0.62371274947E+03  0.62371274947E+03  0.00000000000E+00 0. -1.
        -24    2    1    2    0    0  0.11821206046E+03 -0.12771108453E+03 -0.40856071355E+03  0.45138797281E+03  0.80901378176E+02 0.  0.
         25    2    1    2    0    0 -0.10003193520E+03  0.15225854150E+03 -0.12460407886E+03  0.25369705205E+03  0.12508783407E+03 0.  0.
         24    2    1    2    0    0 -0.18180125257E+02 -0.24547456968E+02  0.39568236363E+03  0.40485804530E+03  0.80077520956E+02 0.  0.
        -13    1    5    5    0    0 -0.36552326944E+02 -0.24052847645E+02  0.37348553427E+03  0.37603996649E+03  0.00000000000E+00 0.  1.
         14    1    5    5    0    0  0.18372201687E+02 -0.49460932268E+00  0.22196829356E+02  0.28818078816E+02  0.00000000000E+00 0. -1.
         13    1    3    3    0    0  0.10771446959E+03 -0.10654226975E+03 -0.25968844317E+03  0.30065220724E+03  0.00000000000E+00 0. -1.
        -14    1    3    3    0    0  0.10497590866E+02 -0.21168814780E+02 -0.14887227038E+03  0.15073576557E+03  0.00000000000E+00 0.  1.
          5    1    4    4  501    0 -0.11697735210E+03  0.16099280734E+03 -0.12328719674E+03  0.23413583706E+03  0.41800000000E+01 0.  1.
         -5    1    4    4    0  501  0.16945416896E+02 -0.87342658352E+01 -0.13168821214E+01  0.19561214992E+02  0.41800000000E+01 0.  1.
</event>
<event>
11    1  0.8328696E-009  0.1400292E+03  0.7561462E-02  0.1107526E+00
         22   -1    0    0    0    0  0.00000000000E+00  0.00000000000E+00  0.71160847811E+03  0.71160847811E+03  0.00000000000E+00 0. -1.
         22   -1    0    0    0    0 -0.00000000000E+00 -0.00000000000E+00 -0.94385987443E+03  0.94385987443E+03  0.00000000000E+00 0.  1.
         24    2    1    2    0    0 -0.32892420721E+02  0.79229565969E+00 -0.86390734334E+03  0.86833294443E+03  0.81139789423E+02 0.  0.
         25    2    1    2    0    0  0.87660548154E+02 -0.28743290956E+02  0.76939868835E+01  0.15561928139E+03  0.12509042660E+03 0.  0.
        -24    2    1    2    0    0 -0.54768127433E+02  0.27950995296E+02  0.62396196014E+03  0.63151612673E+03  0.75520094674E+02 0.  0.
        -13    1    3    3    0    0 -0.38338539934E+02 -0.34607180711E+02 -0.52965702668E+03  0.53216920853E+03  0.00000000000E+00 0.  1.
         14    1    3    3    0    0  0.54461192134E+01  0.35399476371E+02 -0.33425031666E+03  0.33616373590E+03  0.00000000000E+00 0. -1.
         11    1    5    5    0    0 -0.20226520160E+02 -0.40963050646E+01  0.47121902588E+03  0.47167071372E+03  0.00000000000E+00 0. -1.
        -12    1    5    5    0    0 -0.34541607273E+02  0.32047300361E+02  0.15274293426E+03  0.15984541301E+03  0.00000000000E+00 0.  1.
          5    1    4    4  501    0  0.29241596191E+02  0.48894159515E+02 -0.58763666160E+01  0.57425724785E+02  0.41800000000E+01 0.  1.
         -5    1    4    4    0  501  0.58418951962E+02 -0.77637450471E+02  0.13570353499E+02  0.98193556602E+02  0.41800000000E+01 0.  1.
</event>
<event>
11    1  0.8328696E-009  0.1252748E+03  0.7561462E-02  0.1125215E+00
         22   -1    0    0    0    0  0.00000000000E+00  0.00000000000E+00  0.13187520660E+04  0.13187520660E+04  0.00000000000E+00 0.  1.
         22   -1    0    0    0    0 -0.00000000000E+00 -0.00000000000E+00 -0.15447023592E+03  0.15447023592E+03  0.00000000000E+00 0.  1.
        -24    2    1    2    0    0  0.52098894790E+01 -0.27819926113E+01 -0.12217668138E+03  0.14657008213E+03  0.80751254290E+02 0.  0.
         25    2    1    2    0    0 -0.24989344093E+02 -0.37249725973E+01  0.20036429726E+03  0.23755614492E+03  0.12509487453E+03 0.  0.
         24    2    1    2    0    0  0.19779454614E+02  0.65069652086E+01  0.10860942142E+04  0.10890960749E+04  0.78077210189E+02 0.  0.
        -13    1    5    5    0    0 -0.19217519813E+02  0.20806877137E+02  0.19629487989E+03  0.19832780711E+03  0.00000000000E+00 0.  1.
         14    1    5    5    0    0  0.38996974427E+02 -0.14299911928E+02  0.88979933432E+03  0.89076826776E+03  0.00000000000E+00 0. -1.
         11    1    3    3    0    0 -0.16288762728E+01 -0.31890923567E+02 -0.14962249323E+02  0.35264048955E+02  0.00000000000E+00 0. -1.
        -12    1    3    3    0    0  0.68387657518E+01  0.29108930956E+02 -0.10721443206E+03  0.11130603317E+03  0.00000000000E+00 0.  1.
          5    1    4    4  501    0 -0.40774073713E+02  0.41714564223E+02  0.42016434883E+02  0.72010298956E+02  0.41800000000E+01 0. -1.
         -5    1    4    4    0  501  0.15784729620E+02 -0.45439536820E+02  0.15834786238E+03  0.16554584597E+03  0.41800000000E+01 0. -1.
</event>
<event>
11    1  0.8328696E-009  0.1604694E+03  0.7561462E-02  0.1086637E+00
         22   -1    0    0    0    0  0.00000000000E+00  0.00000000000E+00  0.48539066759E+03  0.48539066759E+03  0.00000000000E+00 0.  1.
         22   -1    0    0    0    0 -0.00000000000E+00 -0.00000000000E+00 -0.25458737936E+03  0.25458737936E+03  0.00000000000E+00 0.  1.
        -24    2    1    2    0    0 -0.11133733550E+02  0.70457000643E+01 -0.16096626123E+03  0.18033558139E+03  0.80232055617E+02 0.  0.
         25    2    1    2    0    0  0.20465417452E+02  0.93762044264E+02  0.10941855470E+02  0.15804553385E+03  0.12509401390E+03 0.  0.
         24    2    1    2    0    0 -0.93316839015E+01 -0.10080774433E+03  0.38082769399E+03  0.40159693170E+03  0.77466647058E+02 0.  0.
        -13    1    5    5    0    0 -0.25532331023E+02 -0.67810029150E+02  0.33550813393E+03  0.34324307410E+03  0.00000000000E+00 0.  1.
         14    1    5    5    0    0  0.16200647122E+02 -0.32997715179E+02  0.45319560054E+02  0.58353857608E+02  0.00000000000E+00 0. -1.
         11    1    3    3    0    0  0.21179021159E+02 -0.17477373365E+01 -0.64153811559E+01  0.22198257554E+02  0.00000000000E+00 0. -1.
        -12    1    3    3    0    0 -0.32312754709E+02  0.87934374008E+01 -0.15455088007E+03  0.15813732383E+03  0.00000000000E+00 0.  1.
          5    1    4    4  501    0 -0.12382262871E+02  0.30726073352E+02  0.62005609529E+02  0.70424285801E+02  0.41800000000E+01 0.  1.
         -5    1    4    4    0  501  0.32847680323E+02  0.63035970912E+02 -0.51063754060E+02  0.87621248051E+02  0.41800000000E+01 0.  1.
</event>
<event>
11    1  0.8328696E-009  0.2024267E+03  0.7561462E-02  0.1052821E+00
         22   -1    0    0    0    0  0.00000000000E+00  0.00000000000E+00  0.52826839510E+03  0.52826839510E+03  0.00000000000E+00 0. -1.
         22   -1    0    0    0    0 -0.00000000000E+00 -0.00000000000E+00 -0.95616835528E+03  0.95616835528E+03  0.00000000000E+00 0.  1.
        -24    2    1    2    0    0 -0.75225478812E+02 -0.13161740643E+03 -0.60297082236E+03  0.62788226325E+03  0.87637375289E+02 0.  0.
         25    2    1    2    0    0  0.21730532291E+03  0.81420121451E+02 -0.27225287475E+03  0.37895731775E+03  0.12504471732E+03 0.  0.
         24    2    1    2    0    0 -0.14207984410E+03  0.50197284976E+02  0.44732373693E+03  0.47759716938E+03  0.72760436089E+02 0.  0.
        -13    1    5    5    0    0 -0.47567409370E+02  0.30649380076E+02  0.81239606109E+02  0.99004628851E+02  0.00000000000E+00 0.  1.
         14    1    5    5    0    0 -0.94512434726E+02  0.19547904900E+02  0.36608413082E+03  0.37859254052E+03  0.00000000000E+00 0. -1.
         13    1    3    3    0    0  0.13571209242E+00  0.11221780662E+02 -0.19771646284E+02  0.22734660230E+02  0.00000000000E+00 0. -1.
        -14    1    3    3    0    0 -0.75361190904E+02 -0.14283918709E+03 -0.58319917608E+03  0.60514760302E+03  0.00000000000E+00 0.  1.
          5    1    4    4  501    0  0.18021674716E+03  0.19527577120E+02 -0.23738350208E+03  0.29871023030E+03  0.41800000000E+01 0. -1.
         -5    1    4    4    0  501  0.37088575748E+02  0.61892544331E+02 -0.34869372667E+02  0.80247087455E+02  0.41800000000E+01 0. -1.
</event>
<event>
11    1  0.8328696E-009  0.1340355E+03  0.7561462E-02  0.1114408E+00
         22   -1    0    0    0    0  0.00000000000E+00  0.00000000000E+00  0.72928443529E+03  0.72928443529E+03  0.00000000000E+00 0.  1.
         22   -1    0    0    0    0 -0.00000000000E+00 -0.00000000000E+00 -0.15775440231E+03  0.15775440231E+03  0.00000000000E+00 0.  1.
        -24    2    1    2    0    0  0.47685895056E+02 -0.38850007982E+02 -0.52828222337E+02  0.11127642668E+03  0.76212560330E+02 0.  0.
         25    2    1    2    0    0  0.24128456668E+02  0.45966452118E+02 -0.82091727049E+01  0.13568113213E+03  0.12508749721E+03 0.  0.
         24    2    1    2    0    0 -0.71814351724E+02 -0.71164441359E+01  0.63256742801E+03  0.64008127879E+03  0.65988995942E+02 0.  0.
        -13    1    5    5    0    0 -0.77978926848E+02 -0.20764949241E+02  0.57327778289E+03  0.57892945382E+03  0.00000000000E+00 0.  1.
         14    1    5    5    0    0  0.61645751231E+01  0.13648505105E+02  0.59289645123E+02  0.61151824968E+02  0.00000000000E+00 0. -1.
         11    1    3    3    0    0  0.13988642713E+02  0.17334437190E+02 -0.38088916254E+02  0.44124034030E+02  0.00000000000E+00 0. -1.
        -12    1    3    3    0    0  0.33697252344E+02 -0.56184445173E+02 -0.14739306082E+02  0.67152392650E+02  0.00000000000E+00 0.  1.
          5    1    4    4  501    0  0.58924200640E+02  0.58931897098E+02  0.23484088529E+02  0.86683359018E+02  0.41800000000E+01 0. -1.
         -5    1    4    4    0  501 -0.34795743972E+02 -0.12965444979E+02 -0.31693261234E+02  0.48997773110E+02  0.41800000000E+01 0. -1.
</event>
<event>
11    1  0.8328696E-009  0.1592845E+03  0.7561462E-02  0.1087752E+00
         22   -1    0    0    0    0  0.00000000000E+00  0.00000000000E+00  0.10343239619E+04  0.10343239619E+04  0.00000000000E+00 0.  1.
         22   -1    0    0    0    0 -0.00000000000E+00 -0.00000000000E+00 -0.56395394969E+03  0.56395394969E+03  0.00000000000E+00 0.  1.
         24    2    1    2    0    0 -0.99771716486E+01  0.98433943755E+02 -0.51993373779E+03  0.53534043545E+03  0.80433232544E+02 0.  0.
         25    2    1    2    0    0 -0.73866552916E+02 -0.95371249665E+02  0.20339981111E+03  0.26752802614E+03  0.12509124153E+03 0.  0.
        -24    2    1    2    0    0  0.83843724565E+02 -0.30626940895E+01  0.78690393886E+03  0.79540944997E+03  0.80120121470E+02 0.  0.
        -11    1    3    3    0    0  0.82714307713E+01  0.88657903748E+02 -0.49494190589E+03  0.50288779134E+03  0.00000000000E+00 0.  1.
         12    1    3    3    0    0 -0.18248602420E+02  0.97760400069E+01 -0.24991831898E+02  0.32452644116E+02  0.00000000000E+00 0. -1.
         13    1    5    5    0    0  0.37317540324E+02  0.23032792122E+02  0.15009567347E+03  0.15637077580E+03  0.00000000000E+00 0. -1.
        -14    1    5    5    0    0  0.46526184241E+02 -0.26095486212E+02  0.63680826539E+03  0.63903867418E+03  0.00000000000E+00 0.  1.
          5    1    4    4  501    0  0.19314271322E+02 -0.75573321845E+02  0.83631828446E+02  0.11443829421E+03  0.41800000000E+01 0. -1.
         -5    1    4    4    0  501 -0.93180824238E+02 -0.19797927820E+02  0.11976798266E+03  0.15308973193E+03  0.41800000000E+01 0. -1.
</event>
<event>
11    1  0.8328696E-009  0.1499722E+03  0.7561462E-02  0.1096907E+00
         22   -1    0    0    0    0  0.00000000000E+00  0.00000000000E+00  0.16135897302E+04  0.16135897302E+04  0.00000000000E+00 0. -1.
         22   -1    0    0    0    0 -0.00000000000E+00 -0.00000000000E+00 -0.17858770814E+03  0.17858770814E+03  0.00000000000E+00 0.  1.
        -24    2    1    2    0    0 -0.23405103957E+02  0.25742435771E+02 -0.14669630750E+03  0.17193026852E+03  0.82642233208E+02 0.  0.
         25    2    1    2    0    0  0.86384312093E+02 -0.71845092048E+02  0.40845660243E+03  0.44170862672E+03  0.12508296537E+03 0.  0.
         24    2    1    2    0    0 -0.62979208135E+02  0.46102656277E+02  0.11732417271E+04  0.11785385431E+04  0.79781650182E+02 0.  0.
        -13    1    5    5    0    0  0.54237545280E+01 -0.17101907842E+02  0.23594953022E+03  0.23663066829E+03  0.00000000000E+00 0.  1.
         14    1    5    5    0    0 -0.68402962663E+02  0.63204564118E+02  0.93729219690E+03  0.94190787479E+03  0.00000000000E+00 0. -1.
         11    1    3    3    0    0 -0.18173324554E+02 -0.22170746935E+02 -0.10285675088E+03  0.10677697760E+03  0.00000000000E+00 0. -1.
        -12    1    3    3    0    0 -0.52317794031E+01  0.47913182706E+02 -0.43839556621E+02  0.65153290918E+02  0.00000000000E+00 0.  1.
          5    1    4    4  501    0  0.11475634792E+03 -0.74400639359E+02  0.30432643943E+03  0.33367128834E+03  0.41800000000E+01 0. -1.
         -5    1    4    4    0  501 -0.28372035826E+02  0.25555473109E+01  0.10413016300E+03  0.10803733839E+03  0.41800000000E+01 0. -1.
</event>
<event>
11    1  0.8328696E-009  0.1477514E+03  0.7561462E-02  0.1099199E+00
         22   -1    0    0    0    0  0.00000000000E+00  0.00000000000E+00  0.61975404432E+03  0.61975404432E+03  0.00000000000E+00 0.  1.
         22   -1    0    0    0    0 -0.00000000000E+00 -0.00000000000E+00 -0.64151656638E+03  0.64151656638E+03  0.00000000000E+00 0.  1.
        -24    2    1    2    0    0 -0.80261840532E+02 -0.35945261145E+01 -0.54901892678E+03  0.56064482389E+03  0.80286692094E+02 0.  0.
         25    2    1    2    0    0  0.61558707739E+02 -0.59214414971E+01 -0.25441451681E+02  0.14185414335E+03  0.12510312767E+03 0.  0.
         24    2    1    2    0    0  0.18703132793E+02  0.95159676116E+01  0.55269785640E+03  0.55877164347E+03  0.79438455844E+02 0.  0.
        -13    1    5    5    0    0  0.21537684394E+02 -0.28994563540E+02  0.38475851385E+03  0.38645008804E+03  0.00000000000E+00 0.  1.
         14    1    5    5    0    0 -0.28345516006E+01  0.38510531152E+02  0.16793934255E+03  0.17232155544E+03  0.00000000000E+00 0. -1.
         11    1    3    3    0    0 -0.56421152327E+02 -0.96195742807E+01 -0.14513462258E+03  0.15601263190E+03  0.00000000000E+00 0. -1.
        -12    1    3    3    0    0 -0.23840688206E+02  0.60250481662E+01 -0.40388430419E+03  0.40463219199E+03  0.00000000000E+00 0.  1.
          5    1    4    4  501    0 -0.24147529095E+02 -0.73768155052E+01 -0.46867085077E+02  0.53399593931E+02  0.41800000000E+01 0.  1.
         -5    1    4    4    0  501  0.85706236834E+02  0.14553740081E+01  0.21425633396E+02  0.88454549415E+02  0.41800000000E+01 0.  1.
</event>
<event>
11    1  0.8328696E-009  0.1795126E+03  0.7561462E-02  0.1070038E+00
         22   -1    0    0    0    0  0.00000000000E+00  0.00000000000E+00  0.23605742551E+04  0.23605742551E+04  0.00000000000E+00 0. -1.
         22   -1    0    0    0    0 -0.00000000000E+00 -0.00000000000E+00 -0.97322590507E+03  0.97322590507E+03  0.00000000000E+00 0.  1.
         24    2    1    2    0    0 -0.61507166682E+02 -0.11496307677E+03 -0.94564989314E+03  0.95814466453E+03  0.82388331703E+02 0.  0.
         25    2    1    2    0    0 -0.30035316861E+02  0.76049302865E+02  0.27048185928E+03  0.30901989609E+03  0.12508894139E+03 0.  0.
        -24    2    1    2    0    0  0.91542483542E+02  0.38913773902E+02  0.20625163839E+04  0.20666355995E+04  0.84347847584E+02 0.  0.
        -11    1    3    3    0    0 -0.83133939013E+01 -0.63012703639E+02 -0.65718605485E+03  0.66025239419E+03  0.00000000000E+00 0.  1.
         12    1    3    3    0    0 -0.53193772780E+02 -0.51950373127E+02 -0.28846383828E+03  0.29789227034E+03  0.00000000000E+00 0. -1.
         13    1    5    5    0    0  0.81894398479E+02  0.31285315289E+01  0.17518943396E+04  0.17538102114E+04  0.00000000000E+00 0. -1.
        -14    1    5    5    0    0  0.96480850629E+01  0.35785242373E+02  0.31062204421E+03  0.31282538814E+03  0.00000000000E+00 0.  1.
          5    1    4    4  501    0  0.78832159940E+01  0.19020593597E+02 -0.77953229331E+01  0.22409094913E+02  0.41800000000E+01 0. -1.
         -5    1    4    4    0  501 -0.37918532855E+02  0.57028709268E+02  0.27827718221E+03  0.28661080118E+03  0.41800000000E+01 0. -1.
</event>
<event>
11    1  0.8328696E-009  0.1295870E+03  0.7561462E-02  0.1119777E+00
         22   -1    0    0    0    0  0.00000000000E+00  0.00000000000E+00  0.13193203583E+04  0.13193203583E+04  0.00000000000E+00 0. -1.
         22   -1    0    0    0    0 -0.00000000000E+00 -0.00000000000E+00 -0.49127088652E+03  0.49127088652E+03  0.00000000000E+00 0.  1.
         24    2    1    2    0    0  0.33486846559E+02  0.27186835507E-01 -0.46934679420E+03  0.47763675931E+03  0.82031036720E+02 0.  0.
         25    2    1    2    0    0 -0.58304103841E+02  0.14834545406E+02  0.28461890726E+03  0.31666389246E+03  0.12509462880E+03 0.  0.
        -24    2    1    2    0    0  0.24817257281E+02 -0.14861732241E+02  0.10127773587E+04  0.10162905931E+04  0.79321017603E+02 0.  0.
        -11    1    3    3    0    0  0.34364490611E+02  0.12591363125E+01 -0.47270473177E+03  0.47395386598E+03  0.00000000000E+00 0.  1.
         12    1    3    3    0    0 -0.87764405116E+00 -0.12319494770E+01  0.33579375667E+01  0.36828933322E+01  0.00000000000E+00 0. -1.
         13    1    5    5    0    0 -0.55019962295E+01  0.44967410007E+01  0.82874606619E+03  0.82877652890E+03  0.00000000000E+00 0. -1.
        -14    1    5    5    0    0  0.30319253511E+02 -0.19358473242E+02  0.18403129256E+03  0.18751406417E+03  0.00000000000E+00 0.  1.
          5    1    4    4  501    0 -0.55706372170E+02  0.66325783114E+02  0.16695322180E+03  0.18813069945E+03  0.41800000000E+01 0. -1.
         -5    1    4    4    0  501 -0.25977316707E+01 -0.51491237708E+02  0.11766568546E+03  0.12853319301E+03  0.41800000000E+01 0. -1.
</event>
<event>
11    1  0.8980364E-009  0.1798327E+03  0.7561462E-02  0.1069778E+00
         22   -1    0    0    0    0  0.00000000000E+00  0.00000000000E+00  0.31748993969E+03  0.31748993969E+03  0.00000000000E+00 0.  1.
         22   -1    0    0    0    0 -0.00000000000E+00 -0.00000000000E+00 -0.78652923637E+03  0.78652923637E+03  0.00000000000E+00 0.  1.
         24    2    1    2    0    0 -0.66683169136E+02  0.99448784416E+02 -0.52127819740E+03  0.54091996202E+03  0.80788244590E+02 0.  0.
         25    2    1    2    0    0  0.16110773816E+03 -0.10810639295E+03 -0.18451820642E+03  0.29552915756E+03  0.12509124259E+03 0.  0.
        -24    2    1    2    0    0 -0.94424569020E+02  0.86576085354E+01  0.23675710714E+03  0.26757005647E+03  0.80924989470E+02 0.  0.
        -11    1    3    3    0    0 -0.32085954304E+02  0.71650316435E+02 -0.45113708340E+03  0.45791696227E+03  0.00000000000E+00 0.  1.
         12    1    3    3    0    0 -0.34597214832E+02  0.27798467981E+02 -0.70141113995E+02  0.83002999757E+02  0.00000000000E+00 0. -1.
         11    1    5    5    0    0 -0.22839210443E+02  0.26663342201E+01  0.32008417427E+01  0.23216034538E+02  0.00000000000E+00 0. -1.
        -12    1    5    5    0    0 -0.71585358578E+02  0.59912743153E+01  0.23355626540E+03  0.24435402194E+03  0.00000000000E+00 0.  1.
          5    1    4    4  501    0 -0.21913067611E+01  0.79057380812E+01  0.11837530377E+02  0.14996734489E+02  0.41800000000E+01 0. -1.
         -5    1    4    4    0  501  0.16329904492E+03 -0.11601213103E+03 -0.19635573680E+03  0.28053242307E+03  0.41800000000E+01 0. -1.
</event>
<event>
11    1  0.8328696E-009  0.1405673E+03  0.7561462E-02  0.1106927E+00
         22   -1    0    0    0    0  0.00000000000E+00  0.00000000000E+00  0.26711469636E+03  0.26711469636E+03  0.00000000000E+00 0. -1.
         22   -1    0    0    0    0 -0.00000000000E+00 -0.00000000000E+00 -0.25357299540E+03  0.25357299540E+03  0.00000000000E+00 0.  1.
         24    2    1    2    0    0 -0.30652038597E+02 -0.42562840853E+02 -0.13777045622E+03  0.16925690367E+03  0.83162839888E+02 0.  0.
         25    2    1    2    0    0  0.20898609345E+02  0.10042513960E+03 -0.96759756073E+01  0.16205664743E+03  0.12508705743E+03 0.  0.
        -24    2    1    2    0    0  0.97534292521E+01 -0.57862298742E+02  0.16098813279E+03  0.18937414067E+03  0.80636289956E+02 0.  0.
        -13    1    3    3    0    0 -0.27565483995E+02  0.15426936861E+02 -0.85412816872E+02  0.91066983999E+02  0.00000000000E+00 0.  1.
         14    1    3    3    0    0 -0.30865546021E+01 -0.57989777714E+02 -0.52357639353E+02  0.78189919666E+02  0.00000000000E+00 0. -1.
         13    1    5    5    0    0  0.34790466283E+01 -0.18520936740E+02  0.14536545122E+03  0.14658186542E+03  0.00000000000E+00 0. -1.
        -14    1    5    5    0    0  0.62743826238E+01 -0.39341362002E+02  0.15622681574E+02  0.42792275250E+02  0.00000000000E+00 0.  1.
          5    1    4    4  501    0  0.28371659737E+02  0.50047789696E+02  0.54951930334E+02  0.79667555361E+02  0.41800000000E+01 0.  1.
         -5    1    4    4    0  501 -0.74730503920E+01  0.50377349899E+02 -0.64627905942E+02  0.82389092066E+02  0.41800000000E+01 0.  1.
</event>
<event>
11    1  0.8328696E-009  0.2468246E+03  0.7561462E-02  0.1025604E+00
         22   -1    0    0    0    0  0.00000000000E+00  0.00000000000E+00  0.19342616809E+03  0.19342616809E+03  0.00000000000E+00 0. -1.
         22   -1    0    0    0    0 -0.00000000000E+00 -0.00000000000E+00 -0.13621019821E+04  0.13621019821E+04  0.00000000000E+00 0.  1.
        -24    2    1    2    0    0  0.34165687027E+02 -0.20189275008E+02 -0.97726268718E+03  0.98152013148E+03  0.82246627591E+02 0.  0.
         25    2    1    2    0    0 -0.61951483913E+01 -0.19661001439E+03 -0.24236699147E+03  0.33627741675E+03  0.12508742878E+03 0.  0.
         24    2    1    2    0    0 -0.27970538635E+02  0.21679928940E+03  0.50953864680E+02  0.23773060191E+03  0.78327899530E+02 0.  0.
        -13    1    5    5    0    0 -0.26966922350E+02  0.30566073362E+02  0.29386462260E+02  0.50250013990E+02  0.00000000000E+00 0.  1.
         14    1    5    5    0    0 -0.10036162854E+01  0.18623321604E+03  0.21567402420E+02  0.18748058792E+03  0.00000000000E+00 0. -1.
         11    1    3    3    0    0 -0.69877983907E+01 -0.33081720829E+01 -0.74479322827E+03  0.74483335465E+03  0.00000000000E+00 0. -1.
        -12    1    3    3    0    0  0.41153485417E+02 -0.16881102925E+02 -0.23246945891E+03  0.23668677682E+03  0.00000000000E+00 0.  1.
          5    1    4    4  501    0 -0.48564355150E+02 -0.18136539220E+03 -0.19892414083E+03  0.27356934822E+03  0.41800000000E+01 0. -1.
         -5    1    4    4    0  501  0.42369206759E+02 -0.15244622185E+02 -0.43442850639E+02  0.62708068529E+02  0.41800000000E+01 0. -1.
</event>
<event>
11    1  0.8328696E-009  0.1363609E+03  0.7561462E-02  0.1111692E+00
         22   -1    0    0    0    0  0.00000000000E+00  0.00000000000E+00  0.20181452019E+03  0.20181452019E+03  0.00000000000E+00 0.  1.
         22   -1    0    0    0    0 -0.00000000000E+00 -0.00000000000E+00 -0.95451905170E+03  0.95451905170E+03  0.00000000000E+00 0. -1.
        -24    2    1    2    0    0 -0.45680972465E+02  0.12551819128E+02 -0.86861138904E+03  0.87440438686E+03  0.88617081771E+02 0.  0.
         25    2    1    2    0    0 -0.18572800030E+02 -0.20195766786E+02  0.21516865362E+01  0.12808250982E+03  0.12509069378E+03 0.  0.
         24    2    1    2    0    0  0.64253772495E+02  0.76439476573E+01  0.11375517099E+03  0.15384667521E+03  0.80880055207E+02 0.  0.
        -11    1    5    5    0    0  0.72184386378E+02  0.23318606245E+02  0.11320575405E+03  0.13627136817E+03  0.00000000000E+00 0.  1.
         12    1    5    5    0    0 -0.79306138828E+01 -0.15674658587E+02  0.54941693925E+00  0.17575307035E+02  0.00000000000E+00 0. -1.
         13    1    3    3    0    0 -0.16442263748E+02  0.14942034491E+02 -0.79285435231E+03  0.79316557944E+03  0.00000000000E+00 0. -1.
        -14    1    3    3    0    0 -0.29238708718E+02 -0.23902153630E+01 -0.75757036736E+02  0.81238807425E+02  0.00000000000E+00 0.  1.
          5    1    4    4  501    0  0.14618892911E+02 -0.26204725208E+01 -0.56357148092E+02  0.58430980201E+02  0.41800000000E+01 0.  1.
         -5    1    4    4    0  501 -0.33191692941E+02 -0.17575294265E+02  0.58508834629E+02  0.69651529620E+02  0.41800000000E+01 0.  1.
</event>
<event>
11    1  0.8328696E-009  0.2485284E+03  0.7561462E-02  0.1024686E+00
         22   -1    0    0    0    0  0.00000000000E+00  0.00000000000E+00  0.35791258198E+03  0.35791258198E+03  0.00000000000E+00 0. -1.
         22   -1    0    0    0    0 -0.00000000000E+00 -0.00000000000E+00 -0.21895759507E+04  0.21895759507E+04  0.00000000000E+00 0. -1.
         24    2    1    2    0    0 -0.14505456964E+03  0.43485647586E+02 -0.19063262682E+04  0.19140141084E+04  0.80239244184E+02 0.  0.
         25    2    1    2    0    0  0.32176431227E+03 -0.10792000771E+03 -0.88020334649E+02  0.37225534881E+03  0.12508982648E+03 0.  0.
        -24    2    1    2    0    0 -0.17670974263E+03  0.64434360128E+02  0.16268323416E+03  0.26121907551E+03  0.79946549821E+02 0.  0.
        -13    1    3    3    0    0 -0.31575677327E+02  0.48364857686E+02 -0.66071909993E+03  0.66323895533E+03  0.00000000000E+00 0.  1.
         14    1    3    3    0    0 -0.11347889231E+03 -0.48792101004E+01 -0.12456071683E+04  0.12507751530E+04  0.00000000000E+00 0. -1.
         13    1    5    5    0    0 -0.44990229642E+02 -0.11809967597E+02  0.66590125649E+02  0.81227094814E+02  0.00000000000E+00 0. -1.
        -14    1    5    5    0    0 -0.13171951299E+03  0.76244327725E+02  0.96093108514E+02  0.17999198070E+03  0.00000000000E+00 0.  1.
          5    1    4    4  501    0  0.50193434192E+02  0.27594984503E+02 -0.22816683981E+02  0.61797552327E+02  0.41800000000E+01 0.  1.
         -5    1    4    4    0  501  0.27157087807E+03 -0.13551499222E+03 -0.65203650668E+02  0.31045779648E+03  0.41800000000E+01 0.  1.
</event>
<event>
11    1  0.8328696E-009  0.3929388E+03  0.7561462E-02  0.9670825E-01
         22   -1    0    0    0    0  0.00000000000E+00  0.00000000000E+00  0.76278544650E+03  0.76278544650E+03  0.00000000000E+00 0.  1.
         22   -1    0    0    0    0 -0.00000000000E+00 -0.00000000000E+00 -0.65650786839E+03  0.65650786839E+03  0.00000000000E+00 0.  1.
         24    2    1    2    0    0 -0.25601667624E+03 -0.29740031786E+03 -0.46991242101E+03  0.61679767319E+03  0.75034649743E+02 0.  0.
         25    2    1    2    0    0  0.63364494776E+02  0.30561745167E+03  0.26570201063E+03  0.42855861759E+03  0.12509134381E+03 0.  0.
        -24    2    1    2    0    0  0.19265218146E+03 -0.82171338050E+01  0.31048798849E+03  0.37393702410E+03  0.79017230345E+02 0.  0.
        -11    1    3    3    0    0 -0.12328723460E+03 -0.19279552109E+03 -0.29799862082E+03  0.37573000037E+03  0.00000000000E+00 0.  1.
         12    1    3    3    0    0 -0.13272944163E+03 -0.10460479677E+03 -0.17191380019E+03  0.24106767282E+03  0.00000000000E+00 0. -1.
         11    1    5    5    0    0  0.65044043036E+01 -0.19326829564E+02  0.46022158920E+02  0.50337587626E+02  0.00000000000E+00 0. -1.
        -12    1    5    5    0    0  0.18614777716E+03  0.11109695759E+02  0.26446582957E+03  0.32359943648E+03  0.00000000000E+00 0.  1.
          5    1    4    4  501    0  0.70103385281E+02  0.28348250246E+03  0.18788740335E+03  0.34726929401E+03  0.41800000000E+01 0.  1.
         -5    1    4    4    0  501 -0.67388905046E+01  0.22134949211E+02  0.77814607277E+02  0.81289323576E+02  0.41800000000E+01 0.  1.
</event>
<event>
11    1  0.8328696E-009  0.1372352E+03  0.7561462E-02  0.1110686E+00
         22   -1    0    0    0    0  0.00000000000E+00  0.00000000000E+00  0.16651994223E+04  0.16651994223E+04  0.00000000000E+00 0.  1.
         22   -1    0    0    0    0 -0.00000000000E+00 -0.00000000000E+00 -0.51516424198E+02  0.51516424198E+02  0.00000000000E+00 0.  1.
        -24    2    1    2    0    0 -0.38148364287E+02  0.11905413702E+01  0.95018352372E+01  0.87322098898E+02  0.77962484546E+02 0.  0.
         25    2    1    2    0    0  0.76664474781E+02  0.33277994340E+02  0.52932544921E+03  0.55028017824E+03  0.12505189633E+03 0.  0.
         24    2    1    2    0    0 -0.38516110495E+02 -0.34468535710E+02  0.10748557137E+04  0.10791135694E+04  0.80620839075E+02 0.  0.
        -13    1    5    5    0    0  0.18489241606E+02 -0.21275010554E+02  0.60074302782E+03  0.60140391054E+03  0.00000000000E+00 0.  1.
         14    1    5    5    0    0 -0.57005352101E+02 -0.13193525156E+02  0.47411268587E+03  0.47770965886E+03  0.00000000000E+00 0. -1.
         13    1    3    3    0    0 -0.36951211365E+01  0.21291016776E+02  0.34164834591E+02  0.40425205481E+02  0.00000000000E+00 0. -1.
        -14    1    3    3    0    0 -0.34453243150E+02 -0.20100475405E+02 -0.24662999353E+02  0.46896893417E+02  0.00000000000E+00 0.  1.
          5    1    4    4  501    0  0.11070391093E+03  0.33277707685E+02  0.42514008301E+03  0.44059542020E+03  0.41800000000E+01 0.  1.
         -5    1    4    4    0  501 -0.34039436150E+02  0.28665448273E-03  0.10418536621E+03  0.10968475804E+03  0.41800000000E+01 0.  1.
</event>
<event>
11    1  0.8328696E-009  0.1620465E+03  0.7561462E-02  0.1085168E+00
         22   -1    0    0    0    0  0.00000000000E+00  0.00000000000E+00  0.29307176334E+03  0.29307176334E+03  0.00000000000E+00 0. -1.
         22   -1    0    0    0    0 -0.00000000000E+00 -0.00000000000E+00 -0.21648001661E+03  0.21648001661E+03  0.00000000000E+00 0. -1.
        -24    2    1    2    0    0  0.34160628180E+02 -0.47746661895E+02 -0.91577345553E+02  0.13466516480E+03  0.79382643902E+02 0.  0.
         25    2    1    2    0    0 -0.43376844052E+02  0.13834261586E+03  0.35650661948E+02  0.19477770319E+03  0.12508858462E+03 0.  0.
         24    2    1    2    0    0  0.92162158721E+01 -0.90595953966E+02  0.13251843033E+03  0.18010891195E+03  0.81151218595E+02 0.  0.
        -13    1    5    5    0    0  0.33907235786E+02 -0.10570128365E+02  0.23299632143E+02  0.42477065698E+02  0.00000000000E+00 0.  1.
         14    1    5    5    0    0 -0.24691019914E+02 -0.80025825601E+02  0.10921879818E+03  0.13763184626E+03  0.00000000000E+00 0. -1.
         11    1    3    3    0    0 -0.98070678249E+01 -0.55688767028E+01 -0.68644755317E+02  0.69565030005E+02  0.00000000000E+00 0. -1.
        -12    1    3    3    0    0  0.43967696005E+02 -0.42177785192E+02 -0.22932590236E+02  0.65100134797E+02  0.00000000000E+00 0.  1.
          5    1    4    4  501    0 -0.36435550758E+02  0.24853297464E+02  0.63701714312E+02  0.77592632125E+02  0.41800000000E+01 0.  1.
         -5    1    4    4    0  501 -0.69412932940E+01  0.11348931840E+03 -0.28051052363E+02  0.11718507107E+03  0.41800000000E+01 0.  1.
</event>
<event>
11    1  0.8328696E-009  0.1714872E+03  0.7561462E-02  0.1076745E+00
         22   -1    0    0    0    0  0.00000000000E+00  0.00000000000E+00  0.10100260776E+04  0.10100260776E+04  0.00000000000E+00 0. -1.
         22   -1    0    0    0    0 -0.00000000000E+00 -0.00000000000E+00 -0.24848668454E+03  0.24848668454E+03  0.00000000000E+00 0.  1.
         24    2    1    2    0    0 -0.75906004605E+00  0.76771128151E+02 -0.78814649010E+02  0.13596898844E+03  0.79883882154E+02 0.  0.
         25    2    1    2    0    0 -0.88840364248E+02 -0.14947669489E+03 -0.50853990307E+02  0.22015835453E+03  0.12509068753E+03 0.  0.
        -24    2    1    2    0    0  0.89599424294E+02  0.72705566742E+02  0.89120803236E+03  0.90238541916E+03  0.82058098265E+02 0.  0.
        -11    1    3    3    0    0 -0.96948194207E+01  0.20153089587E+02 -0.75290749606E+02  0.78541922052E+02  0.00000000000E+00 0.  1.
         12    1    3    3    0    0  0.89357593747E+01  0.56618038564E+02 -0.35238994048E+01  0.57427066384E+02  0.00000000000E+00 0. -1.
         11    1    5    5    0    0  0.10155458836E+03  0.46740437591E+02  0.65761013690E+03  0.66704504726E+03  0.00000000000E+00 0. -1.
        -12    1    5    5    0    0 -0.11955164062E+02  0.25965129150E+02  0.23359789546E+03  0.23534037190E+03  0.00000000000E+00 0.  1.
          5    1    4    4  501    0 -0.24559336936E+02 -0.32728218824E+02 -0.74153963726E+02  0.84797288131E+02  0.41800000000E+01 0. -1.
         -5    1    4    4    0  501 -0.64281027312E+02 -0.11674847607E+03  0.23299973419E+02  0.13536106640E+03  0.41800000000E+01 0. -1.
</event>
<event>
11    1  0.8937549E-009  0.1856238E+03  0.7561462E-02  0.1065182E+00
         22   -1    0    0    0    0  0.00000000000E+00  0.00000000000E+00  0.11976698230E+04  0.11976698230E+04  0.00000000000E+00 0. -1.
         22   -1    0    0    0    0 -0.00000000000E+00 -0.00000000000E+00 -0.38165565001E+03  0.38165565001E+03  0.00000000000E+00 0.  1.
         24    2    1    2    0    0  0.80962491547E+02  0.16919608540E+02 -0.27719850465E+03  0.30021246073E+03  0.80295158058E+02 0.  0.
         25    2    1    2    0    0 -0.10043318224E+03  0.11905841329E+03  0.26270964627E+02  0.20149343246E+03  0.12509080651E+03 0.  0.
        -24    2    1    2    0    0  0.19470690696E+02 -0.13597802183E+03  0.10669417130E+04  0.10776195798E+04  0.63483932038E+02 0.  0.
        -13    1    3    3    0    0  0.24326378263E+02  0.29338530078E+02 -0.20035806612E+03  0.20395067219E+03  0.00000000000E+00 0.  1.
         14    1    3    3    0    0  0.56636113285E+02 -0.12418921539E+02 -0.76840438531E+02  0.96261788545E+02  0.00000000000E+00 0. -1.
         11    1    5    5    0    0  0.14475532903E+02 -0.13860899129E+03  0.10573109196E+04  0.10664559880E+04  0.00000000000E+00 0. -1.
        -12    1    5    5    0    0  0.49951577925E+01  0.26309694564E+01  0.96307933665E+01  0.11163591829E+02  0.00000000000E+00 0.  1.
          5    1    4    4  501    0  0.10741284101E+02 -0.18698673356E+02 -0.24726586740E+01  0.22104343698E+02  0.41800000000E+01 0. -1.
         -5    1    4    4    0  501 -0.11117446634E+03  0.13775708665E+03  0.28743623301E+02  0.17938908877E+03  0.41800000000E+01 0. -1.
</event>
<event>
11    1  0.8328696E-009  0.2250343E+03  0.7561462E-02  0.1038109E+00
         22   -1    0    0    0    0  0.00000000000E+00  0.00000000000E+00  0.80651021668E+02  0.80651021668E+02  0.00000000000E+00 0. -1.
         22   -1    0    0    0    0 -0.00000000000E+00 -0.00000000000E+00 -0.24645709236E+04  0.24645709236E+04  0.00000000000E+00 0. -1.
        -24    2    1    2    0    0  0.19138083537E+02  0.18802715359E+03 -0.21095064290E+04  0.21195398985E+04  0.81923933002E+02 0.  0.
         25    2    1    2    0    0 -0.20921678970E+02 -0.17148013408E+03 -0.26873310428E+03  0.34308661710E+03  0.12509113662E+03 0.  0.
         24    2    1    2    0    0  0.17835954337E+01 -0.16547019508E+02 -0.56803686375E+01  0.82595429609E+02  0.80701631564E+02 0.  0.
        -13    1    5    5    0    0 -0.31502265437E+02  0.69507949400E+01 -0.21630387671E+02  0.38840442180E+02  0.00000000000E+00 0.  1.
         14    1    5    5    0    0  0.33285860871E+02 -0.23497814448E+02  0.15950019034E+02  0.43754987429E+02  0.00000000000E+00 0. -1.
         11    1    3    3    0    0  0.40111409139E+02  0.15781457075E+03 -0.18871862059E+04  0.18941980202E+04  0.00000000000E+00 0. -1.
        -12    1    3    3    0    0 -0.20973325602E+02  0.30212582840E+02 -0.22232022304E+03  0.22534187831E+03  0.00000000000E+00 0.  1.
          5    1    4    4  501    0  0.49646885534E+02 -0.98080337406E+02 -0.12003798120E+03  0.16282246516E+03  0.41800000000E+01 0.  1.
         -5    1    4    4    0  501 -0.70568564504E+02 -0.73399796674E+02 -0.14869512308E+03  0.18026415194E+03  0.41800000000E+01 0.  1.
</event>
<event>
11    1  0.8328696E-009  0.1301141E+03  0.7561462E-02  0.1119129E+00
         22   -1    0    0    0    0  0.00000000000E+00  0.00000000000E+00  0.42190454837E+03  0.42190454837E+03  0.00000000000E+00 0.  1.
         22   -1    0    0    0    0 -0.00000000000E+00 -0.00000000000E+00 -0.17369473050E+04  0.17369473050E+04  0.00000000000E+00 0. -1.
         24    2    1    2    0    0 -0.41081441415E+01  0.35676427693E+02 -0.16580949827E+04  0.16604015131E+04  0.79777997480E+02 0.  0.
         25    2    1    2    0    0  0.17795112887E+02 -0.29436810860E+02 -0.15953982194E+02  0.13070650158E+03  0.12508584305E+03 0.  0.
        -24    2    1    2    0    0 -0.13686968746E+02 -0.62396168335E+01  0.35900620820E+03  0.36774383870E+03  0.78254759889E+02 0.  0.
        -13    1    3    3    0    0 -0.12930144395E+02  0.28520014906E+02 -0.21563878675E+03  0.21790058796E+03  0.00000000000E+00 0.  1.
         14    1    3    3    0    0  0.88220002532E+01  0.71564127870E+01 -0.14424561959E+04  0.14425009252E+04  0.00000000000E+00 0. -1.
         11    1    5    5    0    0 -0.21381991445E+01  0.35592480452E+02  0.13917252061E+03  0.14366762702E+03  0.00000000000E+00 0. -1.
        -12    1    5    5    0    0 -0.11548769601E+02 -0.41832097286E+02  0.21983368759E+03  0.22407621168E+03  0.00000000000E+00 0.  1.
          5    1    4    4  501    0  0.65335570411E+02 -0.44045393537E+02 -0.17292169174E+02  0.80778864609E+02  0.41800000000E+01 0. -1.
         -5    1    4    4    0  501 -0.47540457524E+02  0.14608582678E+02  0.13381869807E+01  0.49927636974E+02  0.41800000000E+01 0. -1.
</event>
<event>
11    1  0.8328696E-009  0.1339803E+03  0.7561462E-02  0.1114473E+00
         22   -1    0    0    0    0  0.00000000000E+00  0.00000000000E+00  0.14855564805E+03  0.14855564805E+03  0.00000000000E+00 0.  1.
         22   -1    0    0    0    0 -0.00000000000E+00 -0.00000000000E+00 -0.43410331808E+03  0.43410331808E+03  0.00000000000E+00 0. -1.
        -24    2    1    2    0    0 -0.54350543341E+02  0.44653764184E+02 -0.19626474216E+03  0.22637718301E+03  0.88197731022E+02 0.  0.
         25    2    1    2    0    0  0.25126405604E+02  0.52637324786E+01 -0.18111655179E+03  0.22161329685E+03  0.12510077885E+03 0.  0.
         24    2    1    2    0    0  0.29224137737E+02 -0.49917496663E+02  0.91833623914E+02  0.13466848627E+03  0.79726908971E+02 0.  0.
        -13    1    5    5    0    0 -0.19804106411E+02 -0.45000434500E+02  0.43515665325E+02  0.65657100641E+02  0.00000000000E+00 0.  1.
         14    1    5    5    0    0  0.49028244147E+02 -0.49170621623E+01  0.48317958590E+02  0.69011385631E+02  0.00000000000E+00 0. -1.
         13    1    3    3    0    0 -0.39387698522E+01  0.59831249943E+02 -0.11129410886E+03  0.12641863409E+03  0.00000000000E+00 0. -1.
        -14    1    3    3    0    0 -0.50411773489E+02 -0.15177485758E+02 -0.84970633296E+02  0.99958548924E+02  0.00000000000E+00 0.  1.
          5    1    4    4  501    0  0.49495637882E+02  0.43684990917E+02 -0.50458082205E+02  0.83196676981E+02  0.41800000000E+01 0. -1.
         -5    1    4    4    0  501 -0.24369232278E+02 -0.38421258439E+02 -0.13065846958E+03  0.13841661987E+03  0.41800000000E+01 0. -1.
</event>
<event>
11    1  0.8328696E-009  0.2246352E+03  0.7561462E-02  0.1038352E+00
         22   -1    0    0    0    0  0.00000000000E+00  0.00000000000E+00  0.55815761218E+03  0.55815761218E+03  0.00000000000E+00 0.  1.
         22   -1    0    0    0    0 -0.00000000000E+00 -0.00000000000E+00 -0.43178613055E+03  0.43178613055E+03  0.00000000000E+00 0.  1.
        -24    2    1    2    0    0  0.50707220075E+02 -0.17137403008E+03 -0.29539562647E+03  0.35519136051E+03  0.83438876365E+02 0.  0.
         25    2    1    2    0    0 -0.51243685542E+02  0.22752749954E+03  0.76120154579E+02  0.27538513614E+03  0.12509203379E+03 0.  0.
         24    2    1    2    0    0  0.53646546709E+00 -0.56153469460E+02  0.34564695352E+03  0.35936724607E+03  0.80743427893E+02 0.  0.
        -11    1    5    5    0    0 -0.22687050489E+02 -0.53322261161E+02  0.31760174938E+03  0.32284491169E+03  0.00000000000E+00 0.  1.
         12    1    5    5    0    0  0.23223515956E+02 -0.28312082990E+01  0.28045204140E+02  0.36522334387E+02  0.00000000000E+00 0. -1.
         13    1    3    3    0    0 -0.19872178394E+02 -0.62384935642E+02 -0.12330869106E+03  0.13961309738E+03  0.00000000000E+00 0. -1.
        -14    1    3    3    0    0  0.70579398469E+02 -0.10898909444E+03 -0.17208693541E+03  0.21557826313E+03  0.00000000000E+00 0.  1.
          5    1    4    4  501    0 -0.72744754636E+02  0.23122748063E+03  0.70220175113E+02  0.25240105491E+03  0.41800000000E+01 0. -1.
         -5    1    4    4    0  501  0.21501069094E+02 -0.36999810906E+01  0.58999794664E+01  0.22984081229E+02  0.41800000000E+01 0. -1.
</event>
<event>
11    1  0.8328696E-009  0.1719487E+03  0.7561462E-02  0.1076348E+00
         22   -1    0    0    0    0  0.00000000000E+00  0.00000000000E+00  0.71562842865E+03  0.71562842865E+03  0.00000000000E+00 0. -1.
         22   -1    0    0    0    0 -0.00000000000E+00 -0.00000000000E+00 -0.19701048300E+03  0.19701048300E+03  0.00000000000E+00 0. -1.
        -24    2    1    2    0    0 -0.18356379210E+02 -0.29220921308E+02 -0.11651131620E+03  0.14644176085E+03  0.81728107880E+02 0.  0.
         25    2    1    2    0    0  0.82957541688E+02  0.12338161287E+03  0.10346046165E+03  0.22012793965E+03  0.12508903458E+03 0.  0.
         24    2    1    2    0    0 -0.64601162478E+02 -0.94160691565E+02  0.53166880020E+03  0.54606921115E+03  0.49802853688E+02 0.  0.
        -13    1    5    5    0    0  0.78433982226E+01 -0.36655669543E+01  0.36551344487E+02  0.37562695066E+02  0.00000000000E+00 0.  1.
         14    1    5    5    0    0 -0.72444560701E+02 -0.90495124611E+02  0.49511745571E+03  0.50850651609E+03  0.00000000000E+00 0. -1.
         11    1    3    3    0    0  0.29277954449E+00 -0.43568180590E+02 -0.11486997821E+03  0.12285513410E+03  0.00000000000E+00 0. -1.
        -12    1    3    3    0    0 -0.18649158755E+02  0.14347259282E+02 -0.16413379919E+01  0.23586626753E+02  0.00000000000E+00 0.  1.
          5    1    4    4  501    0  0.97950101533E+02  0.36709028307E+02  0.69962992373E+02  0.12591293759E+03  0.41800000000E+01 0. -1.
         -5    1    4    4    0  501 -0.14992559845E+02  0.86672584566E+02  0.33497469278E+02  0.94215002065E+02  0.41800000000E+01 0. -1.
</event>
<event>
11    1  0.8328696E-009  0.1527491E+03  0.7561462E-02  0.1094102E+00
         22   -1    0    0    0    0  0.00000000000E+00  0.00000000000E+00  0.69264397856E+03  0.69264397856E+03  0.00000000000E+00 0.  1.
         22   -1    0    0    0    0 -0.00000000000E+00 -0.00000000000E+00 -0.16535645539E+03  0.16535645539E+03  0.00000000000E+00 0. -1.
         24    2    1    2    0    0  0.71948154751E+02 -0.50773369464E+02 -0.11230409939E+03  0.16353554246E+03  0.79857315810E+02 0.  0.
         25    2    1    2    0    0 -0.89502003253E+02  0.16676984680E+02  0.24819736351E+03  0.29246966346E+03  0.12509133619E+03 0.  0.
        -24    2    1    2    0    0  0.17553848502E+02  0.34096384784E+02  0.39139425905E+03  0.40199522802E+03  0.83306640068E+02 0.  0.
        -11    1    3    3    0    0 -0.75113369845E+01 -0.30341543533E+02 -0.10913136631E+02  0.33107793620E+02  0.00000000000E+00 0.  1.
         12    1    3    3    0    0  0.79459491736E+02 -0.20431825931E+02 -0.10139096276E+03  0.13042774884E+03  0.00000000000E+00 0. -1.
         13    1    5    5    0    0  0.29898997595E+01  0.44700879996E+02  0.94785776438E+02  0.10484012394E+03  0.00000000000E+00 0. -1.
        -14    1    5    5    0    0  0.14563948742E+02 -0.10604495212E+02  0.29660848262E+03  0.29715510408E+03  0.00000000000E+00 0.  1.
          5    1    4    4  501    0 -0.47511773619E+01  0.35180398992E+02  0.17581898113E+03  0.17941577602E+03  0.41800000000E+01 0. -1.
         -5    1    4    4    0  501 -0.84750825891E+02 -0.18503414312E+02  0.72378382375E+02  0.11305388744E+03  0.41800000000E+01 0. -1.
</event>
<event>
11    1  0.8328696E-009  0.1294269E+03  0.7561462E-02  0.1119975E+00
         22   -1    0    0    0    0  0.00000000000E+00  0.00000000000E+00  0.40193454088E+03  0.40193454088E+03  0.00000000000E+00 0.  1.
         22   -1    0    0    0    0 -0.00000000000E+00 -0.00000000000E+00 -0.13032041022E+04  0.13032041022E+04  0.00000000000E+00 0. -1.
         24    2    1    2    0    0 -0.33187333955E+02  0.16951069367E+01 -0.12515613248E+04  0.12546045729E+04  0.80762689128E+02 0.  0.
         25    2    1    2    0    0  0.35868569957E+02  0.93998483830E+01  0.48592448840E+02  0.13921539215E+03  0.12507912642E+03 0.  0.
        -24    2    1    2    0    0 -0.26812360023E+01 -0.11094955320E+02  0.30169931466E+03  0.31131867805E+03  0.75937841511E+02 0.  0.
        -13    1    3    3    0    0 -0.10398051062E+02  0.25019046425E+02 -0.14185456060E+03  0.14441879557E+03  0.00000000000E+00 0.  1.
         14    1    3    3    0    0 -0.22789282893E+02 -0.23323939489E+02 -0.11097067642E+04  0.11101857773E+04  0.00000000000E+00 0. -1.
         11    1    5    5    0    0  0.14141145833E+02  0.19070687297E+02  0.34401823713E+02  0.41798906615E+02  0.00000000000E+00 0. -1.
        -12    1    5    5    0    0 -0.16822381835E+02 -0.30165642616E+02  0.26729749095E+03  0.26951977143E+03  0.00000000000E+00 0.  1.
          5    1    4    4  501    0 -0.15987864297E+02  0.55850258281E+02  0.87613970369E+01  0.58899046112E+02  0.41800000000E+01 0.  1.
         -5    1    4    4    0  501  0.51856434254E+02 -0.46450409898E+02  0.39831051803E+02  0.80316346039E+02  0.41800000000E+01 0.  1.
</event>
<event>
11    1  0.8328696E-009  0.1468694E+03  0.7561462E-02  0.1100121E+00
         22   -1    0    0    0    0  0.00000000000E+00  0.00000000000E+00  0.26982574916E+03  0.26982574916E+03  0.00000000000E+00 0.  1.
         22   -1    0    0    0    0 -0.00000000000E+00 -0.00000000000E+00 -0.39669019396E+03  0.39669019396E+03  0.00000000000E+00 0. -1.
        -24    2    1    2    0    0  0.63940040957E+02  0.34914627794E+02 -0.19110562290E+03  0.21995266843E+03  0.80934894658E+02 0.  0.
         25    2    1    2    0    0 -0.84556317060E+02 -0.22830493270E+02 -0.15196179966E+03  0.21543153335E+03  0.12508938735E+03 0.  0.
         24    2    1    2    0    0  0.20616276103E+02 -0.12084134524E+02  0.21620297776E+03  0.23113174134E+03  0.78147918172E+02 0.  0.
        -11    1    5    5    0    0  0.18728712317E+02 -0.20303386754E+02  0.22011071884E+03  0.22183714912E+03  0.00000000000E+00 0.  1.
         12    1    5    5    0    0  0.18875637863E+01  0.82192522296E+01 -0.39077410808E+01  0.92945922243E+01  0.00000000000E+00 0. -1.
         11    1    3    3    0    0  0.80673160794E+02  0.36972171442E+02 -0.17688276444E+03  0.19789545899E+03  0.00000000000E+00 0. -1.
        -12    1    3    3    0    0 -0.16733119837E+02 -0.20575436482E+01 -0.14222858460E+02  0.22057209437E+02  0.00000000000E+00 0.  1.
          5    1    4    4  501    0 -0.61264341429E+02 -0.45320618796E+02 -0.19177155399E+02  0.78692526379E+02  0.41800000000E+01 0. -1.
         -5    1    4    4    0  501 -0.23291975632E+02  0.22490125527E+02 -0.13278464427E+03  0.13673900697E+03  0.41800000000E+01 0. -1.
</event>
<event>
11    1  0.8328696E-009  0.1609557E+03  0.7561462E-02  0.1086182E+00
         22   -1    0    0    0    0  0.00000000000E+00  0.00000000000E+00  0.22258526378E+03  0.22258526378E+03  0.00000000000E+00 0.  1.
         22   -1    0    0    0    0 -0.00000000000E+00 -0.00000000000E+00 -0.57190579796E+03  0.57190579796E+03  0.00000000000E+00 0. -1.
         24    2    1    2    0    0 -0.52026761681E+02 -0.21990165812E+02 -0.19453689683E+03  0.21767496564E+03  0.79670792102E+02 0.  0.
         25    2    1    2    0    0  0.15861085991E+02  0.11641261661E+03 -0.32231089163E+03  0.36515183712E+03  0.12509229366E+03 0.  0.
        -24    2    1    2    0    0  0.36165675689E+02 -0.94422450793E+02  0.16752725428E+03  0.21166425898E+03  0.80702058775E+02 0.  0.
        -13    1    3    3    0    0 -0.55118626808E+02 -0.17751712628E+02 -0.61267667668E+02  0.84302511373E+02  0.00000000000E+00 0.  1.
         14    1    3    3    0    0  0.30918651269E+01 -0.42384531839E+01 -0.13326922916E+03  0.13337245427E+03  0.00000000000E+00 0. -1.
         13    1    5    5    0    0 -0.23017071218E+02 -0.50304664951E+02  0.65544207575E+02  0.85769388653E+02  0.00000000000E+00 0. -1.
        -14    1    5    5    0    0  0.59182746907E+02 -0.44117785843E+02  0.10198304670E+03  0.12589487033E+03  0.00000000000E+00 0.  1.
          5    1    4    4  501    0  0.68205986031E+02  0.82368562654E+02 -0.17549580564E+03  0.20555507010E+03  0.41800000000E+01 0.  1.
         -5    1    4    4    0  501 -0.52344900040E+02  0.34044053952E+02 -0.14681508599E+03  0.15959676702E+03  0.41800000000E+01 0.  1.
</event>
<event>
11    1  0.8328696E-009  0.1951315E+03  0.7561462E-02  0.1058021E+00
         22   -1    0    0    0    0  0.00000000000E+00  0.00000000000E+00  0.14352139239E+04  0.14352139239E+04  0.00000000000E+00 0. -1.
         22   -1    0    0    0    0 -0.00000000000E+00 -0.00000000000E+00 -0.48429421548E+03  0.48429421548E+03  0.00000000000E+00 0.  1.
         24    2    1    2    0    0 -0.13640688232E+03  0.25923784854E+02 -0.32202609925E+03  0.36029588725E+03  0.82664609134E+02 0.  0.
         25    2    1    2    0    0  0.22850523447E+03  0.35991069372E+02 -0.15394469374E+02  0.26342925925E+03  0.12509190895E+03 0.  0.
        -24    2    1    2    0    0 -0.92098352141E+02 -0.61914854227E+02  0.12883402771E+04  0.12957829929E+04  0.83170544988E+02 0.  0.
        -11    1    3    3    0    0 -0.43945480707E+02  0.32042062661E+02 -0.19886985574E+03  0.20617254564E+03  0.00000000000E+00 0.  1.
         12    1    3    3    0    0 -0.92461401618E+02 -0.61182778068E+01 -0.12315624350E+03  0.15412334160E+03  0.00000000000E+00 0. -1.
         13    1    5    5    0    0 -0.10245853023E+03 -0.41246367504E+02  0.11702662091E+04  0.11754667215E+04  0.00000000000E+00 0. -1.
        -14    1    5    5    0    0  0.10360178086E+02 -0.20668486723E+02  0.11807406798E+03  0.12031627139E+03  0.00000000000E+00 0.  1.
          5    1    4    4  501    0  0.35955552788E+02 -0.61892419749E+00  0.45500254958E+02  0.58145768932E+02  0.41800000000E+01 0.  1.
         -5    1    4    4    0  501  0.19254968168E+03  0.36609993570E+02 -0.60894724332E+02  0.20528349031E+03  0.41800000000E+01 0.  1.
</event>
<event>
11    1  0.8328696E-009  0.1473617E+03  0.7561462E-02  0.1099605E+00
         22   -1    0    0    0    0  0.00000000000E+00  0.00000000000E+00  0.89675648431E+03  0.89675648431E+03  0.00000000000E+00 0. -1.
         22   -1    0    0    0    0 -0.00000000000E+00 -0.00000000000E+00 -0.47051776396E+03  0.47051776396E+03  0.00000000000E+00 0. -1.
        -24    2    1    2    0    0 -0.72835858547E+02 -0.32434716610E+02 -0.42783489480E+03  0.44253423380E+03  0.80229531612E+02 0.  0.
         25    2    1    2    0    0  0.51728038606E+02 -0.13375145048E+02  0.11056329196E+03  0.17529109365E+03  0.12509213204E+03 0.  0.
         24    2    1    2    0    0  0.21107819941E+02  0.45809861658E+02  0.74351032319E+03  0.74944892083E+03  0.79511010247E+02 0.  0.
        -11    1    5    5    0    0  0.37973371689E+02 -0.47319577506E+01  0.40063601362E+03  0.40245941882E+03  0.00000000000E+00 0.  1.
         12    1    5    5    0    0 -0.16865551749E+02  0.50541819409E+02  0.34287430957E+03  0.34698950201E+03  0.00000000000E+00 0. -1.
         11    1    3    3    0    0 -0.50397827464E+02 -0.56689897995E+02 -0.23647871921E+03  0.24834627074E+03  0.00000000000E+00 0. -1.
        -12    1    3    3    0    0 -0.22438031083E+02  0.24255181385E+02 -0.19135617558E+03  0.19418796306E+03  0.00000000000E+00 0.  1.
          5    1    4    4  501    0  0.19228448704E+02  0.39176427772E+02 -0.50549975386E+01  0.44131067658E+02  0.41800000000E+01 0. -1.
         -5    1    4    4    0  501  0.32499589902E+02 -0.52551572820E+02  0.11561828950E+03  0.13116002599E+03  0.41800000000E+01 0. -1.
</event>
<event>
11    1  0.8328696E-009  0.2837809E+03  0.7561462E-02  0.1007299E+00
         22   -1    0    0    0    0  0.00000000000E+00  0.00000000000E+00  0.92791165340E+03  0.92791165340E+03  0.00000000000E+00 0. -1.
         22   -1    0    0    0    0 -0.00000000000E+00 -0.00000000000E+00 -0.83613751409E+03  0.83613751409E+03  0.00000000000E+00 0.  1.
         24    2    1    2    0    0  0.25289941147E+03  0.97909490747E+02 -0.56307670251E+03  0.62960865914E+03  0.76205708811E+02 0.  0.
         25    2    1    2    0    0 -0.19242040943E+03 -0.11159698722E+03 -0.16656693052E+03  0.30475497560E+03  0.12510616009E+03 0.  0.
        -24    2    1    2    0    0 -0.60479002044E+02  0.13687496475E+02  0.82141777234E+03  0.82968553274E+03  0.99024589306E+02 0.  0.
        -11    1    3    3    0    0  0.74371935100E+02  0.64438602940E+02 -0.23135718545E+03  0.25141532479E+03  0.00000000000E+00 0.  1.
         12    1    3    3    0    0  0.17852747637E+03  0.33470887808E+02 -0.33171951706E+03  0.37819333435E+03  0.00000000000E+00 0. -1.
         13    1    5    5    0    0 -0.21581159654E+02 -0.11361888110E+02  0.68875505130E+03  0.68918673786E+03  0.00000000000E+00 0. -1.
        -14    1    5    5    0    0 -0.38897842390E+02  0.25049384584E+02  0.13266272104E+03  0.14049879488E+03  0.00000000000E+00 0.  1.
          5    1    4    4  501    0 -0.32578673493E+02  0.27598167057E+02 -0.33803422106E+02  0.54618426722E+02  0.41800000000E+01 0. -1.
         -5    1    4    4    0  501 -0.15984173593E+03 -0.13919515428E+03 -0.13276350841E+03  0.25013654888E+03  0.41800000000E+01 0. -1.
</event>
<event>
11    1  0.8328696E-009  0.1560578E+03  0.7561462E-02  0.1090845E+00
         22   -1    0    0    0    0  0.00000000000E+00  0.00000000000E+00  0.99384594491E+03  0.99384594491E+03  0.00000000000E+00 0. -1.
         22   -1    0    0    0    0 -0.00000000000E+00 -0.00000000000E+00 -0.23846936936E+03  0.23846936936E+03  0.00000000000E+00 0. -1.
        -24    2    1    2    0    0 -0.46628092045E+01 -0.42074946068E+02 -0.18253026103E+03  0.20735784209E+03  0.88814050735E+02 0.  0.
         25    2    1    2    0    0 -0.87843652808E+02  0.22266095759E+02  0.11385467338E+03  0.19189083601E+03  0.12508764901E+03 0.  0.
         24    2    1    2    0    0  0.92506462012E+02  0.19808850310E+02  0.82405216320E+03  0.83306663617E+03  0.77383567748E+02 0.  0.
        -13    1    5    5    0    0  0.99311934156E+01 -0.20382208296E+02  0.73520363146E+02  0.76937031492E+02  0.00000000000E+00 0.  1.
         14    1    5    5    0    0  0.82575268597E+02  0.40191058605E+02  0.75053180006E+03  0.75612960468E+03  0.00000000000E+00 0. -1.
         11    1    3    3    0    0 -0.22737531083E+02 -0.34098034666E+02 -0.18306237718E+03  0.18759399038E+03  0.00000000000E+00 0. -1.
        -12    1    3    3    0    0  0.18074721878E+02 -0.79769114021E+01  0.53211615815E+00  0.19763851702E+02  0.00000000000E+00 0.  1.
          5    1    4    4  501    0  0.10416151657E+01 -0.43480152091E+02  0.35875186264E+02  0.56534148773E+02  0.41800000000E+01 0. -1.
         -5    1    4    4    0  501 -0.88885267973E+02  0.65746247850E+02  0.77979487111E+02  0.13535668723E+03  0.41800000000E+01 0. -1.
</event>
<event>
11    1  0.8328696E-009  0.1312607E+03  0.7561462E-02  0.1117730E+00
         22   -1    0    0    0    0  0.00000000000E+00  0.00000000000E+00  0.99757340296E+02  0.99757340296E+02  0.00000000000E+00 0.  1.
         22   -1    0    0    0    0 -0.00000000000E+00 -0.00000000000E+00 -0.37142569540E+03  0.37142569540E+03  0.00000000000E+00 0.  1.
        -24    2    1    2    0    0  0.13730958638E+02 -0.13372828376E+01 -0.22392760196E+03  0.23834073614E+03  0.80451277391E+02 0.  0.
         25    2    1    2    0    0 -0.44338769767E+02 -0.18706166165E+02 -0.54705393560E+02  0.14476152246E+03  0.12508945256E+03 0.  0.
         24    2    1    2    0    0  0.30607811128E+02  0.20043449003E+02  0.69646404138E+01  0.88080777100E+02  0.79819415736E+02 0.  0.
        -13    1    5    5    0    0  0.52709245905E+02 -0.55843530847E+01 -0.21010747919E+01  0.53045868063E+02  0.00000000000E+00 0.  1.
         14    1    5    5    0    0 -0.22101434777E+02  0.25627802088E+02  0.90657152057E+01  0.35034909037E+02  0.00000000000E+00 0. -1.
         13    1    3    3    0    0  0.17093657869E+01 -0.70065166059E+01  0.51600221865E+01  0.88678653186E+01  0.00000000000E+00 0. -1.
        -14    1    3    3    0    0  0.12021592851E+02  0.56692337684E+01 -0.22908762414E+03  0.22947287082E+03  0.00000000000E+00 0.  1.
          5    1    4    4  501    0 -0.24818281311E+02  0.53059873946E+02 -0.16265074061E+02  0.60937035903E+02  0.41800000000E+01 0.  1.
         -5    1    4    4    0  501 -0.19520488455E+02 -0.71766040112E+02 -0.38440319499E+02  0.83824486554E+02  0.41800000000E+01 0.  1.
</event>
<event>
11    1  0.8328696E-009  0.2130482E+03  0.7561462E-02  0.1045662E+00
         22   -1    0    0    0    0  0.00000000000E+00  0.00000000000E+00  0.82582933984E+02  0.82582933984E+02  0.00000000000E+00 0. -1.
         22   -1    0    0    0    0 -0.00000000000E+00 -0.00000000000E+00 -0.35815488852E+04  0.35815488852E+04  0.00000000000E+00 0. -1.
         24    2    1    2    0    0  0.78844804604E+02 -0.40378127270E+01 -0.14608001291E+04  0.14652466331E+04  0.82327829628E+02 0.  0.
         25    2    1    2    0    0 -0.57178261575E+02  0.17541392453E+03 -0.19890297669E+04  0.20014810269E+04  0.12508992247E+03 0.  0.
        -24    2    1    2    0    0 -0.21666543028E+02 -0.17137611180E+03 -0.49136055199E+02  0.19740415920E+03  0.81944123442E+02 0.  0.
        -11    1    3    3    0    0  0.55160048582E+01  0.21892041893E+02 -0.11466371480E+03  0.11686511584E+03  0.00000000000E+00 0.  1.
         12    1    3    3    0    0  0.73328799745E+02 -0.25929854620E+02 -0.13461364143E+04  0.13483815172E+04  0.00000000000E+00 0. -1.
         13    1    5    5    0    0 -0.25043341869E+02 -0.17553032160E+03 -0.58422668750E+02  0.18668495118E+03  0.00000000000E+00 0. -1.
        -14    1    5    5    0    0  0.33767988402E+01  0.41542097961E+01  0.92866135507E+01  0.10719208025E+02  0.00000000000E+00 0.  1.
          5    1    4    4  501    0 -0.95923949380E+02  0.13560146777E+03 -0.14010047068E+04  0.14108227468E+04  0.41800000000E+01 0. -1.
         -5    1    4    4    0  501  0.38745687804E+02  0.39812456762E+02 -0.58802506014E+03  0.59065828005E+03  0.41800000000E+01 0. -1.
</event>
<event>
11    1  0.1411041E-008  0.1990541E+03  0.7561462E-02  0.1055195E+00
         22   -1    0    0    0    0  0.00000000000E+00  0.00000000000E+00  0.67776743212E+03  0.67776743212E+03  0.00000000000E+00 0. -1.
         22   -1    0    0    0    0 -0.00000000000E+00 -0.00000000000E+00 -0.10774195403E+04  0.10774195403E+04  0.00000000000E+00 0. -1.
        -24    2    1    2    0    0  0.14017577232E+03 -0.28184663581E+02 -0.79749250904E+03  0.81423589025E+03  0.80883623786E+02 0.  0.
         25    2    1    2    0    0 -0.12995962293E+03  0.18168729768E+03 -0.19587376019E+03  0.32235590850E+03  0.12508806531E+03 0.  0.
         24    2    1    2    0    0 -0.10216149396E+02 -0.15350263410E+03  0.59371416101E+03  0.61859517369E+03  0.80598111318E+02 0.  0.
        -11    1    5    5    0    0 -0.28092102227E+02 -0.15545918222E+02  0.15740688848E+03  0.16064797018E+03  0.00000000000E+00 0.  1.
         12    1    5    5    0    0  0.17875952831E+02 -0.13795671588E+03  0.43630727253E+03  0.45794720352E+03  0.00000000000E+00 0. -1.
         11    1    3    3    0    0  0.14461833430E+03 -0.40758086124E+02 -0.75024150584E+03  0.76513920387E+03  0.00000000000E+00 0. -1.
        -12    1    3    3    0    0 -0.44425619792E+01  0.12573422543E+02 -0.47251003194E+02  0.49096686388E+02  0.00000000000E+00 0.  1.
          5    1    4    4  501    0 -0.13054796570E+03  0.19438081148E+03 -0.20040642096E+03  0.30823185621E+03  0.41800000000E+01 0. -1.
         -5    1    4    4    0  501  0.58834277235E+00 -0.12693513791E+02  0.45326607701E+01  0.14124052296E+02  0.41800000000E+01 0. -1.
</event>
<event>
11    1  0.8933928E-009  0.2079154E+03  0.7561462E-02  0.1049063E+00
         22   -1    0    0    0    0  0.00000000000E+00  0.00000000000E+00  0.10854277765E+04  0.10854277765E+04  0.00000000000E+00 0. -1.
         22   -1    0    0    0    0 -0.00000000000E+00 -0.00000000000E+00 -0.41236755795E+03  0.41236755795E+03  0.00000000000E+00 0. -1.
         24    2    1    2    0    0 -0.63671163309E+02 -0.22817129560E+02 -0.29929623862E+03  0.31717728642E+03  0.80302889925E+02 0.  0.
         25    2    1    2    0    0 -0.52872584901E+02  0.14437136027E+03  0.83028081361E+01  0.19838110181E+03  0.12509006767E+03 0.  0.
        -24    2    1    2    0    0  0.11654374821E+03 -0.12155423071E+03  0.96405364906E+03  0.98223694624E+03  0.83857641557E+02 0.  0.
        -13    1    3    3    0    0 -0.63312152410E+02  0.96623226210E+01 -0.13151060460E+03  0.14627654715E+03  0.00000000000E+00 0.  1.
         14    1    3    3    0    0 -0.35901089897E+00 -0.32479452181E+02 -0.16778563402E+03  0.17090073928E+03  0.00000000000E+00 0. -1.
         11    1    5    5    0    0  0.46877336343E+02 -0.65943101008E+02  0.67280799822E+03  0.67765520710E+03  0.00000000000E+00 0. -1.
        -12    1    5    5    0    0  0.69666411867E+02 -0.55611129703E+02  0.29124565084E+03  0.30458173915E+03  0.00000000000E+00 0.  1.
          5    1    4    4  501    0 -0.17597940595E+02  0.13829720127E+03 -0.33244734010E+02  0.14338231458E+03  0.41800000000E+01 0.  1.
         -5    1    4    4    0  501 -0.35274644306E+02  0.60741589962E+01  0.41547542146E+02  0.54998787230E+02  0.41800000000E+01 0.  1.
</event>
<event>
11    1  0.8328696E-009  0.1957339E+03  0.7561462E-02  0.1057582E+00
         22   -1    0    0    0    0  0.00000000000E+00  0.00000000000E+00  0.29360987455E+03  0.29360987455E+03  0.00000000000E+00 0.  1.
         22   -1    0    0    0    0 -0.00000000000E+00 -0.00000000000E+00 -0.59137660013E+03  0.59137660013E+03  0.00000000000E+00 0. -1.
         24    2    1    2    0    0 -0.39522195579E+02  0.10533320486E+03 -0.25588613416E+03  0.29102209455E+03  0.80988010656E+02 0.  0.
         25    2    1    2    0    0  0.17854365915E+03 -0.14239218887E+03 -0.22765312183E+03  0.34587121772E+03  0.12509029415E+03 0.  0.
        -24    2    1    2    0    0 -0.13902146357E+03  0.37058984015E+02  0.18577253042E+03  0.24809316242E+03  0.79614374026E+02 0.  0.
        -13    1    3    3    0    0  0.11445919953E+02  0.42421466415E+02 -0.36331273601E+02  0.57013606603E+02  0.00000000000E+00 0.  1.
         14    1    3    3    0    0 -0.50968115532E+02  0.62911738443E+02 -0.21955486056E+03  0.23400848794E+03  0.00000000000E+00 0. -1.
         13    1    5    5    0    0 -0.66020697119E+02 -0.21836707418E+02  0.93440914030E+02  0.11647651546E+03  0.00000000000E+00 0. -1.
        -14    1    5    5    0    0 -0.73000766456E+02  0.58895691433E+02  0.92331616385E+02  0.13161664696E+03  0.00000000000E+00 0.  1.
          5    1    4    4  501    0  0.41945255276E+02 -0.13687843446E+02 -0.12344623109E+03  0.13116099218E+03  0.41800000000E+01 0.  1.
         -5    1    4    4    0  501  0.13659840388E+03 -0.12870434543E+03 -0.10420689074E+03  0.21471022554E+03  0.41800000000E+01 0.  1.
</event>
<event>
11    1  0.8328696E-009  0.2434864E+03  0.7561462E-02  0.1027427E+00
         22   -1    0    0    0    0  0.00000000000E+00  0.00000000000E+00  0.17588107760E+04  0.17588107760E+04  0.00000000000E+00 0. -1.
         22   -1    0    0    0    0 -0.00000000000E+00 -0.00000000000E+00 -0.68372996620E+02  0.68372996620E+02  0.00000000000E+00 0. -1.
         24    2    1    2    0    0 -0.19375683058E+03 -0.11745895195E+03  0.49582202003E+03  0.55082219192E+03  0.78913223114E+02 0.  0.
         25    2    1    2    0    0  0.21287096671E+03 -0.18654126209E+02  0.43732513508E+03  0.50255612152E+03  0.12508939449E+03 0.  0.
        -24    2    1    2    0    0 -0.19114136137E+02  0.13611307816E+03  0.75729062426E+03  0.77380545916E+03  0.79960482693E+02 0.  0.
        -11    1    3    3    0    0 -0.62070557897E+01 -0.33740474745E+02  0.62768355064E+02  0.71531905993E+02  0.00000000000E+00 0.  1.
         12    1    3    3    0    0 -0.18754977479E+03 -0.83718477205E+02  0.43305366496E+03  0.47929028593E+03  0.00000000000E+00 0. -1.
         11    1    5    5    0    0  0.28615160458E+02  0.41058777907E+02  0.18152393684E+03  0.18829654882E+03  0.00000000000E+00 0. -1.
        -12    1    5    5    0    0 -0.47729296596E+02  0.95054300252E+02  0.57576668742E+03  0.58550891034E+03  0.00000000000E+00 0.  1.
          5    1    4    4  501    0  0.22331376924E+03 -0.35744497500E+02  0.41190082319E+03  0.46992176922E+03  0.41800000000E+01 0. -1.
         -5    1    4    4    0  501 -0.10442802532E+02  0.17090371291E+02  0.25424311889E+02  0.32634352309E+02  0.41800000000E+01 0. -1.
</event>
<event>
11    1  0.8328696E-009  0.2300096E+03  0.7561462E-02  0.1035122E+00
         22   -1    0    0    0    0  0.00000000000E+00  0.00000000000E+00  0.80103213841E+03  0.80103213841E+03  0.00000000000E+00 0.  1.
         22   -1    0    0    0    0 -0.00000000000E+00 -0.00000000000E+00 -0.15457202150E+04  0.15457202150E+04  0.00000000000E+00 0.  1.
         24    2    1    2    0    0  0.26448136961E+02  0.10146713293E+03 -0.13305845497E+04  0.13369781985E+04  0.77848418735E+02 0.  0.
         25    2    1    2    0    0 -0.69778389714E+02 -0.28185262905E+03 -0.69766127285E+02  0.32376541478E+03  0.12508718207E+03 0.  0.
        -24    2    1    2    0    0  0.43330252753E+02  0.18038549612E+03  0.65566260041E+03  0.68600874013E+03  0.79360619637E+02 0.  0.
        -11    1    3    3    0    0  0.43414128940E+02  0.42785097167E+02 -0.90266821259E+03  0.90472385464E+03  0.00000000000E+00 0.  1.
         12    1    3    3    0    0 -0.16965991978E+02  0.58682035765E+02 -0.42791633709E+03  0.43225434382E+03  0.00000000000E+00 0. -1.
         11    1    5    5    0    0  0.11200443942E+02 -0.32880506469E+01  0.16559682748E+02  0.20260412490E+02  0.00000000000E+00 0. -1.
        -12    1    5    5    0    0  0.32129808811E+02  0.18367354677E+03  0.63910291766E+03  0.66574832764E+03  0.00000000000E+00 0.  1.
          5    1    4    4  501    0 -0.76893803926E+02 -0.94699447869E+02 -0.60429666557E+02  0.13619786896E+03  0.41800000000E+01 0. -1.
         -5    1    4    4    0  501  0.71154142119E+01 -0.18715318118E+03 -0.93364607282E+01  0.18756754582E+03  0.41800000000E+01 0. -1.
</event>
<event>
11    1  0.8328696E-009  0.2847145E+03  0.7561462E-02  0.1006876E+00
         22   -1    0    0    0    0  0.00000000000E+00  0.00000000000E+00  0.28303652633E+03  0.28303652633E+03  0.00000000000E+00 0.  1.
         22   -1    0    0    0    0 -0.00000000000E+00 -0.00000000000E+00 -0.88758837341E+03  0.88758837341E+03  0.00000000000E+00 0.  1.
        -24    2    1    2    0    0 -0.46235075706E+02  0.81437671893E+02 -0.43739996534E+03  0.45439027191E+03  0.79887501551E+02 0.  0.
         25    2    1    2    0    0  0.16845698333E+03  0.15373579879E+03 -0.31016021233E+03  0.40479495603E+03  0.12508856085E+03 0.  0.
         24    2    1    2    0    0 -0.12222190762E+03 -0.23517347068E+03  0.14300833058E+03  0.31143967180E+03  0.79363282069E+02 0.  0.
        -13    1    5    5    0    0 -0.77660051354E+02 -0.19600979584E+03  0.81653150114E+02  0.22609325634E+03  0.00000000000E+00 0.  1.
         14    1    5    5    0    0 -0.44561856267E+02 -0.39163674842E+02  0.61355180464E+02  0.85346415454E+02  0.00000000000E+00 0. -1.
         13    1    3    3    0    0  0.17759569794E+02  0.60983417549E-01 -0.96383846357E+02  0.98006386919E+02  0.00000000000E+00 0. -1.
        -14    1    3    3    0    0 -0.63994645501E+02  0.81376688475E+02 -0.34101611898E+03  0.35638388499E+03  0.00000000000E+00 0.  1.
          5    1    4    4  501    0  0.17378239419E+03  0.16237887237E+03 -0.31330363871E+03  0.39337496254E+03  0.41800000000E+01 0.  1.
         -5    1    4    4    0  501 -0.53254108622E+01 -0.86430735843E+01  0.31434263874E+01  0.11419993489E+02  0.41800000000E+01 0.  1.
</event>
<event>
11    1  0.8328696E-009  0.1698279E+03  0.7561462E-02  0.1078182E+00
         22   -1    0    0    0    0  0.00000000000E+00  0.00000000000E+00  0.18864844724E+04  0.18864844724E+04  0.00000000000E+00 0.  1.
         22   -1    0    0    0    0 -0.00000000000E+00 -0.00000000000E+00 -0.94894096119E+03  0.94894096119E+03  0.00000000000E+00 0. -1.
         24    2    1    2    0    0 -0.56097041007E+00  0.11269766607E+03 -0.87995399622E+03  0.89080977443E+03  0.80758529757E+02 0.  0.
         25    2    1    2    0    0 -0.10748881972E+02 -0.22220349463E+03  0.20769386691E+03  0.32904906991E+03  0.12508643638E+03 0.  0.
        -24    2    1    2    0    0  0.11309852382E+02  0.10950582857E+03  0.16098036405E+04  0.16155665893E+04  0.80425145386E+02 0.  0.
        -13    1    3    3    0    0  0.23071781430E+02  0.64733760690E+02 -0.27344834766E+03  0.28195170811E+03  0.00000000000E+00 0.  1.
         14    1    3    3    0    0 -0.23632751840E+02  0.47963905378E+02 -0.60650564856E+03  0.60885806631E+03  0.00000000000E+00 0. -1.
         13    1    5    5    0    0 -0.33130517752E+02  0.27867083466E+02  0.53981878230E+03  0.54155195806E+03  0.00000000000E+00 0. -1.
        -14    1    5    5    0    0  0.44440370134E+02  0.81638745100E+02  0.10699848582E+04  0.10740146312E+04  0.00000000000E+00 0.  1.
          5    1    4    4  501    0  0.57567771561E+01 -0.28305950816E+01 -0.14466471567E+02  0.16367771728E+02  0.41800000000E+01 0. -1.
         -5    1    4    4    0  501 -0.16505659128E+02 -0.21937289955E+03  0.22216033848E+03  0.31268129818E+03  0.41800000000E+01 0. -1.
</event>
<event>
11    1  0.8328696E-009  0.1065025E+04  0.7561462E-02  0.8619513E-01
         22   -1    0    0    0    0  0.00000000000E+00  0.00000000000E+00  0.22422744351E+03  0.22422744351E+03  0.00000000000E+00 0.  1.
         22   -1    0    0    0    0 -0.00000000000E+00 -0.00000000000E+00 -0.12646516695E+04  0.12646516695E+04  0.00000000000E+00 0.  1.
        -24    2    1    2    0    0  0.25566266949E+03  0.19674060335E+03 -0.38612053993E+03  0.50970759379E+03  0.81501498367E+02 0.  0.
         25    2    1    2    0    0 -0.38203230049E+03 -0.32167942372E+03 -0.57305747676E+03  0.77036910497E+03  0.12508939190E+03 0.  0.
         24    2    1    2    0    0  0.12636963100E+03  0.12493882036E+03 -0.81246209332E+02  0.20880241428E+03  0.73610523755E+02 0.  0.
        -11    1    5    5    0    0  0.56405273392E+02  0.12970837268E+02 -0.98653035194E+01  0.58712193788E+02  0.00000000000E+00 0.  1.
         12    1    5    5    0    0  0.69964357604E+02  0.11196798310E+03 -0.71380905813E+02  0.15009022050E+03  0.00000000000E+00 0. -1.
         13    1    3    3    0    0  0.14828368873E+02  0.26810542873E+02 -0.75596573696E+02  0.81569158922E+02  0.00000000000E+00 0. -1.
        -14    1    3    3    0    0  0.24083430062E+03  0.16993006048E+03 -0.31052396623E+03  0.42813843487E+03  0.00000000000E+00 0.  1.
          5    1    4    4  501    0 -0.84207026938E+02 -0.71761189156E+02 -0.57869693927E+02  0.12492744106E+03  0.41800000000E+01 0. -1.
         -5    1    4    4    0  501 -0.29782527355E+03 -0.24991823456E+03 -0.51518778283E+03  0.64544166391E+03  0.41800000000E+01 0. -1.
</event>
