<event>
11    1  0.1704459E-009  0.1858752E+03  0.7561462E-02  0.1064987E+00
         22   -1    0    0    0    0  0.00000000000E+00  0.00000000000E+00  0.36798847683E+03  0.36798847683E+03  0.00000000000E+00 0.  1.
         22   -1    0    0    0    0 -0.00000000000E+00 -0.00000000000E+00 -0.21371495280E+03  0.21371495280E+03  0.00000000000E+00 0.  1.
         25    2    1    2    0    0  0.43759687274E+02  0.11478036509E+02 -0.17176967865E+02  0.13412367319E+03  0.12508979148E+03 0.  0.
        -24    2    1    2    0    0 -0.27897382662E+02 -0.17595062416E+03 -0.18869689097E+01  0.19528752003E+03  0.79979802002E+02 0.  0.
         24    2    1    2    0    0 -0.15862304612E+02  0.16447258765E+03  0.17333746081E+03  0.25229223641E+03  0.79389246361E+02 0.  0.
        -11    1    5    5    0    0 -0.66366423337E+01  0.86861930503E+02  0.35974498756E+02  0.94250753593E+02  0.00000000000E+00 0.  1.
         12    1    5    5    0    0 -0.92256622788E+01  0.77610657145E+02  0.13736296205E+03  0.15804148282E+03  0.00000000000E+00 0. -1.
         13    1    4    4    0    0 -0.25086889682E+02 -0.25776119253E+02  0.23487593425E+02  0.42958438083E+02  0.00000000000E+00 0. -1.
        -14    1    4    4    0    0 -0.28104929796E+01 -0.15017450490E+03 -0.25374562335E+02  0.15232908195E+03  0.00000000000E+00 0.  1.
          5    1    3    3  501    0  0.72443681373E+02  0.77939961440E+01 -0.51293797393E+02  0.89204032407E+02  0.41800000000E+01 0. -1.
         -5    1    3    3    0  501 -0.28683994098E+02  0.36840403651E+01  0.34116829528E+02  0.44919640781E+02  0.41800000000E+01 0. -1.
</event>
<event>
11    1  0.1704459E-009  0.2004985E+03  0.7561462E-02  0.1054172E+00
         22   -1    0    0    0    0  0.00000000000E+00  0.00000000000E+00  0.21371559129E+03  0.21371559129E+03  0.00000000000E+00 0. -1.
         22   -1    0    0    0    0 -0.00000000000E+00 -0.00000000000E+00 -0.35958128794E+03  0.35958128794E+03  0.00000000000E+00 0.  1.
         25    2    1    2    0    0  0.16355451224E+03  0.27804448267E+02 -0.18758589590E+03  0.27992464680E+03  0.12508466623E+03 0.  0.
         24    2    1    2    0    0 -0.11442184033E+03 -0.92311502920E+02  0.60644693143E+02  0.17820466922E+03  0.80407426326E+02 0.  0.
        -24    2    1    2    0    0 -0.49132671911E+02  0.64507054653E+02 -0.18924493894E+02  0.11516756322E+03  0.79562878275E+02 0.  0.
        -11    1    4    4    0    0 -0.11643819007E+02  0.25602492181E+01 -0.15022192277E+02  0.19178103606E+02  0.00000000000E+00 0.  1.
         12    1    4    4    0    0 -0.10277802132E+03 -0.94871752138E+02  0.75666885419E+02  0.15902656561E+03  0.00000000000E+00 0. -1.
         13    1    5    5    0    0 -0.45986910943E+02  0.76704905585E+02  0.34392182528E+01  0.89500093525E+02  0.00000000000E+00 0. -1.
        -14    1    5    5    0    0 -0.31457609677E+01 -0.12197850932E+02 -0.22363712147E+02  0.25667469693E+02  0.00000000000E+00 0.  1.
          5    1    3    3  501    0  0.15931619167E+03  0.25895192922E+02 -0.20527367009E+03  0.26116462620E+03  0.41800000000E+01 0. -1.
         -5    1    3    3    0  501  0.42383205708E+01  0.19092553458E+01  0.17687774187E+02  0.18760020601E+02  0.41800000000E+01 0. -1.
</event>
<event>
11    1  0.1704459E-009  0.7968906E+03  0.7561462E-02  0.8900562E-01
         22   -1    0    0    0    0  0.00000000000E+00  0.00000000000E+00  0.10400339220E+03  0.10400339220E+03  0.00000000000E+00 0.  1.
         22   -1    0    0    0    0 -0.00000000000E+00 -0.00000000000E+00 -0.15264759312E+04  0.15264759312E+04  0.00000000000E+00 0.  1.
         25    2    1    2    0    0  0.15479695480E+03  0.25840040303E+03 -0.11133488489E+04  0.11601405141E+04  0.12508991794E+03 0.  0.
        -24    2    1    2    0    0 -0.85746824573E+02 -0.95250080001E+02 -0.17746913622E+03  0.23323043946E+03  0.80473895863E+02 0.  0.
         24    2    1    2    0    0 -0.69050130227E+02 -0.16315032302E+03 -0.13165455387E+03  0.23710836985E+03  0.86611252799E+02 0.  0.
        -11    1    5    5    0    0 -0.37193476068E+02 -0.11392151821E+02 -0.10406168539E+02  0.40266911091E+02  0.00000000000E+00 0.  1.
         12    1    5    5    0    0 -0.31856654158E+02 -0.15175817120E+03 -0.12124838534E+03  0.19684145876E+03  0.00000000000E+00 0. -1.
         11    1    4    4    0    0 -0.65136954378E+02 -0.16162021657E+02 -0.59336584007E+02  0.89581605095E+02  0.00000000000E+00 0. -1.
        -12    1    4    4    0    0 -0.20609870195E+02 -0.79088058343E+02 -0.11813255222E+03  0.14364883437E+03  0.00000000000E+00 0.  1.
          5    1    3    3  501    0  0.86262246214E+02  0.45163841201E+02 -0.25351375444E+03  0.27160199514E+03  0.41800000000E+01 0.  1.
         -5    1    3    3    0  501  0.68534708586E+02  0.21323656182E+03 -0.85983509444E+03  0.88853851893E+03  0.41800000000E+01 0.  1.
</event>
<event>
11    1  0.1704459E-009  0.3471386E+03  0.7561462E-02  0.9820050E-01
         22   -1    0    0    0    0  0.00000000000E+00  0.00000000000E+00  0.53271328075E+03  0.53271328075E+03  0.00000000000E+00 0. -1.
         22   -1    0    0    0    0 -0.00000000000E+00 -0.00000000000E+00 -0.43337264591E+03  0.43337264591E+03  0.00000000000E+00 0.  1.
         25    2    1    2    0    0  0.25751592026E+03 -0.33366026114E+02 -0.31065833076E+02  0.28989572793E+03  0.12508679467E+03 0.  0.
         24    2    1    2    0    0 -0.41912664383E+03  0.53616510577E+02 -0.33377226493E+02  0.43170105496E+03  0.81913904985E+02 0.  0.
        -24    2    1    2    0    0  0.16161072357E+03 -0.20250484463E+02  0.16378369441E+03  0.24448914377E+03  0.80135727208E+02 0.  0.
        -11    1    4    4    0    0 -0.41453781692E+03  0.62535143583E+02 -0.27621796677E+02  0.42013713177E+03  0.00000000000E+00 0.  1.
         12    1    4    4    0    0 -0.45888269055E+01 -0.89186330059E+01 -0.57554298168E+01  0.11563923185E+02  0.00000000000E+00 0. -1.
         13    1    5    5    0    0  0.16243236571E+03 -0.33606489426E+02  0.16027611915E+03  0.23065581270E+03  0.00000000000E+00 0. -1.
        -14    1    5    5    0    0 -0.82164213844E+00  0.13356004964E+02  0.35075752523E+01  0.13833331072E+02  0.00000000000E+00 0.  1.
          5    1    3    3  501    0  0.29252893507E+02  0.81523007150E+01  0.37023279649E+02  0.48066489590E+02  0.41800000000E+01 0.  1.
         -5    1    3    3    0  501  0.22826302675E+03 -0.41518326829E+02 -0.68089112725E+02  0.24182923834E+03  0.41800000000E+01 0.  1.
</event>
<event>
11    1  0.1704459E-009  0.2950234E+03  0.7561462E-02  0.1002320E+00
         22   -1    0    0    0    0  0.00000000000E+00  0.00000000000E+00  0.11635574451E+04  0.11635574451E+04  0.00000000000E+00 0. -1.
         22   -1    0    0    0    0 -0.00000000000E+00 -0.00000000000E+00 -0.20629674348E+03  0.20629674348E+03  0.00000000000E+00 0. -1.
         25    2    1    2    0    0 -0.10636478453E+03 -0.27959936900E+03  0.25947345326E+02  0.32528534709E+03  0.12509203718E+03 0.  0.
         24    2    1    2    0    0  0.75079824027E+02  0.20317067834E+03  0.22706520693E+03  0.32904615218E+03  0.98982107242E+02 0.  0.
        -24    2    1    2    0    0  0.31284960508E+02  0.76428690659E+02  0.70424814935E+03  0.71552268930E+03  0.95849723651E+02 0.  0.
        -11    1    4    4    0    0 -0.10563763097E+00 -0.24293942211E+01  0.42895805661E+02  0.42964674546E+02  0.00000000000E+00 0.  1.
         12    1    4    4    0    0  0.75185461658E+02  0.20560007256E+03  0.18416940127E+03  0.28608147763E+03  0.00000000000E+00 0. -1.
         11    1    5    5    0    0  0.58353309619E+02  0.40882590862E+02  0.55997816611E+03  0.56449272936E+03  0.00000000000E+00 0. -1.
        -12    1    5    5    0    0 -0.27068349112E+02  0.35546099798E+02  0.14426998324E+03  0.15102995994E+03  0.00000000000E+00 0.  1.
          5    1    3    3  501    0 -0.11176024416E+03 -0.28665601642E+03  0.11623130958E+02  0.30791978419E+03  0.41800000000E+01 0. -1.
         -5    1    3    3    0  501  0.53954596225E+01  0.70566474204E+01  0.14324214369E+02  0.17365562894E+02  0.41800000000E+01 0. -1.
</event>
<event>
11    1  0.1704459E-009  0.1837171E+03  0.7561462E-02  0.1066675E+00
         22   -1    0    0    0    0  0.00000000000E+00  0.00000000000E+00  0.90883345447E+02  0.90883345447E+02  0.00000000000E+00 0. -1.
         22   -1    0    0    0    0 -0.00000000000E+00 -0.00000000000E+00 -0.85096227381E+03  0.85096227381E+03  0.00000000000E+00 0.  1.
         25    2    1    2    0    0 -0.34520716755E+02 -0.12728509266E+03 -0.55372412742E+03  0.58279553647E+03  0.12508818229E+03 0.  0.
        -24    2    1    2    0    0  0.67284250263E+02 -0.27421816972E+02 -0.12094174172E+03  0.16258496181E+03  0.80795040303E+02 0.  0.
         24    2    1    2    0    0 -0.32763533508E+02  0.15470690963E+03 -0.85413059224E+02  0.19646512097E+03  0.79344036058E+02 0.  0.
        -13    1    5    5    0    0 -0.31688949765E+02  0.26648841955E+02 -0.47277127506E+02  0.62844865343E+02  0.00000000000E+00 0.  1.
         14    1    5    5    0    0 -0.10745837435E+01  0.12805806767E+03 -0.38135931718E+02  0.13362025563E+03  0.00000000000E+00 0. -1.
         13    1    4    4    0    0  0.41346441797E+02 -0.29349309594E+00 -0.61367164586E+01  0.41800402825E+02  0.00000000000E+00 0. -1.
        -14    1    4    4    0    0  0.25937808467E+02 -0.27128323876E+02 -0.11480502526E+03  0.12078455899E+03  0.00000000000E+00 0.  1.
          5    1    3    3  501    0 -0.77630690971E+02 -0.51054487242E+02 -0.31672105293E+03  0.33009511147E+03  0.41800000000E+01 0.  1.
         -5    1    3    3    0  501  0.43109974216E+02 -0.76230605414E+02 -0.23700307449E+03  0.25270042501E+03  0.41800000000E+01 0.  1.
</event>
<event>
11    1  0.1704459E-009  0.2105262E+03  0.7561462E-02  0.1047320E+00
         22   -1    0    0    0    0  0.00000000000E+00  0.00000000000E+00  0.41928693690E+03  0.41928693690E+03  0.00000000000E+00 0.  1.
         22   -1    0    0    0    0 -0.00000000000E+00 -0.00000000000E+00 -0.10619019241E+04  0.10619019241E+04  0.00000000000E+00 0. -1.
         25    2    1    2    0    0 -0.15240303500E+03 -0.10589834337E+03 -0.68707932952E+03  0.72261055399E+03  0.12508742334E+03 0.  0.
        -24    2    1    2    0    0  0.95857601786E+02  0.11994149318E+03 -0.32912460917E+03  0.37198141482E+03  0.80451991926E+02 0.  0.
         24    2    1    2    0    0  0.56545433216E+02 -0.14043149808E+02  0.37358895148E+03  0.38659689220E+03  0.80584466967E+02 0.  0.
        -11    1    5    5    0    0  0.39653175469E+02  0.12450897082E+01  0.35495132647E+03  0.35716154431E+03  0.00000000000E+00 0.  1.
         12    1    5    5    0    0  0.16892257747E+02 -0.15288239516E+02  0.18637625015E+02  0.29435347892E+02  0.00000000000E+00 0. -1.
         13    1    4    4    0    0  0.10518612555E+03  0.79720258525E+02 -0.24613717624E+03  0.27929008245E+03  0.00000000000E+00 0. -1.
        -14    1    4    4    0    0 -0.93285237613E+01  0.40221234651E+02 -0.82987432930E+02  0.92691332371E+02  0.00000000000E+00 0.  1.
          5    1    3    3  501    0 -0.40698419303E+02 -0.89521692323E+02 -0.44078885070E+03  0.45164452618E+03  0.41800000000E+01 0.  1.
         -5    1    3    3    0  501 -0.11170461570E+03 -0.16376651045E+02 -0.24629047882E+03  0.27096602781E+03  0.41800000000E+01 0.  1.
</event>
<event>
11    1  0.1704459E-009  0.7568972E+03  0.7561462E-02  0.8952418E-01
         22   -1    0    0    0    0  0.00000000000E+00  0.00000000000E+00  0.23779410431E+04  0.23779410431E+04  0.00000000000E+00 0. -1.
         22   -1    0    0    0    0 -0.00000000000E+00 -0.00000000000E+00 -0.14376164349E+04  0.14376164349E+04  0.00000000000E+00 0. -1.
         25    2    1    2    0    0  0.71829180903E+03  0.23181093708E+03 -0.11164500867E+04  0.13534355921E+04  0.12509065669E+03 0.  0.
         24    2    1    2    0    0 -0.72308192149E+03 -0.22513856337E+02  0.48335842843E+03  0.87379144395E+03  0.80757527686E+02 0.  0.
        -24    2    1    2    0    0  0.47901124599E+01 -0.20929708074E+03  0.15734162665E+04  0.15883304420E+04  0.57676961834E+02 0.  0.
        -13    1    4    4    0    0 -0.45449132832E+02 -0.20125750706E+02  0.42209989557E+02  0.65210066210E+02  0.00000000000E+00 0.  1.
         14    1    4    4    0    0 -0.67763278866E+03 -0.23881056310E+01  0.44114843887E+03  0.80858137774E+03  0.00000000000E+00 0. -1.
         13    1    5    5    0    0 -0.29102413784E+01 -0.20905866757E+03  0.15323308476E+04  0.15465289594E+04  0.00000000000E+00 0. -1.
        -14    1    5    5    0    0  0.77003538383E+01 -0.23841316438E+00  0.41085418948E+02  0.41801482512E+02  0.00000000000E+00 0.  1.
          5    1    3    3  501    0  0.17137626909E+03  0.11112128990E+03 -0.27350080890E+03  0.34137652459E+03  0.41800000000E+01 0.  1.
         -5    1    3    3    0  501  0.54691553994E+03  0.12068964717E+03 -0.84294927785E+03  0.10120590675E+04  0.41800000000E+01 0.  1.
</event>
<event>
11    1  0.1704459E-009  0.1362233E+03  0.7561462E-02  0.1111850E+00
         22   -1    0    0    0    0  0.00000000000E+00  0.00000000000E+00  0.10126927973E+03  0.10126927973E+03  0.00000000000E+00 0.  1.
         22   -1    0    0    0    0 -0.00000000000E+00 -0.00000000000E+00 -0.61784436500E+03  0.61784436500E+03  0.00000000000E+00 0.  1.
         25    2    1    2    0    0  0.17430930764E+02 -0.17888257437E+02 -0.33822314824E+03  0.36147777517E+03  0.12508979509E+03 0.  0.
         24    2    1    2    0    0 -0.55931142515E+02  0.83373342117E+02 -0.20620281274E+03  0.24312996158E+03  0.80704221419E+02 0.  0.
        -24    2    1    2    0    0  0.38500211752E+02 -0.65485084680E+02  0.27850875705E+02  0.11450590800E+03  0.81026965065E+02 0.  0.
        -11    1    4    4    0    0 -0.44385825664E+02  0.97187252836E+02 -0.15034565316E+03  0.18444315942E+03  0.00000000000E+00 0.  1.
         12    1    4    4    0    0 -0.11545316851E+02 -0.13813910718E+02 -0.55857159584E+02  0.58686802157E+02  0.00000000000E+00 0. -1.
         11    1    5    5    0    0  0.37551194781E+02 -0.62501972330E+02 -0.12547284664E+02  0.73986641544E+02  0.00000000000E+00 0. -1.
        -12    1    5    5    0    0  0.94901697084E+00 -0.29831123508E+01  0.40398160369E+02  0.40519266451E+02  0.00000000000E+00 0.  1.
          5    1    3    3  501    0 -0.65382090750E+01  0.77435278423E+00 -0.32950661852E+03  0.32959889540E+03  0.41800000000E+01 0.  1.
         -5    1    3    3    0  501  0.23969139839E+02 -0.18662610221E+02 -0.87165297153E+01  0.31878879766E+02  0.41800000000E+01 0.  1.
</event>
<event>
11    1  0.1704459E-009  0.3051472E+03  0.7561462E-02  0.9980361E-01
         22   -1    0    0    0    0  0.00000000000E+00  0.00000000000E+00  0.49711718504E+03  0.49711718504E+03  0.00000000000E+00 0. -1.
         22   -1    0    0    0    0 -0.00000000000E+00 -0.00000000000E+00 -0.77883906651E+03  0.77883906651E+03  0.00000000000E+00 0. -1.
         25    2    1    2    0    0 -0.30734661845E-01 -0.46391149994E+02 -0.57491780344E+03  0.59019518235E+03  0.12509089821E+03 0.  0.
        -24    2    1    2    0    0  0.25538665110E+03 -0.11692179089E+03  0.69150007359E+02  0.29949848623E+03  0.77618122839E+02 0.  0.
         24    2    1    2    0    0 -0.25535591644E+03  0.16331294088E+03  0.22404591461E+03  0.38626258297E+03  0.84406459624E+02 0.  0.
        -11    1    5    5    0    0 -0.96155805680E+02  0.97448024438E+02  0.13523039358E+03  0.19243002827E+03  0.00000000000E+00 0.  1.
         12    1    5    5    0    0 -0.15920011076E+03  0.65864916445E+02  0.88815521034E+02  0.19383255470E+03  0.00000000000E+00 0. -1.
         11    1    4    4    0    0  0.15760387469E+03 -0.48802760408E+02  0.72655389879E+02  0.18027616708E+03  0.00000000000E+00 0. -1.
        -12    1    4    4    0    0  0.97782776413E+02 -0.68119030480E+02 -0.35053825205E+01  0.11922231915E+03  0.00000000000E+00 0.  1.
          5    1    3    3  501    0 -0.31126136474E+02 -0.68444649162E+02 -0.20679033006E+03  0.22007548563E+03  0.41800000000E+01 0. -1.
         -5    1    3    3    0  501  0.31095401812E+02  0.22053499169E+02 -0.36812747338E+03  0.37011969672E+03  0.41800000000E+01 0. -1.
</event>
<event>
11    1  0.1704459E-009  0.4934636E+03  0.7561462E-02  0.9408247E-01
         22   -1    0    0    0    0  0.00000000000E+00  0.00000000000E+00  0.62434183123E+03  0.62434183123E+03  0.00000000000E+00 0. -1.
         22   -1    0    0    0    0 -0.00000000000E+00 -0.00000000000E+00 -0.50905906236E+03  0.50905906236E+03  0.00000000000E+00 0. -1.
         25    2    1    2    0    0  0.21199282291E+03 -0.43605012760E+03 -0.11605118290E+03  0.51399992973E+03  0.12508948782E+03 0.  0.
         24    2    1    2    0    0 -0.14957105024E+03  0.44164204778E+03  0.20163008108E+03  0.51263673730E+03  0.68720720296E+02 0.  0.
        -24    2    1    2    0    0 -0.62421772660E+02 -0.55919201759E+01  0.29703870686E+02  0.10676422656E+03  0.81169778033E+02 0.  0.
        -13    1    4    4    0    0 -0.36947865742E+02  0.21149755316E+03  0.10239214104E+03  0.23786658092E+03  0.00000000000E+00 0.  1.
         14    1    4    4    0    0 -0.11262318450E+03  0.23014449462E+03  0.99237940045E+02  0.27477015638E+03  0.00000000000E+00 0. -1.
         11    1    5    5    0    0 -0.63710293465E+02  0.78833124696E+01 -0.98597198700E+01  0.64948919812E+02  0.00000000000E+00 0. -1.
        -12    1    5    5    0    0  0.12885208044E+01 -0.13475232645E+02  0.39563590556E+02  0.41815306748E+02  0.00000000000E+00 0.  1.
          5    1    3    3  501    0  0.19925127438E+03 -0.35266856947E+03 -0.52852134198E+02  0.40851806658E+03  0.41800000000E+01 0.  1.
         -5    1    3    3    0  501  0.12741548521E+02 -0.83381558135E+02 -0.63199048705E+02  0.10548186315E+03  0.41800000000E+01 0.  1.
</event>
<event>
11    1  0.1704459E-009  0.1963305E+03  0.7561462E-02  0.1057149E+00
         22   -1    0    0    0    0  0.00000000000E+00  0.00000000000E+00  0.13543443026E+04  0.13543443026E+04  0.00000000000E+00 0.  1.
         22   -1    0    0    0    0 -0.00000000000E+00 -0.00000000000E+00 -0.82107145679E+02  0.82107145679E+02  0.00000000000E+00 0.  1.
         25    2    1    2    0    0  0.92336149256E+02  0.41172050296E+02  0.16144246220E+03  0.22788604267E+03  0.12508907890E+03 0.  0.
        -24    2    1    2    0    0 -0.12599113974E+03 -0.19921266554E+03  0.37848009064E+03  0.45433303701E+03  0.87246066393E+02 0.  0.
         24    2    1    2    0    0  0.33654990484E+02  0.15804061525E+03  0.73231460404E+03  0.75423236855E+03  0.80450556450E+02 0.  0.
        -11    1    5    5    0    0  0.58114216813E+02  0.11674591895E+03  0.58241287661E+03  0.59683467612E+03  0.00000000000E+00 0.  1.
         12    1    5    5    0    0 -0.24459226330E+02  0.41294696295E+02  0.14990172743E+03  0.15739769243E+03  0.00000000000E+00 0. -1.
         11    1    4    4    0    0 -0.16729402908E+02 -0.77142906221E+02  0.18288345389E+03  0.19919151239E+03  0.00000000000E+00 0. -1.
        -12    1    4    4    0    0 -0.10926173683E+03 -0.12206975932E+03  0.19559663675E+03  0.25514152462E+03  0.00000000000E+00 0.  1.
          5    1    3    3  501    0  0.11418795807E+02 -0.40989435254E+02  0.63383681714E+02  0.76455779426E+02  0.41800000000E+01 0.  1.
         -5    1    3    3    0  501  0.80917353449E+02  0.82161485550E+02  0.98058780485E+02  0.15143026325E+03  0.41800000000E+01 0.  1.
</event>
<event>
11    1  0.1704459E-009  0.4181159E+03  0.7561462E-02  0.9597768E-01
         22   -1    0    0    0    0  0.00000000000E+00  0.00000000000E+00  0.19587411847E+04  0.19587411847E+04  0.00000000000E+00 0.  1.
         22   -1    0    0    0    0 -0.00000000000E+00 -0.00000000000E+00 -0.21265387008E+03  0.21265387008E+03  0.00000000000E+00 0.  1.
         25    2    1    2    0    0  0.41441926371E+03 -0.16012412554E+01  0.11976671676E+03  0.44915199388E+03  0.12509019568E+03 0.  0.
        -24    2    1    2    0    0 -0.35610196210E+03  0.55469519302E+02  0.72215880051E+03  0.81116260608E+03  0.81153960880E+02 0.  0.
         24    2    1    2    0    0 -0.58317301606E+02 -0.53868278047E+02  0.90416179732E+03  0.91108045478E+03  0.79097030970E+02 0.  0.
        -13    1    5    5    0    0  0.19563869701E+02 -0.11546694360E+02  0.22932342544E+03  0.23044588216E+03  0.00000000000E+00 0.  1.
         14    1    5    5    0    0 -0.77881171307E+02 -0.42321583687E+02  0.67483837188E+03  0.68063457262E+03  0.00000000000E+00 0. -1.
         11    1    4    4    0    0  0.24653510763E+01 -0.33077609556E+01  0.21195332446E+01  0.46380663690E+01  0.00000000000E+00 0. -1.
        -12    1    4    4    0    0 -0.35856731318E+03  0.58777280258E+02  0.72003926726E+03  0.80652453971E+03  0.00000000000E+00 0.  1.
          5    1    3    3  501    0  0.24620609307E+03 -0.49959104486E+02  0.31936025337E+02  0.25327995282E+03  0.41800000000E+01 0.  1.
         -5    1    3    3    0  501  0.16821317064E+03  0.48357863231E+02  0.87830691422E+02  0.19587204106E+03  0.41800000000E+01 0.  1.
</event>
<event>
11    1  0.1704459E-009  0.9036868E+03  0.7561462E-02  0.8776437E-01
         22   -1    0    0    0    0  0.00000000000E+00  0.00000000000E+00  0.26528810218E+03  0.26528810218E+03  0.00000000000E+00 0.  1.
         22   -1    0    0    0    0 -0.00000000000E+00 -0.00000000000E+00 -0.76958776044E+03  0.76958776044E+03  0.00000000000E+00 0.  1.
         25    2    1    2    0    0 -0.35201872084E+03 -0.17021437579E+03 -0.42082574517E+03  0.58790491333E+03  0.12509102998E+03 0.  0.
        -24    2    1    2    0    0  0.26508917865E+03  0.10554533731E+03 -0.97915694562E+02  0.31238608031E+03  0.81151026291E+02 0.  0.
         24    2    1    2    0    0  0.86929542192E+02  0.64669038481E+02  0.14441781473E+02  0.13458486897E+03  0.78521920885E+02 0.  0.
        -11    1    5    5    0    0  0.33505021385E+02 -0.15227573313E+02 -0.29119691657E+01  0.36918085153E+02  0.00000000000E+00 0.  1.
         12    1    5    5    0    0  0.53424520808E+02  0.79896611794E+02  0.17353750638E+02  0.97666783815E+02  0.00000000000E+00 0. -1.
         13    1    4    4    0    0  0.19910986250E+03  0.91626456421E+02 -0.10776250477E+03  0.24423943641E+03  0.00000000000E+00 0. -1.
        -14    1    4    4    0    0  0.65979316149E+02  0.13918880885E+02  0.98468102098E+01  0.68146643907E+02  0.00000000000E+00 0.  1.
          5    1    3    3  501    0 -0.73845663393E+02  0.64096474271E+01 -0.40125154279E+02  0.84390556272E+02  0.41800000000E+01 0. -1.
         -5    1    3    3    0  501 -0.27817305745E+03 -0.17662402321E+03 -0.38070059089E+03  0.50351435706E+03  0.41800000000E+01 0. -1.
</event>
<event>
11    1  0.1704459E-009  0.2990671E+04  0.7561462E-02  0.7750295E-01
         22   -1    0    0    0    0  0.00000000000E+00  0.00000000000E+00  0.25732912334E+04  0.25732912334E+04  0.00000000000E+00 0. -1.
         22   -1    0    0    0    0 -0.00000000000E+00 -0.00000000000E+00 -0.86893712651E+03  0.86893712651E+03  0.00000000000E+00 0. -1.
         25    2    1    2    0    0  0.10074175898E+04  0.30982221294E+03 -0.34228364532E+03  0.11152065564E+04  0.12509023003E+03 0.  0.
        -24    2    1    2    0    0 -0.54501348437E+03 -0.25342634684E+03  0.88483898034E+03  0.10727272422E+04  0.80864724428E+02 0.  0.
         24    2    1    2    0    0 -0.46240410545E+03 -0.56395866095E+02  0.11617987719E+04  0.12542945613E+04  0.80500991992E+02 0.  0.
        -11    1    5    5    0    0 -0.34374373039E+03 -0.19390076716E+02  0.92223062519E+03  0.98440086007E+03  0.00000000000E+00 0.  1.
         12    1    5    5    0    0 -0.11866037506E+03 -0.37005789379E+02  0.23956814667E+03  0.26989370122E+03  0.00000000000E+00 0. -1.
         11    1    4    4    0    0 -0.15257682046E+03 -0.11113419686E+03  0.26082811915E+03  0.32196553168E+03  0.00000000000E+00 0. -1.
        -12    1    4    4    0    0 -0.39243666391E+03 -0.14229214999E+03  0.62401086119E+03  0.75076171054E+03  0.00000000000E+00 0.  1.
          5    1    3    3  501    0  0.70411448709E+03  0.21090750842E+03 -0.17772366057E+03  0.75621581573E+03  0.41800000000E+01 0.  1.
         -5    1    3    3    0  501  0.30330310274E+03  0.98914704518E+02 -0.16455998475E+03  0.35899074066E+03  0.41800000000E+01 0.  1.
</event>
<event>
11    1  0.1704459E-009  0.3613966E+03  0.7561462E-02  0.9771070E-01
         22   -1    0    0    0    0  0.00000000000E+00  0.00000000000E+00  0.25180712162E+03  0.25180712162E+03  0.00000000000E+00 0.  1.
         22   -1    0    0    0    0 -0.00000000000E+00 -0.00000000000E+00 -0.86518325236E+03  0.86518325236E+03  0.00000000000E+00 0.  1.
         25    2    1    2    0    0 -0.27507288735E+03 -0.20869085554E+03 -0.59424692606E+03  0.69856894327E+03  0.12510872404E+03 0.  0.
         24    2    1    2    0    0  0.24745205574E+03  0.20382018383E+03 -0.19112032468E+02  0.33171171551E+03  0.83019306150E+02 0.  0.
        -24    2    1    2    0    0  0.27620831604E+02  0.48706717135E+01 -0.17172222921E-01  0.86709715199E+02  0.82048404211E+02 0.  0.
        -13    1    4    4    0    0  0.15812100825E+03  0.13319472000E+03 -0.51995087676E+02  0.21318202511E+03  0.00000000000E+00 0.  1.
         14    1    4    4    0    0  0.89331047493E+02  0.70625463828E+02  0.32883055208E+02  0.11852969040E+03  0.00000000000E+00 0. -1.
         11    1    5    5    0    0  0.16405105912E+02  0.15046096650E+02 -0.38990647596E+02  0.44897473474E+02  0.00000000000E+00 0. -1.
        -12    1    5    5    0    0  0.11215725692E+02 -0.10175424936E+02  0.38973475373E+02  0.41812241725E+02  0.00000000000E+00 0.  1.
          5    1    3    3  501    0 -0.16654795528E+03 -0.48988139904E+02 -0.26393969242E+03  0.31594254683E+03  0.41800000000E+01 0.  1.
         -5    1    3    3    0  501 -0.10852493206E+03 -0.15970271564E+03 -0.33030723363E+03  0.38262639644E+03  0.41800000000E+01 0.  1.
</event>
<event>
11    1  0.1704459E-009  0.1600721E+03  0.7561462E-02  0.1087009E+00
         22   -1    0    0    0    0  0.00000000000E+00  0.00000000000E+00  0.64244078650E+03  0.64244078650E+03  0.00000000000E+00 0.  1.
         22   -1    0    0    0    0 -0.00000000000E+00 -0.00000000000E+00 -0.73483379650E+02  0.73483379650E+02  0.00000000000E+00 0. -1.
         25    2    1    2    0    0 -0.56289268163E+02 -0.36639989978E+02  0.14437646370E+03  0.20249578483E+03  0.12509599925E+03 0.  0.
         24    2    1    2    0    0 -0.86711938678E+02 -0.18583192905E+02  0.17451885267E+03  0.21140696127E+03  0.79823417418E+02 0.  0.
        -24    2    1    2    0    0  0.14300120684E+03  0.55223182883E+02  0.25006209048E+03  0.30202142005E+03  0.72020441468E+02 0.  0.
        -11    1    4    4    0    0 -0.22487292065E+02  0.16843875301E+02  0.11061039835E+03  0.11412298043E+03  0.00000000000E+00 0.  1.
         12    1    4    4    0    0 -0.64224646613E+02 -0.35427068206E+02  0.63908454324E+02  0.97283980842E+02  0.00000000000E+00 0. -1.
         11    1    5    5    0    0  0.12755853648E+03  0.28781156115E+02  0.15852669795E+03  0.20549999791E+03  0.00000000000E+00 0. -1.
        -12    1    5    5    0    0  0.15442670358E+02  0.26442026768E+02  0.91535392522E+02  0.96521422138E+02  0.00000000000E+00 0.  1.
          5    1    3    3  501    0 -0.94510871553E+02 -0.35723093033E+02  0.12014969164E+03  0.15704096605E+03  0.41800000000E+01 0.  1.
         -5    1    3    3    0  501  0.38221603391E+02 -0.91689694415E+00  0.24226772067E+02  0.45454818782E+02  0.41800000000E+01 0.  1.
</event>
<event>
11    1  0.1704459E-009  0.1447123E+03  0.7561462E-02  0.1102408E+00
         22   -1    0    0    0    0  0.00000000000E+00  0.00000000000E+00  0.21074648715E+04  0.21074648715E+04  0.00000000000E+00 0.  1.
         22   -1    0    0    0    0 -0.00000000000E+00 -0.00000000000E+00 -0.17650026562E+02  0.17650026562E+02  0.00000000000E+00 0. -1.
         25    2    1    2    0    0  0.36438338108E+02  0.52971759351E+02  0.50115488514E+03  0.52051603434E+03  0.12508782246E+03 0.  0.
        -24    2    1    2    0    0 -0.51938615160E+02  0.25608059463E+02  0.47245620417E+03  0.48259772492E+03  0.79575792686E+02 0.  0.
         24    2    1    2    0    0  0.15500277052E+02 -0.78579818814E+02  0.11162037556E+04  0.11220011388E+04  0.80998054906E+02 0.  0.
        -13    1    5    5    0    0  0.14184690447E+02 -0.23203073772E+02  0.83229308130E+03  0.83273727025E+03  0.00000000000E+00 0.  1.
         14    1    5    5    0    0  0.13155866055E+01 -0.55376745042E+02  0.28391067433E+03  0.28926386857E+03  0.00000000000E+00 0. -1.
         11    1    4    4    0    0  0.11908482248E+02  0.29187901235E+02  0.10541488762E+03  0.11002746957E+03  0.00000000000E+00 0. -1.
        -12    1    4    4    0    0 -0.63847097408E+02 -0.35798417719E+01  0.36704131655E+03  0.37257025535E+03  0.00000000000E+00 0.  1.
          5    1    3    3  501    0  0.28440290971E+02  0.16308476977E+01  0.43657192403E+03  0.43752031617E+03  0.41800000000E+01 0. -1.
         -5    1    3    3    0  501  0.79980471374E+01  0.51340911653E+02  0.64582961116E+02  0.82995718166E+02  0.41800000000E+01 0. -1.
</event>
<event>
11    1  0.1704459E-009  0.2496165E+03  0.7561462E-02  0.1024104E+00
         22   -1    0    0    0    0  0.00000000000E+00  0.00000000000E+00  0.37875695213E+03  0.37875695213E+03  0.00000000000E+00 0. -1.
         22   -1    0    0    0    0 -0.00000000000E+00 -0.00000000000E+00 -0.11324937399E+04  0.11324937399E+04  0.00000000000E+00 0. -1.
         25    2    1    2    0    0  0.22810087734E+03  0.21504571944E+02 -0.90268695943E+03  0.93967217133E+03  0.12509031137E+03 0.  0.
         24    2    1    2    0    0 -0.17828776811E+03 -0.38600293861E+02 -0.15493234755E+03  0.25257612091E+03  0.80710306624E+02 0.  0.
        -24    2    1    2    0    0 -0.49813109225E+02  0.17095721917E+02  0.30388251918E+03  0.31900239981E+03  0.81512796913E+02 0.  0.
        -13    1    4    4    0    0 -0.13558303735E+03  0.75099581819E+01 -0.94916342733E+02  0.16567519913E+03  0.00000000000E+00 0.  1.
         14    1    4    4    0    0 -0.42704730757E+02 -0.46110252043E+02 -0.60016004815E+02  0.86900921781E+02  0.00000000000E+00 0. -1.
         13    1    5    5    0    0 -0.52427099663E+02  0.42365994606E+02  0.25684611662E+03  0.26554360452E+03  0.00000000000E+00 0. -1.
        -14    1    5    5    0    0  0.26139904381E+01 -0.25270272690E+02  0.47036402562E+02  0.53458795290E+02  0.00000000000E+00 0.  1.
          5    1    3    3  501    0  0.30277110934E+02  0.11482960505E+02 -0.36824131583E+03  0.36968594903E+03  0.41800000000E+01 0.  1.
         -5    1    3    3    0  501  0.19782376640E+03  0.10021611439E+02 -0.53444564360E+03  0.56998622230E+03  0.41800000000E+01 0.  1.
</event>
<event>
11    1  0.1704459E-009  0.1719224E+03  0.7561462E-02  0.1076371E+00
         22   -1    0    0    0    0  0.00000000000E+00  0.00000000000E+00  0.10185359353E+04  0.10185359353E+04  0.00000000000E+00 0. -1.
         22   -1    0    0    0    0 -0.00000000000E+00 -0.00000000000E+00 -0.27214009201E+03  0.27214009201E+03  0.00000000000E+00 0. -1.
         25    2    1    2    0    0 -0.12704117541E+02 -0.79741719442E+02 -0.14323305483E+03  0.20659154459E+03  0.12507686387E+03 0.  0.
         24    2    1    2    0    0  0.29039807978E+02 -0.38317318052E+02 -0.69202783785E+02  0.11466293958E+03  0.77762697474E+02 0.  0.
        -24    2    1    2    0    0 -0.16335690438E+02  0.11805903749E+03  0.95883168189E+03  0.96942154313E+03  0.78836178020E+02 0.  0.
        -11    1    4    4    0    0 -0.19313835550E+02 -0.38494779537E+02 -0.32138295032E+02  0.53737717692E+02  0.00000000000E+00 0.  1.
         12    1    4    4    0    0  0.48353643528E+02  0.17746148480E+00 -0.37064488753E+02  0.60925221883E+02  0.00000000000E+00 0. -1.
         11    1    5    5    0    0 -0.40857946781E+01  0.36504686630E+02  0.60467507973E+03  0.60578976378E+03  0.00000000000E+00 0. -1.
        -12    1    5    5    0    0 -0.12249895759E+02  0.81554350864E+02  0.35415660217E+03  0.36363177934E+03  0.00000000000E+00 0.  1.
          5    1    3    3  501    0 -0.48492910542E+02 -0.90706925259E+02 -0.70756804863E+02  0.12491319585E+03  0.41800000000E+01 0. -1.
         -5    1    3    3    0  501  0.35788793001E+02  0.10965205817E+02 -0.72476249967E+02  0.81678348737E+02  0.41800000000E+01 0. -1.
</event>
<event>
11    1  0.1704459E-009  0.1402646E+03  0.7561462E-02  0.1107263E+00
         22   -1    0    0    0    0  0.00000000000E+00  0.00000000000E+00  0.41937783690E+03  0.41937783690E+03  0.00000000000E+00 0. -1.
         22   -1    0    0    0    0 -0.00000000000E+00 -0.00000000000E+00 -0.31700779982E+03  0.31700779982E+03  0.00000000000E+00 0. -1.
         25    2    1    2    0    0 -0.34836900549E+02 -0.46032579887E+02 -0.15447148634E+03  0.20698062642E+03  0.12508769551E+03 0.  0.
        -24    2    1    2    0    0  0.10599850232E+02  0.71244013118E+02 -0.10843408618E+03  0.15349098998E+03  0.81323223814E+02 0.  0.
         24    2    1    2    0    0  0.24237050317E+02 -0.25211433231E+02  0.36527560960E+03  0.37591402032E+03  0.81621251705E+02 0.  0.
        -13    1    5    5    0    0  0.49353599990E+01 -0.50339897724E+02  0.14951434662E+03  0.15783853435E+03  0.00000000000E+00 0.  1.
         14    1    5    5    0    0  0.19301690318E+02  0.25128464493E+02  0.21576126298E+03  0.21807548597E+03  0.00000000000E+00 0. -1.
         13    1    4    4    0    0  0.20299590023E+02  0.20350938712E+02 -0.95999565109E+02  0.10021053120E+03  0.00000000000E+00 0. -1.
        -14    1    4    4    0    0 -0.96997397905E+01  0.50893074406E+02 -0.12434521067E+02  0.53280458788E+02  0.00000000000E+00 0.  1.
          5    1    3    3  501    0  0.28420358163E+02  0.11665920882E+02 -0.10169360611E+03  0.10631496786E+03  0.41800000000E+01 0.  1.
         -5    1    3    3    0  501 -0.63257258712E+02 -0.57698500770E+02 -0.52777880234E+02  0.10066565856E+03  0.41800000000E+01 0.  1.
</event>
<event>
11    1  0.1704459E-009  0.1782782E+03  0.7561462E-02  0.1071044E+00
         22   -1    0    0    0    0  0.00000000000E+00  0.00000000000E+00  0.80540767084E+03  0.80540767084E+03  0.00000000000E+00 0. -1.
         22   -1    0    0    0    0 -0.00000000000E+00 -0.00000000000E+00 -0.94278021719E+02  0.94278021719E+02  0.00000000000E+00 0. -1.
         25    2    1    2    0    0  0.74308091521E+01 -0.10110928301E+03  0.98688637223E+02  0.18885077944E+03  0.12508743239E+03 0.  0.
         24    2    1    2    0    0 -0.73966528577E+02 -0.89573830016E+02  0.27771123360E+03  0.31151685908E+03  0.80154262823E+02 0.  0.
        -24    2    1    2    0    0  0.66535719425E+02  0.19068311303E+03  0.33472977830E+03  0.39931805405E+03  0.81386929241E+02 0.  0.
        -13    1    4    4    0    0 -0.38644886927E+02  0.14888249001E+01  0.11932489302E+03  0.12543553715E+03  0.00000000000E+00 0.  1.
         14    1    4    4    0    0 -0.35321641650E+02 -0.91062654916E+02  0.15838634058E+03  0.18608132193E+03  0.00000000000E+00 0. -1.
         11    1    5    5    0    0  0.66943617701E+02  0.13621516712E+03  0.18094459932E+03  0.23617147949E+03  0.00000000000E+00 0. -1.
        -12    1    5    5    0    0 -0.40789827590E+00  0.54467945909E+02  0.15378517899E+03  0.16314657455E+03  0.00000000000E+00 0.  1.
          5    1    3    3  501    0  0.11770331512E+02 -0.59556910484E+02 -0.19118391277E+02  0.63785198717E+02  0.41800000000E+01 0. -1.
         -5    1    3    3    0  501 -0.43395223600E+01 -0.41552372528E+02  0.11780702850E+03  0.12506558072E+03  0.41800000000E+01 0. -1.
</event>
<event>
11    1  0.1704459E-009  0.2822570E+03  0.7561462E-02  0.1007993E+00
         22   -1    0    0    0    0  0.00000000000E+00  0.00000000000E+00  0.16459816961E+03  0.16459816961E+03  0.00000000000E+00 0.  1.
         22   -1    0    0    0    0 -0.00000000000E+00 -0.00000000000E+00 -0.33127369494E+03  0.33127369494E+03  0.00000000000E+00 0. -1.
         25    2    1    2    0    0 -0.28841292897E+02 -0.47002717041E+02 -0.73540958672E+02  0.15523185759E+03  0.12509029308E+03 0.  0.
        -24    2    1    2    0    0  0.14933233480E+03  0.50456059575E+02 -0.20788125231E+02  0.17814219364E+03  0.80352565845E+02 0.  0.
         24    2    1    2    0    0 -0.12049104191E+03 -0.34533425337E+01 -0.72346441420E+02  0.16249781332E+03  0.81495490634E+02 0.  0.
        -11    1    5    5    0    0  0.70125486694E+01 -0.11063986312E+02  0.39917944861E+01  0.13693869255E+02  0.00000000000E+00 0.  1.
         12    1    5    5    0    0 -0.12750359057E+03  0.76106437780E+01 -0.76338235906E+02  0.14880394407E+03  0.00000000000E+00 0. -1.
         11    1    4    4    0    0  0.68847595608E+02 -0.15701489029E+02 -0.21956726045E+02  0.73950158873E+02  0.00000000000E+00 0. -1.
        -12    1    4    4    0    0  0.80484739195E+02  0.66157548603E+02  0.11686008144E+01  0.10419203476E+03  0.00000000000E+00 0.  1.
          5    1    3    3  501    0  0.14463651217E+02  0.32789185038E+02  0.32835521341E+01  0.36229573233E+02  0.41800000000E+01 0.  1.
         -5    1    3    3    0  501 -0.43304944115E+02 -0.79791902079E+02 -0.76824510806E+02  0.11900228436E+03  0.41800000000E+01 0.  1.
</event>
<event>
11    1  0.1704459E-009  0.2863342E+03  0.7561462E-02  0.1006147E+00
         22   -1    0    0    0    0  0.00000000000E+00  0.00000000000E+00  0.44327309226E+03  0.44327309226E+03  0.00000000000E+00 0.  1.
         22   -1    0    0    0    0 -0.00000000000E+00 -0.00000000000E+00 -0.25270682113E+03  0.25270682113E+03  0.00000000000E+00 0. -1.
         25    2    1    2    0    0 -0.16300654378E+03 -0.19142874053E+03  0.34608313702E+01  0.28084699146E+03  0.12508780613E+03 0.  0.
         24    2    1    2    0    0  0.20109979473E+03  0.17823612614E+03  0.13314960824E+03  0.31077893966E+03  0.81519856847E+02 0.  0.
        -24    2    1    2    0    0 -0.38093250949E+02  0.13192614393E+02  0.53955831519E+02  0.10435398226E+03  0.79708098814E+02 0.  0.
        -11    1    4    4    0    0  0.70862724046E+02  0.11724171631E+03  0.65902772142E+02  0.15202079160E+03  0.00000000000E+00 0.  1.
         12    1    4    4    0    0  0.13023707068E+03  0.60994409832E+02  0.67246836099E+02  0.15875814806E+03  0.00000000000E+00 0. -1.
         13    1    5    5    0    0  0.75700771596E+01 -0.69602068580E+01 -0.15635328964E+02  0.18714007041E+02  0.00000000000E+00 0. -1.
        -14    1    5    5    0    0 -0.45663328109E+02  0.20152821251E+02  0.69591160483E+02  0.85639975220E+02  0.00000000000E+00 0.  1.
          5    1    3    3  501    0 -0.47617696750E+02 -0.31578796519E+02 -0.50539575582E+02  0.76396246854E+02  0.41800000000E+01 0.  1.
         -5    1    3    3    0  501 -0.11538884703E+03 -0.15984994401E+03  0.54000406952E+02  0.20445074461E+03  0.41800000000E+01 0.  1.
</event>
<event>
11    1  0.2129810E-009  0.2630633E+04  0.7561462E-02  0.7848482E-01
         22   -1    0    0    0    0  0.00000000000E+00  0.00000000000E+00  0.16463311435E+04  0.16463311435E+04  0.00000000000E+00 0.  1.
         22   -1    0    0    0    0 -0.00000000000E+00 -0.00000000000E+00 -0.10508564606E+04  0.10508564606E+04  0.00000000000E+00 0.  1.
         25    2    1    2    0    0 -0.87201864015E+03  0.75216370319E+03 -0.30789040708E+03  0.11985863020E+04  0.12508347397E+03 0.  0.
         24    2    1    2    0    0  0.83550095366E+03 -0.65547371703E+03  0.79068632432E+03  0.13264352289E+04  0.80857379204E+02 0.  0.
        -24    2    1    2    0    0  0.36517686484E+02 -0.96689986160E+02  0.11267876565E+03  0.17216607309E+03  0.79133795851E+02 0.  0.
        -11    1    4    4    0    0  0.52611644602E+03 -0.36717906737E+03  0.45565687482E+03  0.78691941764E+03  0.00000000000E+00 0.  1.
         12    1    4    4    0    0  0.30938450764E+03 -0.28829464966E+03  0.33502944950E+03  0.53951581128E+03  0.00000000000E+00 0. -1.
         13    1    5    5    0    0  0.24740051106E+02 -0.81514556118E+02  0.12356726405E+03  0.15008518159E+03  0.00000000000E+00 0. -1.
        -14    1    5    5    0    0  0.11777635378E+02 -0.15175430042E+02 -0.10888498402E+02  0.22080891502E+02  0.00000000000E+00 0.  1.
          5    1    3    3  501    0 -0.63971252097E+03  0.62093685926E+03 -0.23581042919E+03  0.92218150252E+03  0.41800000000E+01 0.  1.
         -5    1    3    3    0  501 -0.23230611918E+03  0.13122684393E+03 -0.72079977895E+02  0.27640479950E+03  0.41800000000E+01 0.  1.
</event>
<event>
11    1  0.1704459E-009  0.1921463E+03  0.7561462E-02  0.1060221E+00
         22   -1    0    0    0    0  0.00000000000E+00  0.00000000000E+00  0.15270527556E+04  0.15270527556E+04  0.00000000000E+00 0. -1.
         22   -1    0    0    0    0 -0.00000000000E+00 -0.00000000000E+00 -0.71625254061E+02  0.71625254061E+02  0.00000000000E+00 0. -1.
         25    2    1    2    0    0 -0.72252882096E+02  0.35989397633E+02  0.42466040009E+03  0.45000472965E+03  0.12510829544E+03 0.  0.
         24    2    1    2    0    0 -0.64953065290E+02 -0.16424635493E+03  0.14176669931E+03  0.23678071203E+03  0.69076354554E+02 0.  0.
        -24    2    1    2    0    0  0.13720594739E+03  0.12825695730E+03  0.88900040216E+03  0.91189256800E+03  0.77142863812E+02 0.  0.
        -11    1    4    4    0    0 -0.45824174049E+01  0.61520306744E+01  0.12031810732E+02  0.14269215122E+02  0.00000000000E+00 0.  1.
         12    1    4    4    0    0 -0.60370647885E+02 -0.17039838561E+03  0.12973488857E+03  0.22251149691E+03  0.00000000000E+00 0. -1.
         11    1    5    5    0    0  0.10643377191E+03  0.12237419399E+03  0.61196966911E+03  0.63309593828E+03  0.00000000000E+00 0. -1.
        -12    1    5    5    0    0  0.30772175476E+02  0.58827633096E+01  0.27703073304E+03  0.27879662971E+03  0.00000000000E+00 0.  1.
          5    1    3    3  501    0 -0.13487705487E+02 -0.43369703194E+02  0.87746851414E+02  0.98893031542E+02  0.41800000000E+01 0. -1.
         -5    1    3    3    0  501 -0.58765176609E+02  0.79359100827E+02  0.33691354867E+03  0.35111169810E+03  0.41800000000E+01 0. -1.
</event>
<event>
11    1  0.1704459E-009  0.2046006E+03  0.7561462E-02  0.1051317E+00
         22   -1    0    0    0    0  0.00000000000E+00  0.00000000000E+00  0.22568886778E+03  0.22568886778E+03  0.00000000000E+00 0.  1.
         22   -1    0    0    0    0 -0.00000000000E+00 -0.00000000000E+00 -0.40212513605E+03  0.40212513605E+03  0.00000000000E+00 0.  1.
         25    2    1    2    0    0  0.20061460764E+02  0.73232282450E+01 -0.70591177670E+02  0.14520413553E+03  0.12508011324E+03 0.  0.
         24    2    1    2    0    0 -0.17387334673E+03  0.87135589200E+02 -0.17103097912E+03  0.27416109725E+03  0.89934197154E+02 0.  0.
        -24    2    1    2    0    0  0.15381188597E+03 -0.94458817445E+02  0.65185888525E+02  0.20844877106E+03  0.81370299465E+02 0.  0.
        -13    1    4    4    0    0 -0.14522723259E+03  0.80250545873E+02 -0.91793623392E+02  0.18962375509E+03  0.00000000000E+00 0.  1.
         14    1    4    4    0    0 -0.28646114145E+02  0.68850433270E+01 -0.79237355730E+02  0.84537342165E+02  0.00000000000E+00 0. -1.
         11    1    5    5    0    0  0.20540194916E+02  0.83974322101E+00 -0.15570582602E+02  0.25788521060E+02  0.00000000000E+00 0. -1.
        -12    1    5    5    0    0  0.13327169105E+03 -0.95298560666E+02  0.80756471127E+02  0.18266025000E+03  0.00000000000E+00 0.  1.
          5    1    3    3  501    0 -0.36010313302E+02 -0.39410839996E+02 -0.34164237066E+02  0.63518693843E+02  0.41800000000E+01 0.  1.
         -5    1    3    3    0  501  0.56071774066E+02  0.46734068240E+02 -0.36426940604E+02  0.81685441683E+02  0.41800000000E+01 0.  1.
</event>
<event>
11    1  0.1704459E-009  0.2408704E+03  0.7561462E-02  0.1028878E+00
         22   -1    0    0    0    0  0.00000000000E+00  0.00000000000E+00  0.87991871364E+03  0.87991871364E+03  0.00000000000E+00 0. -1.
         22   -1    0    0    0    0 -0.00000000000E+00 -0.00000000000E+00 -0.86681730438E+03  0.86681730438E+03  0.00000000000E+00 0.  1.
         25    2    1    2    0    0 -0.20897577665E+03  0.15621002538E+02 -0.81465752110E+03  0.85042867279E+03  0.12508860807E+03 0.  0.
        -24    2    1    2    0    0  0.99215514620E+02 -0.11008716468E+03  0.34933417590E+03  0.38756537474E+03  0.78801339307E+02 0.  0.
         24    2    1    2    0    0  0.10976026203E+03  0.94466162142E+02  0.47842475447E+03  0.50874197049E+03  0.94641301451E+02 0.  0.
        -11    1    5    5    0    0  0.71493986554E+02  0.61016610707E+02  0.15442646882E+03  0.18078150118E+03  0.00000000000E+00 0.  1.
         12    1    5    5    0    0  0.38266275478E+02  0.33449551435E+02  0.32399828565E+03  0.32796046932E+03  0.00000000000E+00 0. -1.
         13    1    4    4    0    0  0.10792288402E+03 -0.10497262282E+03  0.34529377219E+03  0.37668871705E+03  0.00000000000E+00 0. -1.
        -14    1    4    4    0    0 -0.87073694011E+01 -0.51145418615E+01  0.40404037021E+01  0.10876657686E+02  0.00000000000E+00 0.  1.
          5    1    3    3  501    0 -0.13510942176E+03  0.49313143622E+01 -0.28440162797E+03  0.31492956689E+03  0.41800000000E+01 0. -1.
         -5    1    3    3    0  501 -0.73866354889E+02  0.10689688176E+02 -0.53025589314E+03  0.53549910590E+03  0.41800000000E+01 0. -1.
</event>
<event>
11    1  0.1991421E-009  0.6212400E+03  0.7561462E-02  0.9157165E-01
         22   -1    0    0    0    0  0.00000000000E+00  0.00000000000E+00  0.94399093257E+03  0.94399093257E+03  0.00000000000E+00 0.  1.
         22   -1    0    0    0    0 -0.00000000000E+00 -0.00000000000E+00 -0.92420418780E+03  0.92420418780E+03  0.00000000000E+00 0.  1.
         25    2    1    2    0    0 -0.21987549031E+03 -0.57751390559E+03 -0.65067609271E+03  0.90603175482E+03  0.12508645299E+03 0.  0.
        -24    2    1    2    0    0  0.25888019993E+03  0.50072736569E+03  0.52264678077E+03  0.77326386069E+03  0.83848006109E+02 0.  0.
         24    2    1    2    0    0 -0.39004709620E+02  0.76786539903E+02  0.14781605670E+03  0.18889950487E+03  0.80099289861E+02 0.  0.
        -11    1    5    5    0    0 -0.48415356319E+02  0.86852579395E+02  0.14325783674E+03  0.17438527765E+03  0.00000000000E+00 0.  1.
         12    1    5    5    0    0  0.94106466994E+01 -0.10066039492E+02  0.45582199675E+01  0.14514227214E+02  0.00000000000E+00 0. -1.
         11    1    4    4    0    0  0.63156294703E+02  0.17954189518E+03  0.21676471922E+03  0.28846308808E+03  0.00000000000E+00 0. -1.
        -12    1    4    4    0    0  0.19572390522E+03  0.32118547051E+03  0.30588206155E+03  0.48480077261E+03  0.00000000000E+00 0.  1.
          5    1    3    3  501    0 -0.19368122286E+03 -0.34129346114E+03 -0.41955431421E+03  0.57448841388E+03  0.41800000000E+01 0. -1.
         -5    1    3    3    0  501 -0.26194267444E+02 -0.23622044445E+03 -0.23112177850E+03  0.33154334094E+03  0.41800000000E+01 0. -1.
</event>
<event>
11    1  0.1704459E-009  0.1401441E+03  0.7561462E-02  0.1107398E+00
         22   -1    0    0    0    0  0.00000000000E+00  0.00000000000E+00  0.88064134670E+03  0.88064134670E+03  0.00000000000E+00 0. -1.
         22   -1    0    0    0    0 -0.00000000000E+00 -0.00000000000E+00 -0.40050082254E+02  0.40050082254E+02  0.00000000000E+00 0.  1.
         25    2    1    2    0    0  0.28213291521E+02 -0.60931074695E+02  0.16828938388E+03  0.22016792564E+03  0.12507602917E+03 0.  0.
        -24    2    1    2    0    0  0.10398993258E+02  0.61942753735E+02  0.39327660439E+03  0.40750739292E+03  0.86317691836E+02 0.  0.
         24    2    1    2    0    0 -0.38612284779E+02 -0.10116790400E+01  0.27902527619E+03  0.29301611040E+03  0.80693272175E+02 0.  0.
        -13    1    5    5    0    0 -0.42571939749E+02  0.18284614403E+01  0.58171105379E+02  0.72108188344E+02  0.00000000000E+00 0.  1.
         14    1    5    5    0    0  0.39596549700E+01 -0.28401404803E+01  0.22085417081E+03  0.22090792206E+03  0.00000000000E+00 0. -1.
         13    1    4    4    0    0 -0.63861803692E+01  0.51855526978E+01 -0.14627766809E+01  0.83554157352E+01  0.00000000000E+00 0. -1.
        -14    1    4    4    0    0  0.16785173627E+02  0.56757201037E+02  0.39473938107E+03  0.39915197718E+03  0.00000000000E+00 0.  1.
          5    1    3    3  501    0 -0.24722129283E+02 -0.59352961631E+02  0.15121183344E+03  0.16436681144E+03  0.41800000000E+01 0. -1.
         -5    1    3    3    0  501  0.52935420804E+02 -0.15781130636E+01  0.17077550434E+02  0.55801114194E+02  0.41800000000E+01 0. -1.
</event>
<event>
11    1  0.1704459E-009  0.4490626E+03  0.7561462E-02  0.9515149E-01
         22   -1    0    0    0    0  0.00000000000E+00  0.00000000000E+00  0.10825887796E+04  0.10825887796E+04  0.00000000000E+00 0. -1.
         22   -1    0    0    0    0 -0.00000000000E+00 -0.00000000000E+00 -0.82003261393E+03  0.82003261393E+03  0.00000000000E+00 0. -1.
         25    2    1    2    0    0 -0.13356617956E+03 -0.25971662506E+03 -0.54735540332E+03  0.63288093075E+03  0.12509070834E+03 0.  0.
        -24    2    1    2    0    0  0.43896217947E+03  0.42969010171E+03  0.50966450081E+03  0.80216594972E+03  0.79943286080E+02 0.  0.
         24    2    1    2    0    0 -0.30539599992E+03 -0.16997347665E+03  0.30024706820E+03  0.46757451309E+03  0.79497948408E+02 0.  0.
        -11    1    5    5    0    0 -0.17538413688E+03 -0.70006204016E+02  0.11931210084E+03  0.22337377079E+03  0.00000000000E+00 0.  1.
         12    1    5    5    0    0 -0.13001186304E+03 -0.99967272634E+02  0.18093496736E+03  0.24420074230E+03  0.00000000000E+00 0. -1.
         13    1    4    4    0    0  0.15842814510E+03  0.19826261154E+03  0.17819041590E+03  0.31009573459E+03  0.00000000000E+00 0. -1.
        -14    1    4    4    0    0  0.28053403437E+03  0.23142749017E+03  0.33147408491E+03  0.49207021513E+03  0.00000000000E+00 0.  1.
          5    1    3    3  501    0 -0.12614848008E+03 -0.12414649999E+03 -0.36315366081E+03  0.40400971058E+03  0.41800000000E+01 0.  1.
         -5    1    3    3    0  501 -0.74176994748E+01 -0.13557012507E+03 -0.18420174251E+03  0.22887122017E+03  0.41800000000E+01 0.  1.
</event>
<event>
11    1  0.1704459E-009  0.2703800E+03  0.7561462E-02  0.1013570E+00
         22   -1    0    0    0    0  0.00000000000E+00  0.00000000000E+00  0.12824140070E+04  0.12824140070E+04  0.00000000000E+00 0.  1.
         22   -1    0    0    0    0 -0.00000000000E+00 -0.00000000000E+00 -0.11027294067E+03  0.11027294067E+03  0.00000000000E+00 0.  1.
         25    2    1    2    0    0 -0.18768874568E+03 -0.12036499928E+03  0.44532683492E+03  0.51349514706E+03  0.12508588190E+03 0.  0.
        -24    2    1    2    0    0  0.26585528926E+03 -0.13310494221E+01  0.24767340091E+03  0.37227922981E+03  0.81048781028E+02 0.  0.
         24    2    1    2    0    0 -0.78166543578E+02  0.12169604871E+03  0.47914083050E+03  0.50691257081E+03  0.80402003615E+02 0.  0.
        -11    1    5    5    0    0 -0.94557901547E+02  0.99738482670E+02  0.41493964163E+03  0.43710853099E+03  0.00000000000E+00 0.  1.
         12    1    5    5    0    0  0.16391357968E+02  0.21957566037E+02  0.64201188875E+02  0.69804039820E+02  0.00000000000E+00 0. -1.
         13    1    4    4    0    0  0.45498278497E+01  0.35331177799E+01  0.34605712712E+02  0.35081892866E+02  0.00000000000E+00 0. -1.
        -14    1    4    4    0    0  0.26130546141E+03 -0.48641672020E+01  0.21306768820E+03  0.33719733694E+03  0.00000000000E+00 0.  1.
          5    1    3    3  501    0 -0.74179210626E+02 -0.12269219460E+02  0.56195874478E+02  0.93960298763E+02  0.41800000000E+01 0. -1.
         -5    1    3    3    0  501 -0.11350953506E+03 -0.10809577983E+03  0.38913096044E+03  0.41953484830E+03  0.41800000000E+01 0. -1.
</event>
<event>
11    1  0.1704459E-009  0.2128468E+03  0.7561462E-02  0.1045793E+00
         22   -1    0    0    0    0  0.00000000000E+00  0.00000000000E+00  0.83137853227E+03  0.83137853227E+03  0.00000000000E+00 0. -1.
         22   -1    0    0    0    0 -0.00000000000E+00 -0.00000000000E+00 -0.37798762386E+03  0.37798762386E+03  0.00000000000E+00 0. -1.
         25    2    1    2    0    0 -0.44038993223E+02  0.16608706772E+03 -0.32073967665E+03  0.38476689494E+03  0.12508907336E+03 0.  0.
         24    2    1    2    0    0  0.18519676172E+02 -0.18039020302E+03  0.56871350450E+03  0.60194240177E+03  0.77562884731E+02 0.  0.
        -24    2    1    2    0    0  0.25519317051E+02  0.14303135300E+02  0.20541708056E+03  0.22265685942E+03  0.80771807186E+02 0.  0.
        -11    1    4    4    0    0 -0.14303323083E+02 -0.69538611410E+01  0.96790070750E+02  0.98088016760E+02  0.00000000000E+00 0.  1.
         12    1    4    4    0    0  0.32822999255E+02 -0.17343634188E+03  0.47192343375E+03  0.50385438501E+03  0.00000000000E+00 0. -1.
         13    1    5    5    0    0  0.19373025451E+02 -0.31627259105E+02  0.65578155423E+02  0.75339844056E+02  0.00000000000E+00 0. -1.
        -14    1    5    5    0    0  0.61462915998E+01  0.45930394405E+02  0.13983892514E+03  0.14731701536E+03  0.00000000000E+00 0.  1.
          5    1    3    3  501    0 -0.11976948708E+02 -0.11981202051E+02 -0.89190100639E+02  0.90880927344E+02  0.41800000000E+01 0. -1.
         -5    1    3    3    0  501 -0.32062044515E+02  0.17806826977E+03 -0.23154957602E+03  0.29388596760E+03  0.41800000000E+01 0. -1.
</event>
<event>
11    1  0.2715113E-009  0.2638709E+03  0.7561462E-02  0.1016759E+00
         22   -1    0    0    0    0  0.00000000000E+00  0.00000000000E+00  0.42862557847E+03  0.42862557847E+03  0.00000000000E+00 0.  1.
         22   -1    0    0    0    0 -0.00000000000E+00 -0.00000000000E+00 -0.22868222696E+04  0.22868222696E+04  0.00000000000E+00 0.  1.
         25    2    1    2    0    0  0.18815513146E+03  0.13706044187E+03 -0.21971449017E+04  0.22129802345E+04  0.12509148999E+03 0.  0.
         24    2    1    2    0    0 -0.32895725126E+02  0.79201331425E+01 -0.68391078133E+01  0.88533736936E+02  0.81526633315E+02 0.  0.
        -24    2    1    2    0    0 -0.15525940633E+03 -0.14498057501E+03  0.34578731842E+03  0.41393387663E+03  0.81532412300E+02 0.  0.
        -13    1    4    4    0    0  0.18335306425E+02  0.23992355489E+02  0.10719717850E+02  0.32042611229E+02  0.00000000000E+00 0.  1.
         14    1    4    4    0    0 -0.51231031552E+02 -0.16072222346E+02 -0.17558825663E+02  0.56491125707E+02  0.00000000000E+00 0. -1.
         13    1    5    5    0    0 -0.96529431388E+01  0.96542354618E+01  0.11368675987E+02  0.17765989060E+02  0.00000000000E+00 0. -1.
        -14    1    5    5    0    0 -0.14560646319E+03 -0.15463481047E+03  0.33441864244E+03  0.39616788757E+03  0.00000000000E+00 0.  1.
          5    1    3    3  501    0  0.56682556806E+02 -0.45920830352E+01 -0.25811733797E+03  0.26434074985E+03  0.41800000000E+01 0.  1.
         -5    1    3    3    0  501  0.13147257465E+03  0.14165252490E+03 -0.19390275638E+04  0.19486394847E+04  0.41800000000E+01 0.  1.
</event>
<event>
11    1  0.2417803E-009  0.2000007E+04  0.7561462E-02  0.8066978E-01
         22   -1    0    0    0    0  0.00000000000E+00  0.00000000000E+00  0.11791241353E+04  0.11791241353E+04  0.00000000000E+00 0. -1.
         22   -1    0    0    0    0 -0.00000000000E+00 -0.00000000000E+00 -0.84809294742E+03  0.84809294742E+03  0.00000000000E+00 0. -1.
         25    2    1    2    0    0 -0.42618384083E+03  0.60352196713E+03 -0.46766161073E+03  0.88331083393E+03  0.12513678996E+03 0.  0.
         24    2    1    2    0    0  0.23883706993E+03 -0.13153263429E+03  0.16841818520E+03  0.33070320614E+03  0.81583978757E+02 0.  0.
        -24    2    1    2    0    0  0.18734677090E+03 -0.47198933284E+03  0.63027461337E+03  0.81320304260E+03  0.78615248941E+02 0.  0.
        -11    1    4    4    0    0  0.91487824904E+02 -0.22467286807E+02  0.93297462852E+02  0.13258664208E+03  0.00000000000E+00 0.  1.
         12    1    4    4    0    0  0.14734924503E+03 -0.10906534748E+03  0.75120722350E+02  0.19811656407E+03  0.00000000000E+00 0. -1.
         13    1    5    5    0    0  0.34166606894E+02 -0.12802303727E+03  0.21580314739E+03  0.25323556923E+03  0.00000000000E+00 0. -1.
        -14    1    5    5    0    0  0.15318016400E+03 -0.34396629556E+03  0.41447146598E+03  0.55996747338E+03  0.00000000000E+00 0.  1.
          5    1    3    3  501    0 -0.31021884124E+03  0.48875655136E+03 -0.31134772944E+03  0.65732303853E+03  0.41800000000E+01 0.  1.
         -5    1    3    3    0  501 -0.11596499959E+03  0.11476541577E+03 -0.15631388129E+03  0.22598779540E+03  0.41800000000E+01 0.  1.
</event>
<event>
11    1  0.1704459E-009  0.1349869E+03  0.7561462E-02  0.1113289E+00
         22   -1    0    0    0    0  0.00000000000E+00  0.00000000000E+00  0.25577750234E+04  0.25577750234E+04  0.00000000000E+00 0.  1.
         22   -1    0    0    0    0 -0.00000000000E+00 -0.00000000000E+00 -0.23745809866E+02  0.23745809866E+02  0.00000000000E+00 0. -1.
         25    2    1    2    0    0 -0.30112599049E+02  0.23252301841E+02  0.25975492588E+03  0.29080478970E+03  0.12508943212E+03 0.  0.
         24    2    1    2    0    0  0.11658679588E+03 -0.45017993022E+02  0.15358544813E+04  0.15426352663E+04  0.72494663635E+02 0.  0.
        -24    2    1    2    0    0 -0.86474196829E+02  0.21765691180E+02  0.73841980631E+03  0.74808077729E+03  0.80059396460E+02 0.  0.
        -13    1    4    4    0    0  0.65463196738E+02  0.11005134244E+02  0.85388097939E+03  0.85645739536E+03  0.00000000000E+00 0.  1.
         14    1    4    4    0    0  0.51123599140E+02 -0.56023127265E+02  0.68197350192E+03  0.68617787089E+03  0.00000000000E+00 0. -1.
         13    1    5    5    0    0  0.16988743601E+01  0.10540670149E+02  0.11291483703E+02  0.15539932609E+02  0.00000000000E+00 0. -1.
        -14    1    5    5    0    0 -0.88173071189E+02  0.11225021031E+02  0.72712832261E+03  0.73254084468E+03  0.00000000000E+00 0.  1.
          5    1    3    3  501    0 -0.43200459281E+02 -0.34207055687E+01  0.25701502601E+03  0.26067638348E+03  0.41800000000E+01 0.  1.
         -5    1    3    3    0  501  0.13087860232E+02  0.26673007410E+02  0.27398998681E+01  0.30128406215E+02  0.41800000000E+01 0.  1.
</event>
<event>
11    1  0.1704459E-009  0.1025018E+04  0.7561462E-02  0.8655576E-01
         22   -1    0    0    0    0  0.00000000000E+00  0.00000000000E+00  0.12962218035E+04  0.12962218035E+04  0.00000000000E+00 0.  1.
         22   -1    0    0    0    0 -0.00000000000E+00 -0.00000000000E+00 -0.20263931122E+03  0.20263931122E+03  0.00000000000E+00 0.  1.
         25    2    1    2    0    0 -0.15978182666E+03  0.15429283555E+03 -0.10029697773E+03  0.27393892569E+03  0.12508613045E+03 0.  0.
         24    2    1    2    0    0  0.77482584321E+02 -0.81585962455E+02  0.63181006028E+03  0.64684190329E+03  0.80997996501E+02 0.  0.
        -24    2    1    2    0    0  0.82299242339E+02 -0.72706873096E+02  0.56206940974E+03  0.57808028575E+03  0.78710486777E+02 0.  0.
        -13    1    4    4    0    0  0.30423004197E+02 -0.55314087405E+02  0.16063523397E+03  0.17259457073E+03  0.00000000000E+00 0.  1.
         14    1    4    4    0    0  0.47059580125E+02 -0.26271875050E+02  0.47117482630E+03  0.47424733256E+03  0.00000000000E+00 0. -1.
         13    1    5    5    0    0 -0.47191255659E+00 -0.45637793961E+02  0.14488671251E+03  0.15190520202E+03  0.00000000000E+00 0. -1.
        -14    1    5    5    0    0  0.82771154895E+02 -0.27069079135E+02  0.41718269723E+03  0.42617508373E+03  0.00000000000E+00 0.  1.
          5    1    3    3  501    0 -0.78214328893E+02  0.15337774079E+03 -0.79321278141E+02  0.18960894013E+03  0.41800000000E+01 0.  1.
         -5    1    3    3    0  501 -0.81567497767E+02  0.91509476612E+00 -0.20975699592E+02  0.84329985556E+02  0.41800000000E+01 0.  1.
</event>
<event>
11    1  0.1704459E-009  0.7827790E+03  0.7561462E-02  0.8918487E-01
         22   -1    0    0    0    0  0.00000000000E+00  0.00000000000E+00  0.24395079073E+04  0.24395079073E+04  0.00000000000E+00 0.  1.
         22   -1    0    0    0    0 -0.00000000000E+00 -0.00000000000E+00 -0.24864813374E+03  0.24864813374E+03  0.00000000000E+00 0.  1.
         25    2    1    2    0    0  0.67595413649E+02 -0.35745558963E+03  0.49481227582E+03  0.62676284309E+03  0.12509530233E+03 0.  0.
        -24    2    1    2    0    0 -0.63448315667E+02  0.68182121447E+03  0.59366675252E+03  0.90945748943E+03  0.75939810095E+02 0.  0.
         24    2    1    2    0    0 -0.41470979825E+01 -0.32436562484E+03  0.11023807452E+04  0.11519357085E+04  0.80512807500E+02 0.  0.
        -11    1    5    5    0    0  0.26175219672E+02 -0.27523217746E+03  0.90672781986E+03  0.94794157676E+03  0.00000000000E+00 0.  1.
         12    1    5    5    0    0 -0.30322317654E+02 -0.49133447384E+02  0.19565292534E+03  0.20399413176E+03  0.00000000000E+00 0. -1.
         11    1    4    4    0    0 -0.50250426904E+02  0.65378723177E+03  0.58063831640E+03  0.87584456629E+03  0.00000000000E+00 0. -1.
        -12    1    4    4    0    0 -0.13197888762E+02  0.28033982702E+02  0.13028436124E+02  0.33612923136E+02  0.00000000000E+00 0.  1.
          5    1    3    3  501    0  0.88629518459E+02 -0.33883050658E+03  0.42085041640E+03  0.54753433601E+03  0.41800000000E+01 0. -1.
         -5    1    3    3    0  501 -0.21034104810E+02 -0.18625083054E+02  0.73961859425E+02  0.79228507077E+02  0.41800000000E+01 0. -1.
</event>
<event>
11    1  0.1704459E-009  0.1274225E+03  0.7561462E-02  0.1122477E+00
         22   -1    0    0    0    0  0.00000000000E+00  0.00000000000E+00  0.28303232859E+02  0.28303232859E+02  0.00000000000E+00 0.  1.
         22   -1    0    0    0    0 -0.00000000000E+00 -0.00000000000E+00 -0.98931119062E+03  0.98931119062E+03  0.00000000000E+00 0. -1.
         25    2    1    2    0    0 -0.11591412065E+02  0.19206505573E+02 -0.67228625216E+03  0.68419349568E+03  0.12509470010E+03 0.  0.
        -24    2    1    2    0    0  0.13898179167E+02  0.13753383785E+02 -0.18354847886E+03  0.19646016410E+03  0.67262448922E+02 0.  0.
         24    2    1    2    0    0 -0.23067671016E+01 -0.32959889359E+02 -0.10517322674E+03  0.13696076371E+03  0.81272182764E+02 0.  0.
        -11    1    5    5    0    0 -0.21946466473E+02 -0.20144028273E+02 -0.60582429755E+00  0.29795910605E+02  0.00000000000E+00 0.  1.
         12    1    5    5    0    0  0.19639699371E+02 -0.12815861086E+02 -0.10456740244E+03  0.10716485310E+03  0.00000000000E+00 0. -1.
         13    1    4    4    0    0 -0.23617582137E+02  0.17631785163E+01 -0.11490443674E+03  0.11731977057E+03  0.00000000000E+00 0. -1.
        -14    1    4    4    0    0  0.37515761304E+02  0.11990205269E+02 -0.68644042124E+02  0.79140393528E+02  0.00000000000E+00 0.  1.
          5    1    3    3  501    0  0.34581109444E+02  0.48056880675E+02 -0.19606413532E+03  0.20485100553E+03  0.41800000000E+01 0.  1.
         -5    1    3    3    0  501 -0.46172521509E+02 -0.28850375102E+02 -0.47622211685E+03  0.47934249015E+03  0.41800000000E+01 0.  1.
</event>
<event>
11    1  0.1704459E-009  0.1757235E+03  0.7561462E-02  0.1073156E+00
         22   -1    0    0    0    0  0.00000000000E+00  0.00000000000E+00  0.26174110711E+04  0.26174110711E+04  0.00000000000E+00 0. -1.
         22   -1    0    0    0    0 -0.00000000000E+00 -0.00000000000E+00 -0.93052048751E+02  0.93052048751E+02  0.00000000000E+00 0. -1.
         25    2    1    2    0    0 -0.12205432516E+03 -0.30959933913E+02  0.28874095534E+01  0.17751481118E+03  0.12508954895E+03 0.  0.
         24    2    1    2    0    0  0.77252290084E+02 -0.14344851536E+02  0.18660987314E+04  0.18695783107E+04  0.82612911579E+02 0.  0.
        -24    2    1    2    0    0  0.44802035076E+02  0.45304785448E+02  0.65537288137E+03  0.66336999801E+03  0.80538156782E+02 0.  0.
        -11    1    4    4    0    0  0.21925366057E+02  0.32843947096E+02  0.82385968584E+03  0.82480557011E+03  0.00000000000E+00 0.  1.
         12    1    4    4    0    0  0.55326924027E+02 -0.47188798632E+02  0.10422390456E+04  0.10447727405E+04  0.00000000000E+00 0. -1.
         11    1    5    5    0    0  0.53929240129E+02  0.47239366085E+02  0.64660275126E+03  0.65056516860E+03  0.00000000000E+00 0. -1.
        -12    1    5    5    0    0 -0.91272050532E+01 -0.19345806362E+01  0.87701301060E+01  0.12804829417E+02  0.00000000000E+00 0.  1.
          5    1    3    3  501    0 -0.31168344288E+00 -0.13001312731E+02  0.45275908976E+02  0.47291771091E+02  0.41800000000E+01 0.  1.
         -5    1    3    3    0  501 -0.12174264172E+03 -0.17958621181E+02 -0.42388499423E+02  0.13022304009E+03  0.41800000000E+01 0.  1.
</event>
<event>
11    1  0.1704459E-009  0.4036351E+03  0.7561462E-02  0.9639093E-01
         22   -1    0    0    0    0  0.00000000000E+00  0.00000000000E+00  0.49606128814E+03  0.49606128814E+03  0.00000000000E+00 0. -1.
         22   -1    0    0    0    0 -0.00000000000E+00 -0.00000000000E+00 -0.65420303699E+03  0.65420303699E+03  0.00000000000E+00 0. -1.
         25    2    1    2    0    0  0.27534888637E+03  0.20853398927E+03 -0.27466864260E+03  0.45868404527E+03  0.12507900002E+03 0.  0.
         24    2    1    2    0    0 -0.38404799274E+03 -0.30495606190E+03  0.13988871305E+02  0.49708683010E+03  0.80053530368E+02 0.  0.
        -24    2    1    2    0    0  0.10869910638E+03  0.96422072621E+02  0.10253802245E+03  0.19449344976E+03  0.78746073781E+02 0.  0.
        -13    1    4    4    0    0 -0.32364385211E+02 -0.42109207882E+01 -0.87434130225E+01  0.33788053440E+02  0.00000000000E+00 0.  1.
         14    1    4    4    0    0 -0.35168360753E+03 -0.30074514111E+03  0.22732284328E+02  0.46329877666E+03  0.00000000000E+00 0. -1.
         13    1    5    5    0    0  0.99771479597E+01  0.49165638607E+02  0.57042539664E+02  0.75964826284E+02  0.00000000000E+00 0. -1.
        -14    1    5    5    0    0  0.98721958415E+02  0.47256434014E+02  0.45495482791E+02  0.11852862348E+03  0.00000000000E+00 0.  1.
          5    1    3    3  501    0  0.47240051778E+02 -0.71433790020E+00 -0.79960728013E+02  0.92969474533E+02  0.41800000000E+01 0.  1.
         -5    1    3    3    0  501  0.22810883459E+03  0.20924832717E+03 -0.19470791459E+03  0.36571457073E+03  0.41800000000E+01 0.  1.
</event>
<event>
11    1  0.1704459E-009  0.2027104E+03  0.7561462E-02  0.1052623E+00
         22   -1    0    0    0    0  0.00000000000E+00  0.00000000000E+00  0.56176068106E+03  0.56176068106E+03  0.00000000000E+00 0. -1.
         22   -1    0    0    0    0 -0.00000000000E+00 -0.00000000000E+00 -0.72913058027E+03  0.72913058027E+03  0.00000000000E+00 0. -1.
         25    2    1    2    0    0  0.55250303504E+02 -0.24368316459E+03 -0.52185381079E+03  0.59195627922E+03  0.12508699349E+03 0.  0.
         24    2    1    2    0    0  0.44900173857E+02  0.12193065429E+03 -0.12098661764E+03  0.19147659493E+03  0.71710631650E+02 0.  0.
        -24    2    1    2    0    0 -0.10015047736E+03  0.12175251030E+03  0.47547052921E+03  0.50745838717E+03  0.81166487434E+02 0.  0.
        -11    1    4    4    0    0  0.40355094504E+02  0.61922349829E+02 -0.10640220317E+03  0.12955438974E+03  0.00000000000E+00 0.  1.
         12    1    4    4    0    0  0.45450793528E+01  0.60008304459E+02 -0.14584414463E+02  0.61922205190E+02  0.00000000000E+00 0. -1.
         13    1    5    5    0    0 -0.58281999193E+02  0.76242763307E+02  0.39200208598E+03  0.40357822761E+03  0.00000000000E+00 0. -1.
        -14    1    5    5    0    0 -0.41868478167E+02  0.45509746991E+02  0.83468443227E+02  0.10388015956E+03  0.00000000000E+00 0.  1.
          5    1    3    3  501    0  0.14225209862E+02  0.76081752751E+01 -0.82251839447E+02  0.83923050582E+02  0.41800000000E+01 0. -1.
         -5    1    3    3    0  501  0.41025093642E+02 -0.25129133986E+03 -0.43960197134E+03  0.50803322864E+03  0.41800000000E+01 0. -1.
</event>
<event>
11    1  0.1704459E-009  0.1537235E+03  0.7561462E-02  0.1093134E+00
         22   -1    0    0    0    0  0.00000000000E+00  0.00000000000E+00  0.17817433267E+03  0.17817433267E+03  0.00000000000E+00 0.  1.
         22   -1    0    0    0    0 -0.00000000000E+00 -0.00000000000E+00 -0.24760849061E+03  0.24760849061E+03  0.00000000000E+00 0. -1.
         25    2    1    2    0    0 -0.33454383335E+02  0.24623072212E+02 -0.17333942950E+02  0.13294417039E+03  0.12509274724E+03 0.  0.
         24    2    1    2    0    0 -0.87480492870E+02  0.39419829334E+02  0.15540973285E+01  0.12514566911E+03  0.80325983977E+02 0.  0.
        -24    2    1    2    0    0  0.12093487621E+03 -0.64042901546E+02 -0.53654312319E+02  0.16769298378E+03  0.80718114806E+02 0.  0.
        -13    1    4    4    0    0 -0.36560335649E+02  0.38750260100E+02  0.35431992784E+02  0.63981770163E+02  0.00000000000E+00 0.  1.
         14    1    4    4    0    0 -0.50920157221E+02  0.66956923459E+00 -0.33877895455E+02  0.61163898951E+02  0.00000000000E+00 0. -1.
         13    1    5    5    0    0  0.16589159182E+02 -0.42617713693E+02 -0.39123160325E+02  0.60183813410E+02  0.00000000000E+00 0. -1.
        -14    1    5    5    0    0  0.10434571702E+03 -0.21425187853E+02 -0.14531151994E+02  0.10750917037E+03  0.00000000000E+00 0.  1.
          5    1    3    3  501    0  0.49124358781E+01  0.31461836427E+02 -0.64238192118E+02  0.71819195931E+02  0.41800000000E+01 0.  1.
         -5    1    3    3    0  501 -0.38366819213E+02 -0.68387642147E+01  0.46904249168E+02  0.61124974459E+02  0.41800000000E+01 0.  1.
</event>
<event>
11    1  0.1704459E-009  0.1268980E+03  0.7561462E-02  0.1123140E+00
         22   -1    0    0    0    0  0.00000000000E+00  0.00000000000E+00  0.15626031884E+04  0.15626031884E+04  0.00000000000E+00 0. -1.
         22   -1    0    0    0    0 -0.00000000000E+00 -0.00000000000E+00 -0.24578190175E+03  0.24578190175E+03  0.00000000000E+00 0.  1.
         25    2    1    2    0    0  0.11587284754E+02 -0.11276336230E+02 -0.12064107562E+03  0.17453274074E+03  0.12508392198E+03 0.  0.
        -24    2    1    2    0    0 -0.22989274628E+02  0.10953059357E+02 -0.78144404527E+02  0.11604799474E+03  0.81927485422E+02 0.  0.
         24    2    1    2    0    0  0.11401989873E+02  0.32327687351E+00  0.15156067668E+04  0.15178043547E+04  0.80846011754E+02 0.  0.
        -13    1    5    5    0    0  0.40788757074E+02  0.10944009059E+02  0.52169770239E+03  0.52340422879E+03  0.00000000000E+00 0.  1.
         14    1    5    5    0    0 -0.29386767200E+02 -0.10620732185E+02  0.99390906442E+03  0.99440012589E+03  0.00000000000E+00 0. -1.
         13    1    4    4    0    0 -0.43924560933E+02  0.21129092608E+02 -0.18696042640E+02  0.52204862015E+02  0.00000000000E+00 0. -1.
        -14    1    4    4    0    0  0.20935286305E+02 -0.10176033251E+02 -0.59448361886E+02  0.63843132727E+02  0.00000000000E+00 0.  1.
          5    1    3    3  501    0  0.13612838745E+02  0.85446174083E+01 -0.14319211345E+03  0.14415191160E+03  0.41800000000E+01 0.  1.
         -5    1    3    3    0  501 -0.20255539902E+01 -0.19820953639E+02  0.22551037826E+02  0.30380829139E+02  0.41800000000E+01 0.  1.
</event>
<event>
11    1  0.1704459E-009  0.1574779E+03  0.7561462E-02  0.1089474E+00
         22   -1    0    0    0    0  0.00000000000E+00  0.00000000000E+00  0.37182357318E+02  0.37182357318E+02  0.00000000000E+00 0. -1.
         22   -1    0    0    0    0 -0.00000000000E+00 -0.00000000000E+00 -0.17591089747E+04  0.17591089747E+04  0.00000000000E+00 0. -1.
         25    2    1    2    0    0 -0.40486538093E+02  0.10533633389E+03 -0.94763775153E+03  0.96249709083E+03  0.12509371983E+03 0.  0.
         24    2    1    2    0    0  0.72563994015E+02 -0.53491349915E+02 -0.69812008041E+03  0.70881477647E+03  0.83185833691E+02 0.  0.
        -24    2    1    2    0    0 -0.32077455922E+02 -0.51844983979E+02 -0.76168785398E+02  0.12497946467E+03  0.78110928669E+02 0.  0.
        -11    1    4    4    0    0 -0.86893797006E+01 -0.23320920231E+02 -0.61864118410E+02  0.66682379881E+02  0.00000000000E+00 0.  1.
         12    1    4    4    0    0  0.81253373716E+02 -0.30170429684E+02 -0.63625596200E+03  0.64213239659E+03  0.00000000000E+00 0. -1.
         13    1    5    5    0    0 -0.87398099052E+01 -0.65031190804E+02 -0.31265873057E+02  0.72684213366E+02  0.00000000000E+00 0. -1.
        -14    1    5    5    0    0 -0.23337646017E+02  0.13186206825E+02 -0.44902912341E+02  0.52295251302E+02  0.00000000000E+00 0.  1.
          5    1    3    3  501    0 -0.87497380782E+01  0.15020455485E+02 -0.64071653036E+03  0.64096592474E+03  0.41800000000E+01 0.  1.
         -5    1    3    3    0  501 -0.31736800015E+02  0.90315878409E+02 -0.30692122116E+03  0.32153116609E+03  0.41800000000E+01 0.  1.
</event>
<event>
11    1  0.1704459E-009  0.1837727E+03  0.7561462E-02  0.1066631E+00
         22   -1    0    0    0    0  0.00000000000E+00  0.00000000000E+00  0.85425473669E+02  0.85425473669E+02  0.00000000000E+00 0. -1.
         22   -1    0    0    0    0 -0.00000000000E+00 -0.00000000000E+00 -0.61237275652E+03  0.61237275652E+03  0.00000000000E+00 0. -1.
         25    2    1    2    0    0 -0.67459032340E+02 -0.12566483463E+03 -0.38709419532E+03  0.43108250509E+03  0.12509132038E+03 0.  0.
        -24    2    1    2    0    0  0.68883029184E+02  0.10015082147E+03 -0.97686683454E+02  0.17226769823E+03  0.73201181532E+02 0.  0.
         24    2    1    2    0    0 -0.14239968446E+01  0.25514013159E+02 -0.42166404081E+02  0.94448026882E+02  0.80557007853E+02 0.  0.
        -11    1    5    5    0    0 -0.17201185915E+02  0.26659873520E+01 -0.59312956297E+02  0.61814359740E+02  0.00000000000E+00 0.  1.
         12    1    5    5    0    0  0.15777189070E+02  0.22848025807E+02  0.17146552215E+02  0.32633667142E+02  0.00000000000E+00 0. -1.
         13    1    4    4    0    0 -0.14266469284E+02  0.41708639477E+01 -0.89944940960E+01  0.17373231591E+02  0.00000000000E+00 0. -1.
        -14    1    4    4    0    0  0.83149498468E+02  0.95979957519E+02 -0.88692189358E+02  0.15489446663E+03  0.00000000000E+00 0.  1.
          5    1    3    3  501    0  0.32355561357E+02 -0.82014477775E+01 -0.48451372857E+02  0.58984354096E+02  0.41800000000E+01 0.  1.
         -5    1    3    3    0  501 -0.99814593696E+02 -0.11746338685E+03 -0.33864282246E+03  0.37209815099E+03  0.41800000000E+01 0.  1.
</event>
<event>
11    1  0.1704459E-009  0.2561255E+03  0.7561462E-02  0.1020686E+00
         22   -1    0    0    0    0  0.00000000000E+00  0.00000000000E+00  0.37573989875E+03  0.37573989875E+03  0.00000000000E+00 0. -1.
         22   -1    0    0    0    0 -0.00000000000E+00 -0.00000000000E+00 -0.30047209089E+03  0.30047209089E+03  0.00000000000E+00 0.  1.
         25    2    1    2    0    0 -0.22054849166E+03 -0.86722699843E+02 -0.87946280779E+02  0.28203756256E+03  0.12509266387E+03 0.  0.
        -24    2    1    2    0    0  0.14551435298E+03  0.14857978409E+03  0.14398967383E+03  0.26604574907E+03  0.82443527745E+02 0.  0.
         24    2    1    2    0    0  0.75034138679E+02 -0.61857084248E+02  0.19224414815E+02  0.12812867800E+03  0.81184722472E+02 0.  0.
        -13    1    5    5    0    0  0.56813410619E+02 -0.67221114841E+02 -0.14715349923E+02  0.89235550259E+02  0.00000000000E+00 0.  1.
         14    1    5    5    0    0  0.18220728059E+02  0.53640305931E+01  0.33939764738E+02  0.38893127744E+02  0.00000000000E+00 0. -1.
         13    1    4    4    0    0  0.74510096166E+02  0.11521427614E+03  0.12434766084E+03  0.18517133853E+03  0.00000000000E+00 0. -1.
        -14    1    4    4    0    0  0.71004256811E+02  0.33365507946E+02  0.19642012992E+02  0.80874410540E+02  0.00000000000E+00 0.  1.
          5    1    3    3  501    0 -0.10964183496E+03 -0.33398386457E+02 -0.10769941642E+03  0.15733219915E+03  0.41800000000E+01 0. -1.
         -5    1    3    3    0  501 -0.11090665670E+03 -0.53324313386E+02  0.19753135638E+02  0.12470536342E+03  0.41800000000E+01 0. -1.
</event>
<event>
11    1  0.1704459E-009  0.1570192E+03  0.7561462E-02  0.1089915E+00
         22   -1    0    0    0    0  0.00000000000E+00  0.00000000000E+00  0.82239404961E+03  0.82239404961E+03  0.00000000000E+00 0. -1.
         22   -1    0    0    0    0 -0.00000000000E+00 -0.00000000000E+00 -0.87591436478E+02  0.87591436478E+02  0.00000000000E+00 0. -1.
         25    2    1    2    0    0 -0.58303510544E+02 -0.55840794176E+02  0.97955493645E+02  0.17821436183E+03  0.12509031293E+03 0.  0.
        -24    2    1    2    0    0  0.77763843737E+02  0.70577332823E+02  0.53946497403E+02  0.14271394659E+03  0.80178991435E+02 0.  0.
         24    2    1    2    0    0 -0.19460333193E+02 -0.14736538647E+02  0.58290062208E+03  0.58905717767E+03  0.81359407593E+02 0.  0.
        -11    1    5    5    0    0  0.58023934472E+01 -0.16103228441E+02  0.23437853891E+02  0.29022658923E+02  0.00000000000E+00 0.  1.
         12    1    5    5    0    0 -0.25262726641E+02  0.13666897943E+01  0.55946276819E+03  0.56003451875E+03  0.00000000000E+00 0. -1.
         11    1    4    4    0    0  0.33246952576E+02  0.33320491391E+02 -0.17889003718E+02  0.50355053929E+02  0.00000000000E+00 0. -1.
        -12    1    4    4    0    0  0.44516891161E+02  0.37256841432E+02  0.71835501120E+02  0.92358892660E+02  0.00000000000E+00 0.  1.
          5    1    3    3  501    0 -0.83677431156E+02 -0.68112922104E+02  0.10306161371E+03  0.14926637687E+03  0.41800000000E+01 0. -1.
         -5    1    3    3    0  501  0.25373920612E+02  0.12272127928E+02 -0.51061200650E+01  0.28947984959E+02  0.41800000000E+01 0. -1.
</event>
<event>
11    1  0.1704459E-009  0.7555841E+03  0.7561462E-02  0.8954177E-01
         22   -1    0    0    0    0  0.00000000000E+00  0.00000000000E+00  0.41144761720E+03  0.41144761720E+03  0.00000000000E+00 0.  1.
         22   -1    0    0    0    0 -0.00000000000E+00 -0.00000000000E+00 -0.34688946785E+03  0.34688946785E+03  0.00000000000E+00 0.  1.
         25    2    1    2    0    0  0.13299451302E+03  0.19104857403E+03 -0.22400363209E+03  0.34642921777E+03  0.12509387517E+03 0.  0.
        -24    2    1    2    0    0 -0.11352669473E+03 -0.12058407208E+03  0.13730403614E+03  0.22687668011E+03  0.72054151710E+02 0.  0.
         24    2    1    2    0    0 -0.19467818286E+02 -0.70464501948E+02  0.15125774529E+03  0.18503118717E+03  0.77546068445E+02 0.  0.
        -13    1    5    5    0    0  0.58037619152E+01 -0.79132979479E+02  0.10493922352E+03  0.13155969264E+03  0.00000000000E+00 0.  1.
         14    1    5    5    0    0 -0.25271580201E+02  0.86684775312E+01  0.46318521771E+02  0.53471494533E+02  0.00000000000E+00 0. -1.
         13    1    4    4    0    0 -0.24079460494E+02 -0.65337451640E+02  0.83662507089E+02  0.10884952043E+03  0.00000000000E+00 0. -1.
        -14    1    4    4    0    0 -0.89447234239E+02 -0.55246620441E+02  0.53641529054E+02  0.11802715968E+03  0.00000000000E+00 0.  1.
          5    1    3    3  501    0  0.10771634273E+02  0.21583471420E+02 -0.10101869948E+03  0.10394289004E+03  0.41800000000E+01 0.  1.
         -5    1    3    3    0  501  0.12222287875E+03  0.16946510261E+03 -0.12298493260E+03  0.24248632773E+03  0.41800000000E+01 0.  1.
</event>
<event>
11    1  0.1704459E-009  0.1591014E+03  0.7561462E-02  0.1087926E+00
         22   -1    0    0    0    0  0.00000000000E+00  0.00000000000E+00  0.11798154047E+04  0.11798154047E+04  0.00000000000E+00 0.  1.
         22   -1    0    0    0    0 -0.00000000000E+00 -0.00000000000E+00 -0.11299319739E+03  0.11299319739E+03  0.00000000000E+00 0. -1.
         25    2    1    2    0    0  0.12379335282E+03  0.11287768581E+02  0.46692787390E+02  0.18240915845E+03  0.12506269136E+03 0.  0.
         24    2    1    2    0    0 -0.80889466360E+02  0.16514028247E+02  0.34649837162E+02  0.12040909552E+03  0.80510373067E+02 0.  0.
        -24    2    1    2    0    0 -0.42903886458E+02 -0.27801796829E+02  0.98547958276E+03  0.98999034812E+03  0.79354886182E+02 0.  0.
        -13    1    4    4    0    0 -0.15149102787E+02  0.36324585526E+02  0.33587251953E+02  0.51740451512E+02  0.00000000000E+00 0.  1.
         14    1    4    4    0    0 -0.65740363573E+02 -0.19810557279E+02  0.10625852094E+01  0.68668644007E+02  0.00000000000E+00 0. -1.
         11    1    5    5    0    0 -0.44703699955E+02 -0.23912493648E+02  0.28347909862E+03  0.28797678291E+03  0.00000000000E+00 0. -1.
        -12    1    5    5    0    0  0.17998134970E+01 -0.38893031804E+01  0.70200048413E+03  0.70201356521E+03  0.00000000000E+00 0.  1.
          5    1    3    3  501    0  0.25060978214E+02 -0.13070020736E+02 -0.39696833475E+02  0.48910009804E+02  0.41800000000E+01 0. -1.
         -5    1    3    3    0  501  0.98732374603E+02  0.24357789317E+02  0.86389620864E+02  0.13349914864E+03  0.41800000000E+01 0. -1.
</event>
<event>
11    1  0.1704459E-009  0.3647437E+03  0.7561462E-02  0.9759923E-01
         22   -1    0    0    0    0  0.00000000000E+00  0.00000000000E+00  0.55150860274E+03  0.55150860274E+03  0.00000000000E+00 0.  1.
         22   -1    0    0    0    0 -0.00000000000E+00 -0.00000000000E+00 -0.60306379035E+02  0.60306379035E+02  0.00000000000E+00 0.  1.
         25    2    1    2    0    0  0.10346464532E+03  0.24245153801E+01  0.19567597613E+03  0.25425766290E+03  0.12508821050E+03 0.  0.
         24    2    1    2    0    0 -0.82942926466E+02 -0.14829871098E+02  0.16431111260E+03  0.20024035643E+03  0.77450658438E+02 0.  0.
        -24    2    1    2    0    0 -0.20521718850E+02  0.12405355718E+02  0.13121513497E+03  0.15731696243E+03  0.83403724309E+02 0.  0.
        -13    1    4    4    0    0 -0.67889468554E+02 -0.36753134642E+02  0.77267068626E+02  0.10922441458E+03  0.00000000000E+00 0.  1.
         14    1    4    4    0    0 -0.15053457912E+02  0.21923263544E+02  0.87044043976E+02  0.91015941852E+02  0.00000000000E+00 0. -1.
         13    1    5    5    0    0 -0.44396629569E+02 -0.15446921890E+02  0.52475460220E+02  0.70450990328E+02  0.00000000000E+00 0. -1.
        -14    1    5    5    0    0  0.23874910719E+02  0.27852277608E+02  0.78739674753E+02  0.86865972106E+02  0.00000000000E+00 0.  1.
          5    1    3    3  501    0 -0.62806931351E+01  0.16042783670E+02 -0.10250624917E+02  0.20478420968E+02  0.41800000000E+01 0. -1.
         -5    1    3    3    0  501  0.10974533845E+03 -0.13618268290E+02  0.20592660104E+03  0.23377924194E+03  0.41800000000E+01 0. -1.
</event>
<event>
11    1  0.1704459E-009  0.1613447E+03  0.7561462E-02  0.1085819E+00
         22   -1    0    0    0    0  0.00000000000E+00  0.00000000000E+00  0.18338315669E+04  0.18338315669E+04  0.00000000000E+00 0. -1.
         22   -1    0    0    0    0 -0.00000000000E+00 -0.00000000000E+00 -0.14313862022E+03  0.14313862022E+03  0.00000000000E+00 0. -1.
         25    2    1    2    0    0 -0.53026010040E+01  0.91491804372E+02  0.50170773130E+02  0.16298188244E+03  0.12508844744E+03 0.  0.
         24    2    1    2    0    0  0.96162713132E+02 -0.73835422597E+02 -0.22327934908E+02  0.14662747029E+03  0.79386027362E+02 0.  0.
        -24    2    1    2    0    0 -0.90860112128E+02 -0.17656381775E+02  0.16628501084E+04  0.16673608344E+04  0.80339038074E+02 0.  0.
        -13    1    4    4    0    0  0.53055837611E+02  0.42416407078E+01 -0.21591743921E+02  0.57437938908E+02  0.00000000000E+00 0.  1.
         14    1    4    4    0    0  0.43106875522E+02 -0.78077063304E+02 -0.73619098650E+00  0.89189531385E+02  0.00000000000E+00 0. -1.
         11    1    5    5    0    0 -0.87721183077E+02  0.12345326839E+02  0.13967581297E+04  0.13995644630E+04  0.00000000000E+00 0. -1.
        -12    1    5    5    0    0 -0.31389290512E+01 -0.30001708614E+02  0.26609197870E+03  0.26779637138E+03  0.00000000000E+00 0.  1.
          5    1    3    3  501    0  0.30260024088E+02  0.78754985931E+02  0.78706298348E+02  0.11545635828E+03  0.41800000000E+01 0. -1.
         -5    1    3    3    0  501 -0.35562625092E+02  0.12736818440E+02 -0.28535525218E+02  0.47525524162E+02  0.41800000000E+01 0. -1.
</event>
<event>
11    1  0.1704459E-009  0.1278147E+03  0.7561462E-02  0.1121984E+00
         22   -1    0    0    0    0  0.00000000000E+00  0.00000000000E+00  0.55893263535E+02  0.55893263535E+02  0.00000000000E+00 0.  1.
         22   -1    0    0    0    0 -0.00000000000E+00 -0.00000000000E+00 -0.69323083382E+03  0.69323083382E+03  0.00000000000E+00 0. -1.
         25    2    1    2    0    0 -0.14461174507E+02 -0.21891863807E+02 -0.44992159241E+03  0.46772430773E+03  0.12509280338E+03 0.  0.
        -24    2    1    2    0    0  0.46704598904E+02 -0.26885251778E+02 -0.13812733653E+03  0.17091391267E+03  0.85019222091E+02 0.  0.
         24    2    1    2    0    0 -0.32243424397E+02  0.48777115585E+02 -0.49288641337E+02  0.11048587695E+03  0.79742795401E+02 0.  0.
        -11    1    5    5    0    0 -0.45240487202E+02  0.55400407910E+02 -0.14802198855E+02  0.73041166268E+02  0.00000000000E+00 0.  1.
         12    1    5    5    0    0  0.12997062805E+02 -0.66232923252E+01 -0.34486442482E+02  0.37444710679E+02  0.00000000000E+00 0. -1.
         13    1    4    4    0    0  0.26850305596E+02 -0.33135467311E+02 -0.14326173506E+03  0.14947515792E+03  0.00000000000E+00 0. -1.
        -14    1    4    4    0    0  0.19854293307E+02  0.62502155327E+01  0.51343985242E+01  0.21438754748E+02  0.00000000000E+00 0.  1.
          5    1    3    3  501    0  0.27119019574E+02 -0.55592749407E+02 -0.33744109645E+03  0.34308885290E+03  0.41800000000E+01 0.  1.
         -5    1    3    3    0  501 -0.41580194081E+02  0.33700885600E+02 -0.11248049596E+03  0.12463545484E+03  0.41800000000E+01 0.  1.
</event>
<event>
11    1  0.1704459E-009  0.1414659E+04  0.7561462E-02  0.8361354E-01
         22   -1    0    0    0    0  0.00000000000E+00  0.00000000000E+00  0.29865953784E+04  0.29865953784E+04  0.00000000000E+00 0. -1.
         22   -1    0    0    0    0 -0.00000000000E+00 -0.00000000000E+00 -0.21819583380E+04  0.21819583380E+04  0.00000000000E+00 0. -1.
         25    2    1    2    0    0  0.56013466453E+03 -0.56877702584E+03 -0.11130253123E+04  0.13754017641E+04  0.12508604689E+03 0.  0.
        -24    2    1    2    0    0 -0.15211973331E+04  0.12811956645E+04  0.77237506281E+03  0.21350775328E+04  0.80555423699E+02 0.  0.
         24    2    1    2    0    0  0.96106266859E+03 -0.71241863866E+03  0.11452872899E+04  0.16580744195E+04  0.79662002048E+02 0.  0.
        -11    1    5    5    0    0  0.29892923785E+03 -0.18053927256E+03  0.31328571509E+03  0.46914929123E+03  0.00000000000E+00 0.  1.
         12    1    5    5    0    0  0.66213343073E+03 -0.53187936609E+03  0.83200157485E+03  0.11889251283E+04  0.00000000000E+00 0. -1.
         13    1    4    4    0    0 -0.52642461557E+03  0.47795003579E+03  0.30628212198E+03  0.77418851117E+03  0.00000000000E+00 0. -1.
        -14    1    4    4    0    0 -0.99477271755E+03  0.80324562871E+03  0.46609294083E+03  0.13608890216E+04  0.00000000000E+00 0.  1.
          5    1    3    3  501    0  0.15758511265E+03 -0.88976878005E+02 -0.27381733717E+03  0.32824283554E+03  0.41800000000E+01 0. -1.
         -5    1    3    3    0  501  0.40254955188E+03 -0.47980014784E+03 -0.83920797518E+03  0.10471589285E+04  0.41800000000E+01 0. -1.
</event>
<event>
11    1  0.1704459E-009  0.1370386E+04  0.7561462E-02  0.8389484E-01
         22   -1    0    0    0    0  0.00000000000E+00  0.00000000000E+00  0.11962271687E+04  0.11962271687E+04  0.00000000000E+00 0.  1.
         22   -1    0    0    0    0 -0.00000000000E+00 -0.00000000000E+00 -0.39247535291E+03  0.39247535291E+03  0.00000000000E+00 0.  1.
         25    2    1    2    0    0  0.36746316003E+03  0.39595545819E+03 -0.35201879578E+02  0.55560436627E+03  0.12508853119E+03 0.  0.
        -24    2    1    2    0    0 -0.26633011648E+03 -0.23387661194E+03  0.68278032557E+03  0.77305723716E+03  0.76148003108E+02 0.  0.
         24    2    1    2    0    0 -0.10113304356E+03 -0.16207884625E+03  0.15617336977E+03  0.26004091817E+03  0.82059202993E+02 0.  0.
        -11    1    5    5    0    0 -0.50817898988E+02 -0.19146537164E+02  0.58179274410E+02  0.79585656458E+02  0.00000000000E+00 0.  1.
         12    1    5    5    0    0 -0.50315144568E+02 -0.14293230909E+03  0.97994095360E+02  0.18045526171E+03  0.00000000000E+00 0. -1.
         13    1    4    4    0    0 -0.20097543467E+03 -0.17611171537E+03  0.57758107090E+03  0.63640109609E+03  0.00000000000E+00 0. -1.
        -14    1    4    4    0    0 -0.65354681810E+02 -0.57764896570E+02  0.10519925466E+03  0.13665614107E+03  0.00000000000E+00 0.  1.
          5    1    3    3  501    0  0.15415064580E+03  0.11970321984E+03  0.38210575546E+02  0.19891908637E+03  0.41800000000E+01 0.  1.
         -5    1    3    3    0  501  0.21331251423E+03  0.27625223836E+03 -0.73412455125E+02  0.35668527989E+03  0.41800000000E+01 0.  1.
</event>
<event>
11    1  0.1704459E-009  0.4390121E+03  0.7561462E-02  0.9541183E-01
         22   -1    0    0    0    0  0.00000000000E+00  0.00000000000E+00  0.52896707704E+03  0.52896707704E+03  0.00000000000E+00 0.  1.
         22   -1    0    0    0    0 -0.00000000000E+00 -0.00000000000E+00 -0.31462012444E+03  0.31462012444E+03  0.00000000000E+00 0. -1.
         25    2    1    2    0    0 -0.13895633375E+03 -0.46556953254E+02 -0.18394959090E+02  0.19355260902E+03  0.12509126809E+03 0.  0.
         24    2    1    2    0    0 -0.21322380888E+03  0.75825436820E+02  0.56375640466E+02  0.24709937466E+03  0.81645566793E+02 0.  0.
        -24    2    1    2    0    0  0.35218014263E+03 -0.29268483566E+02  0.17636627123E+03  0.40293521781E+03  0.79776131348E+02 0.  0.
        -13    1    4    4    0    0 -0.58681888095E+02 -0.15824692192E+02  0.17790696852E+02  0.63328459383E+02  0.00000000000E+00 0.  1.
         14    1    4    4    0    0 -0.15454192078E+03  0.91650129012E+02  0.38584943615E+02  0.18377091527E+03  0.00000000000E+00 0. -1.
         11    1    5    5    0    0  0.98747229392E+01 -0.17120915181E+02  0.93681073642E+01  0.21872295840E+02  0.00000000000E+00 0. -1.
        -12    1    5    5    0    0  0.34230541969E+03 -0.12147568385E+02  0.16699816386E+03  0.38106292197E+03  0.00000000000E+00 0.  1.
          5    1    3    3  501    0 -0.88816586612E+02  0.92167186232E+01 -0.60023955233E+02  0.10767395953E+03  0.41800000000E+01 0. -1.
         -5    1    3    3    0  501 -0.50139747140E+02 -0.55773671877E+02  0.41628996143E+02  0.85878649487E+02  0.41800000000E+01 0. -1.
</event>
<event>
11    1  0.1704459E-009  0.5796268E+03  0.7561462E-02  0.9231318E-01
         22   -1    0    0    0    0  0.00000000000E+00  0.00000000000E+00  0.21566152982E+04  0.21566152982E+04  0.00000000000E+00 0.  1.
         22   -1    0    0    0    0 -0.00000000000E+00 -0.00000000000E+00 -0.11609768081E+04  0.11609768081E+04  0.00000000000E+00 0. -1.
         25    2    1    2    0    0  0.21688870341E+03  0.22815348720E+02 -0.82593022416E+03  0.86334793638E+03  0.12509066414E+03 0.  0.
        -24    2    1    2    0    0  0.37301022291E+03  0.11458131432E+03 -0.12205147462E+03  0.41672433040E+03  0.80604597271E+02 0.  0.
         24    2    1    2    0    0 -0.58989892632E+03 -0.13739666304E+03  0.19436201889E+04  0.20375198395E+04  0.83480964283E+02 0.  0.
        -13    1    5    5    0    0 -0.52921179973E+03 -0.14791620614E+03  0.17669895601E+04  0.18504584400E+04  0.00000000000E+00 0.  1.
         14    1    5    5    0    0 -0.60687126599E+02  0.10519543091E+02  0.17663062888E+03  0.18706139949E+03  0.00000000000E+00 0. -1.
         13    1    4    4    0    0  0.45985107502E+02 -0.49500190950E+01 -0.34497899055E+02  0.57699548007E+02  0.00000000000E+00 0. -1.
        -14    1    4    4    0    0  0.32702511541E+03  0.11953133342E+03 -0.87553575566E+02  0.35902478239E+03  0.00000000000E+00 0.  1.
          5    1    3    3  501    0  0.20252935757E+03  0.39519720807E+01 -0.80882745796E+03  0.83381837825E+03  0.41800000000E+01 0. -1.
         -5    1    3    3    0  501  0.14359345843E+02  0.18863376639E+02 -0.17102766203E+02  0.29529558126E+02  0.41800000000E+01 0. -1.
</event>
<event>
11    1  0.1704459E-009  0.2976715E+03  0.7561462E-02  0.1001182E+00
         22   -1    0    0    0    0  0.00000000000E+00  0.00000000000E+00  0.39500861184E+03  0.39500861184E+03  0.00000000000E+00 0.  1.
         22   -1    0    0    0    0 -0.00000000000E+00 -0.00000000000E+00 -0.71587455223E+03  0.71587455223E+03  0.00000000000E+00 0.  1.
         25    2    1    2    0    0  0.26911880566E+03 -0.86346060300E+02 -0.55617633215E+03  0.63628701145E+03  0.12509386397E+03 0.  0.
         24    2    1    2    0    0 -0.14647402618E+02 -0.37177634673E+00 -0.29555486199E+02  0.88432061072E+02  0.82048875921E+02 0.  0.
        -24    2    1    2    0    0 -0.25447140304E+03  0.86717836647E+02  0.26486587795E+03  0.38616409155E+03  0.81811332600E+02 0.  0.
        -11    1    4    4    0    0  0.22815315705E+01  0.34410931446E+02  0.70213677060E+01  0.35193993717E+02  0.00000000000E+00 0.  1.
         12    1    4    4    0    0 -0.16928934188E+02 -0.34782707792E+02 -0.36576853905E+02  0.53238067355E+02  0.00000000000E+00 0. -1.
         11    1    5    5    0    0 -0.32096215806E+02  0.16976473213E+02  0.42733151805E+01  0.36559936194E+02  0.00000000000E+00 0. -1.
        -12    1    5    5    0    0 -0.22237518724E+03  0.69741363433E+02  0.26059256277E+03  0.34960415536E+03  0.00000000000E+00 0.  1.
          5    1    3    3  501    0  0.20671915502E+03 -0.76379642663E+02 -0.29921264795E+03  0.37163468617E+03  0.41800000000E+01 0. -1.
         -5    1    3    3    0  501  0.62399650636E+02 -0.99664176366E+01 -0.25696368419E+03  0.26465232528E+03  0.41800000000E+01 0. -1.
</event>
<event>
11    1  0.1704459E-009  0.1454992E+04  0.7561462E-02  0.8336643E-01
         22   -1    0    0    0    0  0.00000000000E+00  0.00000000000E+00  0.31138238721E+04  0.31138238721E+04  0.00000000000E+00 0.  1.
         22   -1    0    0    0    0 -0.00000000000E+00 -0.00000000000E+00 -0.16996798720E+03  0.16996798720E+03  0.00000000000E+00 0.  1.
         25    2    1    2    0    0 -0.57139848963E+02  0.31337483577E+03  0.25039202821E+02  0.34313747561E+03  0.12509042912E+03 0.  0.
        -24    2    1    2    0    0  0.34709539737E+02 -0.17719094351E+03  0.14925999540E+04  0.15055634129E+04  0.79152922080E+02 0.  0.
         24    2    1    2    0    0  0.22430309226E+02 -0.13618389226E+03  0.14262167281E+04  0.14350909708E+04  0.79641494308E+02 0.  0.
        -11    1    5    5    0    0 -0.29041938226E+02 -0.64674345442E+02  0.68315095896E+03  0.68681980014E+03  0.00000000000E+00 0.  1.
         12    1    5    5    0    0  0.51472247452E+02 -0.71509546819E+02  0.74306576918E+03  0.74827117068E+03  0.00000000000E+00 0. -1.
         11    1    4    4    0    0 -0.21059542309E+02 -0.16384468422E+02  0.17717322750E+03  0.17917116864E+03  0.00000000000E+00 0. -1.
        -12    1    4    4    0    0  0.55769082045E+02 -0.16080647509E+03  0.13154267265E+04  0.13263922443E+04  0.00000000000E+00 0.  1.
          5    1    3    3  501    0 -0.61744552083E+02  0.83567324676E+02 -0.26987567458E+02  0.10743225150E+03  0.41800000000E+01 0.  1.
         -5    1    3    3    0  501  0.46047031197E+01  0.22980751109E+03  0.52026770279E+02  0.23570522411E+03  0.41800000000E+01 0.  1.
</event>
<event>
11    1  0.1704459E-009  0.7312691E+03  0.7561462E-02  0.8987453E-01
         22   -1    0    0    0    0  0.00000000000E+00  0.00000000000E+00  0.23943940238E+04  0.23943940238E+04  0.00000000000E+00 0. -1.
         22   -1    0    0    0    0 -0.00000000000E+00 -0.00000000000E+00 -0.25758394872E+03  0.25758394872E+03  0.00000000000E+00 0. -1.
         25    2    1    2    0    0  0.68215206391E+03  0.23918137778E+03  0.81978159449E+03  0.11001036658E+04  0.12508814140E+03 0.  0.
         24    2    1    2    0    0 -0.68022589505E+03 -0.22861766460E+03  0.10631644825E+04  0.12852671012E+04  0.81360307481E+02 0.  0.
        -24    2    1    2    0    0 -0.19261688576E+01 -0.10563713178E+02  0.25386399810E+03  0.26660720555E+03  0.80728993285E+02 0.  0.
        -13    1    4    4    0    0 -0.75413721382E+02 -0.67232836988E+01  0.14583168321E+03  0.16431467295E+03  0.00000000000E+00 0.  1.
         14    1    4    4    0    0 -0.60481217367E+03 -0.22189438091E+03  0.91733279932E+03  0.11209524283E+04  0.00000000000E+00 0. -1.
         11    1    5    5    0    0 -0.23640151596E+02  0.80573412475E+01  0.22919994700E+02  0.33898431712E+02  0.00000000000E+00 0. -1.
        -12    1    5    5    0    0  0.21713982739E+02 -0.18621054426E+02  0.23094400340E+03  0.23270877384E+03  0.00000000000E+00 0.  1.
          5    1    3    3  501    0  0.50897811365E+03  0.11892480578E+03  0.57940560507E+03  0.78033977035E+03  0.41800000000E+01 0. -1.
         -5    1    3    3    0  501  0.17317395026E+03  0.12025657200E+03  0.24037598942E+03  0.31976389547E+03  0.41800000000E+01 0. -1.
</event>
<event>
11    1  0.1704459E-009  0.2146481E+03  0.7561462E-02  0.1044623E+00
         22   -1    0    0    0    0  0.00000000000E+00  0.00000000000E+00  0.29909380988E+04  0.29909380988E+04  0.00000000000E+00 0. -1.
         22   -1    0    0    0    0 -0.00000000000E+00 -0.00000000000E+00 -0.35558867535E+02  0.35558867535E+02  0.00000000000E+00 0. -1.
         25    2    1    2    0    0 -0.50759456230E+02  0.14305178646E+03  0.58883168087E+03  0.62081489362E+03  0.12509215700E+03 0.  0.
         24    2    1    2    0    0  0.19369160691E+03 -0.16332041511E+03  0.15282807513E+04  0.15511786662E+04  0.79518569975E+02 0.  0.
        -24    2    1    2    0    0 -0.14293215068E+03  0.20268628649E+02  0.83826679903E+03  0.85450340649E+03  0.81513362937E+02 0.  0.
        -11    1    4    4    0    0  0.48070525457E+02 -0.39131921886E+02  0.61155440574E+03  0.61468762303E+03  0.00000000000E+00 0.  1.
         12    1    4    4    0    0  0.14562108146E+03 -0.12418849322E+03  0.91672634559E+03  0.93649104315E+03  0.00000000000E+00 0. -1.
         11    1    5    5    0    0 -0.13754166576E+03  0.40868685571E+02  0.75795285145E+03  0.77141459949E+03  0.00000000000E+00 0. -1.
        -12    1    5    5    0    0 -0.53904849203E+01 -0.20600056922E+02  0.80313947580E+02  0.83088807000E+02  0.00000000000E+00 0.  1.
          5    1    3    3  501    0 -0.78347337529E+02  0.49993763445E+02  0.36763319997E+03  0.37922199804E+03  0.41800000000E+01 0. -1.
         -5    1    3    3    0  501  0.27587881300E+02  0.93058023011E+02  0.22119848090E+03  0.24159289558E+03  0.41800000000E+01 0. -1.
</event>
<event>
11    1  0.1704459E-009  0.1405575E+03  0.7561462E-02  0.1106937E+00
         22   -1    0    0    0    0  0.00000000000E+00  0.00000000000E+00  0.21400526396E+03  0.21400526396E+03  0.00000000000E+00 0. -1.
         22   -1    0    0    0    0 -0.00000000000E+00 -0.00000000000E+00 -0.30480854905E+03  0.30480854905E+03  0.00000000000E+00 0. -1.
         25    2    1    2    0    0  0.64673643788E+02  0.18025900725E+02 -0.10876467309E+03  0.17884390502E+03  0.12509106664E+03 0.  0.
        -24    2    1    2    0    0 -0.35933569684E+02  0.41629732866E+02 -0.12642756172E+03  0.16106770237E+03  0.83274367573E+02 0.  0.
         24    2    1    2    0    0 -0.28740074104E+02 -0.59655633591E+02  0.14438894973E+03  0.17890220562E+03  0.82298504818E+02 0.  0.
        -13    1    5    5    0    0 -0.16620135599E+02 -0.20805932990E+02 -0.22468575445E+01  0.26723849344E+02  0.00000000000E+00 0.  1.
         14    1    5    5    0    0 -0.12119938504E+02 -0.38849700601E+02  0.14663580727E+03  0.15217835628E+03  0.00000000000E+00 0. -1.
         13    1    4    4    0    0 -0.59704594716E+02  0.10909604848E+02 -0.82664474881E+02  0.10255278405E+03  0.00000000000E+00 0. -1.
        -14    1    4    4    0    0  0.23771025032E+02  0.30720128018E+02 -0.43763086842E+02  0.58514918324E+02  0.00000000000E+00 0.  1.
          5    1    3    3  501    0  0.68030344183E+02  0.64757395927E+02 -0.62696254614E+02  0.11300416275E+03  0.41800000000E+01 0. -1.
         -5    1    3    3    0  501 -0.33567003948E+01 -0.46731495202E+02 -0.46068418474E+02  0.65839742269E+02  0.41800000000E+01 0. -1.
</event>
<event>
11    1  0.1704459E-009  0.1882700E+03  0.7561462E-02  0.1063143E+00
         22   -1    0    0    0    0  0.00000000000E+00  0.00000000000E+00  0.11073091690E+03  0.11073091690E+03  0.00000000000E+00 0. -1.
         22   -1    0    0    0    0 -0.00000000000E+00 -0.00000000000E+00 -0.86965197654E+03  0.86965197654E+03  0.00000000000E+00 0.  1.
         25    2    1    2    0    0  0.39562939587E+01 -0.81194020284E+01 -0.23611872196E+03  0.26735827134E+03  0.12508723934E+03 0.  0.
        -24    2    1    2    0    0  0.72540926412E+02  0.15862526479E+03 -0.48579288368E+03  0.52204479844E+03  0.78178546381E+02 0.  0.
         24    2    1    2    0    0 -0.76497220370E+02 -0.15050586276E+03 -0.37009454008E+02  0.19097982366E+03  0.81238869459E+02 0.  0.
        -13    1    5    5    0    0 -0.14394700088E+02 -0.19722132436E+02  0.23662750029E+02  0.34001406403E+02  0.00000000000E+00 0.  1.
         14    1    5    5    0    0 -0.62102520282E+02 -0.13078373032E+03 -0.60672204037E+02  0.15697841726E+03  0.00000000000E+00 0. -1.
         13    1    4    4    0    0  0.61380853205E+02  0.61247937648E+02 -0.16206362728E+03  0.18380298772E+03  0.00000000000E+00 0. -1.
        -14    1    4    4    0    0  0.11160073207E+02  0.97377327140E+02 -0.32372925639E+03  0.33824181072E+03  0.00000000000E+00 0.  1.
          5    1    3    3  501    0 -0.14136929341E+02 -0.17985674700E+02  0.62488202360E+01  0.24080228818E+02  0.41800000000E+01 0.  1.
         -5    1    3    3    0  501  0.18093223299E+02  0.98662726713E+01 -0.24236754219E+03  0.24327804253E+03  0.41800000000E+01 0.  1.
</event>
<event>
11    1  0.1704459E-009  0.1621427E+03  0.7561462E-02  0.1085079E+00
         22   -1    0    0    0    0  0.00000000000E+00  0.00000000000E+00  0.15540034263E+03  0.15540034263E+03  0.00000000000E+00 0. -1.
         22   -1    0    0    0    0 -0.00000000000E+00 -0.00000000000E+00 -0.35185561268E+03  0.35185561268E+03  0.00000000000E+00 0. -1.
         25    2    1    2    0    0 -0.21811391214E+02 -0.29036664338E+02 -0.11484913296E+03  0.17365678912E+03  0.12508993725E+03 0.  0.
         24    2    1    2    0    0 -0.24185918630E+02 -0.12193375452E+03 -0.57122963158E+02  0.15805846989E+03  0.79162161626E+02 0.  0.
        -24    2    1    2    0    0  0.45997309844E+02  0.15097041885E+03 -0.24483173938E+02  0.17554069630E+03  0.72851152157E+02 0.  0.
        -11    1    4    4    0    0 -0.51226973582E+01  0.67122978855E+01  0.88492485922E+01  0.12231360177E+02  0.00000000000E+00 0.  1.
         12    1    4    4    0    0 -0.19063221272E+02 -0.12864605240E+03 -0.65972211750E+02  0.14582710971E+03  0.00000000000E+00 0. -1.
         13    1    5    5    0    0  0.25956792549E+01  0.11363697509E+03 -0.10237681794E+01  0.11367122661E+03  0.00000000000E+00 0. -1.
        -14    1    5    5    0    0  0.43401630590E+02  0.37333443763E+02 -0.23459405758E+02  0.61869469689E+02  0.00000000000E+00 0.  1.
          5    1    3    3  501    0  0.32860626215E+02 -0.49231698184E+02 -0.20693363723E+02  0.62843206184E+02  0.41800000000E+01 0.  1.
         -5    1    3    3    0  501 -0.54672017430E+02  0.20195033845E+02 -0.94155769239E+02  0.11081358294E+03  0.41800000000E+01 0.  1.
</event>
<event>
11    1  0.1704459E-009  0.2433452E+03  0.7561462E-02  0.1027505E+00
         22   -1    0    0    0    0  0.00000000000E+00  0.00000000000E+00  0.41971160697E+03  0.41971160697E+03  0.00000000000E+00 0. -1.
         22   -1    0    0    0    0 -0.00000000000E+00 -0.00000000000E+00 -0.49584771995E+03  0.49584771995E+03  0.00000000000E+00 0.  1.
         25    2    1    2    0    0  0.17455441856E+03 -0.14423051742E+03 -0.30214331439E+03  0.39775652831E+03  0.12509191098E+03 0.  0.
         24    2    1    2    0    0 -0.11097004256E+03  0.14769728679E+03 -0.63096599625E+02  0.21083198794E+03  0.79624791252E+02 0.  0.
        -24    2    1    2    0    0 -0.63584376000E+02 -0.34667693717E+01  0.28910380103E+03  0.30697081067E+03  0.81210094632E+02 0.  0.
        -11    1    4    4    0    0 -0.39467822936E+02  0.45530647824E+02  0.17017968977E+02  0.62612779899E+02  0.00000000000E+00 0.  1.
         12    1    4    4    0    0 -0.71502219620E+02  0.10216663897E+03 -0.80114568603E+02  0.14821920804E+03  0.00000000000E+00 0. -1.
         13    1    5    5    0    0 -0.35088239752E+02  0.50224465530E+01  0.26842038566E+03  0.27075064723E+03  0.00000000000E+00 0. -1.
        -14    1    5    5    0    0 -0.28496136247E+02 -0.84892159247E+01  0.20683415375E+02  0.36220163440E+02  0.00000000000E+00 0.  1.
          5    1    3    3  501    0  0.19177608898E+03 -0.13471527623E+03 -0.29412475082E+03  0.37610253309E+03  0.41800000000E+01 0.  1.
         -5    1    3    3    0  501 -0.17221670428E+02 -0.95152411918E+01 -0.80185635701E+01  0.21653995220E+02  0.41800000000E+01 0.  1.
</event>
<event>
11    1  0.1704459E-009  0.1875532E+03  0.7561462E-02  0.1063692E+00
         22   -1    0    0    0    0  0.00000000000E+00  0.00000000000E+00  0.16619414241E+03  0.16619414241E+03  0.00000000000E+00 0. -1.
         22   -1    0    0    0    0 -0.00000000000E+00 -0.00000000000E+00 -0.49554776844E+03  0.49554776844E+03  0.00000000000E+00 0. -1.
         25    2    1    2    0    0 -0.37458556279E+02 -0.13472549942E+02 -0.20980778070E+03  0.24749435266E+03  0.12509794848E+03 0.  0.
        -24    2    1    2    0    0 -0.11987819151E+03 -0.69743354638E+02 -0.14247559885E+03  0.21376512766E+03  0.78494058491E+02 0.  0.
         24    2    1    2    0    0  0.15733674779E+03  0.83215904580E+02  0.22929753517E+02  0.20048243053E+03  0.89373890908E+02 0.  0.
        -11    1    5    5    0    0  0.63541905361E+01  0.26994939193E+02 -0.19471750626E+02  0.33885860648E+02  0.00000000000E+00 0.  1.
         12    1    5    5    0    0  0.15098255725E+03  0.56220965387E+02  0.42401504144E+02  0.16659656989E+03  0.00000000000E+00 0. -1.
         13    1    4    4    0    0 -0.12322832716E+03 -0.76123485810E+02 -0.11381210659E+03  0.18420966672E+03  0.00000000000E+00 0. -1.
        -14    1    4    4    0    0  0.33501356514E+01  0.63801311717E+01 -0.28663492256E+02  0.29555460933E+02  0.00000000000E+00 0.  1.
          5    1    3    3  501    0 -0.47881873847E+02 -0.15341856430E+02 -0.22382232305E+03  0.22943833834E+03  0.41800000000E+01 0.  1.
         -5    1    3    3    0  501  0.10423317567E+02  0.18693064874E+01  0.14014542352E+02  0.18056014322E+02  0.41800000000E+01 0.  1.
</event>
<event>
11    1  0.1704459E-009  0.2005895E+03  0.7561462E-02  0.1054108E+00
         22   -1    0    0    0    0  0.00000000000E+00  0.00000000000E+00  0.27014184469E+02  0.27014184469E+02  0.00000000000E+00 0. -1.
         22   -1    0    0    0    0 -0.00000000000E+00 -0.00000000000E+00 -0.31676106442E+04  0.31676106442E+04  0.00000000000E+00 0. -1.
         25    2    1    2    0    0 -0.83278266090E+02 -0.65196173468E+02 -0.18216938285E+04  0.18290440026E+04  0.12509095877E+03 0.  0.
        -24    2    1    2    0    0  0.16677742005E+02 -0.94678356157E+02 -0.86165139529E+03  0.87073035242E+03  0.80536211827E+02 0.  0.
         24    2    1    2    0    0  0.66600524085E+02  0.15987452962E+03 -0.45725123588E+03  0.49485047360E+03  0.76176134573E+02 0.  0.
        -13    1    5    5    0    0  0.53576709312E+02  0.65617353191E+02 -0.13997136517E+03  0.16360954706E+03  0.00000000000E+00 0.  1.
         14    1    5    5    0    0  0.13023814773E+02  0.94257176434E+02 -0.31727987071E+03  0.33124092654E+03  0.00000000000E+00 0. -1.
         13    1    4    4    0    0  0.20814235583E+02 -0.10539898979E+03 -0.83237426981E+03  0.83927891936E+03  0.00000000000E+00 0. -1.
        -14    1    4    4    0    0 -0.41364935783E+01  0.10720633635E+02 -0.29277125486E+02  0.31451433058E+02  0.00000000000E+00 0.  1.
          5    1    3    3  501    0 -0.55583475452E+02  0.29114891687E+02 -0.55988971989E+03  0.56341030386E+03  0.41800000000E+01 0.  1.
         -5    1    3    3    0  501 -0.27694790639E+02 -0.94311065155E+02 -0.12618041086E+04  0.12656336988E+04  0.41800000000E+01 0.  1.
</event>
<event>
11    1  0.1704459E-009  0.1776097E+03  0.7561462E-02  0.1071593E+00
         22   -1    0    0    0    0  0.00000000000E+00  0.00000000000E+00  0.68383433028E+02  0.68383433028E+02  0.00000000000E+00 0.  1.
         22   -1    0    0    0    0 -0.00000000000E+00 -0.00000000000E+00 -0.12015561070E+04  0.12015561070E+04  0.00000000000E+00 0.  1.
         25    2    1    2    0    0  0.11656922119E+03 -0.31354437104E+02 -0.90397523386E+03  0.92053856371E+03  0.12509412372E+03 0.  0.
         24    2    1    2    0    0 -0.13618161935E+03  0.57733648454E+02 -0.19004665895E+03  0.25408464543E+03  0.81010288567E+02 0.  0.
        -24    2    1    2    0    0  0.19612398161E+02 -0.26379211350E+02 -0.39150781187E+02  0.95316330907E+02  0.80448184050E+02 0.  0.
        -13    1    4    4    0    0 -0.10362727129E+03  0.14740064003E+01 -0.11557559704E+03  0.15523692435E+03  0.00000000000E+00 0.  1.
         14    1    4    4    0    0 -0.32554348064E+02  0.56259642054E+02 -0.74471061907E+02  0.98847721084E+02  0.00000000000E+00 0. -1.
         11    1    5    5    0    0 -0.30739047743E+02 -0.43938624224E+01 -0.20868396671E+02  0.37412365105E+02  0.00000000000E+00 0. -1.
        -12    1    5    5    0    0  0.50351445903E+02 -0.21985348928E+02 -0.18282384516E+02  0.57903965802E+02  0.00000000000E+00 0.  1.
          5    1    3    3  501    0  0.88709875106E+01  0.13711483243E+02 -0.49284330375E+03  0.49313151760E+03  0.41800000000E+01 0.  1.
         -5    1    3    3    0  501  0.10769823368E+03 -0.45065920347E+02 -0.41113193011E+03  0.42740704612E+03  0.41800000000E+01 0.  1.
</event>
<event>
11    1  0.1704459E-009  0.5491383E+03  0.7561462E-02  0.9289962E-01
         22   -1    0    0    0    0  0.00000000000E+00  0.00000000000E+00  0.50249009706E+03  0.50249009706E+03  0.00000000000E+00 0.  1.
         22   -1    0    0    0    0 -0.00000000000E+00 -0.00000000000E+00 -0.90206548091E+03  0.90206548091E+03  0.00000000000E+00 0. -1.
         25    2    1    2    0    0 -0.26836527026E+03  0.39978654146E+03 -0.26282163113E+03  0.56264748852E+03  0.12509112492E+03 0.  0.
        -24    2    1    2    0    0  0.41578946779E+03 -0.45962951393E+03 -0.19475133990E+03  0.65462484521E+03  0.80407909843E+02 0.  0.
         24    2    1    2    0    0 -0.14742419753E+03  0.59842972478E+02  0.57997587178E+02  0.18728324425E+03  0.79976359556E+02 0.  0.
        -11    1    5    5    0    0 -0.46976929616E+02  0.56178717705E+02  0.44948084582E+02  0.85925610541E+02  0.00000000000E+00 0.  1.
         12    1    5    5    0    0 -0.10044726791E+03  0.36642547730E+01  0.13049502596E+02  0.10135763371E+03  0.00000000000E+00 0. -1.
         11    1    4    4    0    0  0.31865772933E+03 -0.29788000333E+03 -0.14147190984E+03  0.45857338139E+03  0.00000000000E+00 0. -1.
        -12    1    4    4    0    0  0.97131738454E+02 -0.16174951060E+03 -0.53279430058E+02  0.19605146381E+03  0.00000000000E+00 0.  1.
          5    1    3    3  501    0 -0.16722000727E+03  0.19931732994E+03 -0.77570931520E+02  0.27152283636E+03  0.41800000000E+01 0. -1.
         -5    1    3    3    0  501 -0.10114526299E+03  0.20046921152E+03 -0.18525069961E+03  0.29112465216E+03  0.41800000000E+01 0. -1.
</event>
<event>
11    1  0.1704459E-009  0.1501528E+03  0.7561462E-02  0.1096723E+00
         22   -1    0    0    0    0  0.00000000000E+00  0.00000000000E+00  0.12283392288E+03  0.12283392288E+03  0.00000000000E+00 0. -1.
         22   -1    0    0    0    0 -0.00000000000E+00 -0.00000000000E+00 -0.21947908632E+04  0.21947908632E+04  0.00000000000E+00 0. -1.
         25    2    1    2    0    0  0.79792891904E+02 -0.26224340565E+02 -0.20832901686E+04  0.20887317513E+04  0.12509108859E+03 0.  0.
         24    2    1    2    0    0 -0.30240719684E+02  0.19231977040E+02 -0.63846874029E+02  0.10788557102E+03  0.79237005518E+02 0.  0.
        -24    2    1    2    0    0 -0.49552172220E+02  0.69923635249E+01  0.75180102300E+02  0.12100746381E+03  0.80538485191E+02 0.  0.
        -11    1    4    4    0    0 -0.76105122491E+01  0.10836433096E+02 -0.78526295692E+02  0.79634962762E+02  0.00000000000E+00 0.  1.
         12    1    4    4    0    0 -0.22630207435E+02  0.83955439438E+01  0.14679421663E+02  0.28250608260E+02  0.00000000000E+00 0. -1.
         13    1    5    5    0    0  0.32780810250E+01 -0.21663520831E+02  0.52289576987E+02  0.56694389594E+02  0.00000000000E+00 0. -1.
        -14    1    5    5    0    0 -0.52830253245E+02  0.28655884356E+02  0.22890525314E+02  0.64313074217E+02  0.00000000000E+00 0.  1.
          5    1    3    3  501    0  0.84633562781E+02 -0.65183058311E+02 -0.12733558467E+04  0.12778357703E+04  0.41800000000E+01 0.  1.
         -5    1    3    3    0  501 -0.48406708768E+01  0.38958717747E+02 -0.80993432187E+03  0.81089598095E+03  0.41800000000E+01 0.  1.
</event>
<event>
11    1  0.1704459E-009  0.1560837E+03  0.7561462E-02  0.1090820E+00
         22   -1    0    0    0    0  0.00000000000E+00  0.00000000000E+00  0.57625267746E+03  0.57625267746E+03  0.00000000000E+00 0.  1.
         22   -1    0    0    0    0 -0.00000000000E+00 -0.00000000000E+00 -0.76701354154E+02  0.76701354154E+02  0.00000000000E+00 0. -1.
         25    2    1    2    0    0  0.35711432457E+02 -0.10665269766E+03  0.10565189590E+03  0.19864714945E+03  0.12509301560E+03 0.  0.
         24    2    1    2    0    0  0.21427759511E+02  0.37136113202E+02  0.92509444068E+02  0.12966794627E+03  0.80109545409E+02 0.  0.
        -24    2    1    2    0    0 -0.57139191969E+02  0.69516584456E+02  0.30138998334E+03  0.32463893590E+03  0.80355919945E+02 0.  0.
        -11    1    4    4    0    0  0.15572330741E+02 -0.24436847880E+02  0.27879084477E+02  0.40210699699E+02  0.00000000000E+00 0.  1.
         12    1    4    4    0    0  0.58554287709E+01  0.61572961082E+02  0.64630359591E+02  0.89457246567E+02  0.00000000000E+00 0. -1.
         13    1    5    5    0    0  0.89680230481E+01  0.33346974338E+01  0.12154799845E+03  0.12192399916E+03  0.00000000000E+00 0. -1.
        -14    1    5    5    0    0 -0.66107215017E+02  0.66181887022E+02  0.17984198489E+03  0.20271493674E+03  0.00000000000E+00 0.  1.
          5    1    3    3  501    0  0.59743432934E+01  0.62853318388E+01  0.77955709151E+02  0.78547839966E+02  0.41800000000E+01 0. -1.
         -5    1    3    3    0  501  0.29737089164E+02 -0.11293802950E+03  0.27696186747E+02  0.12009930949E+03  0.41800000000E+01 0. -1.
</event>
<event>
11    1  0.1704459E-009  0.1385142E+03  0.7561462E-02  0.1109229E+00
         22   -1    0    0    0    0  0.00000000000E+00  0.00000000000E+00  0.13546828409E+03  0.13546828409E+03  0.00000000000E+00 0.  1.
         22   -1    0    0    0    0 -0.00000000000E+00 -0.00000000000E+00 -0.12607049524E+04  0.12607049524E+04  0.00000000000E+00 0.  1.
         25    2    1    2    0    0 -0.49626048062E+02 -0.30879204594E+02 -0.76173381852E+03  0.77414739449E+03  0.12509799435E+03 0.  0.
        -24    2    1    2    0    0  0.60121342442E+02  0.14294672517E+02 -0.47378215857E+03  0.48448875718E+03  0.80255271343E+02 0.  0.
         24    2    1    2    0    0 -0.10495294380E+02  0.16584532078E+02  0.11027930878E+03  0.13753708482E+03  0.79810562259E+02 0.  0.
        -11    1    5    5    0    0  0.21832989642E+01  0.66453648550E+00  0.11629305151E+03  0.11631544279E+03  0.00000000000E+00 0.  1.
         12    1    5    5    0    0 -0.12678593344E+02  0.15919995592E+02 -0.60137427273E+01  0.21221642029E+02  0.00000000000E+00 0. -1.
         13    1    4    4    0    0  0.43607117614E+02  0.32055591287E+02 -0.14430666462E+03  0.15412188389E+03  0.00000000000E+00 0. -1.
        -14    1    4    4    0    0  0.16514224828E+02 -0.17760918770E+02 -0.32947549395E+03  0.33036687330E+03  0.00000000000E+00 0.  1.
          5    1    3    3  501    0 -0.16849052172E+02 -0.19432636839E+01 -0.68871736146E+03  0.68893885303E+03  0.41800000000E+01 0.  1.
         -5    1    3    3    0  501 -0.32776995891E+02 -0.28935940911E+02 -0.73016457055E+02  0.85208541455E+02  0.41800000000E+01 0.  1.
</event>
<event>
11    1  0.1704459E-009  0.4357312E+03  0.7561462E-02  0.9549842E-01
         22   -1    0    0    0    0  0.00000000000E+00  0.00000000000E+00  0.11905853293E+03  0.11905853293E+03  0.00000000000E+00 0. -1.
         22   -1    0    0    0    0 -0.00000000000E+00 -0.00000000000E+00 -0.13087530807E+04  0.13087530807E+04  0.00000000000E+00 0. -1.
         25    2    1    2    0    0 -0.79010073572E+02 -0.83074149283E+02 -0.32569341971E+03  0.36724309205E+03  0.12508948402E+03 0.  0.
        -24    2    1    2    0    0  0.30954204864E+03  0.12540037163E+03 -0.64000665977E+03  0.72637133285E+03  0.80406812897E+02 0.  0.
         24    2    1    2    0    0 -0.23053197506E+03 -0.42326222343E+02 -0.22399446831E+03  0.33419718875E+03  0.81103258296E+02 0.  0.
        -11    1    5    5    0    0 -0.22621154932E+02  0.15291603479E+02 -0.50246592416E+02  0.57186273151E+02  0.00000000000E+00 0.  1.
         12    1    5    5    0    0 -0.20791082013E+03 -0.57617825822E+02 -0.17374787590E+03  0.27701091560E+03  0.00000000000E+00 0. -1.
         13    1    4    4    0    0  0.14276954632E+03  0.48225451662E+02 -0.37250081443E+03  0.40182794116E+03  0.00000000000E+00 0. -1.
        -14    1    4    4    0    0  0.16677250232E+03  0.77174919964E+02 -0.26750584534E+03  0.32454339169E+03  0.00000000000E+00 0.  1.
          5    1    3    3  501    0 -0.79616018965E+02 -0.74999694957E+02 -0.33606246148E+03  0.35343898361E+03  0.41800000000E+01 0.  1.
         -5    1    3    3    0  501  0.60594539295E+00 -0.80744543264E+01  0.10369041774E+02  0.13804108439E+02  0.41800000000E+01 0.  1.
</event>
<event>
11    1  0.1704459E-009  0.2419977E+03  0.7561462E-02  0.1028251E+00
         22   -1    0    0    0    0  0.00000000000E+00  0.00000000000E+00  0.30794600650E+03  0.30794600650E+03  0.00000000000E+00 0. -1.
         22   -1    0    0    0    0 -0.00000000000E+00 -0.00000000000E+00 -0.99927077432E+03  0.99927077432E+03  0.00000000000E+00 0. -1.
         25    2    1    2    0    0  0.10726997921E+03  0.20468369415E+03 -0.74633544556E+03  0.79124358654E+03  0.12509017891E+03 0.  0.
         24    2    1    2    0    0 -0.19201624853E+03 -0.44063417731E+02 -0.12652821623E+03  0.24697745632E+03  0.78591665892E+02 0.  0.
        -24    2    1    2    0    0  0.84746269325E+02 -0.16062027642E+03  0.18153889396E+03  0.26899573795E+03  0.80134472332E+02 0.  0.
        -11    1    4    4    0    0 -0.28594366440E+02 -0.27105659288E+02 -0.55306086179E+02  0.67905211331E+02  0.00000000000E+00 0.  1.
         12    1    4    4    0    0 -0.16342188209E+03 -0.16957758444E+02 -0.71222130051E+02  0.17907224499E+03  0.00000000000E+00 0. -1.
         11    1    5    5    0    0  0.50850879441E+02 -0.11507246891E+03  0.70327591530E+02  0.14412999400E+03  0.00000000000E+00 0. -1.
        -12    1    5    5    0    0  0.33895389883E+02 -0.45547807509E+02  0.11121130243E+03  0.12486574395E+03  0.00000000000E+00 0.  1.
          5    1    3    3  501    0  0.56986884064E+02  0.20407907088E+03 -0.61903794068E+03  0.65430972523E+03  0.41800000000E+01 0.  1.
         -5    1    3    3    0  501  0.50283095141E+02  0.60462326914E+00 -0.12729750487E+03  0.13693386131E+03  0.41800000000E+01 0.  1.
</event>
<event>
11    1  0.1704459E-009  0.2101430E+03  0.7561462E-02  0.1047574E+00
         22   -1    0    0    0    0  0.00000000000E+00  0.00000000000E+00  0.34176438897E+03  0.34176438897E+03  0.00000000000E+00 0. -1.
         22   -1    0    0    0    0 -0.00000000000E+00 -0.00000000000E+00 -0.23519987446E+03  0.23519987446E+03  0.00000000000E+00 0.  1.
         25    2    1    2    0    0  0.76173296431E+02 -0.14341799435E+03 -0.79637066869E+02  0.21991166396E+03  0.12509190755E+03 0.  0.
         24    2    1    2    0    0 -0.11969454445E+03  0.14132105546E+03  0.78739112026E+02  0.21608994293E+03  0.78718428504E+02 0.  0.
        -24    2    1    2    0    0  0.43521248020E+02  0.20969388939E+01  0.10746246935E+03  0.14096265654E+03  0.80148562296E+02 0.  0.
        -13    1    4    4    0    0 -0.95917138584E+01  0.56965016467E+02  0.25137498917E+01  0.57821561846E+02  0.00000000000E+00 0.  1.
         14    1    4    4    0    0 -0.11010283059E+03  0.84356038991E+02  0.76225362135E+02  0.15826838108E+03  0.00000000000E+00 0. -1.
         13    1    5    5    0    0  0.62889301968E+02  0.94027337120E+01  0.10086605283E+03  0.11923689159E+03  0.00000000000E+00 0. -1.
        -14    1    5    5    0    0 -0.19368053948E+02 -0.73057948180E+01  0.65964165197E+01  0.21725764947E+02  0.00000000000E+00 0.  1.
          5    1    3    3  501    0 -0.19454403535E+02 -0.22776142481E+02  0.20209188712E+02  0.36374581669E+02  0.41800000000E+01 0.  1.
         -5    1    3    3    0  501  0.95627699966E+02 -0.12064185187E+03 -0.99846255581E+02  0.18353708229E+03  0.41800000000E+01 0.  1.
</event>
<event>
11    1  0.1704459E-009  0.3318960E+03  0.7561462E-02  0.9875283E-01
         22   -1    0    0    0    0  0.00000000000E+00  0.00000000000E+00  0.36243448610E+03  0.36243448610E+03  0.00000000000E+00 0.  1.
         22   -1    0    0    0    0 -0.00000000000E+00 -0.00000000000E+00 -0.58681493561E+03  0.58681493561E+03  0.00000000000E+00 0. -1.
         25    2    1    2    0    0 -0.30714992895E+03 -0.10538250610E+02 -0.38722214737E+03  0.50994210572E+03  0.12509127145E+03 0.  0.
        -24    2    1    2    0    0  0.30580723490E+03  0.48113289101E+02  0.12167370225E+03  0.34233541744E+03  0.80969714793E+02 0.  0.
         24    2    1    2    0    0  0.13426940526E+01 -0.37575038491E+02  0.41167995609E+02  0.96971898545E+02  0.79341407222E+02 0.  0.
        -11    1    5    5    0    0  0.45038427528E+01 -0.61331843517E+02  0.39193092314E+02  0.72924468554E+02  0.00000000000E+00 0.  1.
         12    1    5    5    0    0 -0.31611487001E+01  0.23756805026E+02  0.19749032950E+01  0.24047429991E+02  0.00000000000E+00 0. -1.
         11    1    4    4    0    0  0.14305822850E+02 -0.97489194069E+01 -0.67561894895E+01  0.18583435997E+02  0.00000000000E+00 0. -1.
        -12    1    4    4    0    0  0.29150141205E+03  0.57862208508E+02  0.12842989174E+03  0.32375198145E+03  0.00000000000E+00 0.  1.
          5    1    3    3  501    0 -0.29727666928E+03  0.21407831293E+02 -0.35025013689E+03  0.45991775800E+03  0.41800000000E+01 0.  1.
         -5    1    3    3    0  501 -0.98732596747E+01 -0.31946081904E+02 -0.36972010480E+02  0.50024347718E+02  0.41800000000E+01 0.  1.
</event>
<event>
11    1  0.1704459E-009  0.1312968E+03  0.7561462E-02  0.1117686E+00
         22   -1    0    0    0    0  0.00000000000E+00  0.00000000000E+00  0.72897893429E+03  0.72897893429E+03  0.00000000000E+00 0.  1.
         22   -1    0    0    0    0 -0.00000000000E+00 -0.00000000000E+00 -0.11090150208E+04  0.11090150208E+04  0.00000000000E+00 0. -1.
         25    2    1    2    0    0 -0.30469806489E+02 -0.28324506965E+02 -0.61978735352E+03  0.63365120154E+03  0.12508714896E+03 0.  0.
         24    2    1    2    0    0 -0.93916421598E+01  0.25896062725E+02 -0.47567339225E+03  0.48328719836E+03  0.80885913421E+02 0.  0.
        -24    2    1    2    0    0  0.39861448649E+02  0.24284442397E+01  0.71542465930E+03  0.72105555515E+03  0.80584353617E+02 0.  0.
        -11    1    4    4    0    0 -0.23861307693E+02  0.72509697165E+01 -0.41106959782E+02  0.48080356791E+02  0.00000000000E+00 0.  1.
         12    1    4    4    0    0  0.14469665533E+02  0.18645093009E+02 -0.43456643247E+03  0.43520684156E+03  0.00000000000E+00 0. -1.
         13    1    5    5    0    0  0.22664876690E+02 -0.15002970716E+02  0.68901997308E+02  0.74069366128E+02  0.00000000000E+00 0. -1.
        -14    1    5    5    0    0  0.17196571959E+02  0.17431414956E+02  0.64652266199E+03  0.64698618902E+03  0.00000000000E+00 0.  1.
          5    1    3    3  501    0  0.44191773351E+02 -0.28821521450E+02 -0.33760935993E+03  0.34173256392E+03  0.41800000000E+01 0. -1.
         -5    1    3    3    0  501 -0.74661579840E+02  0.49701448532E+00 -0.28217799359E+03  0.29191863763E+03  0.41800000000E+01 0. -1.
</event>
<event>
11    1  0.1704459E-009  0.2271733E+03  0.7561462E-02  0.1036815E+00
         22   -1    0    0    0    0  0.00000000000E+00  0.00000000000E+00  0.40512665624E+03  0.40512665624E+03  0.00000000000E+00 0.  1.
         22   -1    0    0    0    0 -0.00000000000E+00 -0.00000000000E+00 -0.23365031555E+03  0.23365031555E+03  0.00000000000E+00 0.  1.
         25    2    1    2    0    0 -0.56192350114E+02 -0.22681570329E+03 -0.69583907889E+01  0.26513006649E+03  0.12507033814E+03 0.  0.
        -24    2    1    2    0    0  0.48886089084E+02  0.14788593465E+03  0.21507747192E+02  0.17863946764E+03  0.84790193037E+02 0.  0.
         24    2    1    2    0    0  0.73062610297E+01  0.78929768642E+02  0.15692698429E+03  0.19500743766E+03  0.84371396310E+02 0.  0.
        -13    1    5    5    0    0 -0.95551853542E+01  0.62297857203E+02  0.37679419687E+02  0.73430669664E+02  0.00000000000E+00 0.  1.
         14    1    5    5    0    0  0.16861446384E+02  0.16631911439E+02  0.11924756460E+03  0.12157676799E+03  0.00000000000E+00 0. -1.
         13    1    4    4    0    0 -0.10619160392E+02  0.78667899249E+02  0.34286510501E+02  0.86469472891E+02  0.00000000000E+00 0. -1.
        -14    1    4    4    0    0  0.59505249476E+02  0.69218035403E+02 -0.12778763308E+02  0.92169994749E+02  0.00000000000E+00 0.  1.
          5    1    3    3  501    0  0.72708253791E+01 -0.53338521804E+02 -0.51987797874E+02  0.74953761331E+02  0.41800000000E+01 0. -1.
         -5    1    3    3    0  501 -0.63463175493E+02 -0.17347718149E+03  0.45029407085E+02  0.19017630516E+03  0.41800000000E+01 0. -1.
</event>
<event>
11    1  0.1704459E-009  0.3691234E+03  0.7561462E-02  0.9745528E-01
         22   -1    0    0    0    0  0.00000000000E+00  0.00000000000E+00  0.14333633632E+04  0.14333633632E+04  0.00000000000E+00 0.  1.
         22   -1    0    0    0    0 -0.00000000000E+00 -0.00000000000E+00 -0.21586177222E+03  0.21586177222E+03  0.00000000000E+00 0.  1.
         25    2    1    2    0    0 -0.88961798383E+02  0.35186614321E+03  0.29075777943E+02  0.38498384980E+03  0.12507269661E+03 0.  0.
        -24    2    1    2    0    0  0.68023579452E+02 -0.28543487208E+03  0.67991292413E+03  0.74565051413E+03  0.87251540106E+02 0.  0.
         24    2    1    2    0    0  0.20938218931E+02 -0.66431271128E+02  0.50851288894E+03  0.51859077153E+03  0.74158663020E+02 0.  0.
        -13    1    5    5    0    0  0.42363147707E+02 -0.19043870455E+02  0.30609783603E+03  0.30960166425E+03  0.00000000000E+00 0.  1.
         14    1    5    5    0    0 -0.21424928777E+02 -0.47387400673E+02  0.20241505291E+03  0.20898910728E+03  0.00000000000E+00 0. -1.
         13    1    4    4    0    0  0.82726433060E+01 -0.24586951392E+02  0.17681620744E+02  0.31394179686E+02  0.00000000000E+00 0. -1.
        -14    1    4    4    0    0  0.59750936146E+02 -0.26084792069E+03  0.66223130339E+03  0.71425633444E+03  0.00000000000E+00 0.  1.
          5    1    3    3  501    0 -0.61699774522E+02  0.51575156032E+02  0.21446806397E+02  0.83332447465E+02  0.41800000000E+01 0.  1.
         -5    1    3    3    0  501 -0.27262023861E+02  0.30029098717E+03  0.76289715458E+01  0.30165140233E+03  0.41800000000E+01 0.  1.
</event>
<event>
11    1  0.1704459E-009  0.3308139E+03  0.7561462E-02  0.9879324E-01
         22   -1    0    0    0    0  0.00000000000E+00  0.00000000000E+00  0.30321960362E+03  0.30321960362E+03  0.00000000000E+00 0.  1.
         22   -1    0    0    0    0 -0.00000000000E+00 -0.00000000000E+00 -0.26177508091E+04  0.26177508091E+04  0.00000000000E+00 0. -1.
         25    2    1    2    0    0 -0.44955133188E+02 -0.40257799924E+02 -0.71547691393E+03  0.72883200349E+03  0.12508885039E+03 0.  0.
         24    2    1    2    0    0  0.47081514590E+02  0.35806119300E+03 -0.17792630745E+04  0.18174994373E+04  0.84277097628E+02 0.  0.
        -24    2    1    2    0    0 -0.21263814024E+01 -0.31780339307E+03  0.18020878299E+03  0.37463897194E+03  0.82919452958E+02 0.  0.
        -11    1    4    4    0    0 -0.32078812547E+01  0.58307430611E+02 -0.16906020804E+03  0.17886140140E+03  0.00000000000E+00 0.  1.
         12    1    4    4    0    0  0.50289395845E+02  0.29975376238E+03 -0.16102028665E+04  0.16386380359E+04  0.00000000000E+00 0. -1.
         11    1    5    5    0    0 -0.31122115372E+02 -0.22767262712E+03  0.15321824854E+03  0.27618697089E+03  0.00000000000E+00 0. -1.
        -12    1    5    5    0    0  0.28995733970E+02 -0.90130765947E+02  0.26990534456E+02  0.98452001041E+02  0.00000000000E+00 0.  1.
          5    1    3    3  501    0 -0.38227539803E+02 -0.19613863400E+02 -0.70116614088E+03  0.70249375653E+03  0.41800000000E+01 0.  1.
         -5    1    3    3    0  501 -0.67275933852E+01 -0.20643936523E+02 -0.14310773045E+02  0.26338246963E+02  0.41800000000E+01 0.  1.
</event>
<event>
11    1  0.1704459E-009  0.9752473E+03  0.7561462E-02  0.8702920E-01
         22   -1    0    0    0    0  0.00000000000E+00  0.00000000000E+00  0.10200698468E+04  0.10200698468E+04  0.00000000000E+00 0.  1.
         22   -1    0    0    0    0 -0.00000000000E+00 -0.00000000000E+00 -0.13621836411E+04  0.13621836411E+04  0.00000000000E+00 0.  1.
         25    2    1    2    0    0 -0.77567314702E+03  0.58391864818E+03 -0.77970861590E+03  0.12514881115E+04  0.12508856338E+03 0.  0.
         24    2    1    2    0    0  0.77108404704E+03 -0.56504004949E+03  0.40115787619E+03  0.10401328924E+04  0.84308522772E+02 0.  0.
        -24    2    1    2    0    0  0.45890999860E+01 -0.18878598698E+02  0.36436945458E+02  0.90632484108E+02  0.80679209551E+02 0.  0.
        -11    1    4    4    0    0  0.62204084280E+03 -0.49497405865E+03  0.32936567976E+03  0.86047421800E+03  0.00000000000E+00 0.  1.
         12    1    4    4    0    0  0.14904320424E+03 -0.70065990840E+02  0.71792196439E+02  0.17965867436E+03  0.00000000000E+00 0. -1.
         11    1    5    5    0    0 -0.25699527595E+02 -0.19184388839E+02  0.48403832904E+02  0.58064081269E+02  0.00000000000E+00 0. -1.
        -12    1    5    5    0    0  0.30288627581E+02  0.30579014095E+00 -0.11966887446E+02  0.32568402839E+02  0.00000000000E+00 0.  1.
          5    1    3    3  501    0 -0.62929227736E+03  0.50524823349E+03 -0.59283385635E+03  0.10013760539E+04  0.41800000000E+01 0. -1.
         -5    1    3    3    0  501 -0.14638086966E+03  0.78670414699E+02 -0.18687475955E+03  0.25011205751E+03  0.41800000000E+01 0. -1.
</event>
<event>
11    1  0.1704459E-009  0.1001647E+04  0.7561462E-02  0.8677449E-01
         22   -1    0    0    0    0  0.00000000000E+00  0.00000000000E+00  0.17880353195E+04  0.17880353195E+04  0.00000000000E+00 0.  1.
         22   -1    0    0    0    0 -0.00000000000E+00 -0.00000000000E+00 -0.78944177319E+03  0.78944177319E+03  0.00000000000E+00 0.  1.
         25    2    1    2    0    0 -0.68501623077E+03 -0.73456958296E+03 -0.68142297174E+02  0.10144601478E+04  0.12508521167E+03 0.  0.
        -24    2    1    2    0    0  0.75547476914E+03  0.61732885886E+03  0.87164259323E+03  0.13107489805E+04  0.80405426722E+02 0.  0.
         24    2    1    2    0    0 -0.70458538368E+02  0.11724072410E+03  0.19509325029E+03  0.25226796448E+03  0.82873135421E+02 0.  0.
        -13    1    5    5    0    0 -0.15419114325E+02 -0.97443857878E+00  0.69588234266E+02  0.71282683489E+02  0.00000000000E+00 0.  1.
         14    1    5    5    0    0 -0.55039424043E+02  0.11821516268E+03  0.12550501603E+03  0.18098528099E+03  0.00000000000E+00 0. -1.
         13    1    4    4    0    0  0.19182040971E+03  0.13146730842E+03  0.24622151576E+03  0.33867943189E+03  0.00000000000E+00 0. -1.
        -14    1    4    4    0    0  0.56365435943E+03  0.48586155044E+03  0.62542107747E+03  0.97206954856E+03  0.00000000000E+00 0.  1.
          5    1    3    3  501    0 -0.82969214260E+02 -0.48036889655E+02  0.16671327387E+02  0.97400404719E+02  0.41800000000E+01 0.  1.
         -5    1    3    3    0  501 -0.60204701651E+03 -0.68653269330E+03 -0.84813624560E+02  0.91705974308E+03  0.41800000000E+01 0.  1.
</event>
<event>
11    1  0.1704459E-009  0.2744898E+03  0.7561462E-02  0.1011606E+00
         22   -1    0    0    0    0  0.00000000000E+00  0.00000000000E+00  0.39977408537E+03  0.39977408537E+03  0.00000000000E+00 0.  1.
         22   -1    0    0    0    0 -0.00000000000E+00 -0.00000000000E+00 -0.64011769361E+03  0.64011769361E+03  0.00000000000E+00 0. -1.
         25    2    1    2    0    0 -0.11946324673E+03  0.12995065208E+03 -0.97340943891E+02  0.23723744775E+03  0.12509079886E+03 0.  0.
         24    2    1    2    0    0  0.30380677691E+03 -0.96355133158E+02 -0.37184915219E+03  0.49618553023E+03  0.79658138602E+02 0.  0.
        -24    2    1    2    0    0 -0.18434353018E+03 -0.33595518923E+02  0.22884648784E+03  0.30646880101E+03  0.80257180278E+02 0.  0.
        -11    1    4    4    0    0  0.17743998478E+03 -0.60506232030E+02 -0.15778965513E+03  0.24503780847E+03  0.00000000000E+00 0.  1.
         12    1    4    4    0    0  0.12636679213E+03 -0.35848901128E+02 -0.21405949706E+03  0.25114772176E+03  0.00000000000E+00 0. -1.
         13    1    5    5    0    0 -0.45550973372E+02 -0.31937888716E+02  0.27878096238E+02  0.62226265842E+02  0.00000000000E+00 0. -1.
        -14    1    5    5    0    0 -0.13879255680E+03 -0.16576302073E+01  0.20096839160E+03  0.24424253517E+03  0.00000000000E+00 0.  1.
          5    1    3    3  501    0 -0.31522461373E+02 -0.23410960418E+02 -0.19176401207E+02  0.43896986251E+02  0.41800000000E+01 0.  1.
         -5    1    3    3    0  501 -0.87940785358E+02  0.15336161250E+03 -0.78164542684E+02  0.19334046149E+03  0.41800000000E+01 0.  1.
</event>
<event>
11    1  0.1704459E-009  0.1291022E+03  0.7561462E-02  0.1120377E+00
         22   -1    0    0    0    0  0.00000000000E+00  0.00000000000E+00  0.30070335781E+04  0.30070335781E+04  0.00000000000E+00 0.  1.
         22   -1    0    0    0    0 -0.00000000000E+00 -0.00000000000E+00 -0.12320307733E+03  0.12320307733E+03  0.00000000000E+00 0.  1.
         25    2    1    2    0    0 -0.19633145890E+01  0.26866347456E+02 -0.29914871475E+01  0.12799280954E+03  0.12509018774E+03 0.  0.
         24    2    1    2    0    0 -0.12822535824E+02 -0.33355857362E+02 -0.22302558882E+02  0.91956815956E+02  0.81741184373E+02 0.  0.
        -24    2    1    2    0    0  0.14785850413E+02  0.64895099055E+01  0.29091245468E+04  0.29102870299E+04  0.80648823661E+02 0.  0.
        -11    1    4    4    0    0 -0.35986974099E+02 -0.14377333776E+02 -0.41188084306E+02  0.56552880741E+02  0.00000000000E+00 0.  1.
         12    1    4    4    0    0  0.23164438275E+02 -0.18978523586E+02  0.18885525424E+02  0.35403935215E+02  0.00000000000E+00 0. -1.
         11    1    5    5    0    0  0.30419797565E+01  0.36319202232E+02  0.71500818800E+03  0.71593648252E+03  0.00000000000E+00 0. -1.
        -12    1    5    5    0    0  0.11743870656E+02 -0.29829692326E+02  0.21941163588E+04  0.21943505474E+04  0.00000000000E+00 0.  1.
          5    1    3    3  501    0  0.61581872995E+01 -0.39899317542E+02  0.32347723156E+02  0.51901121419E+02  0.41800000000E+01 0. -1.
         -5    1    3    3    0  501 -0.81215018886E+01  0.66765664998E+02 -0.35339210304E+02  0.76091688117E+02  0.41800000000E+01 0. -1.
</event>
<event>
11    1  0.1704459E-009  0.1503700E+03  0.7561462E-02  0.1096501E+00
         22   -1    0    0    0    0  0.00000000000E+00  0.00000000000E+00  0.64834287567E+03  0.64834287567E+03  0.00000000000E+00 0. -1.
         22   -1    0    0    0    0 -0.00000000000E+00 -0.00000000000E+00 -0.16313534969E+04  0.16313534969E+04  0.00000000000E+00 0. -1.
         25    2    1    2    0    0  0.28040589753E+02  0.65716339635E+02 -0.77831582080E+03  0.79153511638E+03  0.12508961423E+03 0.  0.
        -24    2    1    2    0    0  0.21092466919E+02 -0.97133832765E+02 -0.83745248256E+03  0.84765515904E+03  0.85514527852E+02 0.  0.
         24    2    1    2    0    0 -0.49133056672E+02  0.31417493130E+02  0.63275768215E+03  0.64050609712E+03  0.80403109312E+02 0.  0.
        -11    1    5    5    0    0  0.21199238285E+02  0.13861379001E+02  0.11951876025E+03  0.12217315410E+03  0.00000000000E+00 0.  1.
         12    1    5    5    0    0 -0.70332294957E+02  0.17556114129E+02  0.51323892190E+03  0.51833294301E+03  0.00000000000E+00 0. -1.
         11    1    4    4    0    0  0.32351745286E+02 -0.91126152065E+02 -0.82175393691E+03  0.82742379941E+03  0.00000000000E+00 0. -1.
        -12    1    4    4    0    0 -0.11259278367E+02 -0.60076806993E+01 -0.15698545651E+02  0.20231359626E+02  0.00000000000E+00 0.  1.
          5    1    3    3  501    0  0.55099161409E+02 -0.15072597530E+02 -0.25875746730E+03  0.26502075403E+03  0.41800000000E+01 0. -1.
         -5    1    3    3    0  501 -0.27058571656E+02  0.80788937165E+02 -0.51955835349E+03  0.52651436234E+03  0.41800000000E+01 0. -1.
</event>
<event>
11    1  0.1704459E-009  0.1136338E+04  0.7561462E-02  0.8559157E-01
         22   -1    0    0    0    0  0.00000000000E+00  0.00000000000E+00  0.23328218414E+03  0.23328218414E+03  0.00000000000E+00 0. -1.
         22   -1    0    0    0    0 -0.00000000000E+00 -0.00000000000E+00 -0.13838016422E+04  0.13838016422E+04  0.00000000000E+00 0. -1.
         25    2    1    2    0    0  0.15152499508E+03  0.28145528854E+03 -0.11780222466E+04  0.12270128476E+04  0.12508881291E+03 0.  0.
        -24    2    1    2    0    0 -0.54078767630E+02 -0.21714651084E+03  0.55633058580E+02  0.24417995676E+03  0.80322436449E+02 0.  0.
         24    2    1    2    0    0 -0.97446227452E+02 -0.64308777698E+02 -0.28130270032E+02  0.14589102198E+03  0.82834123816E+02 0.  0.
        -13    1    5    5    0    0  0.51127499664E+01 -0.36542246871E+02 -0.67788287877E+01  0.37515710554E+02  0.00000000000E+00 0.  1.
         14    1    5    5    0    0 -0.10255897742E+03 -0.27766530826E+02 -0.21351441244E+02  0.10837531142E+03  0.00000000000E+00 0. -1.
         13    1    4    4    0    0 -0.54158895425E+02 -0.20775522156E+03  0.29879784302E+02  0.21676766260E+03  0.00000000000E+00 0. -1.
        -14    1    4    4    0    0  0.80127794628E-01 -0.93912892755E+01  0.25753274279E+02  0.27412294154E+02  0.00000000000E+00 0.  1.
          5    1    3    3  501    0  0.15366992263E+02  0.22436288446E+01 -0.11347481351E+02  0.19682887355E+02  0.41800000000E+01 0. -1.
         -5    1    3    3    0  501  0.13615800282E+03  0.27921165969E+03 -0.11666747653E+04  0.12073299603E+04  0.41800000000E+01 0. -1.
</event>
<event>
11    1  0.1704459E-009  0.2922703E+03  0.7561462E-02  0.1003517E+00
         22   -1    0    0    0    0  0.00000000000E+00  0.00000000000E+00  0.73711359610E+03  0.73711359610E+03  0.00000000000E+00 0. -1.
         22   -1    0    0    0    0 -0.00000000000E+00 -0.00000000000E+00 -0.38838662513E+03  0.38838662513E+03  0.00000000000E+00 0. -1.
         25    2    1    2    0    0  0.18640615846E+03  0.15922777718E+03 -0.16045737010E+03  0.31858367823E+03  0.12509297135E+03 0.  0.
        -24    2    1    2    0    0 -0.37342197340E+03 -0.14723635004E+03  0.41484510069E+03  0.58290168805E+03  0.80965470302E+02 0.  0.
         24    2    1    2    0    0  0.18701581494E+03 -0.11991427136E+02  0.94339240375E+02  0.22401485495E+03  0.78511487083E+02 0.  0.
        -13    1    5    5    0    0  0.16310039251E+03 -0.37095343870E+02  0.68386904349E+02  0.18070575879E+03  0.00000000000E+00 0.  1.
         14    1    5    5    0    0  0.23915422429E+02  0.25103916734E+02  0.25952336026E+02  0.43309096164E+02  0.00000000000E+00 0. -1.
         11    1    4    4    0    0 -0.41826371786E+02 -0.35827701147E+02  0.29557582495E+02  0.62503761720E+02  0.00000000000E+00 0. -1.
        -12    1    4    4    0    0 -0.33159560161E+03 -0.11140864889E+03  0.38528751820E+03  0.52039792633E+03  0.00000000000E+00 0.  1.
          5    1    3    3  501    0  0.14152176612E+03  0.85608100846E+02 -0.39708472197E+02  0.17015108692E+03  0.41800000000E+01 0.  1.
         -5    1    3    3    0  501  0.44884392338E+02  0.73619676329E+02 -0.12074889790E+03  0.14843259131E+03  0.41800000000E+01 0.  1.
</event>
<event>
11    1  0.1704459E-009  0.7755036E+03  0.7561462E-02  0.8927884E-01
         22   -1    0    0    0    0  0.00000000000E+00  0.00000000000E+00  0.17802577742E+04  0.17802577742E+04  0.00000000000E+00 0. -1.
         22   -1    0    0    0    0 -0.00000000000E+00 -0.00000000000E+00 -0.84454871590E+02  0.84454871590E+02  0.00000000000E+00 0. -1.
         25    2    1    2    0    0  0.42733009818E+02 -0.19982085124E+03  0.12423347049E+03  0.26988366213E+03  0.12509497664E+03 0.  0.
         24    2    1    2    0    0 -0.32025855968E+02  0.15334096952E+03  0.91701573860E+03  0.93373383875E+03  0.80011926724E+02 0.  0.
        -24    2    1    2    0    0 -0.10707153851E+02  0.46479881719E+02  0.65455369355E+03  0.66109514493E+03  0.79569028882E+02 0.  0.
        -13    1    4    4    0    0 -0.29989031715E+02  0.66843589727E+02  0.23244714618E+03  0.24371927146E+03  0.00000000000E+00 0.  1.
         14    1    4    4    0    0 -0.20368242525E+01  0.86497379790E+02  0.68456859241E+03  0.69001456730E+03  0.00000000000E+00 0. -1.
         13    1    5    5    0    0 -0.22110804967E+02  0.61573680157E+02  0.59555793122E+03  0.59914059721E+03  0.00000000000E+00 0. -1.
        -14    1    5    5    0    0  0.11403651116E+02 -0.15093798438E+02  0.58995762334E+02  0.61954547721E+02  0.00000000000E+00 0.  1.
          5    1    3    3  501    0 -0.31667951722E+02 -0.91033232483E+01  0.70172343714E+01  0.33947660282E+02  0.41800000000E+01 0. -1.
         -5    1    3    3    0  501  0.74400961540E+02 -0.19071752799E+03  0.11721623612E+03  0.23593600185E+03  0.41800000000E+01 0. -1.
</event>
<event>
11    1  0.1704459E-009  0.3591436E+03  0.7561462E-02  0.9778647E-01
         22   -1    0    0    0    0  0.00000000000E+00  0.00000000000E+00  0.11646008538E+04  0.11646008538E+04  0.00000000000E+00 0.  1.
         22   -1    0    0    0    0 -0.00000000000E+00 -0.00000000000E+00 -0.22753500943E+04  0.22753500943E+04  0.00000000000E+00 0.  1.
         25    2    1    2    0    0  0.16951820575E+03  0.29138783397E+03 -0.21911477272E+04  0.22204547854E+04  0.12509116545E+03 0.  0.
         24    2    1    2    0    0 -0.28326317327E+03 -0.20399931174E+03  0.49193326534E+03  0.60827623517E+03  0.78408521228E+02 0.  0.
        -24    2    1    2    0    0  0.11374496751E+03 -0.87388522234E+02  0.58846522139E+03  0.61121992751E+03  0.81998850892E+02 0.  0.
        -11    1    4    4    0    0 -0.10795310316E+03 -0.10026219156E+03  0.26595974247E+03  0.30404105669E+03  0.00000000000E+00 0.  1.
         12    1    4    4    0    0 -0.17531007011E+03 -0.10373712017E+03  0.22597352287E+03  0.30423517848E+03  0.00000000000E+00 0. -1.
         11    1    5    5    0    0  0.11000069657E+03 -0.75356428071E+02  0.38633497548E+03  0.40869726910E+03  0.00000000000E+00 0. -1.
        -12    1    5    5    0    0  0.37442709464E+01 -0.12032094163E+02  0.20213024592E+03  0.20252265841E+03  0.00000000000E+00 0.  1.
          5    1    3    3  501    0  0.49108235349E+02  0.20617428817E+03 -0.12815918212E+04  0.12990052057E+04  0.41800000000E+01 0.  1.
         -5    1    3    3    0  501  0.12040997040E+03  0.85213545802E+02 -0.90955590595E+03  0.92144957964E+03  0.41800000000E+01 0.  1.
</event>
<event>
11    1  0.1704459E-009  0.6584484E+03  0.7561462E-02  0.9095882E-01
         22   -1    0    0    0    0  0.00000000000E+00  0.00000000000E+00  0.32177057769E+03  0.32177057769E+03  0.00000000000E+00 0. -1.
         22   -1    0    0    0    0 -0.00000000000E+00 -0.00000000000E+00 -0.19706470088E+04  0.19706470088E+04  0.00000000000E+00 0. -1.
         25    2    1    2    0    0 -0.30632066362E+03  0.62395465387E+03 -0.11408485349E+04  0.13417651811E+04  0.12508661985E+03 0.  0.
        -24    2    1    2    0    0  0.12518179755E+03 -0.57132955125E+03 -0.43265473160E+03  0.73167310386E+03  0.77894002113E+02 0.  0.
         24    2    1    2    0    0  0.18113886607E+03 -0.52625102626E+02 -0.75373164549E+02  0.21897930153E+03  0.81793216932E+02 0.  0.
        -13    1    5    5    0    0  0.13504220725E+03 -0.13889073348E+02 -0.81689733712E+02  0.15843773759E+03  0.00000000000E+00 0.  1.
         14    1    5    5    0    0  0.46096658819E+02 -0.38736029278E+02  0.63165691626E+01  0.60541563942E+02  0.00000000000E+00 0. -1.
         13    1    4    4    0    0  0.99726807350E+02 -0.27571781699E+03 -0.20701312507E+03  0.35891528897E+03  0.00000000000E+00 0. -1.
        -14    1    4    4    0    0  0.25454990201E+02 -0.29561173426E+03 -0.22564160653E+03  0.37275781488E+03  0.00000000000E+00 0.  1.
          5    1    3    3  501    0 -0.31260053219E+03  0.60314050149E+03 -0.11261482660E+04  0.13151900800E+04  0.41800000000E+01 0.  1.
         -5    1    3    3    0  501  0.62798685640E+01  0.20814152377E+02 -0.14700268955E+02  0.26575101048E+02  0.41800000000E+01 0.  1.
</event>
<event>
11    1  0.1704459E-009  0.2642677E+03  0.7561462E-02  0.1016562E+00
         22   -1    0    0    0    0  0.00000000000E+00  0.00000000000E+00  0.23304050350E+03  0.23304050350E+03  0.00000000000E+00 0.  1.
         22   -1    0    0    0    0 -0.00000000000E+00 -0.00000000000E+00 -0.16350047709E+04  0.16350047709E+04  0.00000000000E+00 0.  1.
         25    2    1    2    0    0 -0.80385301682E+02  0.15983907223E+03 -0.11097738454E+04  0.11310417746E+04  0.12508869714E+03 0.  0.
        -24    2    1    2    0    0 -0.15481280177E+03 -0.10640212806E+03 -0.40940219838E+03  0.45776064594E+03  0.81524428783E+02 0.  0.
         24    2    1    2    0    0  0.23519810345E+03 -0.53436944170E+02  0.11721177641E+03  0.27924285387E+03  0.77873718529E+02 0.  0.
        -13    1    5    5    0    0  0.12887332794E+03 -0.22701565867E+02  0.20878325378E+02  0.13251264173E+03  0.00000000000E+00 0.  1.
         14    1    5    5    0    0  0.10632477551E+03 -0.30735378303E+02  0.96333451031E+02  0.14673021214E+03  0.00000000000E+00 0. -1.
         13    1    4    4    0    0 -0.28784565841E+02 -0.42800612225E+02 -0.18992009507E+03  0.19679960912E+03  0.00000000000E+00 0. -1.
        -14    1    4    4    0    0 -0.12602823593E+03 -0.63601515835E+02 -0.21948210331E+03  0.26096103682E+03  0.00000000000E+00 0.  1.
          5    1    3    3  501    0 -0.74635366076E+02  0.16543597296E+03 -0.11066929955E+04  0.11214839980E+04  0.41800000000E+01 0.  1.
         -5    1    3    3    0  501 -0.57499356056E+01 -0.55969007338E+01 -0.30808498916E+01  0.95577765901E+01  0.41800000000E+01 0.  1.
</event>
<event>
11    1  0.1704459E-009  0.1858013E+03  0.7561462E-02  0.1065045E+00
         22   -1    0    0    0    0  0.00000000000E+00  0.00000000000E+00  0.20713208474E+03  0.20713208474E+03  0.00000000000E+00 0. -1.
         22   -1    0    0    0    0 -0.00000000000E+00 -0.00000000000E+00 -0.33389920788E+03  0.33389920788E+03  0.00000000000E+00 0. -1.
         25    2    1    2    0    0  0.17065491770E+02  0.34483419090E+02 -0.96474968282E+02  0.16258558004E+03  0.12508522746E+03 0.  0.
         24    2    1    2    0    0 -0.11313935334E+03 -0.15142509955E+03 -0.26353028240E+02  0.20698987851E+03  0.80126485386E+02 0.  0.
        -24    2    1    2    0    0  0.96073861569E+02  0.11694168046E+03 -0.39391266223E+01  0.17145583407E+03  0.80473864154E+02 0.  0.
        -11    1    4    4    0    0  0.25314038871E+01 -0.38211969315E+02 -0.23851177891E+02  0.45115865184E+02  0.00000000000E+00 0.  1.
         12    1    4    4    0    0 -0.11567075723E+03 -0.11321313024E+03 -0.25018503494E+01  0.16187401333E+03  0.00000000000E+00 0. -1.
         13    1    5    5    0    0  0.49448653871E+02  0.10046958144E+03 -0.29487589858E+02  0.11579647715E+03  0.00000000000E+00 0. -1.
        -14    1    5    5    0    0  0.46625207698E+02  0.16472099022E+02  0.25548463236E+02  0.55659356920E+02  0.00000000000E+00 0.  1.
          5    1    3    3  501    0  0.64810953604E+02  0.40898264794E+02 -0.34952604519E+02  0.84334362705E+02  0.41800000000E+01 0. -1.
         -5    1    3    3    0  501 -0.47745461834E+02 -0.64148457039E+01 -0.61522363762E+02  0.78251217333E+02  0.41800000000E+01 0. -1.
</event>
<event>
11    1  0.1704459E-009  0.1494010E+03  0.7561462E-02  0.1097492E+00
         22   -1    0    0    0    0  0.00000000000E+00  0.00000000000E+00  0.19615369686E+04  0.19615369686E+04  0.00000000000E+00 0.  1.
         22   -1    0    0    0    0 -0.00000000000E+00 -0.00000000000E+00 -0.19158660123E+03  0.19158660123E+03  0.00000000000E+00 0.  1.
         25    2    1    2    0    0 -0.79845970315E+02  0.73560274532E+02 -0.84174575476E+02  0.18579266032E+03  0.12508821090E+03 0.  0.
        -24    2    1    2    0    0  0.30151617141E+02 -0.91439074795E+01 -0.20881227586E+02  0.88757931245E+02  0.80306996165E+02 0.  0.
         24    2    1    2    0    0  0.49694353174E+02 -0.64416367053E+02  0.18750061704E+04  0.18785729782E+04  0.82275746284E+02 0.  0.
        -13    1    5    5    0    0 -0.42683347431E+01 -0.27766581535E+02  0.12206915216E+04  0.12210147389E+04  0.00000000000E+00 0.  1.
         14    1    5    5    0    0  0.53962687917E+02 -0.36649785518E+02  0.65431464879E+03  0.65755823931E+03  0.00000000000E+00 0. -1.
         11    1    4    4    0    0 -0.94434345866E+01  0.26469379892E+02 -0.21684899034E+02  0.35497061495E+02  0.00000000000E+00 0. -1.
        -12    1    4    4    0    0  0.39595051728E+02 -0.35613287372E+02  0.80367144736E+00  0.53260869750E+02  0.00000000000E+00 0.  1.
          5    1    3    3  501    0 -0.51535934279E+02  0.10575329109E+03 -0.80402529622E+02  0.14255437653E+03  0.41800000000E+01 0.  1.
         -5    1    3    3    0  501 -0.28310036035E+02 -0.32193016554E+02 -0.37720458533E+01  0.43238283790E+02  0.41800000000E+01 0.  1.
</event>
<event>
11    1  0.1704459E-009  0.1850408E+03  0.7561462E-02  0.1065637E+00
         22   -1    0    0    0    0  0.00000000000E+00  0.00000000000E+00  0.18326980338E+04  0.18326980338E+04  0.00000000000E+00 0.  1.
         22   -1    0    0    0    0 -0.00000000000E+00 -0.00000000000E+00 -0.60213324421E+02  0.60213324421E+02  0.00000000000E+00 0. -1.
         25    2    1    2    0    0 -0.12242935763E+03  0.53793074277E+02  0.12565734680E+03  0.22207998421E+03  0.12508840126E+03 0.  0.
        -24    2    1    2    0    0  0.14571187316E+03 -0.59255231305E+02  0.13753704562E+04  0.13866352864E+04  0.79814742340E+02 0.  0.
         24    2    1    2    0    0 -0.23282515528E+02  0.54621570281E+01  0.27145690637E+03  0.28419608768E+03  0.80663830470E+02 0.  0.
        -13    1    5    5    0    0  0.90138639552E+01  0.34841675947E+02  0.16959823263E+03  0.17337460205E+03  0.00000000000E+00 0.  1.
         14    1    5    5    0    0 -0.32296379484E+02 -0.29379518918E+02  0.10185867374E+03  0.11082148563E+03  0.00000000000E+00 0. -1.
         13    1    4    4    0    0  0.11929546744E+02 -0.18852673828E+02  0.47126694873E+03  0.47179473753E+03  0.00000000000E+00 0. -1.
        -14    1    4    4    0    0  0.13378232641E+03 -0.40402557477E+02  0.90410350752E+03  0.91484054885E+03  0.00000000000E+00 0.  1.
          5    1    3    3  501    0 -0.22080689822E+02  0.44438600303E+01 -0.25324709299E+02  0.34148470772E+02  0.41800000000E+01 0.  1.
         -5    1    3    3    0  501 -0.10034866781E+03  0.49349214246E+02  0.15098205610E+03  0.18793151344E+03  0.41800000000E+01 0.  1.
</event>
<event>
11    1  0.1704459E-009  0.7489171E+03  0.7561462E-02  0.8963169E-01
         22   -1    0    0    0    0  0.00000000000E+00  0.00000000000E+00  0.23329591718E+03  0.23329591718E+03  0.00000000000E+00 0. -1.
         22   -1    0    0    0    0 -0.00000000000E+00 -0.00000000000E+00 -0.60103591186E+03  0.60103591186E+03  0.00000000000E+00 0. -1.
         25    2    1    2    0    0 -0.26979924490E+03 -0.61956643102E+02 -0.35643368087E+03  0.46831986999E+03  0.12509305974E+03 0.  0.
         24    2    1    2    0    0  0.23383101238E+03  0.79941880290E+02  0.19505585159E+02  0.26099981211E+03  0.81687131758E+02 0.  0.
        -24    2    1    2    0    0  0.35968232529E+02 -0.17985237188E+02 -0.30811898971E+02  0.10501214694E+03  0.91983669090E+02 0.  0.
        -11    1    4    4    0    0  0.27591896385E+02  0.56669274799E+01 -0.24603313884E+02  0.37399864535E+02  0.00000000000E+00 0.  1.
         12    1    4    4    0    0  0.20623911599E+03  0.74274952810E+02  0.44108899043E+02  0.22359994757E+03  0.00000000000E+00 0. -1.
         13    1    5    5    0    0 -0.23009350764E+02 -0.32262317915E+02 -0.14254987774E+02  0.42112849064E+02  0.00000000000E+00 0. -1.
        -14    1    5    5    0    0  0.58977583293E+02  0.14277080727E+02 -0.16556911196E+02  0.62899297878E+02  0.00000000000E+00 0.  1.
          5    1    3    3  501    0 -0.18102419578E+03 -0.64429734617E+02 -0.15081309459E+03  0.24430106848E+03  0.41800000000E+01 0.  1.
         -5    1    3    3    0  501 -0.88775049129E+02  0.24730915158E+01 -0.20562058628E+03  0.22401880151E+03  0.41800000000E+01 0.  1.
</event>
<event>
11    1  0.1704459E-009  0.1833938E+03  0.7561462E-02  0.1066930E+00
         22   -1    0    0    0    0  0.00000000000E+00  0.00000000000E+00  0.15717831345E+04  0.15717831345E+04  0.00000000000E+00 0.  1.
         22   -1    0    0    0    0 -0.00000000000E+00 -0.00000000000E+00 -0.16365616430E+03  0.16365616430E+03  0.00000000000E+00 0.  1.
         25    2    1    2    0    0  0.65096060655E+02 -0.10824886841E+03 -0.20188728915E+02  0.17891939359E+03  0.12509696240E+03 0.  0.
         24    2    1    2    0    0  0.62016317100E+02  0.60996405423E+02  0.15862976547E+01  0.12107067736E+03  0.84196244072E+02 0.  0.
        -24    2    1    2    0    0 -0.12711237776E+03  0.47252462987E+02  0.14267294015E+04  0.14354492279E+04  0.81039181243E+02 0.  0.
        -11    1    4    4    0    0  0.32446755531E+00 -0.39682430999E+01 -0.26798015868E+02  0.27092173906E+02  0.00000000000E+00 0.  1.
         12    1    4    4    0    0  0.61691849545E+02  0.64964648523E+02  0.28384313522E+02  0.93978503458E+02  0.00000000000E+00 0. -1.
         13    1    5    5    0    0 -0.98221349596E+02  0.30805812182E+01  0.70843085719E+03  0.71521409586E+03  0.00000000000E+00 0. -1.
        -14    1    5    5    0    0 -0.28891028159E+02  0.44171881769E+02  0.71829854432E+03  0.72023513204E+03  0.00000000000E+00 0.  1.
          5    1    3    3  501    0 -0.10703230561E+02  0.48423245793E+01 -0.39434048028E+02  0.41358479126E+02  0.41800000000E+01 0. -1.
         -5    1    3    3    0  501  0.75799291216E+02 -0.11309119299E+03  0.19245319113E+02  0.13756091447E+03  0.41800000000E+01 0. -1.
</event>
<event>
11    1  0.1704459E-009  0.6704356E+03  0.7561462E-02  0.9077043E-01
         22   -1    0    0    0    0  0.00000000000E+00  0.00000000000E+00  0.94040459157E+03  0.94040459157E+03  0.00000000000E+00 0.  1.
         22   -1    0    0    0    0 -0.00000000000E+00 -0.00000000000E+00 -0.63710721558E+03  0.63710721558E+03  0.00000000000E+00 0.  1.
         25    2    1    2    0    0  0.44048350832E+02 -0.63733853967E+03  0.11500182122E+03  0.66106965649E+03  0.12508797102E+03 0.  0.
         24    2    1    2    0    0 -0.46395283458E+00  0.67597731596E+03 -0.30122487730E+02  0.68129955901E+03  0.79474385157E+02 0.  0.
        -24    2    1    2    0    0 -0.43584397997E+02 -0.38638776293E+02  0.21841804250E+03  0.23514259165E+03  0.64753705185E+02 0.  0.
        -13    1    4    4    0    0 -0.39025108014E+02  0.38781154858E+03 -0.10695367751E+02  0.38991684647E+03  0.00000000000E+00 0.  1.
         14    1    4    4    0    0  0.38561155179E+02  0.28816576738E+03 -0.19427119979E+02  0.29138271255E+03  0.00000000000E+00 0. -1.
         11    1    5    5    0    0 -0.48559741880E+02 -0.52929850688E+02  0.17527417062E+03  0.18942189026E+03  0.00000000000E+00 0. -1.
        -12    1    5    5    0    0  0.49753438822E+01  0.14291074395E+02  0.43143871885E+02  0.45720701388E+02  0.00000000000E+00 0.  1.
          5    1    3    3  501    0  0.57878699135E+02 -0.47228132498E+03  0.35112144915E+02  0.47712674297E+03  0.41800000000E+01 0.  1.
         -5    1    3    3    0  501 -0.13830348303E+02 -0.16505721469E+03  0.79889676304E+02  0.18394291352E+03  0.41800000000E+01 0.  1.
</event>
<event>
11    1  0.1704459E-009  0.3285107E+03  0.7561462E-02  0.9887982E-01
         22   -1    0    0    0    0  0.00000000000E+00  0.00000000000E+00  0.92266385453E+02  0.92266385453E+02  0.00000000000E+00 0.  1.
         22   -1    0    0    0    0 -0.00000000000E+00 -0.00000000000E+00 -0.22664674042E+04  0.22664674042E+04  0.00000000000E+00 0.  1.
         25    2    1    2    0    0 -0.63925553898E+02 -0.38847801021E+02 -0.43461655273E+03  0.45840445072E+03  0.12508982550E+03 0.  0.
         24    2    1    2    0    0  0.34255775369E+03  0.15118429646E+03 -0.13436646515E+04  0.13969679520E+04  0.76695874688E+02 0.  0.
        -24    2    1    2    0    0 -0.27863219980E+03 -0.11233649544E+03 -0.39591981457E+03  0.50336138696E+03  0.79779667472E+02 0.  0.
        -11    1    4    4    0    0  0.35263184719E+02 -0.74269801237E+01 -0.11009487226E+03  0.11584270857E+03  0.00000000000E+00 0.  1.
         12    1    4    4    0    0  0.30729456898E+03  0.15861127658E+03 -0.12335697792E+04  0.12811252434E+04  0.00000000000E+00 0. -1.
         11    1    5    5    0    0 -0.71925238610E+02 -0.44420801609E+02 -0.16911709847E+03  0.18906887782E+03  0.00000000000E+00 0. -1.
        -12    1    5    5    0    0 -0.20670696119E+03 -0.67915693828E+02 -0.22680271610E+03  0.31429250914E+03  0.00000000000E+00 0.  1.
          5    1    3    3  501    0 -0.41312884166E+02  0.41031603413E+02 -0.12733909012E+03  0.14008234418E+03  0.41800000000E+01 0.  1.
         -5    1    3    3    0  501 -0.22612669732E+02 -0.79879404434E+02 -0.30727746261E+03  0.31832210654E+03  0.41800000000E+01 0.  1.
</event>
<event>
11    1  0.1704459E-009  0.3869642E+03  0.7561462E-02  0.9689023E-01
         22   -1    0    0    0    0  0.00000000000E+00  0.00000000000E+00  0.22810045235E+04  0.22810045235E+04  0.00000000000E+00 0. -1.
         22   -1    0    0    0    0 -0.00000000000E+00 -0.00000000000E+00 -0.11309821994E+03  0.11309821994E+03  0.00000000000E+00 0. -1.
         25    2    1    2    0    0 -0.41355203428E+03 -0.15642564079E+01  0.68222650758E+03  0.80753463092E+03  0.12510571745E+03 0.  0.
         24    2    1    2    0    0  0.29628405666E+03  0.15067018897E+03  0.83159095439E+03  0.90066128636E+03  0.95715668756E+02 0.  0.
        -24    2    1    2    0    0  0.11726797762E+03 -0.14910593256E+03  0.65408884160E+03  0.68590682618E+03  0.81557365014E+02 0.  0.
        -11    1    4    4    0    0  0.26135656615E+02 -0.53310308764E+01  0.13201509222E+03  0.13468287571E+03  0.00000000000E+00 0.  1.
         12    1    4    4    0    0  0.27014840005E+03  0.15600121985E+03  0.69957586217E+03  0.76597841064E+03  0.00000000000E+00 0. -1.
         11    1    5    5    0    0  0.44332393734E+02 -0.11830943102E+03  0.43375218483E+03  0.45177808761E+03  0.00000000000E+00 0. -1.
        -12    1    5    5    0    0  0.72935583885E+02 -0.30796501538E+02  0.22033665677E+03  0.23412873856E+03  0.00000000000E+00 0.  1.
          5    1    3    3  501    0 -0.46224420260E+02  0.27934932549E+02  0.40961675789E+02  0.67914569633E+02  0.41800000000E+01 0. -1.
         -5    1    3    3    0  501 -0.36732761402E+03 -0.29499188957E+02  0.64126483179E+03  0.73962006129E+03  0.41800000000E+01 0. -1.
</event>
<event>
11    1  0.1704459E-009  0.1695036E+03  0.7561462E-02  0.1078464E+00
         22   -1    0    0    0    0  0.00000000000E+00  0.00000000000E+00  0.76229635865E+02  0.76229635865E+02  0.00000000000E+00 0. -1.
         22   -1    0    0    0    0 -0.00000000000E+00 -0.00000000000E+00 -0.15653905364E+04  0.15653905364E+04  0.00000000000E+00 0.  1.
         25    2    1    2    0    0  0.67027740052E+02 -0.10030712692E+03 -0.90226837991E+03  0.91885239473E+03  0.12508899333E+03 0.  0.
         24    2    1    2    0    0 -0.72600086338E+02  0.81585373646E+02 -0.61886347655E+03  0.63397149395E+03  0.83671421660E+02 0.  0.
        -24    2    1    2    0    0  0.55723462861E+01  0.18721753274E+02  0.31970955917E+02  0.88796283603E+02  0.80505172943E+02 0.  0.
        -11    1    4    4    0    0 -0.87461903683E+02  0.85394137155E+02 -0.54984333878E+03  0.56326675781E+03  0.00000000000E+00 0.  1.
         12    1    4    4    0    0  0.14861817344E+02 -0.38087635094E+01 -0.69020137778E+02  0.70704736143E+02  0.00000000000E+00 0. -1.
         11    1    5    5    0    0 -0.13978137481E+02  0.34571238473E+02  0.46601583005E+02  0.59684724977E+02  0.00000000000E+00 0. -1.
        -12    1    5    5    0    0  0.19550483767E+02 -0.15849485199E+02 -0.14630627089E+02  0.29111558625E+02  0.00000000000E+00 0.  1.
          5    1    3    3  501    0 -0.24570624045E+02 -0.16343027498E+00 -0.50349880508E+02  0.56181181392E+02  0.41800000000E+01 0.  1.
         -5    1    3    3    0  501  0.91598364098E+02 -0.10014369665E+03 -0.85191849941E+03  0.86267121333E+03  0.41800000000E+01 0.  1.
</event>
<event>
11    1  0.1704459E-009  0.1349565E+03  0.7561462E-02  0.1113325E+00
         22   -1    0    0    0    0  0.00000000000E+00  0.00000000000E+00  0.37607828476E+03  0.37607828476E+03  0.00000000000E+00 0.  1.
         22   -1    0    0    0    0 -0.00000000000E+00 -0.00000000000E+00 -0.89751870918E+02  0.89751870918E+02  0.00000000000E+00 0. -1.
         25    2    1    2    0    0  0.15873158213E+02 -0.16087633645E+02  0.55682884101E+02  0.13877066039E+03  0.12508374592E+03 0.  0.
        -24    2    1    2    0    0 -0.66980431675E+02  0.68080714253E+02  0.13063407643E+03  0.17999203536E+03  0.78806782633E+02 0.  0.
         24    2    1    2    0    0  0.51107273462E+02 -0.51993080608E+02  0.10000945331E+03  0.14706745993E+03  0.79446291204E+02 0.  0.
        -11    1    5    5    0    0  0.21393387841E+02  0.20031150917E+02  0.20630075877E+02  0.35840257826E+02  0.00000000000E+00 0.  1.
         12    1    5    5    0    0  0.29713885621E+02 -0.72024231525E+02  0.79379377434E+02  0.11122720210E+03  0.00000000000E+00 0. -1.
         13    1    4    4    0    0 -0.52971950780E+02  0.56312113854E+02  0.39079541420E+02  0.86627318404E+02  0.00000000000E+00 0. -1.
        -14    1    4    4    0    0 -0.14008480895E+02  0.11768600399E+02  0.91554535006E+02  0.93364716957E+02  0.00000000000E+00 0.  1.
          5    1    3    3  501    0  0.63037630306E+02 -0.18772602998E+02  0.36639683874E+00  0.65907208290E+02  0.41800000000E+01 0. -1.
         -5    1    3    3    0  501 -0.47164472093E+02  0.26849693528E+01  0.55316487262E+02  0.72863452095E+02  0.41800000000E+01 0. -1.
</event>
<event>
11    1  0.1704459E-009  0.3421899E+03  0.7561462E-02  0.9837643E-01
         22   -1    0    0    0    0  0.00000000000E+00  0.00000000000E+00  0.13244933599E+04  0.13244933599E+04  0.00000000000E+00 0.  1.
         22   -1    0    0    0    0 -0.00000000000E+00 -0.00000000000E+00 -0.75165522855E+03  0.75165522855E+03  0.00000000000E+00 0.  1.
         25    2    1    2    0    0  0.30845367441E+03  0.82009703333E+02 -0.67523719095E+03  0.75727224836E+03  0.12508690335E+03 0.  0.
        -24    2    1    2    0    0 -0.30425693277E+03 -0.44926185012E+02  0.76344751389E+03  0.82655396591E+03  0.75820240418E+02 0.  0.
         24    2    1    2    0    0 -0.41967416403E+01 -0.37083518321E+02  0.48462780839E+03  0.49232237415E+03  0.78258593494E+02 0.  0.
        -11    1    5    5    0    0 -0.26379927035E+02 -0.14857391009E+01  0.59159982382E+02  0.64792063453E+02  0.00000000000E+00 0.  1.
         12    1    5    5    0    0  0.22183185395E+02 -0.35597779220E+02  0.42546782600E+03  0.42753031070E+03  0.00000000000E+00 0. -1.
         11    1    4    4    0    0 -0.12622687807E+03 -0.37367218228E+02  0.41190763953E+03  0.43243200303E+03  0.00000000000E+00 0. -1.
        -12    1    4    4    0    0 -0.17803005470E+03 -0.75589667846E+01  0.35153987437E+03  0.39412196288E+03  0.00000000000E+00 0.  1.
          5    1    3    3  501    0  0.23577095346E+03  0.27127558256E+02 -0.57339180649E+03  0.62057995703E+03  0.41800000000E+01 0. -1.
         -5    1    3    3    0  501  0.72682720955E+02  0.54882145077E+02 -0.10184538446E+03  0.13669229133E+03  0.41800000000E+01 0. -1.
</event>
<event>
11    1  0.1704459E-009  0.1341731E+04  0.7561462E-02  0.8408286E-01
         22   -1    0    0    0    0  0.00000000000E+00  0.00000000000E+00  0.23495266792E+04  0.23495266792E+04  0.00000000000E+00 0.  1.
         22   -1    0    0    0    0 -0.00000000000E+00 -0.00000000000E+00 -0.15121829466E+04  0.15121829466E+04  0.00000000000E+00 0.  1.
         25    2    1    2    0    0 -0.92464727224E+03  0.93448145626E+03 -0.68616757645E+03  0.14881874791E+04  0.12509140627E+03 0.  0.
         24    2    1    2    0    0  0.12211489506E+04 -0.76416331801E+03  0.10517991561E+04  0.17854706802E+04  0.80459610546E+02 0.  0.
        -24    2    1    2    0    0 -0.29650167837E+03 -0.17031813826E+03  0.47171215294E+03  0.58805146638E+03  0.79816404203E+02 0.  0.
        -11    1    4    4    0    0  0.82252678967E+03 -0.52136778914E+03  0.66437571273E+03  0.11788849727E+04  0.00000000000E+00 0.  1.
         12    1    4    4    0    0  0.39862216094E+03 -0.24279552887E+03  0.38742344338E+03  0.60658570747E+03  0.00000000000E+00 0. -1.
         11    1    5    5    0    0 -0.95516935820E+01 -0.28866776497E+01 -0.12606069125E+01  0.10057678058E+02  0.00000000000E+00 0. -1.
        -12    1    5    5    0    0 -0.28694998479E+03 -0.16743146061E+03  0.47297275986E+03  0.57799378832E+03  0.00000000000E+00 0.  1.
          5    1    3    3  501    0 -0.39511074416E+03  0.45970030601E+03 -0.26463945887E+03  0.66142904917E+03  0.41800000000E+01 0. -1.
         -5    1    3    3    0  501 -0.52953652808E+03  0.47478115025E+03 -0.42152811758E+03  0.82675842996E+03  0.41800000000E+01 0. -1.
</event>
<event>
11    1  0.1704459E-009  0.1556153E+03  0.7561462E-02  0.1091275E+00
         22   -1    0    0    0    0  0.00000000000E+00  0.00000000000E+00  0.69450919522E+03  0.69450919522E+03  0.00000000000E+00 0. -1.
         22   -1    0    0    0    0 -0.00000000000E+00 -0.00000000000E+00 -0.20479875172E+03  0.20479875172E+03  0.00000000000E+00 0.  1.
         25    2    1    2    0    0  0.66427711339E+02 -0.55701488565E+02 -0.47303818899E+02  0.15937218982E+03  0.12508615808E+03 0.  0.
        -24    2    1    2    0    0 -0.65398117015E+02  0.71854374516E+02 -0.58176707473E+02  0.13902654187E+03  0.80646668910E+02 0.  0.
         24    2    1    2    0    0 -0.10295943234E+01 -0.16152885951E+02  0.59519096987E+03  0.60090921526E+03  0.81102518938E+02 0.  0.
        -11    1    5    5    0    0  0.36683549372E+02 -0.21195412960E+02  0.38276888011E+03  0.38510640595E+03  0.00000000000E+00 0.  1.
         12    1    5    5    0    0 -0.37713143696E+02  0.50425270097E+01  0.21242208976E+03  0.21580280931E+03  0.00000000000E+00 0. -1.
         11    1    4    4    0    0  0.10684690219E+02  0.41299359591E+02 -0.95945480806E+01  0.43724764843E+02  0.00000000000E+00 0. -1.
        -12    1    4    4    0    0 -0.76082807234E+02  0.30555014925E+02 -0.48582159392E+02  0.95301777029E+02  0.00000000000E+00 0.  1.
          5    1    3    3  501    0  0.42790462686E+02  0.18328718581E+02 -0.64516448022E+02  0.79666869445E+02  0.41800000000E+01 0. -1.
         -5    1    3    3    0  501  0.23637248653E+02 -0.74030207147E+02  0.17212629123E+02  0.79705320371E+02  0.41800000000E+01 0. -1.
</event>
<event>
11    1  0.1704459E-009  0.2145530E+03  0.7561462E-02  0.1044684E+00
         22   -1    0    0    0    0  0.00000000000E+00  0.00000000000E+00  0.34734232312E+03  0.34734232312E+03  0.00000000000E+00 0. -1.
         22   -1    0    0    0    0 -0.00000000000E+00 -0.00000000000E+00 -0.25719760067E+03  0.25719760067E+03  0.00000000000E+00 0. -1.
         25    2    1    2    0    0  0.14846821068E+02  0.68397634405E+02 -0.32420266210E+02  0.14696421589E+03  0.12509493436E+03 0.  0.
        -24    2    1    2    0    0  0.18664425926E+03  0.11887081536E+02  0.46071667996E+01  0.20047152565E+03  0.72043211967E+02 0.  0.
         24    2    1    2    0    0 -0.20149108033E+03 -0.80284715941E+02  0.11795782186E+03  0.25710418224E+03  0.71723230014E+02 0.  0.
        -13    1    5    5    0    0 -0.10759373948E+03 -0.65006751017E+02  0.99214688266E+02  0.16014320099E+03  0.00000000000E+00 0.  1.
         14    1    5    5    0    0 -0.93897340841E+02 -0.15277964924E+02  0.18743133593E+02  0.96960981256E+02  0.00000000000E+00 0. -1.
         11    1    4    4    0    0  0.10819263571E+03  0.33169557753E+01  0.38082125858E+02  0.11474709987E+03  0.00000000000E+00 0. -1.
        -12    1    4    4    0    0  0.78451623546E+02  0.85701257610E+01 -0.33474959058E+02  0.85724425788E+02  0.00000000000E+00 0.  1.
          5    1    3    3  501    0 -0.63913926561E+01  0.91321515732E+02  0.12073572231E+02  0.92432205870E+02  0.41800000000E+01 0. -1.
         -5    1    3    3    0  501  0.21238213724E+02 -0.22923881327E+02 -0.44493838441E+02  0.54532010017E+02  0.41800000000E+01 0. -1.
</event>
<event>
11    1  0.1704459E-009  0.4050506E+03  0.7561462E-02  0.9634972E-01
         22   -1    0    0    0    0  0.00000000000E+00  0.00000000000E+00  0.37333551336E+03  0.37333551336E+03  0.00000000000E+00 0.  1.
         22   -1    0    0    0    0 -0.00000000000E+00 -0.00000000000E+00 -0.24306126558E+04  0.24306126558E+04  0.00000000000E+00 0. -1.
         25    2    1    2    0    0 -0.25596048320E+03  0.28062013076E+03 -0.20979462743E+04  0.21357174836E+04  0.12508866118E+03 0.  0.
        -24    2    1    2    0    0  0.32745930194E+03 -0.34886225863E+03  0.14231038702E+03  0.50564558545E+03  0.80565140765E+02 0.  0.
         24    2    1    2    0    0 -0.71498818744E+02  0.68242127871E+02 -0.10164125516E+03  0.16258510012E+03  0.79585808602E+02 0.  0.
        -13    1    5    5    0    0  0.17288597027E+02  0.62227904399E+01 -0.11493607164E+02  0.21673064242E+02  0.00000000000E+00 0.  1.
         14    1    5    5    0    0 -0.88787415771E+02  0.62019337431E+02 -0.90147647999E+02  0.14091203588E+03  0.00000000000E+00 0. -1.
         11    1    4    4    0    0  0.19098318717E+02 -0.56436297117E+02  0.26291998760E+02  0.65123502738E+02  0.00000000000E+00 0. -1.
        -12    1    4    4    0    0  0.30836098322E+03 -0.29242596151E+03  0.11601838826E+03  0.44052208271E+03  0.00000000000E+00 0.  1.
          5    1    3    3  501    0 -0.12348985787E+03  0.66613365819E+02 -0.56109785211E+03  0.57839031591E+03  0.41800000000E+01 0.  1.
         -5    1    3    3    0  501 -0.13247062532E+03  0.21400676494E+03 -0.15368484222E+04  0.15573271677E+04  0.41800000000E+01 0.  1.
</event>
<event>
11    1  0.1704459E-009  0.1512955E+03  0.7561462E-02  0.1095562E+00
         22   -1    0    0    0    0  0.00000000000E+00  0.00000000000E+00  0.40147686518E+03  0.40147686518E+03  0.00000000000E+00 0.  1.
         22   -1    0    0    0    0 -0.00000000000E+00 -0.00000000000E+00 -0.25050081083E+03  0.25050081083E+03  0.00000000000E+00 0. -1.
         25    2    1    2    0    0  0.30203530517E+02 -0.80317839610E+02 -0.17807104026E+03  0.23392249563E+03  0.12508888827E+03 0.  0.
         24    2    1    2    0    0  0.25834563867E+02  0.93529019588E+02  0.77968446196E+02  0.14820836373E+03  0.80445871749E+02 0.  0.
        -24    2    1    2    0    0 -0.56038094384E+02 -0.13211179978E+02  0.25107864840E+03  0.26984681665E+03  0.80386649856E+02 0.  0.
        -11    1    4    4    0    0  0.53299194662E+02  0.46136261456E+02  0.51945484200E+02  0.87565359027E+02  0.00000000000E+00 0.  1.
         12    1    4    4    0    0 -0.27464630796E+02  0.47392758132E+02  0.26022961996E+02  0.60643004701E+02  0.00000000000E+00 0. -1.
         11    1    5    5    0    0 -0.64392020302E+01  0.48044290240E+01 -0.42729821461E+01  0.90996833710E+01  0.00000000000E+00 0. -1.
        -12    1    5    5    0    0 -0.49598892354E+02 -0.18015609002E+02  0.25535163055E+03  0.26074713328E+03  0.00000000000E+00 0.  1.
          5    1    3    3  501    0  0.55123043950E+02 -0.91638766234E+02 -0.17622018181E+03  0.20617283606E+03  0.41800000000E+01 0.  1.
         -5    1    3    3    0  501 -0.24919513433E+02  0.11320926624E+02 -0.18508584469E+01  0.27749659572E+02  0.41800000000E+01 0.  1.
</event>
<event>
11    1  0.1704459E-009  0.1737678E+03  0.7561462E-02  0.1074799E+00
         22   -1    0    0    0    0  0.00000000000E+00  0.00000000000E+00  0.36326530220E+03  0.36326530220E+03  0.00000000000E+00 0.  1.
         22   -1    0    0    0    0 -0.00000000000E+00 -0.00000000000E+00 -0.22949449480E+04  0.22949449480E+04  0.00000000000E+00 0. -1.
         25    2    1    2    0    0 -0.13361331644E+03 -0.23164959603E+02 -0.94537800521E+03  0.96321209466E+03  0.12509529517E+03 0.  0.
         24    2    1    2    0    0  0.11124918606E+03  0.27523908636E+02 -0.13317135996E+04  0.13389653370E+04  0.78950080855E+02 0.  0.
        -24    2    1    2    0    0  0.22364130379E+02 -0.43589490325E+01  0.34541195907E+03  0.35603281853E+03  0.83251376181E+02 0.  0.
        -13    1    4    4    0    0  0.13829461223E+02  0.20703661062E+02 -0.88897982846E+02  0.92318724715E+02  0.00000000000E+00 0.  1.
         14    1    4    4    0    0  0.97419724839E+02  0.68202475740E+01 -0.12428156168E+04  0.12466466123E+04  0.00000000000E+00 0. -1.
         13    1    5    5    0    0  0.28732563368E+02  0.34682484968E+02  0.14818997678E+03  0.15488287246E+03  0.00000000000E+00 0. -1.
        -14    1    5    5    0    0 -0.63684329896E+01 -0.39041434000E+02  0.19722198229E+03  0.20114994607E+03  0.00000000000E+00 0.  1.
          5    1    3    3  501    0 -0.57170650269E+02 -0.71053051286E+02 -0.56024127075E+03  0.56763084237E+03  0.41800000000E+01 0. -1.
         -5    1    3    3    0  501 -0.76442666172E+02  0.47888091683E+02 -0.38513673446E+03  0.39558125229E+03  0.41800000000E+01 0. -1.
</event>
<event>
11    1  0.1704459E-009  0.3127585E+03  0.7561462E-02  0.9949316E-01
         22   -1    0    0    0    0  0.00000000000E+00  0.00000000000E+00  0.51987877978E+03  0.51987877978E+03  0.00000000000E+00 0. -1.
         22   -1    0    0    0    0 -0.00000000000E+00 -0.00000000000E+00 -0.30161636487E+03  0.30161636487E+03  0.00000000000E+00 0.  1.
         25    2    1    2    0    0 -0.73728587587E+02 -0.14419049526E+02 -0.19295855377E+02  0.14718481324E+03  0.12508887080E+03 0.  0.
        -24    2    1    2    0    0  0.16027038639E+02 -0.29359352889E+03  0.83908687076E+02  0.31607278421E+03  0.80045680547E+02 0.  0.
         24    2    1    2    0    0  0.57701548947E+02  0.30801257842E+03  0.15364958321E+03  0.35823754720E+03  0.80775792108E+02 0.  0.
        -13    1    5    5    0    0  0.69174350913E+00  0.28229520658E+02 -0.89893172378E+01  0.29634307315E+02  0.00000000000E+00 0.  1.
         14    1    5    5    0    0  0.57009805438E+02  0.27978305776E+03  0.16263890045E+03  0.32860323989E+03  0.00000000000E+00 0. -1.
         13    1    4    4    0    0  0.47747526174E+02 -0.14067182188E+03  0.40678671786E+02  0.15402318678E+03  0.00000000000E+00 0. -1.
        -14    1    4    4    0    0 -0.31720487534E+02 -0.15292170702E+03  0.43230015290E+02  0.16204959743E+03  0.00000000000E+00 0.  1.
          5    1    3    3  501    0 -0.10368893283E+03 -0.33176826679E+02 -0.57466979878E+01  0.10909900805E+03  0.41800000000E+01 0. -1.
         -5    1    3    3    0  501  0.29960345245E+02  0.18757777153E+02 -0.13549157389E+02  0.38085805189E+02  0.41800000000E+01 0. -1.
</event>
<event>
11    1  0.1704459E-009  0.1338100E+03  0.7561462E-02  0.1114674E+00
         22   -1    0    0    0    0  0.00000000000E+00  0.00000000000E+00  0.59180271812E+03  0.59180271812E+03  0.00000000000E+00 0. -1.
         22   -1    0    0    0    0 -0.00000000000E+00 -0.00000000000E+00 -0.93467835102E+02  0.93467835102E+02  0.00000000000E+00 0. -1.
         25    2    1    2    0    0 -0.19109318326E+02  0.12326307389E+02  0.16768841902E+02  0.12823630627E+03  0.12508498026E+03 0.  0.
        -24    2    1    2    0    0  0.88928270931E+02 -0.79960189261E+02  0.18403071793E+03  0.23437861568E+03  0.82244520214E+02 0.  0.
         24    2    1    2    0    0 -0.69818952605E+02  0.67633881871E+02  0.29753532318E+03  0.32265563128E+03  0.78296613821E+02 0.  0.
        -13    1    5    5    0    0 -0.13935606508E+02 -0.35648784765E+01  0.32241853468E+01  0.14741263801E+02  0.00000000000E+00 0.  1.
         14    1    5    5    0    0 -0.55883346096E+02  0.71198760348E+02  0.29431113783E+03  0.30791436748E+03  0.00000000000E+00 0. -1.
         11    1    4    4    0    0  0.96895019454E+02 -0.42046714372E+02  0.14492638631E+03  0.17933273107E+03  0.00000000000E+00 0. -1.
        -12    1    4    4    0    0 -0.79667485233E+01 -0.37913474888E+02  0.39104331630E+02  0.55045884609E+02  0.00000000000E+00 0.  1.
          5    1    3    3  501    0  0.10502237629E+02  0.21847553204E+02 -0.49297848584E+02  0.55094127194E+02  0.41800000000E+01 0.  1.
         -5    1    3    3    0  501 -0.29611555956E+02 -0.95212458151E+01  0.66066690485E+02  0.73142179074E+02  0.41800000000E+01 0.  1.
</event>
<event>
11    1  0.1704459E-009  0.2221608E+03  0.7561462E-02  0.1039872E+00
         22   -1    0    0    0    0  0.00000000000E+00  0.00000000000E+00  0.17316109732E+03  0.17316109732E+03  0.00000000000E+00 0. -1.
         22   -1    0    0    0    0 -0.00000000000E+00 -0.00000000000E+00 -0.10170643792E+04  0.10170643792E+04  0.00000000000E+00 0. -1.
         25    2    1    2    0    0  0.18823638840E+03  0.43787666447E+02 -0.84800269108E+03  0.87869411409E+03  0.12507791334E+03 0.  0.
         24    2    1    2    0    0 -0.57969458736E+02 -0.97803234901E+02 -0.41614837484E+02  0.14545604235E+03  0.80620931853E+02 0.  0.
        -24    2    1    2    0    0 -0.13026692966E+03  0.54015568454E+02  0.45714246699E+02  0.16607532008E+03  0.74860303153E+02 0.  0.
        -13    1    4    4    0    0 -0.16733200717E+02  0.86424099252E+01 -0.23109860588E+02  0.29812026297E+02  0.00000000000E+00 0.  1.
         14    1    4    4    0    0 -0.41236258019E+02 -0.10644564483E+03 -0.18504976896E+02  0.11564401605E+03  0.00000000000E+00 0. -1.
         11    1    5    5    0    0 -0.10137157217E+03  0.63084265685E+02  0.10843289702E+02  0.11988910356E+03  0.00000000000E+00 0. -1.
        -12    1    5    5    0    0 -0.28895357494E+02 -0.90686972309E+01  0.34870956997E+02  0.46186216516E+02  0.00000000000E+00 0.  1.
          5    1    3    3  501    0  0.50313034837E+02 -0.16855171821E+02 -0.80319988877E+02  0.96354923615E+02  0.41800000000E+01 0.  1.
         -5    1    3    3    0  501  0.13792335356E+03  0.60642838268E+02 -0.76768270220E+03  0.78233919047E+03  0.41800000000E+01 0.  1.
</event>
<event>
11    1  0.1704459E-009  0.1906160E+03  0.7561462E-02  0.1061365E+00
         22   -1    0    0    0    0  0.00000000000E+00  0.00000000000E+00  0.52770855469E+02  0.52770855469E+02  0.00000000000E+00 0. -1.
         22   -1    0    0    0    0 -0.00000000000E+00 -0.00000000000E+00 -0.17227941698E+04  0.17227941698E+04  0.00000000000E+00 0.  1.
         25    2    1    2    0    0 -0.12662197825E+03  0.39800980610E+01 -0.10596954347E+04  0.10745469523E+04  0.12509105360E+03 0.  0.
         24    2    1    2    0    0  0.21197241910E+03 -0.80928382236E+01 -0.40554986840E+03  0.46471182891E+03  0.80551770201E+02 0.  0.
        -24    2    1    2    0    0 -0.85350440854E+02  0.41127401626E+01 -0.20477801121E+03  0.23630624410E+03  0.81271118711E+02 0.  0.
        -13    1    4    4    0    0  0.36572701805E+01  0.11949479996E+02 -0.55366510004E+02  0.56759282301E+02  0.00000000000E+00 0.  1.
         14    1    4    4    0    0  0.20831514892E+03 -0.20042318220E+02 -0.35018335839E+03  0.40795254661E+03  0.00000000000E+00 0. -1.
         13    1    5    5    0    0 -0.99963104538E+02  0.83597767953E+01 -0.15836203495E+03  0.18745944161E+03  0.00000000000E+00 0. -1.
        -14    1    5    5    0    0  0.14612663684E+02 -0.42470366327E+01 -0.46415976267E+02  0.48846802484E+02  0.00000000000E+00 0.  1.
          5    1    3    3  501    0  0.21818665114E+02 -0.13504584323E+02 -0.23218012528E+03  0.23363114287E+03  0.41800000000E+01 0.  1.
         -5    1    3    3    0  501 -0.14844064336E+03  0.17484682384E+02 -0.82751530944E+03  0.84091580939E+03  0.41800000000E+01 0.  1.
</event>
<event>
11    1  0.1704459E-009  0.5594546E+03  0.7561462E-02  0.9269677E-01
         22   -1    0    0    0    0  0.00000000000E+00  0.00000000000E+00  0.12914949621E+04  0.12914949621E+04  0.00000000000E+00 0.  1.
         22   -1    0    0    0    0 -0.00000000000E+00 -0.00000000000E+00 -0.22015712600E+03  0.22015712600E+03  0.00000000000E+00 0.  1.
         25    2    1    2    0    0  0.18739792505E+03  0.36207825387E+02  0.29867537666E+03  0.37587753093E+03  0.12509176112E+03 0.  0.
         24    2    1    2    0    0 -0.46359788395E+03 -0.19009561948E+03  0.48259042862E+03  0.69948650999E+03  0.72996666504E+02 0.  0.
        -24    2    1    2    0    0  0.27619995890E+03  0.15388779409E+03  0.29007203085E+03  0.43628804721E+03  0.78978519791E+02 0.  0.
        -11    1    4    4    0    0 -0.42558665875E+03 -0.15227269237E+03  0.41939023879E+03  0.61660291058E+03  0.00000000000E+00 0.  1.
         12    1    4    4    0    0 -0.38011225193E+02 -0.37822927113E+02  0.63200189836E+02  0.82883599411E+02  0.00000000000E+00 0. -1.
         11    1    5    5    0    0  0.41100709310E+02  0.57792855806E+02  0.77900731762E+02  0.10534612711E+03  0.00000000000E+00 0. -1.
        -12    1    5    5    0    0  0.23509924959E+03  0.96094938286E+02  0.21217129909E+03  0.33094192010E+03  0.00000000000E+00 0.  1.
          5    1    3    3  501    0  0.50050042625E+02  0.17355578260E+02  0.79077363994E+01  0.53723621978E+02  0.41800000000E+01 0.  1.
         -5    1    3    3    0  501  0.13734788242E+03  0.18852247127E+02  0.29076764026E+03  0.32215390895E+03  0.41800000000E+01 0.  1.
</event>
<event>
11    1  0.1704459E-009  0.1636530E+03  0.7561462E-02  0.1083691E+00
         22   -1    0    0    0    0  0.00000000000E+00  0.00000000000E+00  0.24228289487E+03  0.24228289487E+03  0.00000000000E+00 0. -1.
         22   -1    0    0    0    0 -0.00000000000E+00 -0.00000000000E+00 -0.18716038496E+03  0.18716038496E+03  0.00000000000E+00 0. -1.
         25    2    1    2    0    0  0.10156596970E+03  0.62324343016E+02 -0.23314744598E+02  0.17432844057E+03  0.12508740122E+03 0.  0.
         24    2    1    2    0    0 -0.10383272748E+03 -0.49116805621E+01  0.68319483947E+02  0.15399229300E+03  0.90778381310E+02 0.  0.
        -24    2    1    2    0    0  0.22667577785E+01 -0.57412662454E+02  0.10117770557E+02  0.10112254626E+03  0.82595690447E+02 0.  0.
        -13    1    4    4    0    0 -0.22809622061E+02  0.39294911658E+02  0.18022399524E+02  0.48879196243E+02  0.00000000000E+00 0.  1.
         14    1    4    4    0    0 -0.81023105421E+02 -0.44206592220E+02  0.50297084422E+02  0.10511309675E+03  0.00000000000E+00 0. -1.
         11    1    5    5    0    0 -0.11588431336E+02  0.15325199722E+02 -0.13408217150E+02  0.23429335767E+02  0.00000000000E+00 0. -1.
        -12    1    5    5    0    0  0.13855189114E+02 -0.72737862176E+02  0.23525987706E+02  0.77693210494E+02  0.00000000000E+00 0.  1.
          5    1    3    3  501    0  0.84694569424E+02  0.88738994815E+02  0.16106070315E+02  0.12379279943E+03  0.41800000000E+01 0. -1.
         -5    1    3    3    0  501  0.16871400278E+02 -0.26414651799E+02 -0.39420814912E+02  0.50535641139E+02  0.41800000000E+01 0. -1.
</event>
<event>
11    1  0.1704459E-009  0.1394996E+03  0.7561462E-02  0.1108118E+00
         22   -1    0    0    0    0  0.00000000000E+00  0.00000000000E+00  0.26965720093E+03  0.26965720093E+03  0.00000000000E+00 0.  1.
         22   -1    0    0    0    0 -0.00000000000E+00 -0.00000000000E+00 -0.13200045708E+03  0.13200045708E+03  0.00000000000E+00 0. -1.
         25    2    1    2    0    0 -0.44882600931E+02 -0.42332765332E+02 -0.12414237088E+02  0.14002651014E+03  0.12508716710E+03 0.  0.
        -24    2    1    2    0    0  0.57710468175E+02  0.26345675918E+02  0.16725851684E+02  0.10457638407E+03  0.81436313850E+02 0.  0.
         24    2    1    2    0    0 -0.12827867245E+02  0.15987089414E+02  0.13334512925E+03  0.15705476380E+03  0.80406057790E+02 0.  0.
        -11    1    5    5    0    0 -0.14176013721E+02 -0.11087207851E+01  0.13843744007E+03  0.13916577683E+03  0.00000000000E+00 0.  1.
         12    1    5    5    0    0  0.13481464760E+01  0.17095810199E+02 -0.50923108173E+01  0.17888986968E+02  0.00000000000E+00 0. -1.
         13    1    4    4    0    0  0.45103504835E+02 -0.11514118149E+02  0.37328072557E+02  0.59668132751E+02  0.00000000000E+00 0. -1.
        -14    1    4    4    0    0  0.12606963340E+02  0.37859794067E+02 -0.20602220873E+02  0.44908251317E+02  0.00000000000E+00 0.  1.
          5    1    3    3  501    0 -0.81599521045E+02 -0.12631077664E+02 -0.32101536832E+02  0.88690512597E+02  0.41800000000E+01 0. -1.
         -5    1    3    3    0  501  0.36716920115E+02 -0.29701687668E+02  0.19687299743E+02  0.51335997548E+02  0.41800000000E+01 0. -1.
</event>
<event>
11    1  0.1704459E-009  0.1364822E+03  0.7561462E-02  0.1111551E+00
         22   -1    0    0    0    0  0.00000000000E+00  0.00000000000E+00  0.69097095538E+03  0.69097095538E+03  0.00000000000E+00 0.  1.
         22   -1    0    0    0    0 -0.00000000000E+00 -0.00000000000E+00 -0.46636764149E+02  0.46636764149E+02  0.00000000000E+00 0.  1.
         25    2    1    2    0    0  0.79955214937E+01 -0.27360261194E+02  0.17297565065E+03  0.21536449960E+03  0.12509508269E+03 0.  0.
        -24    2    1    2    0    0 -0.43793600568E+02  0.67535966626E+02  0.16993791473E+03  0.20322562074E+03  0.77089375565E+02 0.  0.
         24    2    1    2    0    0  0.35798079074E+02 -0.40175705432E+02  0.30142062585E+03  0.31901759918E+03  0.89566986819E+02 0.  0.
        -11    1    5    5    0    0  0.57378430763E+02 -0.61631374494E+01  0.11968283005E+03  0.13286929062E+03  0.00000000000E+00 0.  1.
         12    1    5    5    0    0 -0.21580351689E+02 -0.34012567982E+02  0.18173779580E+03  0.18614830857E+03  0.00000000000E+00 0. -1.
         11    1    4    4    0    0 -0.30733387737E+02 -0.19294186112E+01  0.96518577525E+02  0.10131189262E+03  0.00000000000E+00 0. -1.
        -12    1    4    4    0    0 -0.13060212831E+02  0.69465385237E+02  0.73419337207E+02  0.10191372813E+03  0.00000000000E+00 0.  1.
          5    1    3    3  501    0 -0.31116089773E+00 -0.40443085483E+02 -0.97841157836E+00  0.40671484774E+02  0.41800000000E+01 0. -1.
         -5    1    3    3    0  501  0.83066823915E+01  0.13082824290E+02  0.17395406223E+03  0.17469301483E+03  0.41800000000E+01 0. -1.
</event>
<event>
11    1  0.1704459E-009  0.6485870E+03  0.7561462E-02  0.9111699E-01
         22   -1    0    0    0    0  0.00000000000E+00  0.00000000000E+00  0.28961225541E+03  0.28961225541E+03  0.00000000000E+00 0. -1.
         22   -1    0    0    0    0 -0.00000000000E+00 -0.00000000000E+00 -0.17563105915E+04  0.17563105915E+04  0.00000000000E+00 0. -1.
         25    2    1    2    0    0 -0.43842271965E+01  0.11456481468E+02 -0.17269647127E+03  0.21359421314E+03  0.12509174347E+03 0.  0.
         24    2    1    2    0    0 -0.44752654269E+03 -0.46580976061E+03 -0.61792419917E+03  0.89724408525E+03  0.77187389545E+02 0.  0.
        -24    2    1    2    0    0  0.45191076989E+03  0.45435327914E+03 -0.67607766570E+03  0.93508454856E+03  0.81497586927E+02 0.  0.
        -13    1    4    4    0    0 -0.10276016497E+03 -0.10196956537E+03 -0.96577075702E+02  0.17402463998E+03  0.00000000000E+00 0.  1.
         14    1    4    4    0    0 -0.34476637772E+03 -0.36384019524E+03 -0.52134712347E+03  0.72321944528E+03  0.00000000000E+00 0. -1.
         13    1    5    5    0    0  0.34518409013E+03  0.31138094550E+03 -0.44905212308E+03  0.64634198265E+03  0.00000000000E+00 0. -1.
        -14    1    5    5    0    0  0.10672667976E+03  0.14297233364E+03 -0.22702554263E+03  0.28874256591E+03  0.00000000000E+00 0.  1.
          5    1    3    3  501    0 -0.58521705033E+02  0.23502257129E+02 -0.12603474355E+03  0.14099423758E+03  0.41800000000E+01 0. -1.
         -5    1    3    3    0  501  0.54137477837E+02 -0.12045775661E+02 -0.46661727719E+02  0.72599975561E+02  0.41800000000E+01 0. -1.
</event>
<event>
11    1  0.1704459E-009  0.5905408E+03  0.7561462E-02  0.9211247E-01
         22   -1    0    0    0    0  0.00000000000E+00  0.00000000000E+00  0.12217521600E+04  0.12217521600E+04  0.00000000000E+00 0.  1.
         22   -1    0    0    0    0 -0.00000000000E+00 -0.00000000000E+00 -0.35038849860E+03  0.35038849860E+03  0.00000000000E+00 0.  1.
         25    2    1    2    0    0  0.72102624126E+00  0.17539188727E+02  0.55888663138E+02  0.13812755408E+03  0.12509010956E+03 0.  0.
         24    2    1    2    0    0 -0.47872291286E+03  0.32527505347E+03  0.40781145157E+03  0.71391050467E+03  0.91534370251E+02 0.  0.
        -24    2    1    2    0    0  0.47800188662E+03 -0.34281424220E+03  0.40766354671E+03  0.72010259986E+03  0.79691773362E+02 0.  0.
        -13    1    4    4    0    0 -0.42857737993E+03  0.32020798167E+03  0.38128640938E+03  0.65695589509E+03  0.00000000000E+00 0.  1.
         14    1    4    4    0    0 -0.50145532931E+02  0.50670718045E+01  0.26525042190E+02  0.56954609584E+02  0.00000000000E+00 0. -1.
         11    1    5    5    0    0  0.94637289297E+02 -0.54598999918E+02  0.11307377764E+03  0.15723532207E+03  0.00000000000E+00 0. -1.
        -12    1    5    5    0    0  0.38336459732E+03 -0.28821524228E+03  0.29458976908E+03  0.56286727779E+03  0.00000000000E+00 0.  1.
          5    1    3    3  501    0  0.17344976608E+02 -0.45700457877E+02  0.53462634700E+02  0.72561048592E+02  0.41800000000E+01 0.  1.
         -5    1    3    3    0  501 -0.16623950367E+02  0.63239646605E+02  0.24260284379E+01  0.65566505492E+02  0.41800000000E+01 0.  1.
</event>
<event>
11    1  0.1704459E-009  0.1473867E+03  0.7561462E-02  0.1099579E+00
         22   -1    0    0    0    0  0.00000000000E+00  0.00000000000E+00  0.14521621284E+04  0.14521621284E+04  0.00000000000E+00 0.  1.
         22   -1    0    0    0    0 -0.00000000000E+00 -0.00000000000E+00 -0.29241694638E+02  0.29241694638E+02  0.00000000000E+00 0. -1.
         25    2    1    2    0    0  0.40695508692E+02 -0.55735428963E+02  0.30276470090E+03  0.33478007389E+03  0.12509464935E+03 0.  0.
         24    2    1    2    0    0 -0.10531127295E+03  0.25571182531E+02  0.57237405157E+03  0.58834893880E+03  0.82450405066E+02 0.  0.
        -24    2    1    2    0    0  0.64615764255E+02  0.30164246432E+02  0.54778168131E+03  0.55827481036E+03  0.80752181062E+02 0.  0.
        -11    1    4    4    0    0 -0.85089971378E+02 -0.11431648739E+02  0.46744501991E+03  0.47526396082E+03  0.00000000000E+00 0.  1.
         12    1    4    4    0    0 -0.20221301569E+02  0.37002831269E+02  0.10492903166E+03  0.11308497798E+03  0.00000000000E+00 0. -1.
         13    1    5    5    0    0 -0.89623451684E+01 -0.72046880641E+01  0.13841360165E+02  0.17994844046E+02  0.00000000000E+00 0. -1.
        -14    1    5    5    0    0  0.73578109423E+02  0.37368934496E+02  0.53394032115E+03  0.54027996631E+03  0.00000000000E+00 0.  1.
          5    1    3    3  501    0  0.52232802716E+02 -0.85148584866E+02  0.27464800434E+03  0.29227991014E+03  0.41800000000E+01 0.  1.
         -5    1    3    3    0  501 -0.11537294024E+02  0.29413155904E+02  0.28116696559E+02  0.42500163752E+02  0.41800000000E+01 0.  1.
</event>
<event>
11    1  0.1704459E-009  0.2270402E+03  0.7561462E-02  0.1036895E+00
         22   -1    0    0    0    0  0.00000000000E+00  0.00000000000E+00  0.24884317695E+03  0.24884317695E+03  0.00000000000E+00 0.  1.
         22   -1    0    0    0    0 -0.00000000000E+00 -0.00000000000E+00 -0.43704432424E+03  0.43704432424E+03  0.00000000000E+00 0.  1.
         25    2    1    2    0    0  0.14818136075E+03  0.12535099822E+03 -0.30571713813E+03  0.38312003412E+03  0.12508958220E+03 0.  0.
        -24    2    1    2    0    0 -0.11278551539E+03 -0.13303963428E+03  0.77931065670E+02  0.20668724673E+03  0.78906591561E+02 0.  0.
         24    2    1    2    0    0 -0.35395845360E+02  0.76886360611E+01  0.39584925169E+02  0.96080220334E+02  0.79702330240E+02 0.  0.
        -13    1    5    5    0    0 -0.56651890577E+02  0.15457496960E+02  0.11206286560E+02  0.59782537389E+02  0.00000000000E+00 0.  1.
         14    1    5    5    0    0  0.21256045217E+02 -0.77688608992E+01  0.28378638608E+02  0.36297682945E+02  0.00000000000E+00 0. -1.
         13    1    4    4    0    0 -0.69203732458E+02 -0.44811521049E+02  0.21310284631E+01  0.82472845756E+02  0.00000000000E+00 0. -1.
        -14    1    4    4    0    0 -0.43581782933E+02 -0.88228113229E+02  0.75800037207E+02  0.12421440097E+03  0.00000000000E+00 0.  1.
          5    1    3    3  501    0  0.10478159083E+03  0.11699728313E+03 -0.13634438389E+03  0.20802598265E+03  0.41800000000E+01 0. -1.
         -5    1    3    3    0  501  0.43399769920E+02  0.83537150839E+01 -0.16937275424E+03  0.17509405148E+03  0.41800000000E+01 0. -1.
</event>
<event>
11    1  0.1704459E-009  0.6261457E+03  0.7561462E-02  0.9148829E-01
         22   -1    0    0    0    0  0.00000000000E+00  0.00000000000E+00  0.72789155363E+03  0.72789155363E+03  0.00000000000E+00 0.  1.
         22   -1    0    0    0    0 -0.00000000000E+00 -0.00000000000E+00 -0.12602981393E+04  0.12602981393E+04  0.00000000000E+00 0.  1.
         25    2    1    2    0    0 -0.66248659523E+03  0.11083765538E+03 -0.63129460310E+03  0.93024295659E+03  0.12508240350E+03 0.  0.
        -24    2    1    2    0    0  0.55392179970E+03  0.68408578193E+02 -0.27068599366E+03  0.62552880786E+03  0.80661567961E+02 0.  0.
         24    2    1    2    0    0  0.10856479553E+03 -0.17924623357E+03  0.36957401106E+03  0.43241792852E+03  0.80528182526E+02 0.  0.
        -13    1    5    5    0    0  0.81499013447E+02 -0.85306478715E+02  0.14121900057E+03  0.18401654987E+03  0.00000000000E+00 0.  1.
         14    1    5    5    0    0  0.27065782082E+02 -0.93939754857E+02  0.22835501049E+03  0.24840137866E+03  0.00000000000E+00 0. -1.
         11    1    4    4    0    0  0.40958625491E+02  0.55892039308E+01  0.16429003611E+01  0.41370851142E+02  0.00000000000E+00 0. -1.
        -12    1    4    4    0    0  0.51296317421E+03  0.62819374262E+02 -0.27232889402E+03  0.58415795672E+03  0.00000000000E+00 0.  1.
          5    1    3    3  501    0 -0.40396888848E+03  0.12633221054E+03 -0.41515156410E+03  0.59289036411E+03  0.41800000000E+01 0. -1.
         -5    1    3    3    0  501 -0.25851770675E+03 -0.15494555159E+02 -0.21614303900E+03  0.33735259248E+03  0.41800000000E+01 0. -1.
</event>
<event>
11    1  0.1704459E-009  0.7003378E+03  0.7561462E-02  0.9031807E-01
         22   -1    0    0    0    0  0.00000000000E+00  0.00000000000E+00  0.66127204908E+03  0.66127204908E+03  0.00000000000E+00 0. -1.
         22   -1    0    0    0    0 -0.00000000000E+00 -0.00000000000E+00 -0.13398016246E+04  0.13398016246E+04  0.00000000000E+00 0. -1.
         25    2    1    2    0    0 -0.39351379586E+02  0.73282148856E+03 -0.84891241517E+03  0.11291058487E+04  0.12510740922E+03 0.  0.
         24    2    1    2    0    0  0.19026358014E+03 -0.54450655255E+03  0.19948418824E+03  0.61564435518E+03  0.80848098396E+02 0.  0.
        -24    2    1    2    0    0 -0.15091220056E+03 -0.18831493601E+03 -0.29101348599E+02  0.25632346978E+03  0.81350017012E+02 0.  0.
        -13    1    4    4    0    0  0.67562517174E+02 -0.16918800674E+03  0.10252869910E+03  0.20904882083E+03  0.00000000000E+00 0.  1.
         14    1    4    4    0    0  0.12270106297E+03 -0.37531854581E+03  0.96955489139E+02  0.40659553435E+03  0.00000000000E+00 0. -1.
         13    1    5    5    0    0 -0.14486958939E+03 -0.17318532860E+03 -0.33040071551E+01  0.22581247183E+03  0.00000000000E+00 0. -1.
        -14    1    5    5    0    0 -0.60426111704E+01 -0.15129607407E+02 -0.25797341444E+02  0.30510997945E+02  0.00000000000E+00 0.  1.
          5    1    3    3  501    0 -0.70030772053E+02  0.25066897299E+03 -0.32573353369E+03  0.41696408769E+03  0.41800000000E+01 0.  1.
         -5    1    3    3    0  501  0.30679392467E+02  0.48215251557E+03 -0.52317888148E+03  0.71214176104E+03  0.41800000000E+01 0.  1.
</event>
<event>
11    1  0.1704459E-009  0.1359651E+03  0.7561462E-02  0.1112150E+00
         22   -1    0    0    0    0  0.00000000000E+00  0.00000000000E+00  0.17357057357E+03  0.17357057357E+03  0.00000000000E+00 0.  1.
         22   -1    0    0    0    0 -0.00000000000E+00 -0.00000000000E+00 -0.14969740600E+03  0.14969740600E+03  0.00000000000E+00 0. -1.
         25    2    1    2    0    0  0.49732904662E+02 -0.59892447582E+01 -0.45223383570E+01  0.13483037203E+03  0.12509814075E+03 0.  0.
        -24    2    1    2    0    0 -0.54415140779E+02  0.12138098409E+02 -0.41348123270E+01  0.10185255172E+03  0.85138150315E+02 0.  0.
         24    2    1    2    0    0  0.46822361179E+01 -0.61488536505E+01  0.32530318252E+02  0.86585055827E+02  0.79868758290E+02 0.  0.
        -11    1    5    5    0    0  0.38081862521E+02 -0.19641678126E+02  0.25564700197E+02  0.49895667837E+02  0.00000000000E+00 0.  1.
         12    1    5    5    0    0 -0.33399626404E+02  0.13492824476E+02  0.69656180548E+01  0.36689387990E+02  0.00000000000E+00 0. -1.
         11    1    4    4    0    0 -0.92765246621E+01  0.29470981622E+02 -0.33267894481E+02  0.45402042584E+02  0.00000000000E+00 0. -1.
        -12    1    4    4    0    0 -0.45138616117E+02 -0.17332883213E+02  0.29133082154E+02  0.56450509132E+02  0.00000000000E+00 0.  1.
          5    1    3    3  501    0  0.46437748247E+02  0.12796982593E+02  0.54385953989E+02  0.72770403442E+02  0.41800000000E+01 0. -1.
         -5    1    3    3    0  501  0.32951564142E+01 -0.18786227352E+02 -0.58908292346E+02  0.62059968587E+02  0.41800000000E+01 0. -1.
</event>
<event>
11    1  0.1704459E-009  0.3092721E+03  0.7561462E-02  0.9963417E-01
         22   -1    0    0    0    0  0.00000000000E+00  0.00000000000E+00  0.15526710038E+03  0.15526710038E+03  0.00000000000E+00 0.  1.
         22   -1    0    0    0    0 -0.00000000000E+00 -0.00000000000E+00 -0.14632602760E+04  0.14632602760E+04  0.00000000000E+00 0.  1.
         25    2    1    2    0    0 -0.28199917182E+03 -0.64165372653E+02 -0.11712241275E+04  0.12128702497E+04  0.12509019824E+03 0.  0.
         24    2    1    2    0    0  0.25429908828E+03  0.50235164422E+02 -0.16112446981E+03  0.31640061627E+03  0.83406577420E+02 0.  0.
        -24    2    1    2    0    0  0.27700083536E+02  0.13930208231E+02  0.24355421740E+02  0.89256510416E+02  0.80076168454E+02 0.  0.
        -13    1    4    4    0    0  0.18862691358E+03  0.17058002388E+02 -0.76499943662E+02  0.20426289274E+03  0.00000000000E+00 0.  1.
         14    1    4    4    0    0  0.65672174703E+02  0.33177162035E+02 -0.84624526153E+02  0.11213772353E+03  0.00000000000E+00 0. -1.
         13    1    5    5    0    0 -0.20516134013E+02 -0.80698087513E+01 -0.11891417786E+02  0.25048740189E+02  0.00000000000E+00 0. -1.
        -14    1    5    5    0    0  0.48216217548E+02  0.22000016982E+02  0.36246839526E+02  0.64207770227E+02  0.00000000000E+00 0.  1.
          5    1    3    3  501    0 -0.28608550047E+03 -0.42908308067E+02 -0.11257710568E+04  0.11623527783E+04  0.41800000000E+01 0.  1.
         -5    1    3    3    0  501  0.40863286480E+01 -0.21257064586E+02 -0.45453070749E+02  0.50517471405E+02  0.41800000000E+01 0.  1.
</event>
<event>
11    1  0.1704459E-009  0.2060266E+03  0.7561462E-02  0.1050342E+00
         22   -1    0    0    0    0  0.00000000000E+00  0.00000000000E+00  0.22240869657E+03  0.22240869657E+03  0.00000000000E+00 0.  1.
         22   -1    0    0    0    0 -0.00000000000E+00 -0.00000000000E+00 -0.10624136026E+04  0.10624136026E+04  0.00000000000E+00 0.  1.
         25    2    1    2    0    0 -0.11306325279E+02 -0.15825402256E+03 -0.90833560335E+03  0.93053391847E+03  0.12509051307E+03 0.  0.
        -24    2    1    2    0    0  0.27085399071E+02  0.22489939177E+03  0.32427830066E+02  0.24279058432E+03  0.81131673291E+02 0.  0.
         24    2    1    2    0    0 -0.15779073792E+02 -0.66645369208E+02  0.35902867212E+02  0.11149779642E+03  0.80325328049E+02 0.  0.
        -13    1    5    5    0    0 -0.17970564552E+02 -0.66596335887E+02 -0.62748358845E+01  0.69263169934E+02  0.00000000000E+00 0.  1.
         14    1    5    5    0    0  0.21914907599E+01 -0.49033320787E-01  0.42177703096E+02  0.42234626487E+02  0.00000000000E+00 0. -1.
         11    1    4    4    0    0  0.14957066458E+02  0.21149178775E+02  0.28678501659E+02  0.38645285059E+02  0.00000000000E+00 0. -1.
        -12    1    4    4    0    0  0.12128332613E+02  0.20375021299E+03  0.37493284070E+01  0.20414529926E+03  0.00000000000E+00 0.  1.
          5    1    3    3  501    0 -0.80057717370E+00 -0.16119702057E+03 -0.58023187881E+03  0.60222223967E+03  0.41800000000E+01 0.  1.
         -5    1    3    3    0  501 -0.10505748105E+02  0.29429980059E+01 -0.32810372454E+03  0.32831167880E+03  0.41800000000E+01 0.  1.
</event>
<event>
11    1  0.1704459E-009  0.1514388E+03  0.7561462E-02  0.1095418E+00
         22   -1    0    0    0    0  0.00000000000E+00  0.00000000000E+00  0.50330469209E+03  0.50330469209E+03  0.00000000000E+00 0. -1.
         22   -1    0    0    0    0 -0.00000000000E+00 -0.00000000000E+00 -0.12042717378E+03  0.12042717378E+03  0.00000000000E+00 0.  1.
         25    2    1    2    0    0 -0.16664348580E+02  0.75922299675E+02 -0.72401646353E+01  0.14745491021E+03  0.12509450211E+03 0.  0.
         24    2    1    2    0    0  0.12237473196E+02 -0.96282512998E+02  0.67814085853E+02  0.14355331809E+03  0.81170972865E+02 0.  0.
        -24    2    1    2    0    0  0.44268753844E+01  0.20360213322E+02  0.32230359710E+03  0.33272363757E+03  0.79945448785E+02 0.  0.
        -13    1    4    4    0    0  0.30331983063E+02 -0.96997485995E+02  0.37666174127E+02  0.10838487975E+03  0.00000000000E+00 0.  1.
         14    1    4    4    0    0 -0.18094509868E+02  0.71497299727E+00  0.30147911726E+02  0.35168438338E+02  0.00000000000E+00 0. -1.
         11    1    5    5    0    0 -0.15854735544E+02 -0.14139206765E+02  0.24268658810E+03  0.24361459285E+03  0.00000000000E+00 0. -1.
        -12    1    5    5    0    0  0.20281610928E+02  0.34499420088E+02  0.79617009003E+02  0.89109044719E+02  0.00000000000E+00 0.  1.
          5    1    3    3  501    0  0.18652199013E+02  0.54956349614E+01 -0.52749072875E+02  0.56374139646E+02  0.41800000000E+01 0. -1.
         -5    1    3    3    0  501 -0.35316547593E+02  0.70426664714E+02  0.45508908240E+02  0.91080770560E+02  0.41800000000E+01 0. -1.
</event>
<event>
11    1  0.1704459E-009  0.1900609E+03  0.7561462E-02  0.1061783E+00
         22   -1    0    0    0    0  0.00000000000E+00  0.00000000000E+00  0.60660010081E+03  0.60660010081E+03  0.00000000000E+00 0.  1.
         22   -1    0    0    0    0 -0.00000000000E+00 -0.00000000000E+00 -0.42059492033E+03  0.42059492033E+03  0.00000000000E+00 0. -1.
         25    2    1    2    0    0  0.12457234810E+03  0.75620768093E+02 -0.36578118400E+03  0.41312257657E+03  0.12505046274E+03 0.  0.
        -24    2    1    2    0    0 -0.10982395740E+02 -0.77444983242E+02  0.14218889734E+03  0.18097999716E+03  0.80110788287E+02 0.  0.
         24    2    1    2    0    0 -0.11358995236E+03  0.18242151488E+01  0.40959746714E+03  0.43309244741E+03  0.83023959639E+02 0.  0.
        -11    1    5    5    0    0 -0.84853934148E+02  0.14658451009E+02  0.38086285005E+03  0.39047608233E+03  0.00000000000E+00 0.  1.
         12    1    5    5    0    0 -0.28736018211E+02 -0.12834235860E+02  0.28734617094E+02  0.42616365076E+02  0.00000000000E+00 0. -1.
         11    1    4    4    0    0  0.25651503254E+02  0.61890786388E+00  0.29903292608E+02  0.39402913280E+02  0.00000000000E+00 0. -1.
        -12    1    4    4    0    0 -0.36633898995E+02 -0.78063891106E+02  0.11228560473E+03  0.14157708388E+03  0.00000000000E+00 0.  1.
          5    1    3    3  501    0  0.34089666296E+02  0.23791084397E+02 -0.10848639459E+02  0.43165801545E+02  0.41800000000E+01 0.  1.
         -5    1    3    3    0  501  0.90482681804E+02  0.51829683696E+02 -0.35493254454E+03  0.36995677503E+03  0.41800000000E+01 0.  1.
</event>
<event>
11    1  0.1704459E-009  0.1536836E+03  0.7561462E-02  0.1093173E+00
         22   -1    0    0    0    0  0.00000000000E+00  0.00000000000E+00  0.36976912893E+03  0.36976912893E+03  0.00000000000E+00 0. -1.
         22   -1    0    0    0    0 -0.00000000000E+00 -0.00000000000E+00 -0.25495447462E+03  0.25495447462E+03  0.00000000000E+00 0. -1.
         25    2    1    2    0    0 -0.72645612796E+02 -0.61099742975E+01 -0.13024339978E+03  0.19474508256E+03  0.12509031598E+03 0.  0.
         24    2    1    2    0    0  0.22016763185E+02  0.13094639531E+03  0.19012861888E+02  0.15448974485E+03  0.76641346808E+02 0.  0.
        -24    2    1    2    0    0  0.50628849610E+02 -0.12483642101E+03  0.22604519220E+03  0.27548877614E+03  0.81548908272E+02 0.  0.
        -13    1    4    4    0    0  0.42204502792E+02  0.79215618805E+02  0.35562917351E+02  0.96545613101E+02  0.00000000000E+00 0.  1.
         14    1    4    4    0    0 -0.20187739606E+02  0.51730776505E+02 -0.16550055463E+02  0.57944131748E+02  0.00000000000E+00 0. -1.
         11    1    5    5    0    0  0.54521197178E+02 -0.10983707698E+03  0.13197323276E+03  0.18014904548E+03  0.00000000000E+00 0. -1.
        -12    1    5    5    0    0 -0.38923475677E+01 -0.14999344035E+02  0.94071959437E+02  0.95339730665E+02  0.00000000000E+00 0.  1.
          5    1    3    3  501    0  0.11067377789E-01  0.43027354345E+02 -0.75790924726E+01  0.43889274169E+02  0.41800000000E+01 0. -1.
         -5    1    3    3    0  501 -0.72656680173E+02 -0.49137328642E+02 -0.12266430731E+03  0.15085580840E+03  0.41800000000E+01 0. -1.
</event>
<event>
11    1  0.1704459E-009  0.1335463E+04  0.7561462E-02  0.8412464E-01
         22   -1    0    0    0    0  0.00000000000E+00  0.00000000000E+00  0.94313292745E+03  0.94313292745E+03  0.00000000000E+00 0.  1.
         22   -1    0    0    0    0 -0.00000000000E+00 -0.00000000000E+00 -0.47274935670E+03  0.47274935670E+03  0.00000000000E+00 0. -1.
         25    2    1    2    0    0  0.53652228394E+03 -0.21454438272E+03 -0.24806894242E+02  0.59173389068E+03  0.12509261392E+03 0.  0.
         24    2    1    2    0    0 -0.27313192602E+03  0.21036829779E+02  0.94921867231E+02  0.30100572938E+03  0.80936339308E+02 0.  0.
        -24    2    1    2    0    0 -0.26339035792E+03  0.19350755294E+03  0.40026859776E+03  0.52314266409E+03  0.81508545251E+02 0.  0.
        -13    1    4    4    0    0 -0.23740204283E+03  0.43492047734E+02  0.67268437396E+02  0.25055205213E+03  0.00000000000E+00 0.  1.
         14    1    4    4    0    0 -0.35729883186E+02 -0.22455217955E+02  0.27653429835E+02  0.50453677245E+02  0.00000000000E+00 0. -1.
         13    1    5    5    0    0 -0.17284724147E+02  0.22125218286E+02  0.78094139277E+02  0.82987839847E+02  0.00000000000E+00 0. -1.
        -14    1    5    5    0    0 -0.24610563377E+03  0.17138233466E+03  0.32217445849E+03  0.44015482425E+03  0.00000000000E+00 0.  1.
          5    1    3    3  501    0  0.32414480894E+01 -0.22625636820E+02 -0.84312786148E+01  0.24718116561E+02  0.41800000000E+01 0.  1.
         -5    1    3    3    0  501  0.53328083585E+03 -0.19191874590E+03 -0.16375615627E+02  0.56701577412E+03  0.41800000000E+01 0.  1.
</event>
<event>
11    1  0.1704459E-009  0.1768781E+03  0.7561462E-02  0.1072196E+00
         22   -1    0    0    0    0  0.00000000000E+00  0.00000000000E+00  0.52149087828E+03  0.52149087828E+03  0.00000000000E+00 0.  1.
         22   -1    0    0    0    0 -0.00000000000E+00 -0.00000000000E+00 -0.35460315622E+03  0.35460315622E+03  0.00000000000E+00 0. -1.
         25    2    1    2    0    0  0.10091853383E+03 -0.82499479894E+02 -0.26472973199E+03  0.32050028624E+03  0.12509151780E+03 0.  0.
         24    2    1    2    0    0 -0.47980008828E+02  0.10747928781E+03  0.35167407424E+02  0.14646939024E+03  0.79766265920E+02 0.  0.
        -24    2    1    2    0    0 -0.52938525000E+02 -0.24979807912E+02  0.39645004663E+03  0.40912435802E+03  0.82362750172E+02 0.  0.
        -11    1    4    4    0    0 -0.65118936737E+01  0.45591665765E+01 -0.20746683737E+02  0.22217462617E+02  0.00000000000E+00 0.  1.
         12    1    4    4    0    0 -0.41468115155E+02  0.10292012123E+03  0.55914091161E+02  0.12425192763E+03  0.00000000000E+00 0. -1.
         13    1    5    5    0    0  0.13135032131E+02  0.10069434131E+02  0.23468481937E+02  0.28717454923E+02  0.00000000000E+00 0. -1.
        -14    1    5    5    0    0 -0.66073557131E+02 -0.35049242042E+02  0.37298156470E+03  0.38040690310E+03  0.00000000000E+00 0.  1.
          5    1    3    3  501    0  0.37355942988E+02  0.12811235055E+02 -0.96850210391E+01  0.40876230901E+02  0.41800000000E+01 0.  1.
         -5    1    3    3    0  501  0.63562590841E+02 -0.95310714949E+02 -0.25504471095E+03  0.27962405534E+03  0.41800000000E+01 0.  1.
</event>
<event>
11    1  0.1704459E-009  0.2024095E+03  0.7561462E-02  0.1052833E+00
         22   -1    0    0    0    0  0.00000000000E+00  0.00000000000E+00  0.49578967842E+02  0.49578967842E+02  0.00000000000E+00 0.  1.
         22   -1    0    0    0    0 -0.00000000000E+00 -0.00000000000E+00 -0.34352573523E+04  0.34352573523E+04  0.00000000000E+00 0.  1.
         25    2    1    2    0    0  0.77358326643E+02  0.17230481592E+03 -0.22779712656E+04  0.22892082614E+04  0.12509243346E+03 0.  0.
         24    2    1    2    0    0 -0.98899712399E+02 -0.91571834353E+02 -0.10571891615E+04  0.10688087894E+04  0.80850176964E+02 0.  0.
        -24    2    1    2    0    0  0.21541385756E+02 -0.80732981562E+02 -0.50517957411E+02  0.12681926940E+03  0.80927235579E+02 0.  0.
        -13    1    4    4    0    0 -0.56210009423E+02 -0.98126097286E+02 -0.71123881369E+03  0.72017285857E+03  0.00000000000E+00 0.  1.
         14    1    4    4    0    0 -0.42689702976E+02  0.65542629323E+01 -0.34595034780E+03  0.34863593081E+03  0.00000000000E+00 0. -1.
         13    1    5    5    0    0  0.10654253267E+02 -0.40339867728E+02 -0.69356186722E+02  0.80938857649E+02  0.00000000000E+00 0. -1.
        -14    1    5    5    0    0  0.10887132489E+02 -0.40393113834E+02  0.18838229310E+02  0.45880411753E+02  0.00000000000E+00 0.  1.
          5    1    3    3  501    0 -0.42546824439E+01  0.10948834545E+03 -0.77656438446E+03  0.78426750266E+03  0.41800000000E+01 0. -1.
         -5    1    3    3    0  501  0.81613009087E+02  0.62816470461E+02 -0.15014068811E+04  0.15049407587E+04  0.41800000000E+01 0. -1.
</event>
<event>
11    1  0.1704459E-009  0.3067577E+03  0.7561462E-02  0.9973711E-01
         22   -1    0    0    0    0  0.00000000000E+00  0.00000000000E+00  0.85747827274E+02  0.85747827274E+02  0.00000000000E+00 0.  1.
         22   -1    0    0    0    0 -0.00000000000E+00 -0.00000000000E+00 -0.86790965262E+03  0.86790965262E+03  0.00000000000E+00 0. -1.
         25    2    1    2    0    0  0.69871246934E+02 -0.10323945474E+02 -0.31854048315E+03  0.34943490998E+03  0.12509253339E+03 0.  0.
         24    2    1    2    0    0  0.13711554364E+03 -0.85939226181E+01 -0.24203810787E+03  0.28958671102E+03  0.80021807792E+02 0.  0.
        -24    2    1    2    0    0 -0.20698679057E+03  0.18917868092E+02 -0.22158323433E+03  0.31463585890E+03  0.81824059834E+02 0.  0.
        -11    1    4    4    0    0  0.36759517803E+01  0.21711614564E+02 -0.37782094036E+02  0.43730921077E+02  0.00000000000E+00 0.  1.
         12    1    4    4    0    0  0.13343959186E+03 -0.30305537182E+02 -0.20425601384E+03  0.24585578994E+03  0.00000000000E+00 0. -1.
         13    1    5    5    0    0 -0.32680067341E+02  0.32012394119E+02 -0.67972411707E+02  0.81933075933E+02  0.00000000000E+00 0. -1.
        -14    1    5    5    0    0 -0.17430672323E+03 -0.13094526026E+02 -0.15361082262E+03  0.23270278297E+03  0.00000000000E+00 0.  1.
          5    1    3    3  501    0 -0.31053344317E+02 -0.18415985726E+02 -0.45740674286E+02  0.58422088354E+02  0.41800000000E+01 0.  1.
         -5    1    3    3    0  501  0.10092459125E+03  0.80920402519E+01 -0.27279980886E+03  0.29101282162E+03  0.41800000000E+01 0.  1.
</event>
<event>
11    1  0.1704459E-009  0.4515627E+03  0.7561462E-02  0.9508786E-01
         22   -1    0    0    0    0  0.00000000000E+00  0.00000000000E+00  0.60019121487E+03  0.60019121487E+03  0.00000000000E+00 0. -1.
         22   -1    0    0    0    0 -0.00000000000E+00 -0.00000000000E+00 -0.53514907221E+03  0.53514907221E+03  0.00000000000E+00 0. -1.
         25    2    1    2    0    0  0.57113476284E+02  0.42013865806E+03 -0.15954723739E+03  0.46996479230E+03  0.12503257125E+03 0.  0.
         24    2    1    2    0    0  0.60451554596E+02 -0.46406499677E+03  0.20414559252E+03  0.51648020538E+03  0.77882398004E+02 0.  0.
        -24    2    1    2    0    0 -0.11756503088E+03  0.43926338713E+02  0.20443787531E+02  0.14889528940E+03  0.77464824527E+02 0.  0.
        -11    1    4    4    0    0  0.40711095882E+02 -0.83602417355E+02  0.31138579690E+02  0.98063085107E+02  0.00000000000E+00 0.  1.
         12    1    4    4    0    0  0.19740458714E+02 -0.38046257942E+03  0.17300701283E+03  0.41841712027E+03  0.00000000000E+00 0. -1.
         13    1    5    5    0    0 -0.74594584058E+02  0.62777526138E+02 -0.53153822012E+00  0.97496934782E+02  0.00000000000E+00 0. -1.
        -14    1    5    5    0    0 -0.42970446821E+02 -0.18851187425E+02  0.20975325751E+02  0.51398354621E+02  0.00000000000E+00 0.  1.
          5    1    3    3  501    0  0.24904015989E+02  0.24056212122E+03 -0.15525743685E+03  0.28742423049E+03  0.41800000000E+01 0.  1.
         -5    1    3    3    0  501  0.32209460294E+02  0.17957653684E+03 -0.42898005412E+01  0.18254056181E+03  0.41800000000E+01 0.  1.
</event>
<event>
11    1  0.1704459E-009  0.1414851E+03  0.7561462E-02  0.1105911E+00
         22   -1    0    0    0    0  0.00000000000E+00  0.00000000000E+00  0.15079122128E+03  0.15079122128E+03  0.00000000000E+00 0.  1.
         22   -1    0    0    0    0 -0.00000000000E+00 -0.00000000000E+00 -0.27973242176E+03  0.27973242176E+03  0.00000000000E+00 0.  1.
         25    2    1    2    0    0  0.25464169693E+02 -0.75068706670E+02 -0.14067059783E+03  0.20426116120E+03  0.12510263874E+03 0.  0.
        -24    2    1    2    0    0 -0.42496601850E+02  0.11504711756E+02 -0.53310478945E+02  0.10778034899E+03  0.82681780951E+02 0.  0.
         24    2    1    2    0    0  0.17032432156E+02  0.63563994914E+02  0.65039876298E+02  0.11848213286E+03  0.74009087978E+02 0.  0.
        -11    1    5    5    0    0 -0.96542508146E+01  0.62403819109E+02  0.20217289210E+02  0.66303695079E+02  0.00000000000E+00 0.  1.
         12    1    5    5    0    0  0.26686682971E+02  0.11601758053E+01  0.44822587088E+02  0.52178437780E+02  0.00000000000E+00 0. -1.
         11    1    4    4    0    0 -0.13228250123E+02 -0.34661033196E+02 -0.11120571393E+02  0.38730361884E+02  0.00000000000E+00 0. -1.
        -12    1    4    4    0    0 -0.29268351726E+02  0.46165744952E+02 -0.42189907552E+02  0.69049987104E+02  0.00000000000E+00 0.  1.
          5    1    3    3  501    0 -0.13068427738E+02  0.31570523643E+02 -0.37506474406E+02  0.50908641595E+02  0.41800000000E+01 0.  1.
         -5    1    3    3    0  501  0.38532597432E+02 -0.10663923031E+03 -0.10316412343E+03  0.15335251960E+03  0.41800000000E+01 0.  1.
</event>
<event>
11    1  0.1704459E-009  0.1449055E+04  0.7561462E-02  0.8340227E-01
         22   -1    0    0    0    0  0.00000000000E+00  0.00000000000E+00  0.21703697393E+04  0.21703697393E+04  0.00000000000E+00 0. -1.
         22   -1    0    0    0    0 -0.00000000000E+00 -0.00000000000E+00 -0.24186682503E+03  0.24186682503E+03  0.00000000000E+00 0. -1.
         25    2    1    2    0    0 -0.58305828626E+03  0.24296158705E+03  0.48159726176E+03  0.80409550012E+03  0.12508538214E+03 0.  0.
        -24    2    1    2    0    0  0.56144093633E+03 -0.21952185372E+03  0.13392623128E+04  0.14708565480E+04  0.79935430210E+02 0.  0.
         24    2    1    2    0    0  0.21617349931E+02 -0.23439733333E+02  0.10764333968E+03  0.13728451619E+03  0.79014042374E+02 0.  0.
        -13    1    5    5    0    0 -0.36272039250E+01 -0.84182359122E+01 -0.11424059757E+02  0.14646926146E+02  0.00000000000E+00 0.  1.
         14    1    5    5    0    0  0.25244553856E+02 -0.15021497421E+02  0.11906739944E+03  0.12263759005E+03  0.00000000000E+00 0. -1.
         11    1    4    4    0    0  0.28441876465E+03 -0.90829783302E+02  0.74717141828E+03  0.80461743178E+03  0.00000000000E+00 0. -1.
        -12    1    4    4    0    0  0.27702217168E+03 -0.12869207042E+03  0.59209089452E+03  0.66623911621E+03  0.00000000000E+00 0.  1.
          5    1    3    3  501    0 -0.43682828035E+03  0.14200343508E+03  0.29248066139E+03  0.54456067777E+03  0.41800000000E+01 0.  1.
         -5    1    3    3    0  501 -0.14623000591E+03  0.10095815197E+03  0.18911660037E+03  0.25953482235E+03  0.41800000000E+01 0.  1.
</event>
<event>
11    1  0.1704459E-009  0.1706924E+03  0.7561462E-02  0.1077431E+00
         22   -1    0    0    0    0  0.00000000000E+00  0.00000000000E+00  0.17499454326E+03  0.17499454326E+03  0.00000000000E+00 0. -1.
         22   -1    0    0    0    0 -0.00000000000E+00 -0.00000000000E+00 -0.36655318542E+03  0.36655318542E+03  0.00000000000E+00 0. -1.
         25    2    1    2    0    0 -0.33240061153E+02  0.11214095047E+03 -0.24104752981E+03  0.29568909107E+03  0.12509049730E+03 0.  0.
        -24    2    1    2    0    0  0.72858152027E+02 -0.94602589632E+02  0.46543601531E+02  0.15398634102E+03  0.85367008238E+02 0.  0.
         24    2    1    2    0    0 -0.39618090874E+02 -0.17538360841E+02  0.29452861179E+01  0.91872296587E+02  0.80960835868E+02 0.  0.
        -13    1    5    5    0    0 -0.39302330481E+02 -0.31157030405E+02 -0.28441237537E+02  0.57657069970E+02  0.00000000000E+00 0.  1.
         14    1    5    5    0    0 -0.31576039339E+00  0.13618669564E+02  0.31386523655E+02  0.34215226617E+02  0.00000000000E+00 0. -1.
         13    1    4    4    0    0  0.46710894493E+02 -0.56583391795E+02 -0.17135100241E+02  0.75347193390E+02  0.00000000000E+00 0. -1.
        -14    1    4    4    0    0  0.26147257534E+02 -0.38019197836E+02  0.63678701772E+02  0.78639147630E+02  0.00000000000E+00 0.  1.
          5    1    3    3  501    0 -0.58999834317E+02  0.65814261479E+02 -0.22237601717E+03  0.23933462531E+03  0.41800000000E+01 0. -1.
         -5    1    3    3    0  501  0.25759773164E+02  0.46326688993E+02 -0.18671512640E+02  0.56354465757E+02  0.41800000000E+01 0. -1.
</event>
<event>
11    1  0.1704459E-009  0.1727358E+03  0.7561462E-02  0.1075675E+00
         22   -1    0    0    0    0  0.00000000000E+00  0.00000000000E+00  0.36636251385E+02  0.36636251385E+02  0.00000000000E+00 0.  1.
         22   -1    0    0    0    0 -0.00000000000E+00 -0.00000000000E+00 -0.25158486016E+04  0.25158486016E+04  0.00000000000E+00 0.  1.
         25    2    1    2    0    0 -0.57549832476E+02 -0.33481745383E+02 -0.14302482672E+04  0.14372510196E+04  0.12508947598E+03 0.  0.
         24    2    1    2    0    0 -0.13588634118E+03  0.39380802760E+01 -0.31702463598E+03  0.35376600838E+03  0.78518549841E+02 0.  0.
        -24    2    1    2    0    0  0.19343617365E+03  0.29543665107E+02 -0.73193944706E+03  0.76146782504E+03  0.76207040264E+02 0.  0.
        -11    1    4    4    0    0 -0.98654716421E+02 -0.33362379103E+02 -0.20323915046E+03  0.22836802248E+03  0.00000000000E+00 0.  1.
         12    1    4    4    0    0 -0.37231624757E+02  0.37300459379E+02 -0.11378548552E+03  0.12539798589E+03  0.00000000000E+00 0. -1.
         11    1    5    5    0    0  0.26318788576E+01  0.33081929694E+01  0.38055825371E+00  0.42444966284E+01  0.00000000000E+00 0. -1.
        -12    1    5    5    0    0  0.19080429480E+03  0.26235472138E+02 -0.73232000531E+03  0.75722332841E+03  0.00000000000E+00 0.  1.
          5    1    3    3  501    0 -0.14260820560E+02 -0.76624624550E+02 -0.66784520496E+03  0.67239080473E+03  0.41800000000E+01 0.  1.
         -5    1    3    3    0  501 -0.43289011916E+02  0.43142879167E+02 -0.76240306219E+03  0.76486021482E+03  0.41800000000E+01 0.  1.
</event>
<event>
11    1  0.1704459E-009  0.5473121E+03  0.7561462E-02  0.9293602E-01
         22   -1    0    0    0    0  0.00000000000E+00  0.00000000000E+00  0.40020930107E+03  0.40020930107E+03  0.00000000000E+00 0.  1.
         22   -1    0    0    0    0 -0.00000000000E+00 -0.00000000000E+00 -0.15965307630E+04  0.15965307630E+04  0.00000000000E+00 0.  1.
         25    2    1    2    0    0  0.50914598914E+03 -0.63482765803E+02 -0.10653237547E+04  0.11890424190E+04  0.12508985629E+03 0.  0.
         24    2    1    2    0    0 -0.59484810680E+03  0.18247415801E+03 -0.12501005989E+03  0.63982408896E+03  0.81278910131E+02 0.  0.
        -24    2    1    2    0    0  0.85702117662E+02 -0.11899139221E+03 -0.59876474098E+01  0.16787355612E+03  0.81497696487E+02 0.  0.
        -11    1    4    4    0    0 -0.48233789678E+03  0.11504454543E+03 -0.10872858274E+03  0.50764849927E+03  0.00000000000E+00 0.  1.
         12    1    4    4    0    0 -0.11251021002E+03  0.67429612584E+02 -0.16281477145E+02  0.13217558969E+03  0.00000000000E+00 0. -1.
         13    1    5    5    0    0  0.64299020949E+02 -0.12896132847E+03 -0.36689607545E+01  0.14414870658E+03  0.00000000000E+00 0. -1.
        -14    1    5    5    0    0  0.21403096713E+02  0.99699362631E+01 -0.23186866553E+01  0.23724849542E+02  0.00000000000E+00 0.  1.
          5    1    3    3  501    0  0.13904427717E+03 -0.62668711274E+02 -0.39289042894E+03  0.42147483903E+03  0.41800000000E+01 0. -1.
         -5    1    3    3    0  501  0.37010171197E+03 -0.81405452875E+00 -0.67243332572E+03  0.76756757997E+03  0.41800000000E+01 0. -1.
</event>
<event>
11    1  0.1704459E-009  0.1660167E+03  0.7561462E-02  0.1081551E+00
         22   -1    0    0    0    0  0.00000000000E+00  0.00000000000E+00  0.21517604563E+03  0.21517604563E+03  0.00000000000E+00 0. -1.
         22   -1    0    0    0    0 -0.00000000000E+00 -0.00000000000E+00 -0.40415206702E+03  0.40415206702E+03  0.00000000000E+00 0. -1.
         25    2    1    2    0    0 -0.82976582314E+02 -0.63304320015E+02 -0.29683870620E+03  0.33860584564E+03  0.12509256995E+03 0.  0.
        -24    2    1    2    0    0  0.11743386029E+03  0.80262560260E+02  0.97205214360E+02  0.19048777178E+03  0.81264674833E+02 0.  0.
         24    2    1    2    0    0 -0.34457277973E+02 -0.16958240244E+02  0.10657470460E+02  0.90234495233E+02  0.80955521960E+02 0.  0.
        -11    1    5    5    0    0 -0.31551927925E+02  0.13935660324E+02  0.36230954867E+02  0.50024082951E+02  0.00000000000E+00 0.  1.
         12    1    5    5    0    0 -0.29053500483E+01 -0.30893900568E+02 -0.25573484407E+02  0.40210412283E+02  0.00000000000E+00 0. -1.
         11    1    4    4    0    0  0.84481743852E+02  0.80881809171E+02  0.38441810405E+02  0.12311297611E+03  0.00000000000E+00 0. -1.
        -12    1    4    4    0    0  0.32952116435E+02 -0.61924891176E+00  0.58763403955E+02  0.67374795667E+02  0.00000000000E+00 0.  1.
          5    1    3    3  501    0 -0.89638017531E+02 -0.94597020335E+02 -0.23004680263E+03  0.26442876970E+03  0.41800000000E+01 0. -1.
         -5    1    3    3    0  501  0.66614352179E+01  0.31292700320E+02 -0.66791903572E+02  0.74177075941E+02  0.41800000000E+01 0. -1.
</event>
<event>
11    1  0.1704459E-009  0.1472258E+03  0.7561462E-02  0.1099748E+00
         22   -1    0    0    0    0  0.00000000000E+00  0.00000000000E+00  0.13530083082E+02  0.13530083082E+02  0.00000000000E+00 0.  1.
         22   -1    0    0    0    0 -0.00000000000E+00 -0.00000000000E+00 -0.26692424698E+04  0.26692424698E+04  0.00000000000E+00 0.  1.
         25    2    1    2    0    0 -0.54195574315E+02  0.75258455016E+01 -0.10077097064E+04  0.10169165946E+04  0.12508680688E+03 0.  0.
         24    2    1    2    0    0  0.81514030071E+02 -0.71206994625E+02 -0.95936963862E+03  0.96912562231E+03  0.84257908412E+02 0.  0.
        -24    2    1    2    0    0 -0.27318455755E+02  0.63681149124E+02 -0.68863304168E+03  0.69673033601E+03  0.80100613281E+02 0.  0.
        -13    1    4    4    0    0  0.98375172118E+02 -0.67968629234E+02 -0.81135019751E+03  0.82011374336E+03  0.00000000000E+00 0.  1.
         14    1    4    4    0    0 -0.16861142048E+02 -0.32383653913E+01 -0.14801944110E+03  0.14901187894E+03  0.00000000000E+00 0. -1.
         11    1    5    5    0    0  0.64286935376E+00  0.80688717286E+01 -0.35725717777E+01  0.88477817042E+01  0.00000000000E+00 0. -1.
        -12    1    5    5    0    0 -0.27961325109E+02  0.55612277395E+02 -0.68506046990E+03  0.68788255431E+03  0.00000000000E+00 0.  1.
          5    1    3    3  501    0 -0.50608435084E+02  0.22917009422E+02 -0.16699925395E+03  0.17604722731E+03  0.41800000000E+01 0.  1.
         -5    1    3    3    0  501 -0.35871392316E+01 -0.15391163921E+02 -0.84071045246E+03  0.84086936724E+03  0.41800000000E+01 0.  1.
</event>
<event>
11    1  0.1704459E-009  0.2060410E+03  0.7561462E-02  0.1050332E+00
         22   -1    0    0    0    0  0.00000000000E+00  0.00000000000E+00  0.72771563940E+03  0.72771563940E+03  0.00000000000E+00 0.  1.
         22   -1    0    0    0    0 -0.00000000000E+00 -0.00000000000E+00 -0.31290114292E+03  0.31290114292E+03  0.00000000000E+00 0.  1.
         25    2    1    2    0    0  0.15416436102E+03  0.61118598631E+02 -0.24704179245E+03  0.32277789581E+03  0.12511510502E+03 0.  0.
        -24    2    1    2    0    0 -0.41496700873E+02  0.15538906838E+02  0.13376882416E+03  0.16178102002E+03  0.79470537378E+02 0.  0.
         24    2    1    2    0    0 -0.11266766014E+03 -0.76657505469E+02  0.52808746477E+03  0.55605786649E+03  0.10841404728E+03 0.  0.
        -13    1    5    5    0    0 -0.58966181461E+02 -0.99132816041E+02  0.32899166557E+03  0.34862564706E+03  0.00000000000E+00 0.  1.
         14    1    5    5    0    0 -0.53701478682E+02  0.22475310572E+02  0.19909579920E+03  0.20743221943E+03  0.00000000000E+00 0. -1.
         13    1    4    4    0    0 -0.56832132950E+01  0.43510103438E+02  0.50345645470E+02  0.66784070199E+02  0.00000000000E+00 0. -1.
        -14    1    4    4    0    0 -0.35813487578E+02 -0.27971196600E+02  0.83423178690E+02  0.94996949816E+02  0.00000000000E+00 0.  1.
          5    1    3    3  501    0  0.10727870416E+03  0.18907878177E+02 -0.23410564553E+03  0.25824243240E+03  0.41800000000E+01 0. -1.
         -5    1    3    3    0  501  0.46885656861E+02  0.42210720454E+02 -0.12936146911E+02  0.64535463409E+02  0.41800000000E+01 0. -1.
</event>
<event>
11    1  0.1704459E-009  0.2462835E+03  0.7561462E-02  0.1025898E+00
         22   -1    0    0    0    0  0.00000000000E+00  0.00000000000E+00  0.56083086725E+03  0.56083086725E+03  0.00000000000E+00 0. -1.
         22   -1    0    0    0    0 -0.00000000000E+00 -0.00000000000E+00 -0.20554409564E+03  0.20554409564E+03  0.00000000000E+00 0.  1.
         25    2    1    2    0    0 -0.95986884566E+02 -0.17545324378E+03 -0.23143089231E+01  0.23590172786E+03  0.12508775487E+03 0.  0.
        -24    2    1    2    0    0  0.34829184631E+02  0.25181677642E+03  0.23722446433E+03  0.35688160095E+03  0.80400681799E+02 0.  0.
         24    2    1    2    0    0  0.61157699935E+02 -0.76363532636E+02  0.12037661620E+03  0.17359163408E+03  0.77922219666E+02 0.  0.
        -13    1    5    5    0    0  0.29340691141E+01 -0.31639889237E+02 -0.93966780512E+00  0.31789531737E+02  0.00000000000E+00 0.  1.
         14    1    5    5    0    0  0.58223630821E+02 -0.44723643399E+02  0.12131628400E+03  0.14180210234E+03  0.00000000000E+00 0. -1.
         11    1    4    4    0    0 -0.17141785229E+02  0.15915360042E+03  0.15094107170E+03  0.22001571866E+03  0.00000000000E+00 0. -1.
        -12    1    4    4    0    0  0.51970969860E+02  0.92663175998E+02  0.86283392624E+02  0.13686588230E+03  0.00000000000E+00 0.  1.
          5    1    3    3  501    0 -0.76224850047E+02 -0.30244422948E+02 -0.28612788460E+02  0.86954683299E+02  0.41800000000E+01 0.  1.
         -5    1    3    3    0  501 -0.19762034519E+02 -0.14520882084E+03  0.26298479537E+02  0.14894704456E+03  0.41800000000E+01 0.  1.
</event>
<event>
11    1  0.1704459E-009  0.7167969E+03  0.7561462E-02  0.9007912E-01
         22   -1    0    0    0    0  0.00000000000E+00  0.00000000000E+00  0.21322589789E+04  0.21322589789E+04  0.00000000000E+00 0. -1.
         22   -1    0    0    0    0 -0.00000000000E+00 -0.00000000000E+00 -0.60241023975E+02  0.60241023975E+02  0.00000000000E+00 0. -1.
         25    2    1    2    0    0  0.10397430976E+03  0.29266496520E+03  0.91646894757E+03  0.97571834861E+03  0.12509006759E+03 0.  0.
        -24    2    1    2    0    0 -0.12879774485E+03 -0.23067277972E+03  0.79648151258E+03  0.84268220340E+03  0.77017567163E+02 0.  0.
         24    2    1    2    0    0  0.24823435092E+02 -0.61992185486E+02  0.35906749478E+03  0.37409945088E+03  0.81004316844E+02 0.  0.
        -13    1    5    5    0    0  0.53106908332E+02 -0.35616295022E+02  0.26007965742E+03  0.26782511530E+03  0.00000000000E+00 0.  1.
         14    1    5    5    0    0 -0.28283473240E+02 -0.26375890464E+02  0.98987837366E+02  0.10627433558E+03  0.00000000000E+00 0. -1.
         11    1    4    4    0    0 -0.32727665732E+02 -0.13739879565E+03  0.41671946774E+03  0.44000527718E+03  0.00000000000E+00 0. -1.
        -12    1    4    4    0    0 -0.96070079115E+02 -0.93273984069E+02  0.37976204484E+03  0.40267692622E+03  0.00000000000E+00 0.  1.
          5    1    3    3  501    0  0.24443421707E+01  0.14691176530E+03  0.29874918534E+03  0.33295283410E+03  0.41800000000E+01 0.  1.
         -5    1    3    3    0  501  0.10152996758E+03  0.14575319990E+03  0.61771976223E+03  0.64276551451E+03  0.41800000000E+01 0.  1.
</event>
<event>
11    1  0.1704459E-009  0.3155318E+03  0.7561462E-02  0.9938240E-01
         22   -1    0    0    0    0  0.00000000000E+00  0.00000000000E+00  0.19148337824E+03  0.19148337824E+03  0.00000000000E+00 0. -1.
         22   -1    0    0    0    0 -0.00000000000E+00 -0.00000000000E+00 -0.76580656044E+03  0.76580656044E+03  0.00000000000E+00 0. -1.
         25    2    1    2    0    0  0.20209871834E+02  0.26635590897E+03 -0.35293013598E+03  0.45995739465E+03  0.12508882783E+03 0.  0.
         24    2    1    2    0    0 -0.43424692863E+02 -0.32810707608E+03 -0.20166248331E+03  0.39612804427E+03  0.81912837559E+02 0.  0.
        -24    2    1    2    0    0  0.23214821029E+02  0.61751167110E+02 -0.19730562916E+02  0.10120449976E+03  0.74168194687E+02 0.  0.
        -13    1    4    4    0    0 -0.29339086433E+02 -0.10197353914E+03 -0.10663833636E+03  0.15043642996E+03  0.00000000000E+00 0.  1.
         14    1    4    4    0    0 -0.14085606430E+02 -0.22613353694E+03 -0.95024146948E+02  0.24569161431E+03  0.00000000000E+00 0. -1.
         13    1    5    5    0    0 -0.12198140450E+02  0.62500547178E+02 -0.15438627957E+02  0.65524531751E+02  0.00000000000E+00 0. -1.
        -14    1    5    5    0    0  0.35412961479E+02 -0.74938006809E+00 -0.42919349588E+01  0.35679968005E+02  0.00000000000E+00 0.  1.
          5    1    3    3  501    0  0.42903309320E+02  0.24748989056E+03 -0.25651184810E+03  0.35903724110E+03  0.41800000000E+01 0.  1.
         -5    1    3    3    0  501 -0.22693437486E+02  0.18866018415E+02 -0.96418287878E+02  0.10092015355E+03  0.41800000000E+01 0.  1.
</event>
<event>
11    1  0.1704459E-009  0.1975897E+03  0.7561462E-02  0.1056241E+00
         22   -1    0    0    0    0  0.00000000000E+00  0.00000000000E+00  0.28298794743E+03  0.28298794743E+03  0.00000000000E+00 0. -1.
         22   -1    0    0    0    0 -0.00000000000E+00 -0.00000000000E+00 -0.87908408157E+03  0.87908408157E+03  0.00000000000E+00 0.  1.
         25    2    1    2    0    0 -0.61467135200E+02  0.14488670084E+03 -0.70760158396E+03  0.73560693617E+03  0.12508876100E+03 0.  0.
        -24    2    1    2    0    0  0.11524165511E+03  0.11010427842E+00 -0.85027680572E+02  0.16347193619E+03  0.78820785723E+02 0.  0.
         24    2    1    2    0    0 -0.53774519907E+02 -0.14499680512E+03  0.19653313039E+03  0.26299315664E+03  0.81390150572E+02 0.  0.
        -11    1    5    5    0    0  0.19494313892E+00 -0.33511700344E+02  0.35756724833E+01  0.33702485020E+02  0.00000000000E+00 0.  1.
         12    1    5    5    0    0 -0.53969463046E+02 -0.11148510478E+03  0.19295745791E+03  0.22929067162E+03  0.00000000000E+00 0. -1.
         11    1    4    4    0    0  0.12319203762E+03  0.11344542036E+02 -0.66689188366E+02  0.14054331934E+03  0.00000000000E+00 0. -1.
        -12    1    4    4    0    0 -0.79503825144E+01 -0.11234437758E+02 -0.18338492206E+02  0.22928616841E+02  0.00000000000E+00 0.  1.
          5    1    3    3  501    0 -0.92085252011E+02  0.11737678284E+03 -0.63243261370E+03  0.64980419055E+03  0.41800000000E+01 0.  1.
         -5    1    3    3    0  501  0.30618116811E+02  0.27509918008E+02 -0.75168970264E+02  0.85802745623E+02  0.41800000000E+01 0.  1.
</event>
<event>
11    1  0.1704459E-009  0.2207161E+03  0.7561462E-02  0.1040770E+00
         22   -1    0    0    0    0  0.00000000000E+00  0.00000000000E+00  0.50717931433E+03  0.50717931433E+03  0.00000000000E+00 0. -1.
         22   -1    0    0    0    0 -0.00000000000E+00 -0.00000000000E+00 -0.16711113279E+03  0.16711113279E+03  0.00000000000E+00 0.  1.
         25    2    1    2    0    0  0.17522211062E+03  0.75127238696E+02  0.15588460424E+01  0.22802110143E+03  0.12507718678E+03 0.  0.
         24    2    1    2    0    0 -0.13531419635E+03 -0.10118637146E+03  0.16826863393E+03  0.25165528068E+03  0.80420355776E+02 0.  0.
        -24    2    1    2    0    0 -0.39907914263E+02  0.26059132763E+02  0.17024070156E+03  0.19461406501E+03  0.81369636918E+02 0.  0.
        -13    1    4    4    0    0 -0.38012669025E+02 -0.25274766988E+02  0.34839435617E+01  0.45781161142E+02  0.00000000000E+00 0.  1.
         14    1    4    4    0    0 -0.97301527329E+02 -0.75911604471E+02  0.16478469037E+03  0.20587411954E+03  0.00000000000E+00 0. -1.
         11    1    5    5    0    0 -0.55590010115E+01 -0.18114197487E+02  0.11295866635E+03  0.11453683663E+03  0.00000000000E+00 0. -1.
        -12    1    5    5    0    0 -0.34348913251E+02  0.44173330250E+02  0.57282035211E+02  0.80077228379E+02  0.00000000000E+00 0.  1.
          5    1    3    3  501    0  0.46367110198E+02  0.12415874375E+02 -0.55696223817E+02  0.73645126058E+02  0.41800000000E+01 0. -1.
         -5    1    3    3    0  501  0.12885500042E+03  0.62711364321E+02  0.57255069859E+02  0.15437597537E+03  0.41800000000E+01 0. -1.
</event>
<event>
11    1  0.1704459E-009  0.2062453E+03  0.7561462E-02  0.1050193E+00
         22   -1    0    0    0    0  0.00000000000E+00  0.00000000000E+00  0.28789863961E+03  0.28789863961E+03  0.00000000000E+00 0.  1.
         22   -1    0    0    0    0 -0.00000000000E+00 -0.00000000000E+00 -0.21769063797E+04  0.21769063797E+04  0.00000000000E+00 0.  1.
         25    2    1    2    0    0 -0.65662061758E+02  0.12486474260E+01 -0.16293960005E+04  0.16355100524E+04  0.12509492266E+03 0.  0.
        -24    2    1    2    0    0 -0.11786116578E+03  0.62320339981E+02 -0.49184362610E+03  0.51602530187E+03  0.81221182361E+02 0.  0.
         24    2    1    2    0    0  0.18352322753E+03 -0.63568987407E+02  0.23223188650E+03  0.31326966503E+03  0.80526037518E+02 0.  0.
        -11    1    5    5    0    0  0.17520254673E+03 -0.34468697676E+02  0.18455190646E+03  0.25679452814E+03  0.00000000000E+00 0.  1.
         12    1    5    5    0    0  0.83206808017E+01 -0.29100289731E+02  0.47679980032E+02  0.56475136895E+02  0.00000000000E+00 0. -1.
         11    1    4    4    0    0 -0.54583649174E+02  0.48873155695E+01 -0.91443291182E+02  0.10660739239E+03  0.00000000000E+00 0. -1.
        -12    1    4    4    0    0 -0.63277516603E+02  0.57433024411E+02 -0.40040033492E+03  0.40941790948E+03  0.00000000000E+00 0.  1.
          5    1    3    3  501    0 -0.59151836455E+02  0.58570579449E+02 -0.93197466969E+03  0.93569423952E+03  0.41800000000E+01 0. -1.
         -5    1    3    3    0  501 -0.65102253031E+01 -0.57321932023E+02 -0.69742133078E+03  0.69981581287E+03  0.41800000000E+01 0. -1.
</event>
<event>
11    1  0.1704459E-009  0.2579514E+03  0.7561462E-02  0.1019747E+00
         22   -1    0    0    0    0  0.00000000000E+00  0.00000000000E+00  0.14428816476E+03  0.14428816476E+03  0.00000000000E+00 0.  1.
         22   -1    0    0    0    0 -0.00000000000E+00 -0.00000000000E+00 -0.79341362660E+03  0.79341362660E+03  0.00000000000E+00 0.  1.
         25    2    1    2    0    0 -0.97177555054E+02  0.20353093578E+03 -0.51142865451E+03  0.57277331283E+03  0.12506670302E+03 0.  0.
         24    2    1    2    0    0  0.64943144130E+02 -0.21845118751E+03 -0.56684358378E+02  0.24549392931E+03  0.71523559422E+02 0.  0.
        -24    2    1    2    0    0  0.32234410924E+02  0.14920251727E+02 -0.81012448955E+02  0.11943454921E+03  0.80249133959E+02 0.  0.
        -13    1    4    4    0    0  0.21314636656E+02 -0.13468974181E+03 -0.20383097696E+01  0.13638106537E+03  0.00000000000E+00 0.  1.
         14    1    4    4    0    0  0.43628507474E+02 -0.83761445699E+02 -0.54646048608E+02  0.10911286395E+03  0.00000000000E+00 0. -1.
         13    1    5    5    0    0 -0.25010140752E+02  0.59319593708E+01 -0.43117016495E+02  0.50197334529E+02  0.00000000000E+00 0. -1.
        -14    1    5    5    0    0  0.57244551676E+02  0.89882923561E+01 -0.37895432460E+02  0.69237214685E+02  0.00000000000E+00 0.  1.
          5    1    3    3  501    0 -0.87446934607E+02  0.12960615995E+03 -0.20772568587E+03  0.26002337595E+03  0.41800000000E+01 0. -1.
         -5    1    3    3    0  501 -0.97306204466E+01  0.73924775830E+02 -0.30370296864E+03  0.31274993688E+03  0.41800000000E+01 0. -1.
</event>
<event>
11    1  0.1704459E-009  0.6744858E+03  0.7561462E-02  0.9070772E-01
         22   -1    0    0    0    0  0.00000000000E+00  0.00000000000E+00  0.11249990093E+04  0.11249990093E+04  0.00000000000E+00 0.  1.
         22   -1    0    0    0    0 -0.00000000000E+00 -0.00000000000E+00 -0.72563462869E+03  0.72563462869E+03  0.00000000000E+00 0.  1.
         25    2    1    2    0    0 -0.30429681529E+03  0.60115355320E+03 -0.25169760195E+03  0.73005477248E+03  0.12508453812E+03 0.  0.
        -24    2    1    2    0    0  0.97342277901E+02 -0.65355893107E+03  0.36811142689E+03  0.76066667863E+03  0.80579016613E+02 0.  0.
         24    2    1    2    0    0  0.20695453739E+03  0.52405377875E+02  0.28295055564E+03  0.35991218685E+03  0.62444064013E+02 0.  0.
        -11    1    5    5    0    0  0.16569423479E+03  0.58143302392E+02  0.25549511398E+03  0.31002092885E+03  0.00000000000E+00 0.  1.
         12    1    5    5    0    0  0.41260302602E+02 -0.57379245178E+01  0.27455441661E+02  0.49891258006E+02  0.00000000000E+00 0. -1.
         11    1    4    4    0    0  0.59794861081E+02 -0.25433397050E+03  0.18320307842E+03  0.31909961126E+03  0.00000000000E+00 0. -1.
        -12    1    4    4    0    0  0.37547416819E+02 -0.39922496057E+03  0.18490834847E+03  0.44156706737E+03  0.00000000000E+00 0.  1.
          5    1    3    3  501    0 -0.21614060026E+03  0.28912084223E+03 -0.13500456965E+03  0.38542356793E+03  0.41800000000E+01 0. -1.
         -5    1    3    3    0  501 -0.88156215038E+02  0.31203271096E+03 -0.11669303230E+03  0.34463120455E+03  0.41800000000E+01 0. -1.
</event>
<event>
11    1  0.1704459E-009  0.6211291E+03  0.7561462E-02  0.9157355E-01
         22   -1    0    0    0    0  0.00000000000E+00  0.00000000000E+00  0.99261081754E+03  0.99261081754E+03  0.00000000000E+00 0. -1.
         22   -1    0    0    0    0 -0.00000000000E+00 -0.00000000000E+00 -0.37371901160E+04  0.37371901160E+04  0.00000000000E+00 0.  1.
         25    2    1    2    0    0 -0.14034582735E+03 -0.97908434707E+02 -0.16754239824E+04  0.16887794184E+04  0.12508953011E+03 0.  0.
         24    2    1    2    0    0 -0.38368364316E+03  0.45548243475E+02 -0.19619518673E+04  0.20012482902E+04  0.80323154166E+02 0.  0.
        -24    2    1    2    0    0  0.52402947051E+03  0.52360191232E+02  0.89279655113E+03  0.10397732250E+04  0.81818103444E+02 0.  0.
        -11    1    4    4    0    0 -0.26380907376E+03  0.64310362249E+02 -0.14402028413E+04  0.14655767718E+04  0.00000000000E+00 0.  1.
         12    1    4    4    0    0 -0.11987456941E+03 -0.18762118775E+02 -0.52174902595E+03  0.53567151835E+03  0.00000000000E+00 0. -1.
         13    1    5    5    0    0  0.41866990263E+03  0.65892382258E+02  0.75451749931E+03  0.86540334537E+03  0.00000000000E+00 0. -1.
        -14    1    5    5    0    0  0.10535956788E+03 -0.13532191026E+02  0.13827905182E+03  0.17436987959E+03  0.00000000000E+00 0.  1.
          5    1    3    3  501    0 -0.16077144516E+03 -0.78327743735E+02 -0.12973123610E+04  0.13095875410E+04  0.41800000000E+01 0.  1.
         -5    1    3    3    0  501  0.20425617817E+02 -0.19580690972E+02 -0.37811162136E+03  0.37919187745E+03  0.41800000000E+01 0.  1.
</event>
<event>
11    1  0.1704459E-009  0.2530511E+03  0.7561462E-02  0.1022286E+00
         22   -1    0    0    0    0  0.00000000000E+00  0.00000000000E+00  0.35425231611E+03  0.35425231611E+03  0.00000000000E+00 0.  1.
         22   -1    0    0    0    0 -0.00000000000E+00 -0.00000000000E+00 -0.19302377235E+04  0.19302377235E+04  0.00000000000E+00 0.  1.
         25    2    1    2    0    0 -0.17792857202E+03  0.13139714662E+03 -0.17585083543E+04  0.17767731484E+04  0.12508957533E+03 0.  0.
         24    2    1    2    0    0  0.13879146794E+03 -0.16251094147E+03 -0.69255884705E+02  0.23854442162E+03  0.80213377024E+02 0.  0.
        -24    2    1    2    0    0  0.39137104079E+02  0.31113794851E+02  0.25177883162E+03  0.26917246958E+03  0.81002822071E+02 0.  0.
        -13    1    4    4    0    0  0.63969232418E+02 -0.12495258664E+03 -0.65061189275E+02  0.15471964954E+03  0.00000000000E+00 0.  1.
         14    1    4    4    0    0  0.74822235519E+02 -0.37558354830E+02 -0.41946954303E+01  0.83824772086E+02  0.00000000000E+00 0. -1.
         11    1    5    5    0    0 -0.18025476224E+02 -0.70671667641E+01  0.21878961518E+02  0.29215605355E+02  0.00000000000E+00 0. -1.
        -12    1    5    5    0    0  0.57162580303E+02  0.38180961615E+02  0.22989987010E+03  0.23995686422E+03  0.00000000000E+00 0.  1.
          5    1    3    3  501    0 -0.17366476762E+03  0.65038415309E+02 -0.11892256395E+04  0.12036048110E+04  0.41800000000E+01 0.  1.
         -5    1    3    3    0  501 -0.42638044001E+01  0.66358731307E+02 -0.56928271479E+03  0.57316833741E+03  0.41800000000E+01 0.  1.
</event>
<event>
11    1  0.1704459E-009  0.3470939E+03  0.7561462E-02  0.9820208E-01
         22   -1    0    0    0    0  0.00000000000E+00  0.00000000000E+00  0.20374791714E+04  0.20374791714E+04  0.00000000000E+00 0. -1.
         22   -1    0    0    0    0 -0.00000000000E+00 -0.00000000000E+00 -0.10149102073E+03  0.10149102073E+03  0.00000000000E+00 0. -1.
         25    2    1    2    0    0 -0.82741398071E+02 -0.25449748210E+03  0.73413593606E+03  0.79133973942E+03  0.12509157933E+03 0.  0.
        -24    2    1    2    0    0  0.64675701868E+02  0.35683743882E+03  0.44595051434E+03  0.58045191921E+03  0.80849645148E+02 0.  0.
         24    2    1    2    0    0  0.18065696203E+02 -0.10233995672E+03  0.75590170023E+03  0.76717853346E+03  0.79847890813E+02 0.  0.
        -13    1    5    5    0    0  0.40586943692E+02 -0.26518613787E+02  0.20665639534E+03  0.21226729048E+03  0.00000000000E+00 0.  1.
         14    1    5    5    0    0 -0.22521247490E+02 -0.75821342929E+02  0.54924530489E+03  0.55491124298E+03  0.00000000000E+00 0. -1.
         11    1    4    4    0    0  0.68843381295E+02  0.22254132944E+03  0.23927401933E+03  0.33394028026E+03  0.00000000000E+00 0. -1.
        -12    1    4    4    0    0 -0.41676794268E+01  0.13429610938E+03  0.20667649501E+03  0.24651163895E+03  0.00000000000E+00 0.  1.
          5    1    3    3  501    0 -0.68736988309E+02 -0.25925576788E+03  0.61155363034E+03  0.66779760551E+03  0.41800000000E+01 0. -1.
         -5    1    3    3    0  501 -0.14004409761E+02  0.47582857746E+01  0.12258230571E+03  0.12354213391E+03  0.41800000000E+01 0. -1.
</event>
<event>
11    1  0.1704459E-009  0.2692191E+03  0.7561462E-02  0.1014131E+00
         22   -1    0    0    0    0  0.00000000000E+00  0.00000000000E+00  0.10909763737E+04  0.10909763737E+04  0.00000000000E+00 0.  1.
         22   -1    0    0    0    0 -0.00000000000E+00 -0.00000000000E+00 -0.13700246662E+04  0.13700246662E+04  0.00000000000E+00 0. -1.
         25    2    1    2    0    0  0.27991858679E+02 -0.23712749532E+03 -0.13286855186E+04  0.13557529409E+04  0.12509131192E+03 0.  0.
        -24    2    1    2    0    0  0.35737191922E+02  0.22462834747E+03  0.66564264197E+03  0.70806710737E+03  0.80894130602E+02 0.  0.
         24    2    1    2    0    0 -0.63729050601E+02  0.12499147851E+02  0.38399458415E+03  0.39718099164E+03  0.77995377238E+02 0.  0.
        -11    1    5    5    0    0 -0.76521158702E+02 -0.79871663987E+01  0.30657854860E+03  0.31608493956E+03  0.00000000000E+00 0.  1.
         12    1    5    5    0    0  0.12792108101E+02  0.20486314250E+02  0.77416035555E+02  0.81096052076E+02  0.00000000000E+00 0. -1.
         13    1    4    4    0    0  0.38288549140E+02  0.15762885425E+03  0.35549742047E+03  0.39075732194E+03  0.00000000000E+00 0. -1.
        -14    1    4    4    0    0 -0.25513572180E+01  0.66999493221E+02  0.31014522150E+03  0.31730978544E+03  0.00000000000E+00 0.  1.
          5    1    3    3  501    0  0.28290064657E+02 -0.16371193355E+03 -0.57635071425E+03  0.59983292937E+03  0.41800000000E+01 0. -1.
         -5    1    3    3    0  501 -0.29820597785E+00 -0.73415561773E+02 -0.75233480436E+03  0.75592001157E+03  0.41800000000E+01 0. -1.
</event>
<event>
11    1  0.1704459E-009  0.1471316E+03  0.7561462E-02  0.1099846E+00
         22   -1    0    0    0    0  0.00000000000E+00  0.00000000000E+00  0.14526352239E+03  0.14526352239E+03  0.00000000000E+00 0. -1.
         22   -1    0    0    0    0 -0.00000000000E+00 -0.00000000000E+00 -0.43893537778E+04  0.43893537778E+04  0.00000000000E+00 0.  1.
         25    2    1    2    0    0 -0.14065861030E+02  0.67572467605E+02 -0.25066336328E+04  0.25107015085E+04  0.12508400818E+03 0.  0.
        -24    2    1    2    0    0 -0.55253261563E+00 -0.85886731932E+02 -0.18665866241E+04  0.18702505739E+04  0.79465387863E+02 0.  0.
         24    2    1    2    0    0  0.14618393646E+02  0.18314264327E+02  0.12913000141E+03  0.15366521782E+03  0.79933298405E+02 0.  0.
        -11    1    5    5    0    0  0.56896917370E-01  0.14189937964E+02 -0.76020784472E+01  0.16098110864E+02  0.00000000000E+00 0.  1.
         12    1    5    5    0    0  0.14561496728E+02  0.41243263629E+01  0.13673207986E+03  0.13756710696E+03  0.00000000000E+00 0. -1.
         11    1    4    4    0    0  0.25845351408E+02 -0.18180751640E+02 -0.24402777710E+03  0.24606519037E+03  0.00000000000E+00 0. -1.
        -12    1    4    4    0    0 -0.26397884024E+02 -0.67705980291E+02 -0.16225588470E+04  0.16241853835E+04  0.00000000000E+00 0.  1.
          5    1    3    3  501    0  0.50241891553E+01  0.56787979508E+02 -0.41175248856E+03  0.41570145697E+03  0.41800000000E+01 0.  1.
         -5    1    3    3    0  501 -0.19090050185E+02  0.10784488097E+02 -0.20948811442E+04  0.20950000515E+04  0.41800000000E+01 0.  1.
</event>
<event>
11    1  0.1704459E-009  0.3501854E+03  0.7561462E-02  0.9809374E-01
         22   -1    0    0    0    0  0.00000000000E+00  0.00000000000E+00  0.78115717410E+02  0.78115717410E+02  0.00000000000E+00 0. -1.
         22   -1    0    0    0    0 -0.00000000000E+00 -0.00000000000E+00 -0.15089653464E+04  0.15089653464E+04  0.00000000000E+00 0. -1.
         25    2    1    2    0    0 -0.17154252266E+02  0.63981938654E+02 -0.28219860333E+03  0.31570839244E+03  0.12509108878E+03 0.  0.
        -24    2    1    2    0    0  0.31756969172E+02 -0.22912321078E+03 -0.10111736634E+04  0.10404937406E+04  0.81541989333E+02 0.  0.
         24    2    1    2    0    0 -0.14602716906E+02  0.16514127212E+03 -0.13747736234E+03  0.23087893077E+03  0.83187597738E+02 0.  0.
        -13    1    5    5    0    0  0.26909185672E+02  0.92172300744E+02 -0.45196198425E+02  0.10612508492E+03  0.00000000000E+00 0.  1.
         14    1    5    5    0    0 -0.41511902578E+02  0.72968971380E+02 -0.92281163912E+02  0.12475384584E+03  0.00000000000E+00 0. -1.
         13    1    4    4    0    0 -0.13921041249E+01 -0.20279634507E+03 -0.82326574944E+03  0.84787663591E+03  0.00000000000E+00 0. -1.
        -14    1    4    4    0    0  0.33149073297E+02 -0.26326865713E+02 -0.18790791391E+03  0.19261710472E+03  0.00000000000E+00 0.  1.
          5    1    3    3  501    0  0.38983268139E+00 -0.27667835537E+02 -0.15716378023E+03  0.15963579583E+03  0.41800000000E+01 0. -1.
         -5    1    3    3    0  501 -0.17544084948E+02  0.91649774191E+02 -0.12503482309E+03  0.15607259661E+03  0.41800000000E+01 0. -1.
</event>
<event>
11    1  0.1704459E-009  0.1286565E+03  0.7561462E-02  0.1120931E+00
         22   -1    0    0    0    0  0.00000000000E+00  0.00000000000E+00  0.18689462897E+03  0.18689462897E+03  0.00000000000E+00 0.  1.
         22   -1    0    0    0    0 -0.00000000000E+00 -0.00000000000E+00 -0.21125520628E+03  0.21125520628E+03  0.00000000000E+00 0.  1.
         25    2    1    2    0    0  0.26277602157E+02  0.54479196100E+00 -0.10809485723E+03  0.16740094172E+03  0.12509103868E+03 0.  0.
        -24    2    1    2    0    0  0.40435592233E+01  0.24626020300E+01 -0.31549072546E+02  0.87593914883E+02  0.81577785984E+02 0.  0.
         24    2    1    2    0    0 -0.30321161380E+02 -0.30073939910E+01  0.11528335247E+03  0.14315497865E+03  0.79212873377E+02 0.  0.
        -13    1    5    5    0    0 -0.14856113260E+02  0.33078262879E+02  0.88468721639E+02  0.95611663957E+02  0.00000000000E+00 0.  1.
         14    1    5    5    0    0 -0.15465048120E+02 -0.36085656869E+02  0.26814630830E+02  0.47543314689E+02  0.00000000000E+00 0. -1.
         11    1    4    4    0    0  0.10043771374E+02 -0.81664489944E+01  0.25850745058E+02  0.28910711729E+02  0.00000000000E+00 0. -1.
        -12    1    4    4    0    0 -0.60002121507E+01  0.10629051024E+02 -0.57399817604E+02  0.58683203154E+02  0.00000000000E+00 0.  1.
          5    1    3    3  501    0 -0.32449319659E+02 -0.42756640251E+02 -0.36166421472E+02  0.64858084107E+02  0.41800000000E+01 0. -1.
         -5    1    3    3    0  501  0.58726921816E+02  0.43301432212E+02 -0.71928435756E+02  0.10254285762E+03  0.41800000000E+01 0. -1.
</event>
<event>
11    1  0.1704459E-009  0.2782313E+03  0.7561462E-02  0.1009850E+00
         22   -1    0    0    0    0  0.00000000000E+00  0.00000000000E+00  0.17618309630E+04  0.17618309630E+04  0.00000000000E+00 0.  1.
         22   -1    0    0    0    0 -0.00000000000E+00 -0.00000000000E+00 -0.19545824396E+03  0.19545824396E+03  0.00000000000E+00 0.  1.
         25    2    1    2    0    0 -0.18404828640E+03 -0.12574622791E+03  0.27751696043E+03  0.37729189606E+03  0.12509047105E+03 0.  0.
        -24    2    1    2    0    0  0.22493895946E+03  0.37057887280E+03  0.24623908409E+03  0.50527588909E+03  0.82120649772E+02 0.  0.
         24    2    1    2    0    0 -0.40890673055E+02 -0.24483264488E+03  0.10426166745E+04  0.10747214218E+04  0.79759221177E+02 0.  0.
        -13    1    5    5    0    0 -0.56322435600E+02 -0.22505480460E+03  0.98369573613E+03  0.10106825333E+04  0.00000000000E+00 0.  1.
         14    1    5    5    0    0  0.15431762544E+02 -0.19777840278E+02  0.58920938403E+02  0.64038888526E+02  0.00000000000E+00 0. -1.
         13    1    4    4    0    0  0.11921695292E+01  0.21176891400E+02 -0.27622064566E+01  0.21389525055E+02  0.00000000000E+00 0. -1.
        -14    1    4    4    0    0  0.22374678993E+03  0.34940198140E+03  0.24900129055E+03  0.48388636404E+03  0.00000000000E+00 0.  1.
          5    1    3    3  501    0 -0.14438350441E+03 -0.10734544594E+03  0.12639384950E+03  0.21991479873E+03  0.41800000000E+01 0.  1.
         -5    1    3    3    0  501 -0.39664781989E+02 -0.18400781977E+02  0.15112311093E+03  0.15737709733E+03  0.41800000000E+01 0.  1.
</event>
<event>
11    1  0.1704459E-009  0.1507389E+03  0.7561462E-02  0.1096126E+00
         22   -1    0    0    0    0  0.00000000000E+00  0.00000000000E+00  0.93139316041E+02  0.93139316041E+02  0.00000000000E+00 0. -1.
         22   -1    0    0    0    0 -0.00000000000E+00 -0.00000000000E+00 -0.97931431283E+03  0.97931431283E+03  0.00000000000E+00 0.  1.
         25    2    1    2    0    0 -0.14143093113E+02  0.99337056404E+02 -0.70831614159E+03  0.72624125294E+03  0.12508686253E+03 0.  0.
        -24    2    1    2    0    0  0.23724552981E+02 -0.59430177977E+02 -0.22224090249E+03  0.24582895464E+03  0.83343000505E+02 0.  0.
         24    2    1    2    0    0 -0.95814598675E+01 -0.39906878426E+02  0.44382047294E+02  0.10038342128E+03  0.80141760823E+02 0.  0.
        -13    1    5    5    0    0 -0.18259207556E+02 -0.11764436884E+02 -0.20037306917E+02  0.29551553331E+02  0.00000000000E+00 0.  1.
         14    1    5    5    0    0  0.86777476886E+01 -0.28142441542E+02  0.64419354211E+02  0.70831867954E+02  0.00000000000E+00 0. -1.
         11    1    4    4    0    0  0.45780743944E+02 -0.25451680452E+02 -0.17930515722E+03  0.18679936820E+03  0.00000000000E+00 0. -1.
        -12    1    4    4    0    0 -0.22056190963E+02 -0.33978497525E+02 -0.42935745267E+02  0.59029586442E+02  0.00000000000E+00 0.  1.
          5    1    3    3  501    0 -0.17467957706E+01  0.94233859464E+02 -0.70567420935E+03  0.71195269064E+03  0.41800000000E+01 0. -1.
         -5    1    3    3    0  501 -0.12396297343E+02  0.51031969392E+01 -0.26419322452E+01  0.14288562307E+02  0.41800000000E+01 0. -1.
</event>
<event>
11    1  0.1704459E-009  0.1790293E+03  0.7561462E-02  0.1070431E+00
         22   -1    0    0    0    0  0.00000000000E+00  0.00000000000E+00  0.47180219140E+03  0.47180219140E+03  0.00000000000E+00 0. -1.
         22   -1    0    0    0    0 -0.00000000000E+00 -0.00000000000E+00 -0.12819517939E+03  0.12819517939E+03  0.00000000000E+00 0. -1.
         25    2    1    2    0    0  0.77769351565E+02 -0.57331759632E+02  0.79589389691E+02  0.17696616713E+03  0.12509017009E+03 0.  0.
         24    2    1    2    0    0  0.80621399103E+02  0.68205686542E+02  0.40641838156E+02  0.13797698711E+03  0.78956090912E+02 0.  0.
        -24    2    1    2    0    0 -0.15839075067E+03 -0.10873926910E+02  0.22337578417E+03  0.28505421655E+03  0.78442929810E+02 0.  0.
        -13    1    4    4    0    0  0.14519981469E+02  0.14238098354E+02 -0.23608400591E+02  0.31159426906E+02  0.00000000000E+00 0.  1.
         14    1    4    4    0    0  0.66101417633E+02  0.53967588187E+02  0.64250238748E+02  0.10681756020E+03  0.00000000000E+00 0. -1.
         13    1    5    5    0    0 -0.15989737321E+03 -0.23661741851E+01  0.22522066045E+03  0.27621932343E+03  0.00000000000E+00 0. -1.
        -14    1    5    5    0    0  0.15066225457E+01 -0.85077527248E+01 -0.18448762873E+01  0.88348931197E+01  0.00000000000E+00 0.  1.
          5    1    3    3  501    0  0.41330263728E+02 -0.95820908162E+02  0.46327219442E+02  0.11425200568E+03  0.41800000000E+01 0. -1.
         -5    1    3    3    0  501  0.36439087837E+02  0.38489148530E+02  0.33262170249E+02  0.62714161452E+02  0.41800000000E+01 0. -1.
</event>
<event>
11    1  0.1704459E-009  0.7043442E+03  0.7561462E-02  0.9025927E-01
         22   -1    0    0    0    0  0.00000000000E+00  0.00000000000E+00  0.17449164353E+04  0.17449164353E+04  0.00000000000E+00 0. -1.
         22   -1    0    0    0    0 -0.00000000000E+00 -0.00000000000E+00 -0.56076425446E+03  0.56076425446E+03  0.00000000000E+00 0. -1.
         25    2    1    2    0    0  0.62188967265E+03 -0.32807237943E+03 -0.13258677962E+03  0.72636420649E+03  0.12508978878E+03 0.  0.
        -24    2    1    2    0    0 -0.53821826471E+03  0.39519770091E+03  0.80064515959E+03  0.10457212189E+04  0.81486641358E+02 0.  0.
         24    2    1    2    0    0 -0.83671407939E+02 -0.67125321481E+02  0.51609380088E+03  0.53359526441E+03  0.82851563705E+02 0.  0.
        -13    1    5    5    0    0 -0.96457699972E+01 -0.40527313192E+02  0.77340475089E+02  0.87846759078E+02  0.00000000000E+00 0.  1.
         14    1    5    5    0    0 -0.74025637941E+02 -0.26598008289E+02  0.43875332579E+03  0.44574850533E+03  0.00000000000E+00 0. -1.
         13    1    4    4    0    0 -0.44315759453E+03  0.35550149557E+03  0.70200389844E+03  0.90309436957E+03  0.00000000000E+00 0. -1.
        -14    1    4    4    0    0 -0.95060670181E+02  0.39696205345E+02  0.98641261153E+02  0.14262684928E+03  0.00000000000E+00 0.  1.
          5    1    3    3  501    0  0.20784558749E+03 -0.14409088178E+03 -0.10034618745E+03  0.27211909192E+03  0.41800000000E+01 0.  1.
         -5    1    3    3    0  501  0.41404408516E+03 -0.18398149765E+03 -0.32240592169E+02  0.45424511458E+03  0.41800000000E+01 0.  1.
</event>
<event>
11    1  0.1704459E-009  0.6642812E+03  0.7561462E-02  0.9086663E-01
         22   -1    0    0    0    0  0.00000000000E+00  0.00000000000E+00  0.33160362070E+04  0.33160362070E+04  0.00000000000E+00 0. -1.
         22   -1    0    0    0    0 -0.00000000000E+00 -0.00000000000E+00 -0.24401886809E+03  0.24401886809E+03  0.00000000000E+00 0. -1.
         25    2    1    2    0    0 -0.97795875501E+02 -0.70998524573E+03  0.55886566331E+03  0.91739642106E+03  0.12506910620E+03 0.  0.
         24    2    1    2    0    0  0.18139312881E+03  0.50778061826E+03  0.13403095222E+04  0.14469903949E+04  0.81283235198E+02 0.  0.
        -24    2    1    2    0    0 -0.83597253311E+02  0.20220462748E+03  0.11728421534E+04  0.11956682591E+04  0.78668016641E+02 0.  0.
        -13    1    4    4    0    0  0.78695961646E+02  0.17975853861E+03  0.39336585201E+03  0.43959399463E+03  0.00000000000E+00 0.  1.
         14    1    4    4    0    0  0.10269716717E+03  0.32802207965E+03  0.94694367014E+03  0.10073964003E+04  0.00000000000E+00 0. -1.
         13    1    5    5    0    0 -0.11426497508E+02  0.67731091594E+02  0.21391646517E+03  0.22467380730E+03  0.00000000000E+00 0. -1.
        -14    1    5    5    0    0 -0.72170755803E+02  0.13447353588E+03  0.95892568827E+03  0.97099445182E+03  0.00000000000E+00 0.  1.
          5    1    3    3  501    0 -0.18717741476E+02 -0.45619015240E+03  0.30004055443E+03  0.54635301381E+03  0.41800000000E+01 0.  1.
         -5    1    3    3    0  501 -0.79078134025E+02 -0.25379509333E+03  0.25882510888E+03  0.37104340725E+03  0.41800000000E+01 0.  1.
</event>
<event>
11    1  0.1704459E-009  0.2596614E+03  0.7561462E-02  0.1018875E+00
         22   -1    0    0    0    0  0.00000000000E+00  0.00000000000E+00  0.12952859542E+03  0.12952859542E+03  0.00000000000E+00 0. -1.
         22   -1    0    0    0    0 -0.00000000000E+00 -0.00000000000E+00 -0.16602847643E+04  0.16602847643E+04  0.00000000000E+00 0. -1.
         25    2    1    2    0    0 -0.86190758768E+02 -0.19324878525E+03 -0.86834861628E+03  0.90246785169E+03  0.12507983062E+03 0.  0.
        -24    2    1    2    0    0  0.30306728981E+03  0.14551286966E+03 -0.46821063373E+03  0.58180094533E+03  0.79040274907E+02 0.  0.
         24    2    1    2    0    0 -0.21687653104E+03  0.47735915589E+02 -0.19419691887E+03  0.30554456270E+03  0.79566884729E+02 0.  0.
        -13    1    5    5    0    0 -0.72827025289E+02 -0.12649571198E+02 -0.32559777483E+02  0.80770826254E+02  0.00000000000E+00 0.  1.
         14    1    5    5    0    0 -0.14404950575E+03  0.60385486787E+02 -0.16163714139E+03  0.22477373645E+03  0.00000000000E+00 0. -1.
         13    1    4    4    0    0  0.25157760729E+03  0.10804119070E+03 -0.42231916944E+03  0.50330673774E+03  0.00000000000E+00 0. -1.
        -14    1    4    4    0    0  0.51489682519E+02  0.37471678967E+02 -0.45891464292E+02  0.78494207591E+02  0.00000000000E+00 0.  1.
          5    1    3    3  501    0 -0.11833317333E+03 -0.15924176036E+03 -0.72113691659E+03  0.74794157728E+03  0.41800000000E+01 0. -1.
         -5    1    3    3    0  501  0.32142414560E+02 -0.34007024891E+02 -0.14721169969E+03  0.15452627440E+03  0.41800000000E+01 0. -1.
</event>
<event>
11    1  0.1704459E-009  0.4248279E+03  0.7561462E-02  0.9579215E-01
         22   -1    0    0    0    0  0.00000000000E+00  0.00000000000E+00  0.69130802768E+03  0.69130802768E+03  0.00000000000E+00 0.  1.
         22   -1    0    0    0    0 -0.00000000000E+00 -0.00000000000E+00 -0.66796830527E+03  0.66796830527E+03  0.00000000000E+00 0. -1.
         25    2    1    2    0    0 -0.11987402983E+03  0.26525812917E+03  0.18728111377E+01  0.31683206372E+03  0.12508953220E+03 0.  0.
        -24    2    1    2    0    0  0.37965195114E+03 -0.37787694799E+03 -0.28937517634E+03  0.61417578874E+03  0.80915480359E+02 0.  0.
         24    2    1    2    0    0 -0.25977792131E+03  0.11261881883E+03  0.31084208761E+03  0.42826848049E+03  0.81385018248E+02 0.  0.
        -13    1    5    5    0    0 -0.21746494636E+03  0.12010990150E+03  0.28520113145E+03  0.37822886817E+03  0.00000000000E+00 0.  1.
         14    1    5    5    0    0 -0.42312974942E+02 -0.74910826709E+01  0.25640956156E+02  0.50039612315E+02  0.00000000000E+00 0. -1.
         11    1    4    4    0    0  0.29926526119E+03 -0.26830101381E+03 -0.24728940935E+03  0.47190802340E+03  0.00000000000E+00 0. -1.
        -12    1    4    4    0    0  0.80386689948E+02 -0.10957593418E+03 -0.42085766990E+02  0.14226776534E+03  0.00000000000E+00 0.  1.
          5    1    3    3  501    0  0.12538410081E+02  0.24005236157E+02  0.29441726022E+02  0.40221272002E+02  0.41800000000E+01 0.  1.
         -5    1    3    3    0  501 -0.13241243991E+03  0.24125289301E+03 -0.27568914884E+02  0.27661079172E+03  0.41800000000E+01 0.  1.
</event>
<event>
11    1  0.1704459E-009  0.1295408E+03  0.7561462E-02  0.1119834E+00
         22   -1    0    0    0    0  0.00000000000E+00  0.00000000000E+00  0.13262175647E+03  0.13262175647E+03  0.00000000000E+00 0.  1.
         22   -1    0    0    0    0 -0.00000000000E+00 -0.00000000000E+00 -0.10879921006E+04  0.10879921006E+04  0.00000000000E+00 0.  1.
         25    2    1    2    0    0 -0.64372630098E+01 -0.14301657750E+02 -0.66120041987E+03  0.67311286308E+03  0.12509578505E+03 0.  0.
        -24    2    1    2    0    0 -0.91858550645E+01  0.52692118958E+02 -0.39702705765E+03  0.40879615379E+03  0.81381641176E+02 0.  0.
         24    2    1    2    0    0  0.15623118074E+02 -0.38390461208E+02  0.10285713335E+03  0.13870484023E+03  0.83315865783E+02 0.  0.
        -13    1    5    5    0    0  0.47642328820E+02 -0.94377807849E+01  0.65990211608E+02  0.81936385261E+02  0.00000000000E+00 0.  1.
         14    1    5    5    0    0 -0.32019210746E+02 -0.28952680423E+02  0.36866921744E+02  0.56768454967E+02  0.00000000000E+00 0. -1.
         13    1    4    4    0    0 -0.25968018936E+02  0.68960803541E+02 -0.31498915619E+03  0.32349358409E+03  0.00000000000E+00 0. -1.
        -14    1    4    4    0    0  0.16782163872E+02 -0.16268684583E+02 -0.82037901461E+02  0.85302569705E+02  0.00000000000E+00 0.  1.
          5    1    3    3  501    0 -0.79659207121E+01 -0.86386803197E+01 -0.66489907362E+03  0.66501603980E+03  0.41800000000E+01 0. -1.
         -5    1    3    3    0  501  0.15286577023E+01 -0.56629774301E+01  0.36986537459E+01  0.80968232830E+01  0.41800000000E+01 0. -1.
</event>
<event>
11    1  0.1704459E-009  0.1871449E+03  0.7561462E-02  0.1064006E+00
         22   -1    0    0    0    0  0.00000000000E+00  0.00000000000E+00  0.46878264811E+03  0.46878264811E+03  0.00000000000E+00 0.  1.
         22   -1    0    0    0    0 -0.00000000000E+00 -0.00000000000E+00 -0.70718341679E+03  0.70718341679E+03  0.00000000000E+00 0. -1.
         25    2    1    2    0    0  0.37913397197E+01  0.15539372123E+03 -0.44547720207E+03  0.48811781925E+03  0.12508990790E+03 0.  0.
         24    2    1    2    0    0 -0.23466544956E+02 -0.12058017462E+03 -0.21297286733E+03  0.25851293864E+03  0.79882663817E+02 0.  0.
        -24    2    1    2    0    0  0.19675205237E+02 -0.34813546605E+02  0.42004930072E+03  0.42933530701E+03  0.79298764741E+02 0.  0.
        -11    1    4    4    0    0 -0.23378851317E+02 -0.22078926462E+00 -0.18527065964E+02  0.29830715883E+02  0.00000000000E+00 0.  1.
         12    1    4    4    0    0 -0.87693638787E-01 -0.12035938536E+03 -0.19444580137E+03  0.22868222275E+03  0.00000000000E+00 0. -1.
         11    1    5    5    0    0  0.48615030076E+01  0.42591156059E+01 -0.71357923757E+00  0.65025743029E+01  0.00000000000E+00 0. -1.
        -12    1    5    5    0    0  0.14813702229E+02 -0.39072662210E+02  0.42076287995E+03  0.42283273271E+03  0.00000000000E+00 0.  1.
          5    1    3    3  501    0  0.61199774889E+02  0.48922404036E+02 -0.17903983293E+03  0.19547774359E+03  0.41800000000E+01 0. -1.
         -5    1    3    3    0  501 -0.57408435169E+02  0.10647131719E+03 -0.26643736914E+03  0.29264007567E+03  0.41800000000E+01 0. -1.
</event>
<event>
11    1  0.1704459E-009  0.1714320E+03  0.7561462E-02  0.1076792E+00
         22   -1    0    0    0    0  0.00000000000E+00  0.00000000000E+00  0.48395888613E+02  0.48395888613E+02  0.00000000000E+00 0.  1.
         22   -1    0    0    0    0 -0.00000000000E+00 -0.00000000000E+00 -0.12047357608E+04  0.12047357608E+04  0.00000000000E+00 0.  1.
         25    2    1    2    0    0 -0.75641340955E+02  0.70995248155E+02 -0.62948340015E+03  0.65012276003E+03  0.12509322258E+03 0.  0.
        -24    2    1    2    0    0  0.61095397249E+02 -0.14749470652E+03 -0.28516096268E+03  0.33657385674E+03  0.80485094233E+02 0.  0.
         24    2    1    2    0    0  0.14545943707E+02  0.76499458361E+02 -0.24169550938E+03  0.26643503265E+03  0.80666943418E+02 0.  0.
        -13    1    5    5    0    0 -0.79039878079E+01  0.63673824319E+02 -0.79358543272E+02  0.10205198341E+03  0.00000000000E+00 0.  1.
         14    1    5    5    0    0  0.22449931515E+02  0.12825634042E+02 -0.16233696611E+03  0.16438304924E+03  0.00000000000E+00 0. -1.
         13    1    4    4    0    0  0.36608863540E+02 -0.13254214690E+02 -0.38917685974E+02  0.55049699166E+02  0.00000000000E+00 0. -1.
        -14    1    4    4    0    0  0.24486533709E+02 -0.13424049183E+03 -0.24624327670E+03  0.28152415758E+03  0.00000000000E+00 0.  1.
          5    1    3    3  501    0 -0.28537389375E+02  0.71660910754E+02 -0.56444880686E+03  0.56971009881E+03  0.41800000000E+01 0.  1.
         -5    1    3    3    0  501 -0.47103951580E+02 -0.66566259887E+00 -0.65034593285E+02  0.80412661223E+02  0.41800000000E+01 0.  1.
</event>
<event>
11    1  0.1704459E-009  0.7221926E+03  0.7561462E-02  0.9000225E-01
         22   -1    0    0    0    0  0.00000000000E+00  0.00000000000E+00  0.50236947692E+03  0.50236947692E+03  0.00000000000E+00 0.  1.
         22   -1    0    0    0    0 -0.00000000000E+00 -0.00000000000E+00 -0.12786025355E+04  0.12786025355E+04  0.00000000000E+00 0.  1.
         25    2    1    2    0    0 -0.10243145065E+03 -0.69836205975E+03 -0.58976714680E+03  0.92826419181E+03  0.12508938310E+03 0.  0.
         24    2    1    2    0    0  0.84996220178E+02  0.71501538836E+03 -0.22284341449E+03  0.75827710912E+03  0.82786616048E+02 0.  0.
        -24    2    1    2    0    0  0.17435230475E+02 -0.16653328608E+02  0.36377502667E+02  0.94430711541E+02  0.83740766454E+02 0.  0.
        -11    1    4    4    0    0  0.53551644016E+01  0.39419110895E+03 -0.11994393559E+03  0.41207020743E+03  0.00000000000E+00 0.  1.
         12    1    4    4    0    0  0.79641055776E+02  0.32082427941E+03 -0.10289947890E+03  0.34620690169E+03  0.00000000000E+00 0. -1.
         13    1    5    5    0    0  0.22233447561E+01  0.31863737720E+02  0.50855933808E-01  0.31941252789E+02  0.00000000000E+00 0. -1.
        -14    1    5    5    0    0  0.15211885719E+02 -0.48517066328E+02  0.36326646733E+02  0.62489458752E+02  0.00000000000E+00 0.  1.
          5    1    3    3  501    0 -0.10935976898E+03 -0.49117656523E+03 -0.47131850521E+03  0.68947268478E+03  0.41800000000E+01 0.  1.
         -5    1    3    3    0  501  0.69283183262E+01 -0.20718549452E+03 -0.11844864159E+03  0.23879150703E+03  0.41800000000E+01 0.  1.
</event>
<event>
11    1  0.1704459E-009  0.4262430E+03  0.7561462E-02  0.9575350E-01
         22   -1    0    0    0    0  0.00000000000E+00  0.00000000000E+00  0.39699766134E+04  0.39699766134E+04  0.00000000000E+00 0. -1.
         22   -1    0    0    0    0 -0.00000000000E+00 -0.00000000000E+00 -0.16676401313E+03  0.16676401313E+03  0.00000000000E+00 0. -1.
         25    2    1    2    0    0 -0.36645325459E+03 -0.17014854779E+03  0.21405595140E+03  0.47403160405E+03  0.12508994841E+03 0.  0.
        -24    2    1    2    0    0  0.31689903369E+03  0.34824872406E+03  0.30487513144E+04  0.30859274489E+04  0.79758829997E+02 0.  0.
         24    2    1    2    0    0  0.49554220905E+02 -0.17810017628E+03  0.54040533439E+03  0.57678157359E+03  0.80397540970E+02 0.  0.
        -13    1    5    5    0    0  0.81528242046E+01 -0.61101726361E+01  0.24398322867E+01  0.10476427528E+02  0.00000000000E+00 0.  1.
         14    1    5    5    0    0  0.41401396700E+02 -0.17199000364E+03  0.53796550211E+03  0.56630514606E+03  0.00000000000E+00 0. -1.
         11    1    4    4    0    0  0.11140186657E+03  0.15651864650E+03  0.10379418141E+04  0.10555717276E+04  0.00000000000E+00 0. -1.
        -12    1    4    4    0    0  0.20549716712E+03  0.19173007756E+03  0.20108095003E+04  0.20303557213E+04  0.00000000000E+00 0.  1.
          5    1    3    3  501    0 -0.19811726471E+02  0.88606839386E+01  0.42334366882E+02  0.47756541383E+02  0.41800000000E+01 0.  1.
         -5    1    3    3    0  501 -0.34664152812E+03 -0.17900923172E+03  0.17172158452E+03  0.42627506267E+03  0.41800000000E+01 0.  1.
</event>
<event>
11    1  0.1704459E-009  0.2023320E+03  0.7561462E-02  0.1052887E+00
         22   -1    0    0    0    0  0.00000000000E+00  0.00000000000E+00  0.66001266787E+02  0.66001266787E+02  0.00000000000E+00 0. -1.
         22   -1    0    0    0    0 -0.00000000000E+00 -0.00000000000E+00 -0.11110421182E+04  0.11110421182E+04  0.00000000000E+00 0. -1.
         25    2    1    2    0    0  0.46868302795E+02  0.12010416480E+03 -0.66616044493E+03  0.68995496876E+03  0.12508585977E+03 0.  0.
         24    2    1    2    0    0 -0.82869616291E+01 -0.16977622153E+03 -0.16628970754E+03  0.25126630470E+03  0.81177890535E+02 0.  0.
        -24    2    1    2    0    0 -0.38581341166E+02  0.49672056731E+02 -0.21259069896E+03  0.23582211155E+03  0.80383020016E+02 0.  0.
        -11    1    4    4    0    0  0.48824342072E+01 -0.48270671013E+02 -0.48164463354E+01  0.48755450968E+02  0.00000000000E+00 0.  1.
         12    1    4    4    0    0 -0.13169395836E+02 -0.12150555052E+03 -0.16147326121E+03  0.20251085373E+03  0.00000000000E+00 0. -1.
         13    1    5    5    0    0  0.76415533295E+01  0.33805333135E+02 -0.27082621727E+02  0.43984796069E+02  0.00000000000E+00 0. -1.
        -14    1    5    5    0    0 -0.46222894495E+02  0.15866723596E+02 -0.18550807723E+03  0.19183731548E+03  0.00000000000E+00 0.  1.
          5    1    3    3  501    0  0.35069444318E+01  0.12203942188E+03 -0.58702169078E+03  0.59959807955E+03  0.41800000000E+01 0.  1.
         -5    1    3    3    0  501  0.43361358363E+02 -0.19352570798E+01 -0.79138754152E+02  0.90356889210E+02  0.41800000000E+01 0.  1.
</event>
<event>
11    1  0.1704459E-009  0.2396263E+03  0.7561462E-02  0.1029575E+00
         22   -1    0    0    0    0  0.00000000000E+00  0.00000000000E+00  0.44163517575E+03  0.44163517575E+03  0.00000000000E+00 0.  1.
         22   -1    0    0    0    0 -0.00000000000E+00 -0.00000000000E+00 -0.27342212039E+03  0.27342212039E+03  0.00000000000E+00 0. -1.
         25    2    1    2    0    0 -0.34721645717E+02  0.38324917145E+01  0.51618015770E+02  0.13975718425E+03  0.12508944929E+03 0.  0.
         24    2    1    2    0    0  0.14220619716E+03  0.18049458978E+03 -0.97861676680E+02  0.26258361284E+03  0.81070009996E+02 0.  0.
        -24    2    1    2    0    0 -0.10748455145E+03 -0.18432708149E+03  0.21445671627E+03  0.31271649904E+03  0.79186639313E+02 0.  0.
        -13    1    4    4    0    0  0.12979501940E+01  0.28420140189E+02  0.83367880805E+01  0.29646097190E+02  0.00000000000E+00 0.  1.
         14    1    4    4    0    0  0.14090824697E+03  0.15207444959E+03 -0.10619846476E+03  0.23293751566E+03  0.00000000000E+00 0. -1.
         11    1    5    5    0    0 -0.16119858872E+00 -0.36571016160E+02  0.86735189061E+01  0.37585836936E+02  0.00000000000E+00 0. -1.
        -12    1    5    5    0    0 -0.10732335286E+03 -0.14775606533E+03  0.20578319736E+03  0.27513066210E+03  0.00000000000E+00 0.  1.
          5    1    3    3  501    0 -0.27772967540E+02 -0.56117870075E+02  0.48265477652E+02  0.79168060484E+02  0.41800000000E+01 0.  1.
         -5    1    3    3    0  501 -0.69486781771E+01  0.59950361790E+02  0.33525381173E+01  0.60589123768E+02  0.41800000000E+01 0.  1.
</event>
<event>
11    1  0.1704459E-009  0.1235908E+04  0.7561462E-02  0.8482205E-01
         22   -1    0    0    0    0  0.00000000000E+00  0.00000000000E+00  0.68585606899E+03  0.68585606899E+03  0.00000000000E+00 0. -1.
         22   -1    0    0    0    0 -0.00000000000E+00 -0.00000000000E+00 -0.55677421251E+03  0.55677421251E+03  0.00000000000E+00 0. -1.
         25    2    1    2    0    0  0.46314327594E+03  0.15552788404E+03 -0.28148966947E+03  0.57755967452E+03  0.12509247319E+03 0.  0.
        -24    2    1    2    0    0 -0.32761868958E+03 -0.12441428462E+03  0.25173657552E+03  0.43904989317E+03  0.81120806602E+02 0.  0.
         24    2    1    2    0    0 -0.13552458636E+03 -0.31113599427E+02  0.15883495042E+03  0.22602071381E+03  0.80757984240E+02 0.  0.
        -11    1    5    5    0    0 -0.85737653818E+02 -0.55668802846E+02  0.81044490954E+02  0.13045370982E+03  0.00000000000E+00 0.  1.
         12    1    5    5    0    0 -0.49786932542E+02  0.24555203419E+02  0.77790459470E+02  0.95567003990E+02  0.00000000000E+00 0. -1.
         13    1    4    4    0    0 -0.14999246499E+03 -0.57447502715E+02  0.16524910696E+03  0.23044570396E+03  0.00000000000E+00 0. -1.
        -14    1    4    4    0    0 -0.17762622459E+03 -0.66966781903E+02  0.86487468556E+02  0.20860418921E+03  0.00000000000E+00 0.  1.
          5    1    3    3  501    0  0.14855612806E+03  0.10454237320E+02 -0.13626802500E+03  0.20190260350E+03  0.41800000000E+01 0.  1.
         -5    1    3    3    0  501  0.31458714788E+03  0.14507364672E+03 -0.14522164447E+03  0.37565707102E+03  0.41800000000E+01 0.  1.
</event>
<event>
11    1  0.1704459E-009  0.1465009E+03  0.7561462E-02  0.1100509E+00
         22   -1    0    0    0    0  0.00000000000E+00  0.00000000000E+00  0.13324214792E+03  0.13324214792E+03  0.00000000000E+00 0.  1.
         22   -1    0    0    0    0 -0.00000000000E+00 -0.00000000000E+00 -0.35680328603E+03  0.35680328603E+03  0.00000000000E+00 0. -1.
         25    2    1    2    0    0  0.54905021662E+02 -0.13255113988E+02 -0.12974997853E+03  0.18887280589E+03  0.12509044897E+03 0.  0.
         24    2    1    2    0    0  0.53567185532E+02  0.87337543521E+02 -0.32373880544E+02  0.13380743430E+03  0.79743786335E+02 0.  0.
        -24    2    1    2    0    0 -0.10847220719E+03 -0.74082429532E+02 -0.61437279038E+02  0.16736519376E+03  0.83559216897E+02 0.  0.
        -13    1    4    4    0    0  0.13437532921E+02 -0.13968910389E+02  0.21552268017E+01  0.19502378087E+02  0.00000000000E+00 0.  1.
         14    1    4    4    0    0  0.40129652611E+02  0.10130645391E+03 -0.34529107346E+02  0.11430505622E+03  0.00000000000E+00 0. -1.
         13    1    5    5    0    0 -0.38367402209E+02 -0.52171559794E+02 -0.67653870422E+02  0.93653485716E+02  0.00000000000E+00 0. -1.
        -14    1    5    5    0    0 -0.70104804985E+02 -0.21910869738E+02  0.62165913840E+01  0.73711708046E+02  0.00000000000E+00 0.  1.
          5    1    3    3  501    0  0.43405035034E+02 -0.51657047149E+02 -0.13221331930E+03  0.14849337287E+03  0.41800000000E+01 0. -1.
         -5    1    3    3    0  501  0.11499986628E+02  0.38401933161E+02  0.24633407675E+01  0.40379433016E+02  0.41800000000E+01 0. -1.
</event>
<event>
11    1  0.1704459E-009  0.3475029E+03  0.7561462E-02  0.9818767E-01
         22   -1    0    0    0    0  0.00000000000E+00  0.00000000000E+00  0.16282503823E+04  0.16282503823E+04  0.00000000000E+00 0. -1.
         22   -1    0    0    0    0 -0.00000000000E+00 -0.00000000000E+00 -0.16996105159E+03  0.16996105159E+03  0.00000000000E+00 0. -1.
         25    2    1    2    0    0  0.21691036983E+03  0.24020197960E+03  0.15547859797E+03  0.38022143192E+03  0.12509054049E+03 0.  0.
        -24    2    1    2    0    0 -0.31092205572E+03 -0.14698868705E+03  0.58268501567E+03  0.68131360407E+03  0.79926220675E+02 0.  0.
         24    2    1    2    0    0  0.94011685885E+02 -0.93213292551E+02  0.72012571709E+03  0.73667639793E+03  0.81142786846E+02 0.  0.
        -13    1    5    5    0    0  0.87567118822E+02 -0.31407085501E+02  0.44503837271E+03  0.45465762778E+03  0.00000000000E+00 0.  1.
         14    1    5    5    0    0  0.64445670626E+01 -0.61806207050E+02  0.27508734438E+03  0.28201877015E+03  0.00000000000E+00 0. -1.
         11    1    4    4    0    0 -0.26981276936E+03 -0.15275078694E+03  0.53246701412E+03  0.61615976382E+03  0.00000000000E+00 0. -1.
        -12    1    4    4    0    0 -0.41109286359E+02  0.57620998896E+01  0.50218001546E+02  0.65153840250E+02  0.00000000000E+00 0.  1.
          5    1    3    3  501    0  0.73768161567E+01  0.20080693535E+02  0.56530715900E+02  0.60587506217E+02  0.41800000000E+01 0. -1.
         -5    1    3    3    0  501  0.20953355368E+03  0.22012128606E+03  0.98947882069E+02  0.31963392570E+03  0.41800000000E+01 0. -1.
</event>
<event>
11    1  0.1704459E-009  0.1644386E+04  0.7561462E-02  0.8230784E-01
         22   -1    0    0    0    0  0.00000000000E+00  0.00000000000E+00  0.54664495202E+03  0.54664495202E+03  0.00000000000E+00 0. -1.
         22   -1    0    0    0    0 -0.00000000000E+00 -0.00000000000E+00 -0.12366372459E+04  0.12366372459E+04  0.00000000000E+00 0. -1.
         25    2    1    2    0    0 -0.51901370682E+02 -0.52300030986E+03 -0.10028026612E+04  0.11390670213E+04  0.12504969182E+03 0.  0.
         24    2    1    2    0    0  0.58966206564E+02  0.27779252129E+03  0.10412128266E+03  0.31258948532E+03  0.78900230881E+02 0.  0.
        -24    2    1    2    0    0 -0.70648358825E+01  0.24520778857E+03  0.20868908470E+03  0.33162569121E+03  0.79042352680E+02 0.  0.
        -11    1    4    4    0    0  0.34181896554E+01  0.40919842117E+02  0.47501611627E+02  0.62789494397E+02  0.00000000000E+00 0.  1.
         12    1    4    4    0    0  0.55548016909E+02  0.23687267917E+03  0.56619671031E+02  0.24979999093E+03  0.00000000000E+00 0. -1.
         13    1    5    5    0    0 -0.22135458404E+02  0.23787652374E+03  0.18293764524E+03  0.30090098224E+03  0.00000000000E+00 0. -1.
        -14    1    5    5    0    0  0.15070622521E+02  0.73312648284E+01  0.25751439464E+02  0.30724708975E+02  0.00000000000E+00 0.  1.
          5    1    3    3  501    0 -0.83354716580E+02 -0.25029395037E+03 -0.44437672506E+03  0.51680094480E+03  0.41800000000E+01 0. -1.
         -5    1    3    3    0  501  0.31453345898E+02 -0.27270635949E+03 -0.55842593613E+03  0.62226607654E+03  0.41800000000E+01 0. -1.
</event>
<event>
11    1  0.1704459E-009  0.4126087E+03  0.7561462E-02  0.9613271E-01
         22   -1    0    0    0    0  0.00000000000E+00  0.00000000000E+00  0.36298936786E+03  0.36298936786E+03  0.00000000000E+00 0.  1.
         22   -1    0    0    0    0 -0.00000000000E+00 -0.00000000000E+00 -0.95848411920E+03  0.95848411920E+03  0.00000000000E+00 0.  1.
         25    2    1    2    0    0  0.16588511223E+03  0.18281762227E+02 -0.36838581821E+03  0.42333150091E+03  0.12509738333E+03 0.  0.
        -24    2    1    2    0    0  0.21104176745E+03  0.24245578599E+03 -0.27495970563E+03  0.43062175135E+03  0.80677241218E+02 0.  0.
         24    2    1    2    0    0 -0.37692687967E+03 -0.26073754821E+03  0.47850772500E+02  0.46752023479E+03  0.78914712474E+02 0.  0.
        -11    1    5    5    0    0 -0.13529779146E+03 -0.11481389441E+03 -0.15830664452E+02  0.17815255446E+03  0.00000000000E+00 0.  1.
         12    1    5    5    0    0 -0.24162908822E+03 -0.14592365381E+03  0.63681436952E+02  0.28936768034E+03  0.00000000000E+00 0. -1.
         13    1    4    4    0    0  0.14100057646E+03  0.21228064127E+03 -0.20373508561E+03  0.32627016156E+03  0.00000000000E+00 0. -1.
        -14    1    4    4    0    0  0.70041190992E+02  0.30175144721E+02 -0.71224620023E+02  0.10435158979E+03  0.00000000000E+00 0.  1.
          5    1    3    3  501    0  0.34242292032E+02 -0.35779971936E+02 -0.18273724417E+03  0.18937558914E+03  0.41800000000E+01 0. -1.
         -5    1    3    3    0  501  0.13164282019E+03  0.54061734162E+02 -0.18564857405E+03  0.23395591178E+03  0.41800000000E+01 0. -1.
</event>
<event>
11    1  0.1704459E-009  0.2070334E+03  0.7561462E-02  0.1049658E+00
         22   -1    0    0    0    0  0.00000000000E+00  0.00000000000E+00  0.38087075990E+03  0.38087075990E+03  0.00000000000E+00 0.  1.
         22   -1    0    0    0    0 -0.00000000000E+00 -0.00000000000E+00 -0.14295232901E+04  0.14295232901E+04  0.00000000000E+00 0.  1.
         25    2    1    2    0    0 -0.37044160419E+02 -0.13581834307E+03 -0.12468243834E+04  0.12609668983E+04  0.12509030056E+03 0.  0.
         24    2    1    2    0    0 -0.10475690476E+03  0.49119911128E+02 -0.11675760672E+03  0.18452917419E+03  0.83856440618E+02 0.  0.
        -24    2    1    2    0    0  0.14180106518E+03  0.86698431943E+02  0.31492945993E+03  0.36489797757E+03  0.79660586941E+02 0.  0.
        -11    1    4    4    0    0 -0.83935358958E+02  0.36527229767E+02 -0.32995386346E+02  0.97304051909E+02  0.00000000000E+00 0.  1.
         12    1    4    4    0    0 -0.20821545806E+02  0.12592681361E+02 -0.83762220379E+02  0.87225122278E+02  0.00000000000E+00 0. -1.
         11    1    5    5    0    0  0.15312540703E+02  0.16776716495E+02  0.12057315491E+03  0.12269400068E+03  0.00000000000E+00 0. -1.
        -12    1    5    5    0    0  0.12648852448E+03  0.69921715448E+02  0.19435630502E+03  0.24220397688E+03  0.00000000000E+00 0.  1.
          5    1    3    3  501    0 -0.19366962050E+02 -0.15810941147E+03 -0.10330150210E+04  0.10452325919E+04  0.41800000000E+01 0.  1.
         -5    1    3    3    0  501 -0.17677198369E+02  0.22291068399E+02 -0.21380936249E+03  0.21573430640E+03  0.41800000000E+01 0.  1.
</event>
<event>
11    1  0.1704459E-009  0.2150481E+03  0.7561462E-02  0.1044365E+00
         22   -1    0    0    0    0  0.00000000000E+00  0.00000000000E+00  0.30401170736E+03  0.30401170736E+03  0.00000000000E+00 0.  1.
         22   -1    0    0    0    0 -0.00000000000E+00 -0.00000000000E+00 -0.18655358197E+04  0.18655358197E+04  0.00000000000E+00 0.  1.
         25    2    1    2    0    0  0.10001018312E+02 -0.19898931996E+03 -0.13976899694E+04  0.14173500001E+04  0.12508797808E+03 0.  0.
        -24    2    1    2    0    0  0.35362339562E+02  0.13764406795E+03 -0.43184930357E+03  0.46193503714E+03  0.81815481708E+02 0.  0.
         24    2    1    2    0    0 -0.45363357873E+02  0.61345252011E+02  0.26801516060E+03  0.29026248990E+03  0.81234921965E+02 0.  0.
        -11    1    5    5    0    0 -0.52607149243E+02  0.76171963351E+02  0.24529687550E+03  0.26218359461E+03  0.00000000000E+00 0.  1.
         12    1    5    5    0    0  0.72437913693E+01 -0.14826711340E+02  0.22718285100E+02  0.28078895286E+02  0.00000000000E+00 0. -1.
         11    1    4    4    0    0 -0.52135906033E+01  0.11362828892E+03 -0.26122751564E+03  0.28491820668E+03  0.00000000000E+00 0. -1.
        -12    1    4    4    0    0  0.40575930165E+02  0.24015779023E+02 -0.17062178793E+03  0.17701683046E+03  0.00000000000E+00 0.  1.
          5    1    3    3  501    0 -0.38693336215E+02 -0.17660078212E+03 -0.10307632454E+04  0.10465062594E+04  0.41800000000E+01 0. -1.
         -5    1    3    3    0  501  0.48694354527E+02 -0.22388537841E+02 -0.36692672403E+03  0.37084374067E+03  0.41800000000E+01 0. -1.
</event>
<event>
11    1  0.1704459E-009  0.1902655E+03  0.7561462E-02  0.1061629E+00
         22   -1    0    0    0    0  0.00000000000E+00  0.00000000000E+00  0.13635299489E+04  0.13635299489E+04  0.00000000000E+00 0.  1.
         22   -1    0    0    0    0 -0.00000000000E+00 -0.00000000000E+00 -0.44239041454E+03  0.44239041454E+03  0.00000000000E+00 0. -1.
         25    2    1    2    0    0  0.11992458501E+03 -0.55510862172E+02 -0.18070513757E+03  0.25645452418E+03  0.12510481335E+03 0.  0.
         24    2    1    2    0    0 -0.13654574454E+03  0.70349787273E+02 -0.18791851826E+03  0.25682581606E+03  0.83977957658E+02 0.  0.
        -24    2    1    2    0    0  0.16621159531E+02 -0.14838925101E+02  0.12897631902E+04  0.12926400232E+04  0.83262753716E+02 0.  0.
        -11    1    4    4    0    0 -0.12121985607E+03  0.71284381509E+02 -0.11314584358E+03  0.18049293192E+03  0.00000000000E+00 0.  1.
         12    1    4    4    0    0 -0.15325888467E+02 -0.93459423684E+00 -0.74772674677E+02  0.76332884146E+02  0.00000000000E+00 0. -1.
         13    1    5    5    0    0  0.23365797212E+02 -0.19486513192E+02  0.16114204378E+03  0.16398915498E+03  0.00000000000E+00 0. -1.
        -14    1    5    5    0    0 -0.67446376807E+01  0.46475880919E+01  0.11286211464E+04  0.11286508682E+04  0.00000000000E+00 0.  1.
          5    1    3    3  501    0  0.10926093362E+02 -0.43441708467E+02 -0.12608120094E+03  0.13386748366E+03  0.41800000000E+01 0. -1.
         -5    1    3    3    0  501  0.10899849164E+03 -0.12069153705E+02 -0.54623936621E+02  0.12258704052E+03  0.41800000000E+01 0. -1.
</event>
<event>
11    1  0.1704459E-009  0.2848776E+03  0.7561462E-02  0.1006803E+00
         22   -1    0    0    0    0  0.00000000000E+00  0.00000000000E+00  0.12529866984E+03  0.12529866984E+03  0.00000000000E+00 0. -1.
         22   -1    0    0    0    0 -0.00000000000E+00 -0.00000000000E+00 -0.15293131415E+04  0.15293131415E+04  0.00000000000E+00 0. -1.
         25    2    1    2    0    0 -0.22464756121E+03  0.10230436775E+03 -0.68685170415E+03  0.74050364636E+03  0.12509067251E+03 0.  0.
        -24    2    1    2    0    0  0.25308208450E+03 -0.79029337461E+02 -0.76641168324E+03  0.81504201192E+03  0.81304583584E+02 0.  0.
         24    2    1    2    0    0 -0.28434523295E+02 -0.23275030293E+02  0.49248915720E+02  0.99066153080E+02  0.77707128607E+02 0.  0.
        -11    1    5    5    0    0 -0.55160170944E+02 -0.12039448055E+02  0.37537594962E+02  0.67798700604E+02  0.00000000000E+00 0.  1.
         12    1    5    5    0    0  0.26725647649E+02 -0.11235582238E+02  0.11711320758E+02  0.31267452477E+02  0.00000000000E+00 0. -1.
         11    1    4    4    0    0  0.23808175821E+03 -0.91377677983E+02 -0.67448345205E+03  0.72108302623E+03  0.00000000000E+00 0. -1.
        -12    1    4    4    0    0  0.15000326298E+02  0.12348340522E+02 -0.91928231189E+02  0.93958985692E+02  0.00000000000E+00 0.  1.
          5    1    3    3  501    0 -0.26403474595E+02 -0.91811467748E+00 -0.11499764577E+02  0.29115346307E+02  0.41800000000E+01 0. -1.
         -5    1    3    3    0  501 -0.19824408661E+03  0.10322248243E+03 -0.67535193958E+03  0.71138830005E+03  0.41800000000E+01 0. -1.
</event>
<event>
11    1  0.1704459E-009  0.2276909E+03  0.7561462E-02  0.1036504E+00
         22   -1    0    0    0    0  0.00000000000E+00  0.00000000000E+00  0.42829070766E+03  0.42829070766E+03  0.00000000000E+00 0. -1.
         22   -1    0    0    0    0 -0.00000000000E+00 -0.00000000000E+00 -0.32535345255E+03  0.32535345255E+03  0.00000000000E+00 0. -1.
         25    2    1    2    0    0  0.32980479918E+02 -0.19489038902E+03 -0.21824334945E+03  0.31991871349E+03  0.12509135811E+03 0.  0.
        -24    2    1    2    0    0  0.30282565040E+02  0.16277405482E+03  0.19099205812E+03  0.26524728971E+03  0.80409774089E+02 0.  0.
         24    2    1    2    0    0 -0.63263044958E+02  0.32116334202E+02  0.13018854645E+03  0.16847815700E+03  0.80013498737E+02 0.  0.
        -11    1    5    5    0    0  0.87287970125E+01 -0.12578868710E+02  0.48182626608E+02  0.50556753675E+02  0.00000000000E+00 0.  1.
         12    1    5    5    0    0 -0.71991841971E+02  0.44695202911E+02  0.82005919844E+02  0.11792140333E+03  0.00000000000E+00 0. -1.
         11    1    4    4    0    0  0.43845674225E+02  0.12992469214E+03  0.10662445650E+03  0.17369986615E+03  0.00000000000E+00 0. -1.
        -12    1    4    4    0    0 -0.13563109185E+02  0.32849362679E+02  0.84367601613E+02  0.91547423564E+02  0.00000000000E+00 0.  1.
          5    1    3    3  501    0 -0.28929667704E+02 -0.11157302315E+01 -0.39064722521E+02  0.48802617481E+02  0.41800000000E+01 0. -1.
         -5    1    3    3    0  501  0.61910147622E+02 -0.19377465879E+03 -0.17917862693E+03  0.27111609601E+03  0.41800000000E+01 0. -1.
</event>
<event>
11    1  0.1704459E-009  0.1383873E+03  0.7561462E-02  0.1109373E+00
         22   -1    0    0    0    0  0.00000000000E+00  0.00000000000E+00  0.36135900598E+02  0.36135900598E+02  0.00000000000E+00 0.  1.
         22   -1    0    0    0    0 -0.00000000000E+00 -0.00000000000E+00 -0.35120098427E+04  0.35120098427E+04  0.00000000000E+00 0. -1.
         25    2    1    2    0    0  0.46100380981E+02 -0.30037926124E+02 -0.18752311107E+04  0.18802038548E+04  0.12508914800E+03 0.  0.
         24    2    1    2    0    0 -0.10009520551E+02 -0.17253666779E+02 -0.15560356204E+04  0.15581814213E+04  0.79275532527E+02 0.  0.
        -24    2    1    2    0    0 -0.36090860430E+02  0.47291592902E+02 -0.44607211055E+02  0.10976046730E+03  0.80737302020E+02 0.  0.
        -13    1    4    4    0    0 -0.19837815838E+02  0.21917917843E+02 -0.29022915341E+03  0.29173086150E+03  0.00000000000E+00 0.  1.
         14    1    4    4    0    0  0.98282952875E+01 -0.39171584622E+02 -0.12658064670E+04  0.12664505598E+04  0.00000000000E+00 0. -1.
         13    1    5    5    0    0  0.20365848165E+02  0.32114375480E+02 -0.32578726942E+02  0.50074687549E+02  0.00000000000E+00 0. -1.
        -14    1    5    5    0    0 -0.56456708596E+02  0.15177217422E+02 -0.12028484112E+02  0.59685779748E+02  0.00000000000E+00 0.  1.
          5    1    3    3  501    0 -0.34077943021E+02 -0.43321719131E+02 -0.75959109513E+03  0.76159975167E+03  0.41800000000E+01 0. -1.
         -5    1    3    3    0  501  0.80178324002E+02  0.13283793008E+02 -0.11156400155E+04  0.11186041031E+04  0.41800000000E+01 0. -1.
</event>
<event>
11    1  0.1704459E-009  0.5219802E+03  0.7561462E-02  0.9345704E-01
         22   -1    0    0    0    0  0.00000000000E+00  0.00000000000E+00  0.26401601084E+04  0.26401601084E+04  0.00000000000E+00 0. -1.
         22   -1    0    0    0    0 -0.00000000000E+00 -0.00000000000E+00 -0.28328197850E+03  0.28328197850E+03  0.00000000000E+00 0.  1.
         25    2    1    2    0    0  0.95226615574E+02 -0.20281775344E+02 -0.14026928728E+03  0.21166674952E+03  0.12509149121E+03 0.  0.
        -24    2    1    2    0    0 -0.50890960632E+03 -0.23100304688E+03  0.12540738921E+04  0.13753387012E+04  0.80646271958E+02 0.  0.
         24    2    1    2    0    0  0.41368299075E+03  0.25128482223E+03  0.12430735251E+04  0.13364366362E+04  0.80953165062E+02 0.  0.
        -11    1    5    5    0    0  0.22644333078E+03  0.92680725043E+02  0.58536551604E+03  0.63444391889E+03  0.00000000000E+00 0.  1.
         12    1    5    5    0    0  0.18723965997E+03  0.15860409718E+03  0.65770800906E+03  0.70199271726E+03  0.00000000000E+00 0. -1.
         11    1    4    4    0    0 -0.30562987296E+03 -0.17789713030E+03  0.74786690107E+03  0.82726169374E+03  0.00000000000E+00 0. -1.
        -12    1    4    4    0    0 -0.20327973336E+03 -0.53105916578E+02  0.50620699099E+03  0.54807700745E+03  0.00000000000E+00 0.  1.
          5    1    3    3  501    0 -0.85604289869E+01 -0.43963224134E+02 -0.72757029810E+02  0.85540071355E+02  0.41800000000E+01 0. -1.
         -5    1    3    3    0  501  0.10378704456E+03  0.23681448790E+02 -0.67512257475E+02  0.12612667816E+03  0.41800000000E+01 0. -1.
</event>
<event>
11    1  0.1704459E-009  0.3618506E+03  0.7561462E-02  0.9769551E-01
         22   -1    0    0    0    0  0.00000000000E+00  0.00000000000E+00  0.59283327358E+03  0.59283327358E+03  0.00000000000E+00 0. -1.
         22   -1    0    0    0    0 -0.00000000000E+00 -0.00000000000E+00 -0.70274334686E+03  0.70274334686E+03  0.00000000000E+00 0. -1.
         25    2    1    2    0    0  0.11037804316E+03  0.19562182680E+01 -0.40119769207E+03  0.43450190128E+03  0.12508067354E+03 0.  0.
         24    2    1    2    0    0 -0.41548442754E+03  0.75016589573E+02  0.18846966277E+02  0.43028086066E+03  0.80818393157E+02 0.  0.
        -24    2    1    2    0    0  0.30510638438E+03 -0.76972807841E+02  0.27244065251E+03  0.43079385850E+03  0.11110679745E+03 0.  0.
        -11    1    4    4    0    0 -0.66125704977E+02 -0.15751281114E+02 -0.73607369938E+01  0.68373183080E+02  0.00000000000E+00 0.  1.
         12    1    4    4    0    0 -0.34935872256E+03  0.90767870687E+02  0.26207703271E+02  0.36190767758E+03  0.00000000000E+00 0. -1.
         13    1    5    5    0    0  0.98349299718E+02 -0.80105410371E+02  0.99002745610E+02  0.16090682137E+03  0.00000000000E+00 0. -1.
        -14    1    5    5    0    0  0.20675708466E+03  0.31326025295E+01  0.17343790690E+03  0.26988703713E+03  0.00000000000E+00 0.  1.
          5    1    3    3  501    0  0.32120486754E+02  0.38725047261E+02 -0.28590445204E+03  0.29032771664E+03  0.41800000000E+01 0.  1.
         -5    1    3    3    0  501  0.78257556404E+02 -0.36768828993E+02 -0.11529324003E+03  0.14417418464E+03  0.41800000000E+01 0.  1.
</event>
<event>
11    1  0.1704459E-009  0.3075361E+03  0.7561462E-02  0.9970513E-01
         22   -1    0    0    0    0  0.00000000000E+00  0.00000000000E+00  0.51604703797E+03  0.51604703797E+03  0.00000000000E+00 0.  1.
         22   -1    0    0    0    0 -0.00000000000E+00 -0.00000000000E+00 -0.18747692321E+04  0.18747692321E+04  0.00000000000E+00 0. -1.
         25    2    1    2    0    0 -0.90517683716E+02  0.30890247948E+03 -0.11833317955E+04  0.12326958548E+04  0.12510291476E+03 0.  0.
         24    2    1    2    0    0  0.75391411545E+02 -0.22859111250E+03 -0.63560711351E+03  0.68420466481E+03  0.78751882255E+02 0.  0.
        -24    2    1    2    0    0  0.15126272170E+02 -0.80311366978E+02  0.46021671489E+03  0.47391575045E+03  0.78217607286E+02 0.  0.
        -11    1    4    4    0    0  0.37753707784E+02 -0.34853980014E+02 -0.85329522381E+02  0.99605570949E+02  0.00000000000E+00 0.  1.
         12    1    4    4    0    0  0.37637703761E+02 -0.19373713249E+03 -0.55027759113E+03  0.58459909387E+03  0.00000000000E+00 0. -1.
         13    1    5    5    0    0  0.16988778260E+02  0.10714719131E+02  0.53828031881E+02  0.57453292412E+02  0.00000000000E+00 0. -1.
        -14    1    5    5    0    0 -0.18625060899E+01 -0.91026086109E+02  0.40638868301E+03  0.41646245804E+03  0.00000000000E+00 0.  1.
          5    1    3    3  501    0 -0.66370286907E+02  0.52039847644E+02 -0.22813089610E+03  0.24325776223E+03  0.41800000000E+01 0. -1.
         -5    1    3    3    0  501 -0.24147396809E+02  0.25686263184E+03 -0.95520089937E+03  0.98943809253E+03  0.41800000000E+01 0. -1.
</event>
<event>
11    1  0.1704459E-009  0.3304220E+03  0.7561462E-02  0.9880792E-01
         22   -1    0    0    0    0  0.00000000000E+00  0.00000000000E+00  0.91607907622E+03  0.91607907622E+03  0.00000000000E+00 0. -1.
         22   -1    0    0    0    0 -0.00000000000E+00 -0.00000000000E+00 -0.24791391807E+03  0.24791391807E+03  0.00000000000E+00 0. -1.
         25    2    1    2    0    0 -0.40665591954E+02  0.10149590415E+01 -0.44971624228E+02  0.13900904582E+03  0.12508536015E+03 0.  0.
         24    2    1    2    0    0 -0.65059364763E+02 -0.30259096776E+03  0.11443733821E+03  0.33962914021E+03  0.80361892614E+02 0.  0.
        -24    2    1    2    0    0  0.10572495672E+03  0.30157600872E+03  0.59869944416E+03  0.68535480826E+03  0.95626007246E+02 0.  0.
        -13    1    4    4    0    0 -0.48455709158E+02 -0.87433473222E+02  0.61735490237E+02  0.11748973889E+03  0.00000000000E+00 0.  1.
         14    1    4    4    0    0 -0.16603655604E+02 -0.21515749454E+03  0.52701847975E+02  0.22213940132E+03  0.00000000000E+00 0. -1.
         11    1    5    5    0    0  0.64136429611E+02  0.26728758188E+03  0.53817646357E+03  0.60430955559E+03  0.00000000000E+00 0. -1.
        -12    1    5    5    0    0  0.41588527105E+02  0.34288426839E+02  0.60522980590E+02  0.81045252676E+02  0.00000000000E+00 0.  1.
          5    1    3    3  501    0 -0.49143973143E+02 -0.39721722056E+02  0.15771716502E+02  0.65262276553E+02  0.41800000000E+01 0. -1.
         -5    1    3    3    0  501  0.84783811896E+01  0.40736681097E+02 -0.60743340730E+02  0.73746769268E+02  0.41800000000E+01 0. -1.
</event>
<event>
11    1  0.1704459E-009  0.3253569E+03  0.7561462E-02  0.9899962E-01
         22   -1    0    0    0    0  0.00000000000E+00  0.00000000000E+00  0.21723507963E+04  0.21723507963E+04  0.00000000000E+00 0. -1.
         22   -1    0    0    0    0 -0.00000000000E+00 -0.00000000000E+00 -0.95230203626E+02  0.95230203626E+02  0.00000000000E+00 0.  1.
         25    2    1    2    0    0 -0.27794253193E+03 -0.12405069829E+03  0.30311342412E+03  0.44739930283E+03  0.12509101282E+03 0.  0.
        -24    2    1    2    0    0  0.28590808102E+03  0.58793509466E+02  0.12721375010E+04  0.13076742838E+04  0.80486666566E+02 0.  0.
         24    2    1    2    0    0 -0.79655490880E+01  0.65257188826E+02  0.50186966752E+03  0.51250741328E+03  0.80428445327E+02 0.  0.
        -13    1    5    5    0    0  0.13599358915E+02 -0.98764847913E+01  0.31659098584E+02  0.35843912145E+02  0.00000000000E+00 0.  1.
         14    1    5    5    0    0 -0.21564908003E+02  0.75133673617E+02  0.47021056894E+03  0.47666350113E+03  0.00000000000E+00 0. -1.
         13    1    4    4    0    0  0.28397391980E+03  0.69046922834E+02  0.12216705652E+04  0.12561399741E+04  0.00000000000E+00 0. -1.
        -14    1    4    4    0    0  0.19341612117E+01 -0.10253413368E+02  0.50466935875E+02  0.51534309755E+02  0.00000000000E+00 0.  1.
          5    1    3    3  501    0 -0.37711759834E+02 -0.12984284284E+02  0.11737704442E+03  0.12403874969E+03  0.41800000000E+01 0.  1.
         -5    1    3    3    0  501 -0.24023077209E+03 -0.11106641401E+03  0.18573637970E+03  0.32336055314E+03  0.41800000000E+01 0.  1.
</event>
<event>
11    1  0.1704459E-009  0.1983816E+03  0.7561462E-02  0.1055674E+00
         22   -1    0    0    0    0  0.00000000000E+00  0.00000000000E+00  0.23962674017E+03  0.23962674017E+03  0.00000000000E+00 0.  1.
         22   -1    0    0    0    0 -0.00000000000E+00 -0.00000000000E+00 -0.74439325102E+03  0.74439325102E+03  0.00000000000E+00 0.  1.
         25    2    1    2    0    0  0.15073097941E+03  0.29474588591E+02 -0.65070814025E+03  0.68018898633E+03  0.12508954315E+03 0.  0.
         24    2    1    2    0    0 -0.15678109769E+03 -0.24454010500E+02  0.12933110362E+03  0.22001803443E+03  0.80641737886E+02 0.  0.
        -24    2    1    2    0    0  0.60501182851E+01 -0.50205780905E+01  0.16610525777E+02  0.83812970430E+02  0.81773432789E+02 0.  0.
        -11    1    4    4    0    0 -0.12353232895E+03 -0.40813651051E+02  0.64187062261E+02  0.14507229015E+03  0.00000000000E+00 0.  1.
         12    1    4    4    0    0 -0.33248768745E+02  0.16359640551E+02  0.65144041356E+02  0.74945744283E+02  0.00000000000E+00 0. -1.
         11    1    5    5    0    0 -0.32714711604E+02  0.16723316082E+02  0.11674101247E+01  0.36759821851E+02  0.00000000000E+00 0. -1.
        -12    1    5    5    0    0  0.38764829889E+02 -0.21743894173E+02  0.15443115652E+02  0.47053148579E+02  0.00000000000E+00 0.  1.
          5    1    3    3  501    0  0.46235765302E+02  0.71359178149E+02 -0.26184472765E+03  0.27533618015E+03  0.41800000000E+01 0. -1.
         -5    1    3    3    0  501  0.10449521411E+03 -0.41884589559E+02 -0.38886341260E+03  0.40485280618E+03  0.41800000000E+01 0. -1.
</event>
<event>
11    1  0.1704459E-009  0.1561088E+03  0.7561462E-02  0.1090795E+00
         22   -1    0    0    0    0  0.00000000000E+00  0.00000000000E+00  0.68442193313E+02  0.68442193313E+02  0.00000000000E+00 0.  1.
         22   -1    0    0    0    0 -0.00000000000E+00 -0.00000000000E+00 -0.10827696416E+04  0.10827696416E+04  0.00000000000E+00 0.  1.
         25    2    1    2    0    0 -0.17517884347E+02 -0.14784980124E+03 -0.67450183657E+03  0.70197363613E+03  0.12509123985E+03 0.  0.
        -24    2    1    2    0    0 -0.99319895009E+00  0.62291581781E+02 -0.31335913428E+03  0.32897188551E+03  0.78404890257E+02 0.  0.
         24    2    1    2    0    0  0.18511083297E+02  0.85558219462E+02 -0.26466477471E+02  0.12026631330E+03  0.78106610242E+02 0.  0.
        -13    1    5    5    0    0  0.38247649074E+02  0.85453948059E+02 -0.92556237686E+01  0.94079362614E+02  0.00000000000E+00 0.  1.
         14    1    5    5    0    0 -0.19736565777E+02  0.10427140245E+00 -0.17210853703E+02  0.26186950689E+02  0.00000000000E+00 0. -1.
         11    1    4    4    0    0  0.14890429797E+02 -0.90324324012E+01 -0.19415424111E+02  0.26081955985E+02  0.00000000000E+00 0. -1.
        -12    1    4    4    0    0 -0.15883628747E+02  0.71324014182E+02 -0.29394371016E+03  0.30288992952E+03  0.00000000000E+00 0.  1.
          5    1    3    3  501    0  0.87809157072E+01  0.20845805745E+02 -0.10078420346E+03  0.10337591675E+03  0.41800000000E+01 0. -1.
         -5    1    3    3    0  501 -0.26298800054E+02 -0.16869560699E+03 -0.57371763311E+03  0.59859771938E+03  0.41800000000E+01 0. -1.
</event>
<event>
11    1  0.1704459E-009  0.9091142E+03  0.7561462E-02  0.8770615E-01
         22   -1    0    0    0    0  0.00000000000E+00  0.00000000000E+00  0.29893511297E+04  0.29893511297E+04  0.00000000000E+00 0. -1.
         22   -1    0    0    0    0 -0.00000000000E+00 -0.00000000000E+00 -0.13585380523E+04  0.13585380523E+04  0.00000000000E+00 0. -1.
         25    2    1    2    0    0  0.68306855513E+03 -0.58233000919E+03 -0.10183565479E+04  0.13632270563E+04  0.12508819986E+03 0.  0.
        -24    2    1    2    0    0 -0.56527175046E+03  0.75712254224E+03  0.12580640450E+04  0.15754050640E+04  0.80057970068E+02 0.  0.
         24    2    1    2    0    0 -0.11779680467E+03 -0.17479253304E+03  0.13911055802E+04  0.14092570617E+04  0.80013834983E+02 0.  0.
        -11    1    5    5    0    0 -0.60689478588E+02 -0.32796349916E+02  0.55363947730E+03  0.55792067913E+03  0.00000000000E+00 0.  1.
         12    1    5    5    0    0 -0.57107326080E+02 -0.14199618313E+03  0.83746610290E+03  0.85133638253E+03  0.00000000000E+00 0. -1.
         13    1    4    4    0    0 -0.37210069078E+03  0.48154692797E+03  0.87035070829E+03  0.10620059903E+04  0.00000000000E+00 0. -1.
        -14    1    4    4    0    0 -0.19317105968E+03  0.27557561426E+03  0.38771333674E+03  0.51339907378E+03  0.00000000000E+00 0.  1.
          5    1    3    3  501    0  0.62690285807E+03 -0.57227070060E+03 -0.96131912964E+03  0.12824402090E+04  0.41800000000E+01 0. -1.
         -5    1    3    3    0  501  0.56165697057E+02 -0.10059308595E+02 -0.57037418259E+02  0.80786847302E+02  0.41800000000E+01 0. -1.
</event>
<event>
11    1  0.1704459E-009  0.6597110E+03  0.7561462E-02  0.9093878E-01
         22   -1    0    0    0    0  0.00000000000E+00  0.00000000000E+00  0.18798465648E+04  0.18798465648E+04  0.00000000000E+00 0. -1.
         22   -1    0    0    0    0 -0.00000000000E+00 -0.00000000000E+00 -0.85522478198E+03  0.85522478198E+03  0.00000000000E+00 0. -1.
         25    2    1    2    0    0 -0.44948349550E+02  0.68580186179E+03 -0.43880591817E+03  0.82494991365E+03  0.12508868230E+03 0.  0.
         24    2    1    2    0    0  0.18807318552E+03 -0.54892753566E+03  0.18555004643E+03  0.61442183880E+03  0.79952571914E+02 0.  0.
        -24    2    1    2    0    0 -0.14312483597E+03 -0.13687432614E+03  0.12778776546E+04  0.12956995943E+04  0.81528147880E+02 0.  0.
        -13    1    4    4    0    0  0.32757302212E+01  0.25266062759E+01  0.11259513150E+01  0.42874134532E+01  0.00000000000E+00 0.  1.
         14    1    4    4    0    0  0.18479745530E+03 -0.55145414193E+03  0.18442409511E+03  0.61013442535E+03  0.00000000000E+00 0. -1.
         13    1    5    5    0    0 -0.11262660330E+03 -0.86127761576E+02  0.66373776701E+03  0.67871243280E+03  0.00000000000E+00 0. -1.
        -14    1    5    5    0    0 -0.30498232677E+02 -0.50746564559E+02  0.61413988757E+03  0.61698716155E+03  0.00000000000E+00 0.  1.
          5    1    3    3  501    0 -0.17252083410E+02  0.19608714673E+03 -0.62022729309E+02  0.20642697218E+03  0.41800000000E+01 0.  1.
         -5    1    3    3    0  501 -0.27696266140E+02  0.48971471507E+03 -0.37678318886E+03  0.61852294147E+03  0.41800000000E+01 0. -1.
</event>
<event>
11    1  0.1704459E-009  0.1546705E+03  0.7561462E-02  0.1092200E+00
         22   -1    0    0    0    0  0.00000000000E+00  0.00000000000E+00  0.46984471077E+02  0.46984471077E+02  0.00000000000E+00 0.  1.
         22   -1    0    0    0    0 -0.00000000000E+00 -0.00000000000E+00 -0.95356030091E+03  0.95356030091E+03  0.00000000000E+00 0. -1.
         25    2    1    2    0    0  0.54656734885E+02  0.35293516973E+01 -0.34754801472E+03  0.37341189474E+03  0.12508799146E+03 0.  0.
        -24    2    1    2    0    0  0.24326296555E+02  0.94736136156E+02 -0.32958986741E+03  0.35308026009E+03  0.80433109894E+02 0.  0.
         24    2    1    2    0    0 -0.78983031440E+02 -0.98265487853E+02 -0.22943794771E+03  0.27405261716E+03  0.81047145329E+02 0.  0.
        -13    1    5    5    0    0 -0.45563500802E+02 -0.10636252857E+02 -0.35852287591E+02  0.58945305205E+02  0.00000000000E+00 0.  1.
         14    1    5    5    0    0 -0.33419530637E+02 -0.87629234997E+02 -0.19358566012E+03  0.21510731196E+03  0.00000000000E+00 0. -1.
         11    1    4    4    0    0  0.80778568835E+01  0.75355456368E+02 -0.31477463199E+03  0.32376961797E+03  0.00000000000E+00 0. -1.
        -12    1    4    4    0    0  0.16248439672E+02  0.19380679788E+02 -0.14815235419E+02  0.29310642117E+02  0.00000000000E+00 0.  1.
          5    1    3    3  501    0 -0.33263359934E+01  0.31839063081E+02 -0.27226501359E+03  0.27417239189E+03  0.41800000000E+01 0. -1.
         -5    1    3    3    0  501  0.57983070878E+02 -0.28309711384E+02 -0.75283001121E+02  0.99239502845E+02  0.41800000000E+01 0. -1.
</event>
<event>
11    1  0.1704459E-009  0.2133706E+04  0.7561462E-02  0.8014283E-01
         22   -1    0    0    0    0  0.00000000000E+00  0.00000000000E+00  0.58959142250E+03  0.58959142250E+03  0.00000000000E+00 0. -1.
         22   -1    0    0    0    0 -0.00000000000E+00 -0.00000000000E+00 -0.19304466983E+04  0.19304466983E+04  0.00000000000E+00 0. -1.
         25    2    1    2    0    0  0.30529024929E+02 -0.17036408894E+03 -0.18969432457E+04  0.19089257030E+04  0.12509083800E+03 0.  0.
         24    2    1    2    0    0 -0.33784827875E+02  0.68363435995E+02  0.16496162229E+03  0.19892822929E+03  0.80901975279E+02 0.  0.
        -24    2    1    2    0    0  0.32558029460E+01  0.10200065295E+03  0.39112634758E+03  0.41218418859E+03  0.80630342295E+02 0.  0.
        -13    1    4    4    0    0 -0.54595918244E+02  0.70463099710E+02  0.14370529283E+03  0.16910639816E+03  0.00000000000E+00 0.  1.
         14    1    4    4    0    0  0.20811090369E+02 -0.20996637145E+01  0.21256329460E+02  0.29821831134E+02  0.00000000000E+00 0. -1.
         11    1    5    5    0    0 -0.51447126299E+01  0.49973979778E+02  0.31857767650E+03  0.32251449996E+03  0.00000000000E+00 0. -1.
        -12    1    5    5    0    0  0.84005155759E+01  0.52026673169E+02  0.72548671081E+02  0.89669688628E+02  0.00000000000E+00 0.  1.
          5    1    3    3  501    0  0.70327793120E+02 -0.13943766577E+03 -0.11959859057E+04  0.12061461852E+04  0.41800000000E+01 0. -1.
         -5    1    3    3    0  501 -0.39798768190E+02 -0.30926423175E+02 -0.70095734002E+03  0.70277951772E+03  0.41800000000E+01 0. -1.
</event>
<event>
11    1  0.1704459E-009  0.2771891E+03  0.7561462E-02  0.1010336E+00
         22   -1    0    0    0    0  0.00000000000E+00  0.00000000000E+00  0.63496391474E+03  0.63496391474E+03  0.00000000000E+00 0.  1.
         22   -1    0    0    0    0 -0.00000000000E+00 -0.00000000000E+00 -0.10414986600E+04  0.10414986600E+04  0.00000000000E+00 0. -1.
         25    2    1    2    0    0  0.10385335855E+03  0.24585599996E+03 -0.60647689737E+03  0.67430952858E+03  0.12509364691E+03 0.  0.
         24    2    1    2    0    0 -0.26243401867E+03 -0.85966606098E+02 -0.32040261398E+03  0.43046052595E+03  0.79853352087E+02 0.  0.
        -24    2    1    2    0    0  0.15858066011E+03 -0.15988939386E+03  0.52034476609E+03  0.57169252020E+03  0.73220338849E+02 0.  0.
        -11    1    4    4    0    0 -0.12959858862E+03 -0.67191642869E+02 -0.11836390312E+03  0.18793755507E+03  0.00000000000E+00 0.  1.
         12    1    4    4    0    0 -0.13283543005E+03 -0.18774963229E+02 -0.20203871086E+03  0.24252297088E+03  0.00000000000E+00 0. -1.
         13    1    5    5    0    0  0.64541762440E+02 -0.11066711915E+03  0.32565972720E+03  0.34995300867E+03  0.00000000000E+00 0. -1.
        -14    1    5    5    0    0  0.94038897673E+02 -0.49222274711E+02  0.19468503890E+03  0.22173951153E+03  0.00000000000E+00 0.  1.
          5    1    3    3  501    0  0.13037808045E+03  0.17801111821E+03 -0.42949459034E+03  0.48287625496E+03  0.41800000000E+01 0.  1.
         -5    1    3    3    0  501 -0.26524721892E+02  0.67844881744E+02 -0.17698230703E+03  0.19143327363E+03  0.41800000000E+01 0.  1.
</event>
<event>
11    1  0.1704459E-009  0.2443155E+03  0.7561462E-02  0.1026972E+00
         22   -1    0    0    0    0  0.00000000000E+00  0.00000000000E+00  0.11943671965E+04  0.11943671965E+04  0.00000000000E+00 0.  1.
         22   -1    0    0    0    0 -0.00000000000E+00 -0.00000000000E+00 -0.14705685029E+03  0.14705685029E+03  0.00000000000E+00 0. -1.
         25    2    1    2    0    0  0.31015112507E+00  0.22575004384E+03  0.15500564917E+03  0.30105986265E+03  0.12508841327E+03 0.  0.
         24    2    1    2    0    0  0.13372976300E+03 -0.17253852167E+03  0.14271278396E+03  0.27283863388E+03  0.80129835018E+02 0.  0.
        -24    2    1    2    0    0 -0.13403991413E+03 -0.53211522173E+02  0.74959191306E+03  0.76752555024E+03  0.80057913216E+02 0.  0.
        -11    1    4    4    0    0  0.95577599892E+01 -0.67337305607E+02  0.27120555578E+02  0.73220134097E+02  0.00000000000E+00 0.  1.
         12    1    4    4    0    0  0.12417200301E+03 -0.10520121606E+03  0.11559222838E+03  0.19961849978E+03  0.00000000000E+00 0. -1.
         13    1    5    5    0    0 -0.51430827938E+01  0.17281410417E+02  0.80620792567E+02  0.82612412147E+02  0.00000000000E+00 0. -1.
        -14    1    5    5    0    0 -0.12889683134E+03 -0.70492932590E+02  0.66897112049E+03  0.68491313809E+03  0.00000000000E+00 0.  1.
          5    1    3    3  501    0  0.38392311046E+02  0.95604692479E+02  0.12513503090E+03  0.16214337831E+03  0.41800000000E+01 0.  1.
         -5    1    3    3    0  501 -0.38082159921E+02  0.13014535136E+03  0.29870618274E+02  0.13891648434E+03  0.41800000000E+01 0.  1.
</event>
<event>
11    1  0.1704459E-009  0.2772282E+03  0.7561462E-02  0.1010317E+00
         22   -1    0    0    0    0  0.00000000000E+00  0.00000000000E+00  0.60808547854E+03  0.60808547854E+03  0.00000000000E+00 0. -1.
         22   -1    0    0    0    0 -0.00000000000E+00 -0.00000000000E+00 -0.10503036458E+04  0.10503036458E+04  0.00000000000E+00 0.  1.
         25    2    1    2    0    0  0.62306333849E+02  0.24279178634E+03 -0.94821902368E+03  0.98873521148E+03  0.12509224914E+03 0.  0.
         24    2    1    2    0    0  0.94412115969E+02 -0.10648400017E+03  0.64584754835E+02  0.17516771136E+03  0.79120456346E+02 0.  0.
        -24    2    1    2    0    0 -0.15671844982E+03 -0.13630778617E+03  0.44141610161E+03  0.49448620148E+03  0.80795690540E+02 0.  0.
        -13    1    4    4    0    0  0.36121209981E+02  0.39012475166E+01  0.25405725273E+02  0.44332972146E+02  0.00000000000E+00 0.  1.
         14    1    4    4    0    0  0.58290905988E+02 -0.11038524769E+03  0.39179029562E+02  0.13083473922E+03  0.00000000000E+00 0. -1.
         11    1    5    5    0    0 -0.15894289811E+03 -0.12244076036E+03  0.36240498557E+03  0.41423659691E+03  0.00000000000E+00 0. -1.
        -12    1    5    5    0    0  0.22244482927E+01 -0.13867025805E+02  0.79011116036E+02  0.80249604561E+02  0.00000000000E+00 0.  1.
          5    1    3    3  501    0  0.38418292883E+02  0.67827665656E+02 -0.51511034491E+03  0.52099203188E+03  0.41800000000E+01 0.  1.
         -5    1    3    3    0  501  0.23888040966E+02  0.17496412069E+03 -0.43310867877E+03  0.46774317959E+03  0.41800000000E+01 0.  1.
</event>
<event>
11    1  0.1704459E-009  0.4389762E+03  0.7561462E-02  0.9541277E-01
         22   -1    0    0    0    0  0.00000000000E+00  0.00000000000E+00  0.30239533582E+03  0.30239533582E+03  0.00000000000E+00 0. -1.
         22   -1    0    0    0    0 -0.00000000000E+00 -0.00000000000E+00 -0.54632660797E+03  0.54632660797E+03  0.00000000000E+00 0. -1.
         25    2    1    2    0    0  0.15114904696E+03 -0.42654316728E+02 -0.59422394186E+02  0.20939127339E+03  0.12509300264E+03 0.  0.
        -24    2    1    2    0    0  0.19956131237E+03  0.92693278112E+02 -0.14247559927E+03  0.27378868171E+03  0.79020153387E+02 0.  0.
         24    2    1    2    0    0 -0.35071035933E+03 -0.50038961384E+02 -0.42033278694E+02  0.36554198869E+03  0.79702541885E+02 0.  0.
        -13    1    5    5    0    0 -0.28198957305E+02  0.16258182318E+02 -0.12854884158E+02  0.34996538859E+02  0.00000000000E+00 0.  1.
         14    1    5    5    0    0 -0.32251140202E+03 -0.66297143702E+02 -0.29178394535E+02  0.33054544983E+03  0.00000000000E+00 0. -1.
         13    1    4    4    0    0  0.14341907642E+03  0.24943329839E+02 -0.94727535455E+02  0.17367932277E+03  0.00000000000E+00 0. -1.
        -14    1    4    4    0    0  0.56142235946E+02  0.67749948273E+02 -0.47748063820E+02  0.10010935894E+03  0.00000000000E+00 0.  1.
          5    1    3    3  501    0  0.10799668160E+03  0.33003402700E+02 -0.41399483910E+02  0.12034906520E+03  0.41800000000E+01 0.  1.
         -5    1    3    3    0  501  0.43152365367E+02 -0.75657719428E+02 -0.18022910276E+02  0.89042208197E+02  0.41800000000E+01 0.  1.
</event>
<event>
11    1  0.1704459E-009  0.2460998E+03  0.7561462E-02  0.1025998E+00
         22   -1    0    0    0    0  0.00000000000E+00  0.00000000000E+00  0.46255641843E+03  0.46255641843E+03  0.00000000000E+00 0.  1.
         22   -1    0    0    0    0 -0.00000000000E+00 -0.00000000000E+00 -0.40172733494E+03  0.40172733494E+03  0.00000000000E+00 0.  1.
         25    2    1    2    0    0  0.12261810797E+03 -0.39396597515E+02 -0.26474445038E+03  0.31987936221E+03  0.12508353236E+03 0.  0.
         24    2    1    2    0    0  0.53211107843E+02 -0.99148931331E+02 -0.45953399258E+01  0.13744389014E+03  0.78789423189E+02 0.  0.
        -24    2    1    2    0    0 -0.17582921581E+03  0.13854552885E+03  0.33016887380E+03  0.40696050101E+03  0.80589003379E+02 0.  0.
        -11    1    4    4    0    0  0.46546776555E+02 -0.11000522209E+03 -0.15788107751E+02  0.12048657868E+03  0.00000000000E+00 0.  1.
         12    1    4    4    0    0  0.66643312883E+01  0.10856290759E+02  0.11192767825E+02  0.16957311466E+02  0.00000000000E+00 0. -1.
         13    1    5    5    0    0 -0.22459811683E+02  0.56864393646E+02  0.59481632134E+02  0.85299864987E+02  0.00000000000E+00 0. -1.
        -14    1    5    5    0    0 -0.15336940413E+03  0.81681135200E+02  0.27068724166E+03  0.32166063603E+03  0.00000000000E+00 0.  1.
          5    1    3    3  501    0  0.12478836141E+03 -0.72336689609E+02 -0.23186669130E+03  0.27310138546E+03  0.41800000000E+01 0. -1.
         -5    1    3    3    0  501 -0.21702534432E+01  0.32940092094E+02 -0.32877759076E+02  0.46777976752E+02  0.41800000000E+01 0. -1.
</event>
<event>
11    1  0.1704459E-009  0.1916229E+03  0.7561462E-02  0.1060611E+00
         22   -1    0    0    0    0  0.00000000000E+00  0.00000000000E+00  0.22688621250E+04  0.22688621250E+04  0.00000000000E+00 0. -1.
         22   -1    0    0    0    0 -0.00000000000E+00 -0.00000000000E+00 -0.35277208521E+02  0.35277208521E+02  0.00000000000E+00 0.  1.
         25    2    1    2    0    0 -0.32134023906E+02  0.10835036352E+03  0.57190905569E+03  0.59623846986E+03  0.12509175908E+03 0.  0.
         24    2    1    2    0    0  0.15812531504E+03  0.44423766589E+02  0.67779270381E+03  0.70205711218E+03  0.80648329947E+02 0.  0.
        -24    2    1    2    0    0 -0.12599129114E+03 -0.15277413010E+03  0.98388315699E+03  0.10058437515E+04  0.66946587301E+02 0.  0.
        -11    1    4    4    0    0  0.31203957671E+02 -0.21246159139E+02  0.10097013308E+03  0.10779635442E+03  0.00000000000E+00 0.  1.
         12    1    4    4    0    0  0.12692135737E+03  0.65669925728E+02  0.57682257074E+03  0.59426075776E+03  0.00000000000E+00 0. -1.
         13    1    5    5    0    0 -0.97772405505E+02 -0.95251592962E+02  0.78837437144E+03  0.80010402997E+03  0.00000000000E+00 0. -1.
        -14    1    5    5    0    0 -0.28218885632E+02 -0.57522537143E+02  0.19550878555E+03  0.20573972153E+03  0.00000000000E+00 0.  1.
          5    1    3    3  501    0  0.40271966229E+02  0.36782305859E+02  0.31760312854E+03  0.32227936475E+03  0.41800000000E+01 0.  1.
         -5    1    3    3    0  501 -0.72405990135E+02  0.71568057657E+02  0.25430592715E+03  0.27395910510E+03  0.41800000000E+01 0.  1.
</event>
<event>
11    1  0.1704459E-009  0.2407840E+03  0.7561462E-02  0.1028926E+00
         22   -1    0    0    0    0  0.00000000000E+00  0.00000000000E+00  0.10236824470E+04  0.10236824470E+04  0.00000000000E+00 0.  1.
         22   -1    0    0    0    0 -0.00000000000E+00 -0.00000000000E+00 -0.74927451247E+03  0.74927451247E+03  0.00000000000E+00 0.  1.
         25    2    1    2    0    0 -0.23054616911E+03 -0.12933561217E+03 -0.62401420677E+03  0.68914444810E+03  0.12508838250E+03 0.  0.
         24    2    1    2    0    0  0.25494273144E+02  0.14145225601E+03  0.41296742812E+01  0.16482776188E+03  0.80575667440E+02 0.  0.
        -24    2    1    2    0    0  0.20505189596E+03 -0.12116643835E+02  0.89429246702E+03  0.91898474949E+03  0.50802166488E+02 0.  0.
        -11    1    4    4    0    0 -0.26242243007E+02  0.20985869979E+02 -0.10701704908E+01  0.33618556211E+02  0.00000000000E+00 0.  1.
         12    1    4    4    0    0  0.51736516152E+02  0.12046638603E+03  0.51998447720E+01  0.13120920567E+03  0.00000000000E+00 0. -1.
         11    1    5    5    0    0  0.12435749199E+03  0.12217626087E+02  0.59927628152E+03  0.61216510665E+03  0.00000000000E+00 0. -1.
        -12    1    5    5    0    0  0.80694403967E+02 -0.24334269922E+02  0.29501618550E+03  0.30681964284E+03  0.00000000000E+00 0.  1.
          5    1    3    3  501    0 -0.34218349272E+02 -0.57585037545E+01 -0.22400574673E+03  0.22671590760E+03  0.41800000000E+01 0. -1.
         -5    1    3    3    0  501 -0.19632781983E+03 -0.12357710842E+03 -0.40000846004E+03  0.46242854050E+03  0.41800000000E+01 0. -1.
</event>
<event>
11    1  0.1704459E-009  0.2422388E+03  0.7561462E-02  0.1028117E+00
         22   -1    0    0    0    0  0.00000000000E+00  0.00000000000E+00  0.57794970089E+02  0.57794970089E+02  0.00000000000E+00 0.  1.
         22   -1    0    0    0    0 -0.00000000000E+00 -0.00000000000E+00 -0.26696205387E+04  0.26696205387E+04  0.00000000000E+00 0.  1.
         25    2    1    2    0    0  0.18943985570E+03 -0.10857532579E+03 -0.17055767641E+04  0.17240406749E+04  0.12509232689E+03 0.  0.
         24    2    1    2    0    0 -0.13081795609E+03 -0.11080589265E+03 -0.38480331276E+03  0.42939575652E+03  0.83161545919E+02 0.  0.
        -24    2    1    2    0    0 -0.58621899614E+02  0.21938121844E+03 -0.52144549173E+03  0.57397907733E+03  0.77342965097E+02 0.  0.
        -13    1    4    4    0    0 -0.19209307209E+02 -0.36765603097E+02 -0.17976787209E+03  0.18449172038E+03  0.00000000000E+00 0.  1.
         14    1    4    4    0    0 -0.11160864888E+03 -0.74040289557E+02 -0.20503544067E+03  0.24490403613E+03  0.00000000000E+00 0. -1.
         13    1    5    5    0    0 -0.68725312256E+00  0.13760392087E+03 -0.26390344347E+03  0.29762449300E+03  0.00000000000E+00 0. -1.
        -14    1    5    5    0    0 -0.57934646491E+02  0.81777297576E+02 -0.25754204825E+03  0.27635458433E+03  0.00000000000E+00 0.  1.
          5    1    3    3  501    0  0.11842611665E+02 -0.12364186293E+02 -0.59353419992E+03  0.59379578933E+03  0.41800000000E+01 0.  1.
         -5    1    3    3    0  501  0.17759724404E+03 -0.96211139497E+02 -0.11120425642E+04  0.11302448856E+04  0.41800000000E+01 0.  1.
</event>
<event>
11    1  0.1704459E-009  0.1640892E+03  0.7561462E-02  0.1083293E+00
         22   -1    0    0    0    0  0.00000000000E+00  0.00000000000E+00  0.79716504399E+03  0.79716504399E+03  0.00000000000E+00 0. -1.
         22   -1    0    0    0    0 -0.00000000000E+00 -0.00000000000E+00 -0.99437357670E+02  0.99437357670E+02  0.00000000000E+00 0. -1.
         25    2    1    2    0    0 -0.34115153611E+02 -0.61575816447E+01  0.34702365532E+02  0.13436665501E+03  0.12509350218E+03 0.  0.
         24    2    1    2    0    0 -0.55214239768E+02  0.12282668794E+03  0.13023044148E+03  0.20384017476E+03  0.80348250838E+02 0.  0.
        -24    2    1    2    0    0  0.89329393379E+02 -0.11666910629E+03  0.53279487930E+03  0.55839557190E+03  0.79648040883E+02 0.  0.
        -11    1    4    4    0    0  0.19406656937E+02  0.29944405846E+02  0.44591000139E+02  0.57110796425E+02  0.00000000000E+00 0.  1.
         12    1    4    4    0    0 -0.74620896705E+02  0.92882282091E+02  0.85639441346E+02  0.14672937833E+03  0.00000000000E+00 0. -1.
         11    1    5    5    0    0  0.72204945749E+02 -0.54221332407E+02  0.20114086544E+03  0.22047937507E+03  0.00000000000E+00 0. -1.
        -12    1    5    5    0    0  0.17124447630E+02 -0.62447773886E+02  0.33165401386E+03  0.33791619683E+03  0.00000000000E+00 0.  1.
          5    1    3    3  501    0 -0.50059125402E+02 -0.38344161342E+02 -0.22169950983E+02  0.66971410853E+02  0.41800000000E+01 0.  1.
         -5    1    3    3    0  501  0.15943971791E+02  0.32186579697E+02  0.56872316515E+02  0.67395244156E+02  0.41800000000E+01 0.  1.
</event>
<event>
11    1  0.1704459E-009  0.1731179E+03  0.7561462E-02  0.1075350E+00
         22   -1    0    0    0    0  0.00000000000E+00  0.00000000000E+00  0.15081995592E+04  0.15081995592E+04  0.00000000000E+00 0.  1.
         22   -1    0    0    0    0 -0.00000000000E+00 -0.00000000000E+00 -0.96680152131E+02  0.96680152131E+02  0.00000000000E+00 0.  1.
         25    2    1    2    0    0 -0.96620716731E+02  0.81923699627E+02  0.68366548485E+02  0.19070674242E+03  0.12509205087E+03 0.  0.
         24    2    1    2    0    0  0.24167008530E+02 -0.12433651259E+03  0.14157875856E+03  0.20706841186E+03  0.82396417709E+02 0.  0.
        -24    2    1    2    0    0  0.72453708201E+02  0.42412812959E+02  0.12015741000E+04  0.12071045570E+04  0.79200424663E+02 0.  0.
        -11    1    4    4    0    0  0.51851294982E+02 -0.10569624485E+03  0.11002848714E+03  0.16114130740E+03  0.00000000000E+00 0.  1.
         12    1    4    4    0    0 -0.27684286453E+02 -0.18640267732E+02  0.31550271423E+02  0.45927104464E+02  0.00000000000E+00 0. -1.
         11    1    5    5    0    0 -0.10089588760E+02  0.54110210196E+01  0.31102949739E+02  0.33143210953E+02  0.00000000000E+00 0. -1.
        -12    1    5    5    0    0  0.82543296961E+02  0.37001791939E+02  0.11704711503E+04  0.11739613461E+04  0.00000000000E+00 0.  1.
          5    1    3    3  501    0 -0.54365882394E+02 -0.24096064310E+02  0.43251042357E+01  0.59769962442E+02  0.41800000000E+01 0.  1.
         -5    1    3    3    0  501 -0.42254834337E+02  0.10601976394E+03  0.64041444250E+02  0.13093677998E+03  0.41800000000E+01 0.  1.
</event>
<event>
11    1  0.1704459E-009  0.2605679E+03  0.7561462E-02  0.1018415E+00
         22   -1    0    0    0    0  0.00000000000E+00  0.00000000000E+00  0.17920590446E+04  0.17920590446E+04  0.00000000000E+00 0.  1.
         22   -1    0    0    0    0 -0.00000000000E+00 -0.00000000000E+00 -0.23530124371E+03  0.23530124371E+03  0.00000000000E+00 0. -1.
         25    2    1    2    0    0  0.23129396153E+03 -0.42756367526E+02 -0.10308634231E+03  0.28565584688E+03  0.12508982885E+03 0.  0.
         24    2    1    2    0    0 -0.78535191038E+02  0.17544587791E+03  0.30563912672E+03  0.37024265631E+03  0.81947034472E+02 0.  0.
        -24    2    1    2    0    0 -0.15275877049E+03 -0.13268951038E+03  0.13542050165E+04  0.13714617851E+04  0.78066979466E+02 0.  0.
        -11    1    4    4    0    0 -0.28580059429E+01 -0.88277880043E+01  0.19424789017E+02  0.21527202962E+02  0.00000000000E+00 0.  1.
         12    1    4    4    0    0 -0.75677185095E+02  0.18427366591E+03  0.28621433771E+03  0.34871545335E+03  0.00000000000E+00 0. -1.
         11    1    5    5    0    0 -0.38610884888E+01 -0.56446563241E+01  0.59250236132E+01  0.90485387855E+01  0.00000000000E+00 0. -1.
        -12    1    5    5    0    0 -0.14889768200E+03 -0.12704485406E+03  0.13482799928E+04  0.13624132463E+04  0.00000000000E+00 0.  1.
          5    1    3    3  501    0  0.21197804016E+03 -0.76046930329E+02 -0.73511632239E+02  0.23693724401E+03  0.41800000000E+01 0. -1.
         -5    1    3    3    0  501  0.19315921367E+02  0.33290562802E+02 -0.29574710070E+02  0.48718602871E+02  0.41800000000E+01 0. -1.
</event>
<event>
11    1  0.1704459E-009  0.1403159E+03  0.7561462E-02  0.1107206E+00
         22   -1    0    0    0    0  0.00000000000E+00  0.00000000000E+00  0.65719558037E+03  0.65719558037E+03  0.00000000000E+00 0. -1.
         22   -1    0    0    0    0 -0.00000000000E+00 -0.00000000000E+00 -0.30302885855E+03  0.30302885855E+03  0.00000000000E+00 0.  1.
         25    2    1    2    0    0  0.35288824244E+02 -0.45949647832E+01 -0.77727258093E+02  0.15151009794E+03  0.12508944124E+03 0.  0.
        -24    2    1    2    0    0 -0.64951248838E+02  0.42645575051E+02 -0.16782036509E+03  0.20150016549E+03  0.80008324313E+02 0.  0.
         24    2    1    2    0    0  0.29662424594E+02 -0.38050610268E+02  0.59971434500E+03  0.60721417548E+03  0.82000310623E+02 0.  0.
        -11    1    5    5    0    0  0.22570059761E+02 -0.11908647266E+02  0.44185116590E+02  0.51024974330E+02  0.00000000000E+00 0.  1.
         12    1    5    5    0    0  0.70923648325E+01 -0.26141963002E+02  0.55552922841E+03  0.55618920115E+03  0.00000000000E+00 0. -1.
         13    1    4    4    0    0 -0.26783016213E+02 -0.16233101728E+02 -0.18148440520E+02  0.36196815364E+02  0.00000000000E+00 0. -1.
        -14    1    4    4    0    0 -0.38168232625E+02  0.58878676779E+02 -0.14967192457E+03  0.16530335013E+03  0.00000000000E+00 0.  1.
          5    1    3    3  501    0  0.18579587191E+02  0.35712300368E+02 -0.95875865269E+02  0.10406835926E+03  0.41800000000E+01 0. -1.
         -5    1    3    3    0  501  0.16709237053E+02 -0.40307265151E+02  0.18148607177E+02  0.47441738684E+02  0.41800000000E+01 0. -1.
</event>
<event>
11    1  0.1704459E-009  0.2890793E+03  0.7561462E-02  0.1004922E+00
         22   -1    0    0    0    0  0.00000000000E+00  0.00000000000E+00  0.16838132792E+04  0.16838132792E+04  0.00000000000E+00 0.  1.
         22   -1    0    0    0    0 -0.00000000000E+00 -0.00000000000E+00 -0.80644793284E+02  0.80644793284E+02  0.00000000000E+00 0.  1.
         25    2    1    2    0    0  0.31999143049E+02 -0.26743792197E+03  0.10148886612E+04  0.10574462051E+04  0.12508594949E+03 0.  0.
        -24    2    1    2    0    0 -0.75996006665E+02  0.24728832057E+03  0.30559488583E+03  0.40807574485E+03  0.78807821764E+02 0.  0.
         24    2    1    2    0    0  0.43996863616E+02  0.20149601395E+02  0.28268493893E+03  0.29893612258E+03  0.84322596290E+02 0.  0.
        -11    1    5    5    0    0 -0.15251332026E+02 -0.16883174734E+02  0.36342635568E+02  0.42876938763E+02  0.00000000000E+00 0.  1.
         12    1    5    5    0    0  0.59248195643E+02  0.37032776130E+02  0.24634230336E+03  0.25605918382E+03  0.00000000000E+00 0. -1.
         13    1    4    4    0    0 -0.65921261518E+02  0.11075532291E+03  0.11070328054E+03  0.16990459263E+03  0.00000000000E+00 0. -1.
        -14    1    4    4    0    0 -0.10074745147E+02  0.13653299766E+03  0.19489160529E+03  0.23817115222E+03  0.00000000000E+00 0.  1.
          5    1    3    3  501    0 -0.82484222381E+01  0.69547949553E+01  0.11066348519E+02  0.16010687426E+02  0.41800000000E+01 0. -1.
         -5    1    3    3    0  501  0.40247565287E+02 -0.27439271692E+03  0.10038223126E+04  0.10414355176E+04  0.41800000000E+01 0. -1.
</event>
<event>
11    1  0.1704459E-009  0.1324739E+03  0.7561462E-02  0.1116266E+00
         22   -1    0    0    0    0  0.00000000000E+00  0.00000000000E+00  0.25088204866E+02  0.25088204866E+02  0.00000000000E+00 0.  1.
         22   -1    0    0    0    0 -0.00000000000E+00 -0.00000000000E+00 -0.15338287678E+04  0.15338287678E+04  0.00000000000E+00 0.  1.
         25    2    1    2    0    0 -0.18020172920E+02  0.51219404083E+01 -0.52637786466E+03  0.54136128176E+03  0.12508964819E+03 0.  0.
        -24    2    1    2    0    0 -0.37549239940E+02 -0.93484260602E+02 -0.54690612076E+03  0.56193399348E+03  0.80710939170E+02 0.  0.
         24    2    1    2    0    0  0.55569412860E+02  0.88362320194E+02 -0.43545657757E+03  0.45562169748E+03  0.84100184240E+02 0.  0.
        -13    1    5    5    0    0  0.62365441946E+02  0.69597358902E+02 -0.42029237766E+03  0.43055652757E+03  0.00000000000E+00 0.  1.
         14    1    5    5    0    0 -0.67960290865E+01  0.18764961292E+02 -0.15164199912E+02  0.25065169909E+02  0.00000000000E+00 0. -1.
         11    1    4    4    0    0 -0.27433140154E+02 -0.14407127695E+02 -0.31871647983E+03  0.32021920152E+03  0.00000000000E+00 0. -1.
        -12    1    4    4    0    0 -0.10116099786E+02 -0.79077132907E+02 -0.22818964093E+03  0.24171479196E+03  0.00000000000E+00 0.  1.
          5    1    3    3  501    0  0.46023467719E+02  0.27796718293E+02 -0.16379162010E+03  0.17244124897E+03  0.41800000000E+01 0.  1.
         -5    1    3    3    0  501 -0.64043640639E+02 -0.22674777885E+02 -0.36258624455E+03  0.36892003279E+03  0.41800000000E+01 0.  1.
</event>
<event>
11    1  0.1704459E-009  0.6920058E+03  0.7561462E-02  0.9044169E-01
         22   -1    0    0    0    0  0.00000000000E+00  0.00000000000E+00  0.52619873314E+03  0.52619873314E+03  0.00000000000E+00 0. -1.
         22   -1    0    0    0    0 -0.00000000000E+00 -0.00000000000E+00 -0.22751479419E+03  0.22751479419E+03  0.00000000000E+00 0. -1.
         25    2    1    2    0    0 -0.30833611436E+03  0.19590575153E+02  0.78353385791E+02  0.34240072956E+03  0.12507620270E+03 0.  0.
        -24    2    1    2    0    0  0.18728947710E+03 -0.13560725951E+02  0.16076437346E+03  0.25306152192E+03  0.54163720153E+02 0.  0.
         24    2    1    2    0    0  0.12104663726E+03 -0.60298492015E+01  0.59566179699E+02  0.15825127586E+03  0.82502661015E+02 0.  0.
        -11    1    5    5    0    0 -0.90167270064E+00  0.10000828626E+01  0.33276149751E+02  0.33303383036E+02  0.00000000000E+00 0.  1.
         12    1    5    5    0    0  0.12194830996E+03 -0.70299320640E+01  0.26290029948E+02  0.12494789282E+03  0.00000000000E+00 0. -1.
         13    1    4    4    0    0  0.32909192374E+02 -0.16823580481E+02  0.53584561896E+02  0.65094954309E+02  0.00000000000E+00 0. -1.
        -14    1    4    4    0    0  0.15438028473E+03  0.32628545298E+01  0.10717981156E+03  0.18796656761E+03  0.00000000000E+00 0.  1.
          5    1    3    3  501    0 -0.11129140987E+03  0.65375178103E+02  0.48136429430E+02  0.13781973756E+03  0.41800000000E+01 0.  1.
         -5    1    3    3    0  501 -0.19704470449E+03 -0.45784602950E+02  0.30216956361E+02  0.20458099200E+03  0.41800000000E+01 0.  1.
</event>
<event>
11    1  0.1704459E-009  0.3541801E+03  0.7561462E-02  0.9795552E-01
         22   -1    0    0    0    0  0.00000000000E+00  0.00000000000E+00  0.41130684756E+03  0.41130684756E+03  0.00000000000E+00 0. -1.
         22   -1    0    0    0    0 -0.00000000000E+00 -0.00000000000E+00 -0.94194779843E+03  0.94194779843E+03  0.00000000000E+00 0. -1.
         25    2    1    2    0    0 -0.35066336023E+02 -0.31843027745E+02 -0.26946167825E+03  0.30083179455E+03  0.12508615523E+03 0.  0.
        -24    2    1    2    0    0 -0.30460865758E+03 -0.54624519876E+02 -0.51959285694E+03  0.60936598396E+03  0.74698681209E+02 0.  0.
         24    2    1    2    0    0  0.33967499360E+03  0.86467547620E+02  0.25841358432E+03  0.44305686748E+03  0.81645999234E+02 0.  0.
        -11    1    5    5    0    0  0.18763058557E+03  0.82463526679E+02  0.12054950295E+03  0.23777647599E+03  0.00000000000E+00 0.  1.
         12    1    5    5    0    0  0.15204440804E+03  0.40040209413E+01  0.13786408138E+03  0.20528039150E+03  0.00000000000E+00 0. -1.
         13    1    4    4    0    0 -0.28901166288E+03 -0.33420669974E+02 -0.48903514425E+03  0.56903431774E+03  0.00000000000E+00 0. -1.
        -14    1    4    4    0    0 -0.15596994699E+02 -0.21203849902E+02 -0.30557712697E+02  0.40331666214E+02  0.00000000000E+00 0.  1.
          5    1    3    3  501    0 -0.11246933958E+02 -0.40285413225E+02 -0.14318512131E+02  0.44406083275E+02  0.41800000000E+01 0. -1.
         -5    1    3    3    0  501 -0.23819402065E+02  0.84423854799E+01 -0.25514316612E+03  0.25642571128E+03  0.41800000000E+01 0. -1.
</event>
<event>
11    1  0.1704459E-009  0.2074920E+03  0.7561462E-02  0.1049349E+00
         22   -1    0    0    0    0  0.00000000000E+00  0.00000000000E+00  0.10060710904E+04  0.10060710904E+04  0.00000000000E+00 0. -1.
         22   -1    0    0    0    0 -0.00000000000E+00 -0.00000000000E+00 -0.12185648844E+04  0.12185648844E+04  0.00000000000E+00 0.  1.
         25    2    1    2    0    0 -0.16840961539E+03  0.34463276822E+02 -0.65153793655E+03  0.68534567569E+03  0.12508995333E+03 0.  0.
        -24    2    1    2    0    0  0.15675205518E+03 -0.32146030023E+02 -0.53373965836E+03  0.56317202581E+03  0.81732084837E+02 0.  0.
         24    2    1    2    0    0  0.11657560217E+02 -0.23172467986E+01  0.97278380087E+03  0.97611827325E+03  0.79732626990E+02 0.  0.
        -13    1    5    5    0    0  0.41171102029E+02 -0.16929386296E+01  0.31652545252E+03  0.31919631542E+03  0.00000000000E+00 0.  1.
         14    1    5    5    0    0 -0.29513541812E+02 -0.62430816893E+00  0.65625834834E+03  0.65692195783E+03  0.00000000000E+00 0. -1.
         11    1    4    4    0    0  0.27429046580E+02  0.18073822401E+02 -0.49161045529E+02  0.59125494078E+02  0.00000000000E+00 0. -1.
        -12    1    4    4    0    0  0.12932300860E+03 -0.50219852424E+02 -0.48457861284E+03  0.50404653173E+03  0.00000000000E+00 0.  1.
          5    1    3    3  501    0 -0.92225177715E+02 -0.44064449503E+02 -0.28494402142E+03  0.30275027144E+03  0.41800000000E+01 0. -1.
         -5    1    3    3    0  501 -0.76184437678E+02  0.78527726325E+02 -0.36659391513E+03  0.38259540425E+03  0.41800000000E+01 0. -1.
</event>
<event>
11    1  0.1704459E-009  0.6513094E+03  0.7561462E-02  0.9107303E-01
         22   -1    0    0    0    0  0.00000000000E+00  0.00000000000E+00  0.11484259373E+04  0.11484259373E+04  0.00000000000E+00 0. -1.
         22   -1    0    0    0    0 -0.00000000000E+00 -0.00000000000E+00 -0.62676696345E+03  0.62676696345E+03  0.00000000000E+00 0. -1.
         25    2    1    2    0    0  0.22072469946E+03  0.57667970961E+02 -0.96151006451E+02  0.27737685427E+03  0.12509162808E+03 0.  0.
         24    2    1    2    0    0  0.63890413302E+02 -0.65014092746E+03  0.11860015170E+03  0.66871159784E+03  0.79649197298E+02 0.  0.
        -24    2    1    2    0    0 -0.28461511276E+03  0.59247295650E+03  0.49920982860E+03  0.82910444866E+03  0.78573323844E+02 0.  0.
        -11    1    4    4    0    0  0.29751799374E+02 -0.73406804445E+02  0.15050085747E+01  0.79221168608E+02  0.00000000000E+00 0.  1.
         12    1    4    4    0    0  0.34138613927E+02 -0.57673412301E+03  0.11709514313E+03  0.58949042923E+03  0.00000000000E+00 0. -1.
         13    1    5    5    0    0 -0.16277607318E+03  0.41822545126E+03  0.32258630176E+03  0.55269385754E+03  0.00000000000E+00 0. -1.
        -14    1    5    5    0    0 -0.12183903958E+03  0.17424750524E+03  0.17662352684E+03  0.27641059112E+03  0.00000000000E+00 0.  1.
          5    1    3    3  501    0  0.11091759165E+03  0.85350191144E+02 -0.21450466450E+02  0.14165084602E+03  0.41800000000E+01 0.  1.
         -5    1    3    3    0  501  0.10980710781E+03 -0.27682220183E+02 -0.74700540001E+02  0.13572600825E+03  0.41800000000E+01 0.  1.
</event>
<event>
11    1  0.1704459E-009  0.1349725E+03  0.7561462E-02  0.1113306E+00
         22   -1    0    0    0    0  0.00000000000E+00  0.00000000000E+00  0.36424500052E+02  0.36424500052E+02  0.00000000000E+00 0. -1.
         22   -1    0    0    0    0 -0.00000000000E+00 -0.00000000000E+00 -0.91162716001E+03  0.91162716001E+03  0.00000000000E+00 0. -1.
         25    2    1    2    0    0  0.10305829032E+02 -0.10607063502E+02 -0.34271629769E+03  0.36513243094E+03  0.12509401071E+03 0.  0.
        -24    2    1    2    0    0  0.95262578590E+01  0.87966362217E+02 -0.32738078407E+03  0.34823168966E+03  0.79109426953E+02 0.  0.
         24    2    1    2    0    0 -0.19832086891E+02 -0.77359298715E+02 -0.20510557819E+03  0.23468753946E+03  0.81438137274E+02 0.  0.
        -11    1    5    5    0    0  0.21942169391E+02 -0.35892531742E+02 -0.35124593819E+02  0.54803920693E+02  0.00000000000E+00 0.  1.
         12    1    5    5    0    0 -0.41774256282E+02 -0.41466766974E+02 -0.16998098437E+03  0.17988361876E+03  0.00000000000E+00 0. -1.
         13    1    4    4    0    0  0.20309349011E+02  0.98874470311E+02 -0.30354013436E+03  0.31988317197E+03  0.00000000000E+00 0. -1.
        -14    1    4    4    0    0 -0.10783091152E+02 -0.10908108094E+02 -0.23840649710E+02  0.28348517696E+02  0.00000000000E+00 0.  1.
          5    1    3    3  501    0 -0.54466643222E+02 -0.17191599145E+02 -0.20320144948E+03  0.21111718967E+03  0.41800000000E+01 0. -1.
         -5    1    3    3    0  501  0.64772472254E+02  0.65845356432E+01 -0.13951484822E+03  0.15401524127E+03  0.41800000000E+01 0. -1.
</event>
<event>
11    1  0.1704459E-009  0.2872582E+03  0.7561462E-02  0.1005733E+00
         22   -1    0    0    0    0  0.00000000000E+00  0.00000000000E+00  0.15659934223E+04  0.15659934223E+04  0.00000000000E+00 0.  1.
         22   -1    0    0    0    0 -0.00000000000E+00 -0.00000000000E+00 -0.10750460675E+03  0.10750460675E+03  0.00000000000E+00 0.  1.
         25    2    1    2    0    0  0.24200185682E+03  0.47253177621E+02  0.35522827043E+03  0.45014880721E+03  0.12509621506E+03 0.  0.
        -24    2    1    2    0    0 -0.26328999494E+03 -0.52836809909E+02  0.27461270541E+03  0.39216287348E+03  0.79159531614E+02 0.  0.
         24    2    1    2    0    0  0.21288138122E+02  0.55836322873E+01  0.82864783975E+03  0.83118634841E+03  0.61066698707E+02 0.  0.
        -11    1    5    5    0    0  0.65386199604E+00 -0.26531327046E+02  0.37233518587E+03  0.37327982732E+03  0.00000000000E+00 0.  1.
         12    1    5    5    0    0  0.20634276126E+02  0.32114959334E+02  0.45631265388E+03  0.45790652109E+03  0.00000000000E+00 0. -1.
         11    1    4    4    0    0 -0.29564604069E+02  0.98234255367E+01  0.64756177542E+02  0.71860476153E+02  0.00000000000E+00 0. -1.
        -12    1    4    4    0    0 -0.23372539087E+03 -0.62660235445E+02  0.20985652787E+03  0.32030239733E+03  0.00000000000E+00 0.  1.
          5    1    3    3  501    0  0.23753357660E+03  0.17265626982E+02  0.27244701817E+03  0.36189107753E+03  0.41800000000E+01 0. -1.
         -5    1    3    3    0  501  0.44682802105E+01  0.29987550639E+02  0.82781252262E+02  0.88257729675E+02  0.41800000000E+01 0. -1.
</event>
<event>
11    1  0.1704459E-009  0.1814505E+03  0.7561462E-02  0.1068476E+00
         22   -1    0    0    0    0  0.00000000000E+00  0.00000000000E+00  0.62486309618E+03  0.62486309618E+03  0.00000000000E+00 0. -1.
         22   -1    0    0    0    0 -0.00000000000E+00 -0.00000000000E+00 -0.24387213122E+03  0.24387213122E+03  0.00000000000E+00 0. -1.
         25    2    1    2    0    0 -0.12380783423E+02 -0.12518120674E+03 -0.16171494358E+03  0.24004713346E+03  0.12508910819E+03 0.  0.
        -24    2    1    2    0    0 -0.11251313986E+02  0.19182279159E+03  0.37952860895E+03  0.43352410551E+03  0.83538072794E+02 0.  0.
         24    2    1    2    0    0  0.23632097409E+02 -0.66641584848E+02  0.16317729959E+03  0.19516398843E+03  0.80390138833E+02 0.  0.
        -11    1    5    5    0    0  0.52523743486E+02 -0.32351030775E+02  0.10398291944E+03  0.12090401299E+03  0.00000000000E+00 0.  1.
         12    1    5    5    0    0 -0.28891646077E+02 -0.34290554074E+02  0.59194380146E+02  0.74259975442E+02  0.00000000000E+00 0. -1.
         13    1    4    4    0    0  0.28860551840E+02  0.81389879239E+02  0.21189536011E+03  0.22881627462E+03  0.00000000000E+00 0. -1.
        -14    1    4    4    0    0 -0.40111865826E+02  0.11043291235E+03  0.16763324884E+03  0.20470783089E+03  0.00000000000E+00 0.  1.
          5    1    3    3  501    0 -0.40982318188E+02 -0.10856209802E+03 -0.55453202004E+02  0.12867715237E+03  0.41800000000E+01 0. -1.
         -5    1    3    3    0  501  0.28601534765E+02 -0.16619108723E+02 -0.10626174158E+03  0.11136998109E+03  0.41800000000E+01 0. -1.
</event>
<event>
11    1  0.1704459E-009  0.1923385E+03  0.7561462E-02  0.1060078E+00
         22   -1    0    0    0    0  0.00000000000E+00  0.00000000000E+00  0.80156805673E+03  0.80156805673E+03  0.00000000000E+00 0. -1.
         22   -1    0    0    0    0 -0.00000000000E+00 -0.00000000000E+00 -0.96841015947E+02  0.96841015947E+02  0.00000000000E+00 0. -1.
         25    2    1    2    0    0  0.72861647671E+02  0.10884994922E+03  0.10418905091E+03  0.20894910666E+03  0.12508892716E+03 0.  0.
        -24    2    1    2    0    0 -0.15201354182E+03 -0.10250477480E+03  0.26825809266E+03  0.33793994742E+03  0.92874420735E+02 0.  0.
         24    2    1    2    0    0  0.79151894148E+02 -0.63451744141E+01  0.33227989721E+03  0.35152001860E+03  0.82771431069E+02 0.  0.
        -11    1    5    5    0    0  0.38133200431E+01  0.27251838914E+02  0.13344847128E+03  0.13625600398E+03  0.00000000000E+00 0.  1.
         12    1    5    5    0    0  0.75338574105E+02 -0.33597013328E+02  0.19883142594E+03  0.21526401463E+03  0.00000000000E+00 0. -1.
         11    1    4    4    0    0 -0.20316563314E+02 -0.61549103500E+02  0.11301241848E+03  0.13027993559E+03  0.00000000000E+00 0. -1.
        -12    1    4    4    0    0 -0.13169697851E+03 -0.40955671305E+02  0.15524567418E+03  0.20766001183E+03  0.00000000000E+00 0.  1.
          5    1    3    3  501    0  0.59263194374E+02  0.12460738629E+03  0.11965354403E+03  0.18268434504E+03  0.41800000000E+01 0. -1.
         -5    1    3    3    0  501  0.13598453297E+02 -0.15757437070E+02 -0.15464493121E+02  0.26264761613E+02  0.41800000000E+01 0. -1.
</event>
<event>
11    1  0.1704459E-009  0.3010262E+03  0.7561462E-02  0.9997578E-01
         22   -1    0    0    0    0  0.00000000000E+00  0.00000000000E+00  0.20394831117E+03  0.20394831117E+03  0.00000000000E+00 0. -1.
         22   -1    0    0    0    0 -0.00000000000E+00 -0.00000000000E+00 -0.10565656941E+04  0.10565656941E+04  0.00000000000E+00 0. -1.
         25    2    1    2    0    0  0.19537492450E+03  0.11716547227E+03 -0.41706069680E+03  0.49140882178E+03  0.12507556232E+03 0.  0.
        -24    2    1    2    0    0 -0.39259394318E+03 -0.12235771210E+03 -0.31147173452E+03  0.52207900388E+03  0.80314574964E+02 0.  0.
         24    2    1    2    0    0  0.19721901868E+03  0.51922398273E+01 -0.12408495156E+03  0.24702617956E+03  0.81869148655E+02 0.  0.
        -11    1    5    5    0    0  0.92480589997E+02  0.35413084400E+02 -0.31252617209E+02  0.10384349838E+03  0.00000000000E+00 0.  1.
         12    1    5    5    0    0  0.10473842868E+03 -0.30220844573E+02 -0.92832334355E+02  0.14318268119E+03  0.00000000000E+00 0. -1.
         11    1    4    4    0    0 -0.31626064355E+03 -0.10533319149E+03 -0.21003536059E+03  0.39399331034E+03  0.00000000000E+00 0. -1.
        -12    1    4    4    0    0 -0.76333299629E+02 -0.17024520603E+02 -0.10143637393E+03  0.12808569354E+03  0.00000000000E+00 0.  1.
          5    1    3    3  501    0  0.20150481933E+03  0.74226299877E+02 -0.36514163348E+03  0.42362674692E+03  0.41800000000E+01 0. -1.
         -5    1    3    3    0  501 -0.61298948241E+01  0.42939172393E+02 -0.51919063328E+02  0.67782074867E+02  0.41800000000E+01 0. -1.
</event>
<event>
11    1  0.1704459E-009  0.4427045E+03  0.7561462E-02  0.9531533E-01
         22   -1    0    0    0    0  0.00000000000E+00  0.00000000000E+00  0.51084419792E+03  0.51084419792E+03  0.00000000000E+00 0.  1.
         22   -1    0    0    0    0 -0.00000000000E+00 -0.00000000000E+00 -0.16022465992E+04  0.16022465992E+04  0.00000000000E+00 0.  1.
         25    2    1    2    0    0 -0.61823709967E+02 -0.70093036986E+02 -0.25275186172E+03  0.29709663317E+03  0.12509077062E+03 0.  0.
        -24    2    1    2    0    0 -0.37132582960E+03  0.13931965287E+03 -0.11843012999E+04  0.12517946932E+04  0.84424804033E+02 0.  0.
         24    2    1    2    0    0  0.43314953957E+03 -0.69226615885E+02  0.34565076035E+03  0.56419947074E+03  0.80223105683E+02 0.  0.
        -13    1    5    5    0    0  0.39171946248E+03 -0.41757816014E+02  0.28746939979E+03  0.48767459263E+03  0.00000000000E+00 0.  1.
         14    1    5    5    0    0  0.41430077087E+02 -0.27468799871E+02  0.58181360553E+02  0.76524878109E+02  0.00000000000E+00 0. -1.
         11    1    4    4    0    0 -0.24865044544E+03  0.10954280284E+03 -0.68850131941E+03  0.74017615235E+03  0.00000000000E+00 0. -1.
        -12    1    4    4    0    0 -0.12267538416E+03  0.29776850028E+02 -0.49579998046E+03  0.51161854081E+03  0.00000000000E+00 0.  1.
          5    1    3    3  501    0 -0.19661073458E+02  0.31179382220E+02 -0.11568489012E+03  0.12148735690E+03  0.41800000000E+01 0. -1.
         -5    1    3    3    0  501 -0.42162636509E+02 -0.10127241921E+03 -0.13706697160E+03  0.17560927627E+03  0.41800000000E+01 0. -1.
</event>
<event>
11    1  0.1704459E-009  0.2966631E+03  0.7561462E-02  0.1001613E+00
         22   -1    0    0    0    0  0.00000000000E+00  0.00000000000E+00  0.20568706070E+03  0.20568706070E+03  0.00000000000E+00 0. -1.
         22   -1    0    0    0    0 -0.00000000000E+00 -0.00000000000E+00 -0.12629790115E+04  0.12629790115E+04  0.00000000000E+00 0.  1.
         25    2    1    2    0    0 -0.20893787997E+03  0.77630366502E+02 -0.53226820897E+03  0.59045621453E+03  0.12509030140E+03 0.  0.
        -24    2    1    2    0    0  0.43994350505E+03 -0.32361303314E+02 -0.39369447253E+03  0.59679760749E+03  0.81083321436E+02 0.  0.
         24    2    1    2    0    0 -0.23100562507E+03 -0.45269063187E+02 -0.13132926933E+03  0.28141225023E+03  0.80824443676E+02 0.  0.
        -11    1    5    5    0    0 -0.58142183378E+02 -0.13047162581E+02 -0.77011404821E+02  0.97372986048E+02  0.00000000000E+00 0.  1.
         12    1    5    5    0    0 -0.17286344170E+03 -0.32221900606E+02 -0.54317864510E+02  0.18403926418E+03  0.00000000000E+00 0. -1.
         11    1    4    4    0    0  0.18764468266E+01 -0.91434723591E+01 -0.45284109102E+01  0.10374519018E+02  0.00000000000E+00 0. -1.
        -12    1    4    4    0    0  0.43806705822E+03 -0.23217830955E+02 -0.38916606162E+03  0.58642308847E+03  0.00000000000E+00 0.  1.
          5    1    3    3  501    0 -0.18046174550E+03  0.10984491881E+03 -0.41989174491E+03  0.47006265287E+03  0.41800000000E+01 0. -1.
         -5    1    3    3    0  501 -0.28476134472E+02 -0.32214552307E+02 -0.11237646406E+03  0.12039356166E+03  0.41800000000E+01 0. -1.
</event>
<event>
11    1  0.1704459E-009  0.2784484E+03  0.7561462E-02  0.1009749E+00
         22   -1    0    0    0    0  0.00000000000E+00  0.00000000000E+00  0.67087924573E+03  0.67087924573E+03  0.00000000000E+00 0.  1.
         22   -1    0    0    0    0 -0.00000000000E+00 -0.00000000000E+00 -0.44750968406E+03  0.44750968406E+03  0.00000000000E+00 0.  1.
         25    2    1    2    0    0  0.10626320084E+03 -0.90001042799E+02 -0.22124193920E+03  0.28980743126E+03  0.12509314928E+03 0.  0.
         24    2    1    2    0    0  0.17843361300E+03  0.26562500378E+02 -0.87597907125E+02  0.21637390471E+03  0.81241323432E+02 0.  0.
        -24    2    1    2    0    0 -0.28469681384E+03  0.63438542421E+02  0.53220940799E+03  0.61220759381E+03  0.80464647437E+02 0.  0.
        -13    1    4    4    0    0  0.79185147621E+02 -0.27398967788E+02 -0.48583103571E+02  0.96857157671E+02  0.00000000000E+00 0.  1.
         14    1    4    4    0    0  0.99248465377E+02  0.53961468166E+02 -0.39014803554E+02  0.11951674704E+03  0.00000000000E+00 0. -1.
         11    1    5    5    0    0 -0.57063549245E+02  0.17935160999E+02  0.18595654585E+03  0.19534010238E+03  0.00000000000E+00 0. -1.
        -12    1    5    5    0    0 -0.22763326459E+03  0.45503381423E+02  0.34625286215E+03  0.41686749143E+03  0.00000000000E+00 0.  1.
          5    1    3    3  501    0 -0.26204689891E+02 -0.58499017515E+01 -0.53835775296E+02  0.60304810957E+02  0.41800000000E+01 0. -1.
         -5    1    3    3    0  501  0.13246789073E+03 -0.84151141048E+02 -0.16740616391E+03  0.22950262031E+03  0.41800000000E+01 0. -1.
</event>
<event>
11    1  0.1704459E-009  0.3217736E+03  0.7561462E-02  0.9913752E-01
         22   -1    0    0    0    0  0.00000000000E+00  0.00000000000E+00  0.90827607293E+03  0.90827607293E+03  0.00000000000E+00 0.  1.
         22   -1    0    0    0    0 -0.00000000000E+00 -0.00000000000E+00 -0.16867536386E+04  0.16867536386E+04  0.00000000000E+00 0. -1.
         25    2    1    2    0    0 -0.28859828429E+03  0.51487914337E+02 -0.15600992584E+04  0.15923244018E+04  0.12508928651E+03 0.  0.
         24    2    1    2    0    0  0.43675185947E+03 -0.61379644651E+02  0.63106362580E+03  0.77420606759E+03  0.81449909552E+02 0.  0.
        -24    2    1    2    0    0 -0.14815357518E+03  0.98917303141E+01  0.15055806686E+03  0.22849924218E+03  0.86584317374E+02 0.  0.
        -13    1    4    4    0    0  0.36265670355E+03 -0.19121252847E+02  0.51518079790E+03  0.63031481140E+03  0.00000000000E+00 0.  1.
         14    1    4    4    0    0  0.74095155923E+02 -0.42258391804E+02  0.11588282789E+03  0.14389125620E+03  0.00000000000E+00 0. -1.
         13    1    5    5    0    0 -0.14283518216E+03 -0.17328495386E+02  0.12137798908E+03  0.18824128731E+03  0.00000000000E+00 0. -1.
        -14    1    5    5    0    0 -0.53183930194E+01  0.27220225700E+02  0.29180077779E+02  0.40257954874E+02  0.00000000000E+00 0.  1.
          5    1    3    3  501    0 -0.20378249154E+03 -0.10901231558E+02 -0.11956339360E+04  0.12129320352E+04  0.41800000000E+01 0.  1.
         -5    1    3    3    0  501 -0.84815792757E+02  0.62389145895E+02 -0.36446532239E+03  0.37939236662E+03  0.41800000000E+01 0.  1.
</event>
<event>
11    1  0.1704459E-009  0.3292299E+03  0.7561462E-02  0.9885270E-01
         22   -1    0    0    0    0  0.00000000000E+00  0.00000000000E+00  0.67677157097E+03  0.67677157097E+03  0.00000000000E+00 0. -1.
         22   -1    0    0    0    0 -0.00000000000E+00 -0.00000000000E+00 -0.79294111151E+03  0.79294111151E+03  0.00000000000E+00 0. -1.
         25    2    1    2    0    0  0.11189524029E+03  0.13070681754E+03 -0.33391812349E+03  0.39592191511E+03  0.12509209695E+03 0.  0.
        -24    2    1    2    0    0 -0.12077602329E+03 -0.43405320877E+03 -0.24131287187E+03  0.51760160160E+03  0.81795354453E+02 0.  0.
         24    2    1    2    0    0  0.88807829999E+01  0.30334639123E+03  0.45906145482E+03  0.55618916577E+03  0.80691185692E+02 0.  0.
        -11    1    5    5    0    0 -0.21976603702E+02  0.19103046186E+03  0.33317145679E+03  0.38468016337E+03  0.00000000000E+00 0.  1.
         12    1    5    5    0    0  0.30857386702E+02  0.11231592936E+03  0.12588999803E+03  0.17150900241E+03  0.00000000000E+00 0. -1.
         13    1    4    4    0    0 -0.88802758836E+02 -0.20208980439E+03 -0.14676182820E+03  0.26507593861E+03  0.00000000000E+00 0. -1.
        -14    1    4    4    0    0 -0.31973264453E+02 -0.23196340437E+03 -0.94551043672E+02  0.25252566299E+03  0.00000000000E+00 0.  1.
          5    1    3    3  501    0  0.52338021320E+02  0.12831251093E+03 -0.29104990391E+03  0.32238313836E+03  0.41800000000E+01 0.  1.
         -5    1    3    3    0  501  0.59557218969E+02  0.23943066111E+01 -0.42868219581E+02  0.73538776747E+02  0.41800000000E+01 0.  1.
</event>
<event>
11    1  0.1704459E-009  0.1536438E+03  0.7561462E-02  0.1093213E+00
         22   -1    0    0    0    0  0.00000000000E+00  0.00000000000E+00  0.14442590380E+04  0.14442590380E+04  0.00000000000E+00 0.  1.
         22   -1    0    0    0    0 -0.00000000000E+00 -0.00000000000E+00 -0.21975340994E+03  0.21975340994E+03  0.00000000000E+00 0.  1.
         25    2    1    2    0    0  0.47532982941E+02  0.74430130948E+02 -0.16365739514E+03  0.22413061396E+03  0.12510619597E+03 0.  0.
        -24    2    1    2    0    0 -0.15359354122E+03 -0.12563987632E+02  0.34340951218E+03  0.38474691415E+03  0.79694825429E+02 0.  0.
         24    2    1    2    0    0  0.10606055828E+03 -0.61866143316E+02  0.10447535110E+04  0.10551349198E+04  0.81997186220E+02 0.  0.
        -13    1    5    5    0    0  0.81009738625E+02 -0.27318642381E+02  0.40321271499E+03  0.41217639367E+03  0.00000000000E+00 0.  1.
         14    1    5    5    0    0  0.25050819657E+02 -0.34547500935E+02  0.64154079604E+03  0.64295852617E+03  0.00000000000E+00 0. -1.
         13    1    4    4    0    0 -0.79471779113E+02  0.33399962090E+01  0.26064015423E+03  0.27250726458E+03  0.00000000000E+00 0. -1.
        -14    1    4    4    0    0 -0.74121762109E+02 -0.15903983841E+02  0.82769357945E+02  0.11223964957E+03  0.00000000000E+00 0.  1.
          5    1    3    3  501    0  0.46226449517E+01  0.56169924190E+02 -0.27849812388E+01  0.56583193179E+02  0.41800000000E+01 0.  1.
         -5    1    3    3    0  501  0.42910337989E+02  0.18260206758E+02 -0.16087241390E+03  0.16754742078E+03  0.41800000000E+01 0.  1.
</event>
<event>
11    1  0.1704459E-009  0.4567911E+03  0.7561462E-02  0.9495619E-01
         22   -1    0    0    0    0  0.00000000000E+00  0.00000000000E+00  0.59447165761E+03  0.59447165761E+03  0.00000000000E+00 0.  1.
         22   -1    0    0    0    0 -0.00000000000E+00 -0.00000000000E+00 -0.11657248416E+04  0.11657248416E+04  0.00000000000E+00 0.  1.
         25    2    1    2    0    0 -0.23665033898E+03 -0.12625391656E+03 -0.10209135264E+03  0.31307091528E+03  0.12508924545E+03 0.  0.
        -24    2    1    2    0    0  0.60169251193E+03 -0.10230114722E+03 -0.71663062450E+03  0.94387720390E+03  0.69608336000E+02 0.  0.
         24    2    1    2    0    0 -0.36504217295E+03  0.22855506378E+03  0.24746879316E+03  0.50324838002E+03  0.80776996719E+02 0.  0.
        -13    1    5    5    0    0 -0.24544260287E+03  0.15899322301E+03  0.12339709454E+03  0.31740787515E+03  0.00000000000E+00 0.  1.
         14    1    5    5    0    0 -0.11959957008E+03  0.69561840767E+02  0.12407169861E+03  0.18584050487E+03  0.00000000000E+00 0. -1.
         13    1    4    4    0    0  0.29423717297E+03 -0.16996991116E+02 -0.36288886979E+03  0.46749624970E+03  0.00000000000E+00 0. -1.
        -14    1    4    4    0    0  0.30745533896E+03 -0.85304156101E+02 -0.35374175471E+03  0.47638095420E+03  0.00000000000E+00 0.  1.
          5    1    3    3  501    0 -0.23810954451E+01 -0.95088599315E+01 -0.43536492113E+02  0.44821719938E+02  0.41800000000E+01 0.  1.
         -5    1    3    3    0  501 -0.23426924353E+03 -0.11674505663E+03 -0.58554860525E+02  0.26824919534E+03  0.41800000000E+01 0.  1.
</event>
<event>
11    1  0.1704459E-009  0.1549748E+03  0.7561462E-02  0.1091901E+00
         22   -1    0    0    0    0  0.00000000000E+00  0.00000000000E+00  0.11055636762E+04  0.11055636762E+04  0.00000000000E+00 0.  1.
         22   -1    0    0    0    0 -0.00000000000E+00 -0.00000000000E+00 -0.12830494947E+03  0.12830494947E+03  0.00000000000E+00 0.  1.
         25    2    1    2    0    0 -0.50437856583E+02  0.79200007947E+02 -0.58084073346E+02  0.16684687730E+03  0.12508997663E+03 0.  0.
        -24    2    1    2    0    0  0.10394720160E+03 -0.15012335414E+02  0.42022626653E+03  0.44117009330E+03  0.83728998579E+02 0.  0.
         24    2    1    2    0    0 -0.53509345016E+02 -0.64187672534E+02  0.61511653351E+03  0.62585165503E+03  0.79615557553E+02 0.  0.
        -11    1    5    5    0    0 -0.22182100886E+02 -0.74928019847E+02  0.49987872802E+03  0.50594959876E+03  0.00000000000E+00 0.  1.
         12    1    5    5    0    0 -0.31327244129E+02  0.10740347313E+02  0.11523780549E+03  0.11990205627E+03  0.00000000000E+00 0. -1.
         13    1    4    4    0    0  0.17242972377E+02  0.21933599450E+02  0.19549903063E+03  0.19747980621E+03  0.00000000000E+00 0. -1.
        -14    1    4    4    0    0  0.86704229221E+02 -0.36945934863E+02  0.22472723589E+03  0.24369028709E+03  0.00000000000E+00 0.  1.
          5    1    3    3  501    0  0.21910157922E+02  0.49132486801E+02 -0.69042669545E+02  0.87626587845E+02  0.41800000000E+01 0. -1.
         -5    1    3    3    0  501 -0.72348014505E+02  0.30067521146E+02  0.10958596199E+02  0.79220289455E+02  0.41800000000E+01 0. -1.
</event>
<event>
11    1  0.1704459E-009  0.1820106E+03  0.7561462E-02  0.1068028E+00
         22   -1    0    0    0    0  0.00000000000E+00  0.00000000000E+00  0.85622422251E+03  0.85622422251E+03  0.00000000000E+00 0.  1.
         22   -1    0    0    0    0 -0.00000000000E+00 -0.00000000000E+00 -0.17224312986E+03  0.17224312986E+03  0.00000000000E+00 0.  1.
         25    2    1    2    0    0  0.12297459248E+03 -0.43399343337E+02 -0.98430487655E+02  0.20577610554E+03  0.12509592845E+03 0.  0.
        -24    2    1    2    0    0 -0.13839947857E+03  0.56533937196E+02  0.49678393806E+03  0.52535388746E+03  0.82776350676E+02 0.  0.
         24    2    1    2    0    0  0.15424886097E+02 -0.13134593859E+02  0.28562764224E+03  0.29733735937E+03  0.80099379511E+02 0.  0.
        -13    1    5    5    0    0 -0.12199582907E+02 -0.41137436022E+02  0.16315565126E+03  0.16870354177E+03  0.00000000000E+00 0.  1.
         14    1    5    5    0    0  0.27624469005E+02  0.28002842164E+02  0.12247199098E+03  0.12863381760E+03  0.00000000000E+00 0. -1.
         13    1    4    4    0    0  0.92381633923E+01  0.43175661684E+01  0.70148930431E+02  0.70886229136E+02  0.00000000000E+00 0. -1.
        -14    1    4    4    0    0 -0.14763764197E+03  0.52216371028E+02  0.42663500763E+03  0.45446765833E+03  0.00000000000E+00 0.  1.
          5    1    3    3  501    0  0.84883202894E+01 -0.54410594377E+02 -0.14058592890E+01  0.55245028755E+02  0.41800000000E+01 0.  1.
         -5    1    3    3    0  501  0.11448627219E+03  0.11011251039E+02 -0.97024628366E+02  0.15053107679E+03  0.41800000000E+01 0.  1.
</event>
<event>
11    1  0.1704459E-009  0.1655861E+03  0.7561462E-02  0.1081938E+00
         22   -1    0    0    0    0  0.00000000000E+00  0.00000000000E+00  0.12656979796E+03  0.12656979796E+03  0.00000000000E+00 0. -1.
         22   -1    0    0    0    0 -0.00000000000E+00 -0.00000000000E+00 -0.12937539962E+04  0.12937539962E+04  0.00000000000E+00 0. -1.
         25    2    1    2    0    0 -0.71343408714E+02 -0.82579558004E+02 -0.10689698080E+04  0.10817832623E+04  0.12509720504E+03 0.  0.
         24    2    1    2    0    0 -0.52254803462E+02  0.61681834399E+02 -0.14411141650E+03  0.18272550454E+03  0.78008310235E+02 0.  0.
        -24    2    1    2    0    0  0.12359821218E+03  0.20897723605E+02  0.45897026298E+02  0.15581502731E+03  0.80365121843E+02 0.  0.
        -11    1    4    4    0    0 -0.19046369185E+02 -0.17878840191E+02 -0.32800980833E+02  0.41932343713E+02  0.00000000000E+00 0.  1.
         12    1    4    4    0    0 -0.33208434278E+02  0.79560674590E+02 -0.11131043567E+03  0.14079316083E+03  0.00000000000E+00 0. -1.
         13    1    5    5    0    0  0.61388111144E+02 -0.29717177766E+02  0.14749370950E+02  0.69779329229E+02  0.00000000000E+00 0. -1.
        -14    1    5    5    0    0  0.62210101032E+02  0.50614901372E+02  0.31147655348E+02  0.86035698085E+02  0.00000000000E+00 0.  1.
          5    1    3    3  501    0 -0.85962689299E+02 -0.10214226917E+03 -0.99128343525E+03  0.10002414451E+04  0.41800000000E+01 0.  1.
         -5    1    3    3    0  501  0.14619280585E+02  0.19562711170E+02 -0.77686372782E+02  0.81541817181E+02  0.41800000000E+01 0.  1.
</event>
<event>
11    1  0.1704459E-009  0.3214976E+03  0.7561462E-02  0.9914822E-01
         22   -1    0    0    0    0  0.00000000000E+00  0.00000000000E+00  0.18812153479E+03  0.18812153479E+03  0.00000000000E+00 0.  1.
         22   -1    0    0    0    0 -0.00000000000E+00 -0.00000000000E+00 -0.29407156458E+04  0.29407156458E+04  0.00000000000E+00 0.  1.
         25    2    1    2    0    0 -0.13291556940E+03 -0.26079105655E+03 -0.23551092899E+04  0.23765240541E+04  0.12509311962E+03 0.  0.
         24    2    1    2    0    0 -0.10510639153E+02  0.35448029089E+03 -0.42731542572E+03  0.56150276758E+03  0.83187347439E+02 0.  0.
        -24    2    1    2    0    0  0.14342620855E+03 -0.93689234348E+02  0.29830604544E+02  0.19081035898E+03  0.78549208745E+02 0.  0.
        -13    1    4    4    0    0 -0.10089575736E+02  0.34248330853E+03 -0.42937141130E+03  0.54932360681E+03  0.00000000000E+00 0.  1.
         14    1    4    4    0    0 -0.42106341678E+00  0.11996982369E+02  0.20559855797E+01  0.12179160770E+02  0.00000000000E+00 0. -1.
         13    1    5    5    0    0  0.28512540728E+02  0.44218512122E+01  0.27252911029E+02  0.39689279490E+02  0.00000000000E+00 0. -1.
        -14    1    5    5    0    0  0.11491366782E+03 -0.98111085560E+02  0.25776935156E+01  0.15112107949E+03  0.00000000000E+00 0.  1.
          5    1    3    3  501    0 -0.12274909234E+03 -0.22640855542E+03 -0.22627214306E+04  0.22773348280E+04  0.41800000000E+01 0.  1.
         -5    1    3    3    0  501 -0.10166477059E+02 -0.34382501131E+02 -0.92387859222E+02  0.99189226086E+02  0.41800000000E+01 0.  1.
</event>
<event>
11    1  0.1704459E-009  0.2871018E+03  0.7561462E-02  0.1005803E+00
         22   -1    0    0    0    0  0.00000000000E+00  0.00000000000E+00  0.34989067825E+03  0.34989067825E+03  0.00000000000E+00 0.  1.
         22   -1    0    0    0    0 -0.00000000000E+00 -0.00000000000E+00 -0.94337600220E+03  0.94337600220E+03  0.00000000000E+00 0.  1.
         25    2    1    2    0    0  0.19199525771E+03  0.20959201273E+03 -0.49952330845E+03  0.58818619370E+03  0.12509385271E+03 0.  0.
         24    2    1    2    0    0 -0.35892629120E+02 -0.25265112862E+03 -0.31722903016E+03  0.41454154522E+03  0.78035642633E+02 0.  0.
        -24    2    1    2    0    0 -0.15610262859E+03  0.43059115883E+02  0.22326701467E+03  0.29053894154E+03  0.91337826760E+02 0.  0.
        -11    1    4    4    0    0 -0.18107967254E+02 -0.60619414730E+02 -0.33816656091E+02  0.71736867435E+02  0.00000000000E+00 0.  1.
         12    1    4    4    0    0 -0.17784661866E+02 -0.19203171389E+03 -0.28341237407E+03  0.34280467779E+03  0.00000000000E+00 0. -1.
         11    1    5    5    0    0 -0.28384981397E+02 -0.25729647033E+02  0.68003893270E+02  0.78052875701E+02  0.00000000000E+00 0. -1.
        -12    1    5    5    0    0 -0.12771764720E+03  0.68788762915E+02  0.15526312140E+03  0.21248606584E+03  0.00000000000E+00 0.  1.
          5    1    3    3  501    0  0.93939114640E+02  0.12415047365E+03 -0.38322986945E+03  0.41366713986E+03  0.41800000000E+01 0.  1.
         -5    1    3    3    0  501  0.98056143074E+02  0.85441539086E+02 -0.11629343900E+03  0.17451905383E+03  0.41800000000E+01 0.  1.
</event>
<event>
11    1  0.1704459E-009  0.1380863E+04  0.7561462E-02  0.8382729E-01
         22   -1    0    0    0    0  0.00000000000E+00  0.00000000000E+00  0.30489452994E+03  0.30489452994E+03  0.00000000000E+00 0. -1.
         22   -1    0    0    0    0 -0.00000000000E+00 -0.00000000000E+00 -0.15634771253E+04  0.15634771253E+04  0.00000000000E+00 0. -1.
         25    2    1    2    0    0  0.14280579134E+03 -0.49608134587E+03 -0.11996429603E+04  0.13119754197E+04  0.12508426770E+03 0.  0.
        -24    2    1    2    0    0 -0.99514456287E+02  0.37683109833E+03 -0.71943840396E+02  0.40406543784E+03  0.78664847365E+02 0.  0.
         24    2    1    2    0    0 -0.43291335056E+02  0.11925024754E+03  0.13004205388E+02  0.15233079761E+03  0.83311471680E+02 0.  0.
        -13    1    5    5    0    0  0.13465535042E+02  0.33274502029E+02  0.31387508479E+02  0.47683213061E+02  0.00000000000E+00 0.  1.
         14    1    5    5    0    0 -0.56756870098E+02  0.85975745513E+02 -0.18383303091E+02  0.10464758455E+03  0.00000000000E+00 0. -1.
         13    1    4    4    0    0 -0.10205781521E+02  0.83469803215E+02  0.14787869739E+02  0.85381772743E+02  0.00000000000E+00 0. -1.
        -14    1    4    4    0    0 -0.89308674766E+02  0.29336129511E+03 -0.86731710135E+02  0.31868366510E+03  0.00000000000E+00 0.  1.
          5    1    3    3  501    0 -0.28073412761E+01 -0.13245637938E+03 -0.21899913466E+03  0.25598958374E+03  0.41800000000E+01 0. -1.
         -5    1    3    3    0  501  0.14561313262E+03 -0.36362496649E+03 -0.98064382565E+03  0.10559858360E+04  0.41800000000E+01 0. -1.
</event>
<event>
11    1  0.1704459E-009  0.1769258E+03  0.7561462E-02  0.1072157E+00
         22   -1    0    0    0    0  0.00000000000E+00  0.00000000000E+00  0.26263581085E+04  0.26263581085E+04  0.00000000000E+00 0.  1.
         22   -1    0    0    0    0 -0.00000000000E+00 -0.00000000000E+00 -0.64299561271E+02  0.64299561271E+02  0.00000000000E+00 0.  1.
         25    2    1    2    0    0  0.14580865024E+02  0.42789168271E+02  0.17410918191E+03  0.21910145757E+03  0.12509167414E+03 0.  0.
         24    2    1    2    0    0  0.36938408050E+02 -0.18640981853E+03  0.24055414522E+03  0.31709961705E+03  0.81072830928E+02 0.  0.
        -24    2    1    2    0    0 -0.51519273074E+02  0.14362065026E+03  0.21473952201E+04  0.21544565951E+04  0.84236941974E+02 0.  0.
        -11    1    4    4    0    0  0.68938994507E+01 -0.17378172945E+03  0.20605118300E+03  0.26963810071E+03  0.00000000000E+00 0.  1.
         12    1    4    4    0    0  0.30044508599E+02 -0.12628089082E+02  0.34502962218E+02  0.47461516333E+02  0.00000000000E+00 0. -1.
         11    1    5    5    0    0  0.15482254141E+02  0.76143951971E+02  0.11076703990E+04  0.11103924146E+04  0.00000000000E+00 0. -1.
        -12    1    5    5    0    0 -0.67001527215E+02  0.67476698289E+02  0.10397248211E+04  0.10440641805E+04  0.00000000000E+00 0.  1.
          5    1    3    3  501    0 -0.45175579432E+02  0.45389499407E+02  0.12895627448E+03  0.14404246860E+03  0.41800000000E+01 0.  1.
         -5    1    3    3    0  501  0.59756444456E+02 -0.26003311358E+01  0.45152907425E+02  0.75058988968E+02  0.41800000000E+01 0.  1.
</event>
<event>
11    1  0.1704459E-009  0.6045215E+03  0.7561462E-02  0.9186197E-01
         22   -1    0    0    0    0  0.00000000000E+00  0.00000000000E+00  0.13416876749E+04  0.13416876749E+04  0.00000000000E+00 0.  1.
         22   -1    0    0    0    0 -0.00000000000E+00 -0.00000000000E+00 -0.77332132892E+03  0.77332132892E+03  0.00000000000E+00 0.  1.
         25    2    1    2    0    0 -0.31324695143E+03 -0.48669140363E+03 -0.24948856884E+03  0.64256035579E+03  0.12508832840E+03 0.  0.
         24    2    1    2    0    0  0.70133091280E+03  0.24913895499E+03  0.39624699563E+03  0.84696556826E+03  0.80023272441E+02 0.  0.
        -24    2    1    2    0    0 -0.38808396137E+03  0.23755244864E+03  0.42160791919E+03  0.62548307977E+03  0.80221684315E+02 0.  0.
        -11    1    4    4    0    0  0.20497073934E+03  0.10938161258E+03  0.10793132147E+03  0.25617671891E+03  0.00000000000E+00 0.  1.
         12    1    4    4    0    0  0.49636017346E+03  0.13975734241E+03  0.28831567416E+03  0.59078884935E+03  0.00000000000E+00 0. -1.
         13    1    5    5    0    0 -0.18496996475E+03  0.15795702851E+03  0.20574637031E+03  0.31858417979E+03  0.00000000000E+00 0. -1.
        -14    1    5    5    0    0 -0.20311399662E+03  0.79595420130E+02  0.21586154888E+03  0.30689889999E+03  0.00000000000E+00 0.  1.
          5    1    3    3  501    0 -0.80140055506E+02 -0.93711597160E+02 -0.30685637258E+01  0.12341466859E+03  0.41800000000E+01 0. -1.
         -5    1    3    3    0  501 -0.23310689592E+03 -0.39297980647E+03 -0.24642000511E+03  0.51914568720E+03  0.41800000000E+01 0. -1.
</event>
<event>
11    1  0.1704459E-009  0.1068413E+04  0.7561462E-02  0.8616535E-01
         22   -1    0    0    0    0  0.00000000000E+00  0.00000000000E+00  0.99192049418E+03  0.99192049418E+03  0.00000000000E+00 0.  1.
         22   -1    0    0    0    0 -0.00000000000E+00 -0.00000000000E+00 -0.28770094267E+03  0.28770094267E+03  0.00000000000E+00 0.  1.
         25    2    1    2    0    0 -0.33255919261E+03 -0.34872503659E+03  0.21529407679E+03  0.54240457548E+03  0.12508563571E+03 0.  0.
         24    2    1    2    0    0  0.29389406635E+03  0.34482423833E+03  0.42680970071E+03  0.62780364085E+03  0.81813282959E+02 0.  0.
        -24    2    1    2    0    0  0.38665126251E+02  0.39007982618E+01  0.62115774013E+02  0.10941322052E+03  0.81256847273E+02 0.  0.
        -11    1    4    4    0    0  0.23480978828E+03  0.21808108885E+03  0.30324321245E+03  0.44119320471E+03  0.00000000000E+00 0.  1.
         12    1    4    4    0    0  0.59084278075E+02  0.12674314948E+03  0.12356648826E+03  0.18661043614E+03  0.00000000000E+00 0. -1.
         11    1    5    5    0    0  0.63749795303E+01 -0.30645404434E+02  0.52553031265E+02  0.61168637978E+02  0.00000000000E+00 0. -1.
        -12    1    5    5    0    0  0.32290146721E+02  0.34546202696E+02  0.95627427479E+01  0.48244582544E+02  0.00000000000E+00 0.  1.
          5    1    3    3  501    0 -0.16897825716E+03 -0.25471059856E+03  0.10185794993E+03  0.32221678227E+03  0.41800000000E+01 0. -1.
         -5    1    3    3    0  501 -0.16358093545E+03 -0.94014438037E+02  0.11343612687E+03  0.22018779321E+03  0.41800000000E+01 0. -1.
</event>
<event>
11    1  0.1704459E-009  0.2092762E+03  0.7561462E-02  0.1048151E+00
         22   -1    0    0    0    0  0.00000000000E+00  0.00000000000E+00  0.60870269437E+03  0.60870269437E+03  0.00000000000E+00 0. -1.
         22   -1    0    0    0    0 -0.00000000000E+00 -0.00000000000E+00 -0.12429729479E+04  0.12429729479E+04  0.00000000000E+00 0.  1.
         25    2    1    2    0    0 -0.74422631144E+02 -0.27130233399E+03 -0.98826917133E+03  0.10351164970E+04  0.12508606233E+03 0.  0.
         24    2    1    2    0    0  0.46831821277E+02  0.10751112227E+03 -0.19273120024E+03  0.23950324987E+03  0.80402924415E+02 0.  0.
        -24    2    1    2    0    0  0.27590809867E+02  0.16379121172E+03  0.54673011804E+03  0.57705589535E+03  0.80565939203E+02 0.  0.
        -11    1    4    4    0    0  0.67307507454E+02  0.77749740835E+02 -0.16294539752E+03  0.19268244687E+03  0.00000000000E+00 0.  1.
         12    1    4    4    0    0 -0.20475686177E+02  0.29761381436E+02 -0.29785802721E+02  0.46820802995E+02  0.00000000000E+00 0. -1.
         13    1    5    5    0    0  0.84120768188E+00  0.11470551087E+03  0.45830875583E+03  0.47244574030E+03  0.00000000000E+00 0. -1.
        -14    1    5    5    0    0  0.26749602185E+02  0.49085700851E+02  0.88421362213E+02  0.10461015505E+03  0.00000000000E+00 0.  1.
          5    1    3    3  501    0  0.18167956478E+02 -0.12762672943E+03 -0.31290653514E+03  0.33844737973E+03  0.41800000000E+01 0.  1.
         -5    1    3    3    0  501 -0.92590587622E+02 -0.14367560455E+03 -0.67536263619E+03  0.69666911731E+03  0.41800000000E+01 0.  1.
</event>
<event>
11    1  0.1704459E-009  0.5948646E+03  0.7561462E-02  0.9203422E-01
         22   -1    0    0    0    0  0.00000000000E+00  0.00000000000E+00  0.44675433494E+03  0.44675433494E+03  0.00000000000E+00 0.  1.
         22   -1    0    0    0    0 -0.00000000000E+00 -0.00000000000E+00 -0.10303061415E+04  0.10303061415E+04  0.00000000000E+00 0.  1.
         25    2    1    2    0    0 -0.59245357365E+01 -0.57629097549E+03 -0.45142138764E+03  0.74268237281E+03  0.12509775820E+03 0.  0.
         24    2    1    2    0    0  0.40316895852E+02  0.58865306662E+03 -0.18751099315E+03  0.62533485508E+03  0.88008087702E+02 0.  0.
        -24    2    1    2    0    0 -0.34392360115E+02 -0.12362091124E+02  0.55380574214E+02  0.10904324855E+03  0.86531880381E+02 0.  0.
        -11    1    4    4    0    0 -0.71345408590E+01  0.48580791038E+02  0.64647021902E+01  0.49525622718E+02  0.00000000000E+00 0.  1.
         12    1    4    4    0    0  0.47451436711E+02  0.54007227558E+03 -0.19397569534E+03  0.57580923237E+03  0.00000000000E+00 0. -1.
         13    1    5    5    0    0 -0.96235568925E+01 -0.44298754204E+02  0.51242186230E+02  0.68416037016E+02  0.00000000000E+00 0. -1.
        -14    1    5    5    0    0 -0.24768803223E+02  0.31936663080E+02  0.41383879844E+01  0.40627211532E+02  0.00000000000E+00 0.  1.
          5    1    3    3  501    0 -0.10144233401E+02 -0.15922981527E+03 -0.19917836669E+03  0.25523819013E+03  0.41800000000E+01 0.  1.
         -5    1    3    3    0  501  0.42196976643E+01 -0.41706116022E+03 -0.25224302095E+03  0.48744418268E+03  0.41800000000E+01 0.  1.
</event>
<event>
11    1  0.1704459E-009  0.1638501E+03  0.7561462E-02  0.1083511E+00
         22   -1    0    0    0    0  0.00000000000E+00  0.00000000000E+00  0.50488167589E+03  0.50488167589E+03  0.00000000000E+00 0. -1.
         22   -1    0    0    0    0 -0.00000000000E+00 -0.00000000000E+00 -0.19314637556E+03  0.19314637556E+03  0.00000000000E+00 0. -1.
         25    2    1    2    0    0 -0.90141171879E+02  0.95735025025E+02  0.26063040382E+01  0.18150455194E+03  0.12508590516E+03 0.  0.
        -24    2    1    2    0    0  0.12946377507E+02 -0.10039785071E+03 -0.51916381998E+02  0.13860530549E+03  0.79175645711E+02 0.  0.
         24    2    1    2    0    0  0.77194794372E+02  0.46628256825E+01  0.36104537829E+03  0.37791819402E+03  0.80545750739E+02 0.  0.
        -11    1    5    5    0    0 -0.28964470981E+01 -0.17137732169E+02  0.18192971704E+02  0.25160991417E+02  0.00000000000E+00 0.  1.
         12    1    5    5    0    0  0.80091241470E+02  0.21800557852E+02  0.34285240659E+03  0.35275720260E+03  0.00000000000E+00 0. -1.
         11    1    4    4    0    0  0.34501251268E+02 -0.65868024045E+02 -0.61835769123E+02  0.96708816938E+02  0.00000000000E+00 0. -1.
        -12    1    4    4    0    0 -0.21554873761E+02 -0.34529826663E+02  0.99193871250E+01  0.41896488555E+02  0.00000000000E+00 0.  1.
          5    1    3    3  501    0  0.22324328170E+02 -0.11757802983E+02 -0.31481527459E+01  0.25768291075E+02  0.41800000000E+01 0. -1.
         -5    1    3    3    0  501 -0.11246550005E+03  0.10749282801E+03  0.57544567840E+01  0.15573626086E+03  0.41800000000E+01 0. -1.
</event>
<event>
11    1  0.1704459E-009  0.2202392E+03  0.7561462E-02  0.1041068E+00
         22   -1    0    0    0    0  0.00000000000E+00  0.00000000000E+00  0.64347516352E+03  0.64347516352E+03  0.00000000000E+00 0. -1.
         22   -1    0    0    0    0 -0.00000000000E+00 -0.00000000000E+00 -0.21103472334E+03  0.21103472334E+03  0.00000000000E+00 0. -1.
         25    2    1    2    0    0 -0.12218491784E+03 -0.10662399625E+03 -0.97627217985E+02  0.22688305382E+03  0.12508803179E+03 0.  0.
        -24    2    1    2    0    0 -0.22764928463E+02 -0.60188904279E+01  0.29884434787E+02  0.88783619339E+02  0.80218343354E+02 0.  0.
         24    2    1    2    0    0  0.14494984631E+03  0.11264288667E+03  0.50018322337E+03  0.53884321370E+03  0.80435527874E+02 0.  0.
        -11    1    5    5    0    0  0.39444974746E+02  0.17363307597E+02  0.46463338606E+02  0.63373751017E+02  0.00000000000E+00 0.  1.
         12    1    5    5    0    0  0.10550487156E+03  0.95279579076E+02  0.45371988477E+03  0.47546946268E+03  0.00000000000E+00 0. -1.
         11    1    4    4    0    0  0.27410703826E+02  0.55552859548E+01 -0.22956113076E+01  0.28062033382E+02  0.00000000000E+00 0. -1.
        -12    1    4    4    0    0 -0.50175632288E+02 -0.11574176383E+02  0.32180046094E+02  0.60721585957E+02  0.00000000000E+00 0.  1.
          5    1    3    3  501    0 -0.35310373962E+02 -0.55162303278E+02  0.22977191064E+02  0.69535069724E+02  0.41800000000E+01 0.  1.
         -5    1    3    3    0  501 -0.86874543882E+02 -0.51461692968E+02 -0.12060440905E+03  0.15734798410E+03  0.41800000000E+01 0.  1.
</event>
<event>
11    1  0.1704459E-009  0.2117692E+03  0.7561462E-02  0.1046499E+00
         22   -1    0    0    0    0  0.00000000000E+00  0.00000000000E+00  0.13768448007E+04  0.13768448007E+04  0.00000000000E+00 0.  1.
         22   -1    0    0    0    0 -0.00000000000E+00 -0.00000000000E+00 -0.87080070875E+02  0.87080070875E+02  0.00000000000E+00 0. -1.
         25    2    1    2    0    0  0.95401742934E+00 -0.18760525409E+02  0.29360624446E+02  0.12984324698E+03  0.12507739626E+03 0.  0.
         24    2    1    2    0    0 -0.12161842568E+03  0.16531820095E+03  0.50551363640E+03  0.55145827659E+03  0.80256122544E+02 0.  0.
        -24    2    1    2    0    0  0.12066440825E+03 -0.14655767554E+03  0.75489046898E+03  0.78262334801E+03  0.81244279806E+02 0.  0.
        -11    1    4    4    0    0 -0.12286035448E+03  0.13870121068E+03  0.48018701459E+03  0.51469628085E+03  0.00000000000E+00 0.  1.
         12    1    4    4    0    0  0.12419287995E+01  0.26616990271E+02  0.25326621811E+02  0.36761995737E+02  0.00000000000E+00 0. -1.
         11    1    5    5    0    0  0.52811305781E+02 -0.61947791739E+02  0.17943752275E+03  0.19703905067E+03  0.00000000000E+00 0. -1.
        -12    1    5    5    0    0  0.67853102468E+02 -0.84609883803E+02  0.57545294624E+03  0.58558429733E+03  0.00000000000E+00 0.  1.
          5    1    3    3  501    0  0.41367395022E+02 -0.45951667354E+02  0.47098223367E+02  0.77836573331E+02  0.41800000000E+01 0.  1.
         -5    1    3    3    0  501 -0.40413377592E+02  0.27191141945E+02 -0.17737598921E+02  0.52006673651E+02  0.41800000000E+01 0.  1.
</event>
<event>
11    1  0.1704459E-009  0.2398430E+03  0.7561462E-02  0.1029453E+00
         22   -1    0    0    0    0  0.00000000000E+00  0.00000000000E+00  0.12308229759E+04  0.12308229759E+04  0.00000000000E+00 0. -1.
         22   -1    0    0    0    0 -0.00000000000E+00 -0.00000000000E+00 -0.64836744811E+03  0.64836744811E+03  0.00000000000E+00 0.  1.
         25    2    1    2    0    0 -0.19778103585E+03 -0.47885180061E+02 -0.58878862158E+03  0.63539756062E+03  0.12509072917E+03 0.  0.
        -24    2    1    2    0    0  0.25293468234E+03 -0.46196735151E+02  0.60870949786E+03  0.66569601111E+03  0.80708330115E+02 0.  0.
         24    2    1    2    0    0 -0.55153646487E+02  0.94081915212E+02  0.56253465153E+03  0.57809685230E+03  0.76533685289E+02 0.  0.
        -13    1    5    5    0    0 -0.15344391190E+02 -0.43919573475E+01  0.21738181331E+02  0.26968280589E+02  0.00000000000E+00 0.  1.
         14    1    5    5    0    0 -0.39809255297E+02  0.98473872559E+02  0.54079647019E+03  0.55112857171E+03  0.00000000000E+00 0. -1.
         13    1    4    4    0    0  0.16985456253E+03 -0.65683734962E+02  0.37466622283E+03  0.41658096930E+03  0.00000000000E+00 0. -1.
        -14    1    4    4    0    0  0.83080119809E+02  0.19486999812E+02  0.23404327503E+03  0.24911504181E+03  0.00000000000E+00 0.  1.
          5    1    3    3  501    0 -0.58586384373E+01 -0.41265620139E+02 -0.16285207826E+03  0.16815304589E+03  0.41800000000E+01 0.  1.
         -5    1    3    3    0  501 -0.19192239742E+03 -0.66195599220E+01 -0.42593654332E+03  0.46724451472E+03  0.41800000000E+01 0.  1.
</event>
<event>
11    1  0.1704459E-009  0.2441845E+03  0.7561462E-02  0.1027044E+00
         22   -1    0    0    0    0  0.00000000000E+00  0.00000000000E+00  0.12272848781E+04  0.12272848781E+04  0.00000000000E+00 0. -1.
         22   -1    0    0    0    0 -0.00000000000E+00 -0.00000000000E+00 -0.36070562535E+03  0.36070562535E+03  0.00000000000E+00 0.  1.
         25    2    1    2    0    0  0.16816525499E+03 -0.14599948935E+03 -0.28099843946E+03  0.37974033160E+03  0.12508873884E+03 0.  0.
         24    2    1    2    0    0 -0.54021061252E+02  0.13839537010E+03  0.26605095474E+03  0.31578722582E+03  0.82866808498E+02 0.  0.
        -24    2    1    2    0    0 -0.11414419374E+03  0.76041192527E+01  0.88152673748E+03  0.89246294605E+03  0.79460692087E+02 0.  0.
        -11    1    4    4    0    0 -0.34450605090E+02  0.11591473571E+03  0.25796871782E+03  0.28490512371E+03  0.00000000000E+00 0.  1.
         12    1    4    4    0    0 -0.19570456162E+02  0.22480634390E+02  0.80822369213E+01  0.30882102108E+02  0.00000000000E+00 0. -1.
         13    1    5    5    0    0 -0.78316254387E+02 -0.26356526895E+02  0.67885912714E+03  0.68386973666E+03  0.00000000000E+00 0. -1.
        -14    1    5    5    0    0 -0.35827939353E+02  0.33960646147E+02  0.20266761034E+03  0.20859320939E+03  0.00000000000E+00 0.  1.
          5    1    3    3  501    0  0.17889081708E+02 -0.18838072743E+02 -0.12719602307E+03  0.12988915626E+03  0.41800000000E+01 0.  1.
         -5    1    3    3    0  501  0.15027617328E+03 -0.12716141661E+03 -0.15380241639E+03  0.24985117534E+03  0.41800000000E+01 0.  1.
</event>
<event>
11    1  0.1704459E-009  0.1479208E+03  0.7561462E-02  0.1099022E+00
         22   -1    0    0    0    0  0.00000000000E+00  0.00000000000E+00  0.63365807431E+03  0.63365807431E+03  0.00000000000E+00 0.  1.
         22   -1    0    0    0    0 -0.00000000000E+00 -0.00000000000E+00 -0.23033413909E+03  0.23033413909E+03  0.00000000000E+00 0.  1.
         25    2    1    2    0    0 -0.50571919176E+02 -0.71402087208E+02 -0.93062832695E+02  0.17878475692E+03  0.12509005320E+03 0.  0.
         24    2    1    2    0    0  0.16060315609E+02  0.74159132294E+00 -0.67986213653E+02  0.10947202936E+03  0.84282360368E+02 0.  0.
        -24    2    1    2    0    0  0.34511603567E+02  0.70660495885E+02  0.56437298156E+03  0.57573542712E+03  0.82282824850E+02 0.  0.
        -13    1    4    4    0    0  0.19881575976E+02 -0.67459254247E+01 -0.86567851626E+02  0.89077368104E+02  0.00000000000E+00 0.  1.
         14    1    4    4    0    0 -0.38212603675E+01  0.74875167477E+01  0.18581637973E+02  0.20394661252E+02  0.00000000000E+00 0. -1.
         13    1    5    5    0    0  0.67661375190E+01 -0.16144482015E+02  0.42474931703E+02  0.45940665425E+02  0.00000000000E+00 0. -1.
        -14    1    5    5    0    0  0.27745466048E+02  0.86804977900E+02  0.52189804986E+03  0.52979476170E+03  0.00000000000E+00 0.  1.
          5    1    3    3  501    0  0.33254175795E+02 -0.50296533485E+02 -0.15088068101E+02  0.62295294264E+02  0.41800000000E+01 0. -1.
         -5    1    3    3    0  501 -0.83826094971E+02 -0.21105553723E+02 -0.77974764594E+02  0.11648946265E+03  0.41800000000E+01 0. -1.
</event>
<event>
11    1  0.1704459E-009  0.1481742E+03  0.7561462E-02  0.1098759E+00
         22   -1    0    0    0    0  0.00000000000E+00  0.00000000000E+00  0.16026670681E+04  0.16026670681E+04  0.00000000000E+00 0.  1.
         22   -1    0    0    0    0 -0.00000000000E+00 -0.00000000000E+00 -0.29475330558E+03  0.29475330558E+03  0.00000000000E+00 0. -1.
         25    2    1    2    0    0  0.59983843143E+02 -0.50833319133E+02 -0.10240178156E+03  0.17974931063E+03  0.12506639050E+03 0.  0.
        -24    2    1    2    0    0 -0.79842332938E+02  0.21579986519E+02 -0.13054510120E+03  0.17432683493E+03  0.80668010897E+02 0.  0.
         24    2    1    2    0    0  0.19858489795E+02  0.29253332614E+02  0.15408606453E+04  0.15433442282E+04  0.80060984551E+02 0.  0.
        -13    1    5    5    0    0 -0.62327417248E+01  0.40157693299E+02  0.13269988316E+04  0.13276209498E+04  0.00000000000E+00 0.  1.
         14    1    5    5    0    0  0.26091231519E+02 -0.10904360685E+02  0.21386181375E+03  0.21572327836E+03  0.00000000000E+00 0. -1.
         11    1    4    4    0    0 -0.68951831233E+02  0.21954191522E+02 -0.14146602799E+03  0.15889927197E+03  0.00000000000E+00 0. -1.
        -12    1    4    4    0    0 -0.10890501705E+02 -0.37420500325E+00  0.10920926796E+02  0.15427562959E+02  0.00000000000E+00 0.  1.
          5    1    3    3  501    0  0.88857332004E+02 -0.31497057662E+02 -0.10895549118E+03  0.14414042303E+03  0.41800000000E+01 0. -1.
         -5    1    3    3    0  501 -0.28873488861E+02 -0.19336261471E+02  0.65537096170E+01  0.35608887605E+02  0.41800000000E+01 0. -1.
</event>
<event>
11    1  0.1704459E-009  0.4472994E+03  0.7561462E-02  0.9519664E-01
         22   -1    0    0    0    0  0.00000000000E+00  0.00000000000E+00  0.12211136136E+04  0.12211136136E+04  0.00000000000E+00 0. -1.
         22   -1    0    0    0    0 -0.00000000000E+00 -0.00000000000E+00 -0.10009693580E+04  0.10009693580E+04  0.00000000000E+00 0. -1.
         25    2    1    2    0    0  0.11489172103E+03 -0.41038796187E+03 -0.77998098935E+03  0.89757219592E+03  0.12508843401E+03 0.  0.
         24    2    1    2    0    0  0.15192440188E+03  0.71572773912E+02 -0.44600731623E+02  0.19156650602E+03  0.80652434035E+02 0.  0.
        -24    2    1    2    0    0 -0.26681612291E+03  0.33881518796E+03  0.10447259766E+04  0.11329442696E+04  0.78254564235E+02 0.  0.
        -13    1    4    4    0    0  0.17180862727E+02 -0.17545765145E+02 -0.89029612117E+01  0.26120846787E+02  0.00000000000E+00 0.  1.
         14    1    4    4    0    0  0.13474353915E+03  0.89118539056E+02 -0.35697770411E+02  0.16544565923E+03  0.00000000000E+00 0. -1.
         11    1    5    5    0    0 -0.21313921326E+03  0.29202304333E+03  0.79657822150E+03  0.87478148416E+03  0.00000000000E+00 0. -1.
        -12    1    5    5    0    0 -0.53676909645E+02  0.46792144627E+02  0.24814775512E+03  0.25816278547E+03  0.00000000000E+00 0.  1.
          5    1    3    3  501    0  0.13649653943E+03 -0.38958969511E+03 -0.74068205912E+03  0.84796156807E+03  0.41800000000E+01 0.  1.
         -5    1    3    3    0  501 -0.21604818403E+02 -0.20798266763E+02 -0.39298930226E+02  0.49610627848E+02  0.41800000000E+01 0.  1.
</event>
<event>
11    1  0.1704459E-009  0.1116832E+04  0.7561462E-02  0.8575197E-01
         22   -1    0    0    0    0  0.00000000000E+00  0.00000000000E+00  0.88679874259E+03  0.88679874259E+03  0.00000000000E+00 0. -1.
         22   -1    0    0    0    0 -0.00000000000E+00 -0.00000000000E+00 -0.35163390830E+03  0.35163390830E+03  0.00000000000E+00 0. -1.
         25    2    1    2    0    0  0.33064635616E+02 -0.41994756427E+03 -0.85188930552E+02  0.44760931854E+03  0.12509085215E+03 0.  0.
        -24    2    1    2    0    0 -0.62203411002E+02  0.38526420933E+03  0.50710332587E+03  0.64490491562E+03  0.80316821109E+02 0.  0.
         24    2    1    2    0    0  0.29138775386E+02  0.34683354934E+02  0.11325043897E+03  0.14591841673E+03  0.80090692802E+02 0.  0.
        -11    1    5    5    0    0  0.38848821621E+02  0.51842110083E+02  0.10727230445E+03  0.12531633022E+03  0.00000000000E+00 0.  1.
         12    1    5    5    0    0 -0.97100462353E+01 -0.17158755149E+02  0.59781345279E+01  0.20602086511E+02  0.00000000000E+00 0. -1.
         13    1    4    4    0    0 -0.64673317089E+02  0.37898455057E+03  0.47011240618E+03  0.60730355009E+03  0.00000000000E+00 0. -1.
        -14    1    4    4    0    0  0.24699060867E+01  0.62796587663E+01  0.36990919683E+02  0.37601365525E+02  0.00000000000E+00 0.  1.
          5    1    3    3  501    0 -0.20382810926E+02 -0.18849791628E+03  0.13996817470E+02  0.19015863568E+03  0.41800000000E+01 0. -1.
         -5    1    3    3    0  501  0.53447446543E+02 -0.23144964798E+03 -0.99185748022E+02  0.25745068286E+03  0.41800000000E+01 0. -1.
</event>
<event>
11    1  0.1704459E-009  0.1572055E+03  0.7561462E-02  0.1089735E+00
         22   -1    0    0    0    0  0.00000000000E+00  0.00000000000E+00  0.43598378854E+03  0.43598378854E+03  0.00000000000E+00 0.  1.
         22   -1    0    0    0    0 -0.00000000000E+00 -0.00000000000E+00 -0.12388781091E+04  0.12388781091E+04  0.00000000000E+00 0. -1.
         25    2    1    2    0    0  0.28079777946E+02  0.10303670054E+03 -0.62900549896E+03  0.65015410926E+03  0.12508961780E+03 0.  0.
         24    2    1    2    0    0  0.15461363595E+02 -0.90558377388E+02 -0.58781569933E+03  0.60039853867E+03  0.80692226222E+02 0.  0.
        -24    2    1    2    0    0 -0.43541141541E+02 -0.12478323153E+02  0.41392687777E+03  0.42430924968E+03  0.81555745770E+02 0.  0.
        -11    1    4    4    0    0  0.23365917144E+02 -0.83206672658E+00 -0.51333567651E+02  0.56407389470E+02  0.00000000000E+00 0.  1.
         12    1    4    4    0    0 -0.79045535486E+01 -0.89726310661E+02 -0.53648213168E+03  0.54399114920E+03  0.00000000000E+00 0. -1.
         13    1    5    5    0    0  0.38368782621E+01 -0.76848150727E+01  0.10020711855E+01  0.86476681343E+01  0.00000000000E+00 0. -1.
        -14    1    5    5    0    0 -0.47378019803E+02 -0.47935080808E+01  0.41292480658E+03  0.41566158154E+03  0.00000000000E+00 0.  1.
          5    1    3    3  501    0  0.62557245488E+02  0.12858868751E+02 -0.18511520948E+03  0.19586697692E+03  0.41800000000E+01 0. -1.
         -5    1    3    3    0  501 -0.34477467542E+02  0.90177831790E+02 -0.44389028948E+03  0.45428713234E+03  0.41800000000E+01 0. -1.
</event>
<event>
11    1  0.1704459E-009  0.1875739E+03  0.7561462E-02  0.1063676E+00
         22   -1    0    0    0    0  0.00000000000E+00  0.00000000000E+00  0.48522834664E+02  0.48522834664E+02  0.00000000000E+00 0.  1.
         22   -1    0    0    0    0 -0.00000000000E+00 -0.00000000000E+00 -0.24774909273E+04  0.24774909273E+04  0.00000000000E+00 0.  1.
         25    2    1    2    0    0 -0.67272120089E+02 -0.49043240965E+01 -0.94871005360E+03  0.95929518813E+03  0.12508757587E+03 0.  0.
        -24    2    1    2    0    0 -0.37911276060E+02 -0.13481948450E+03 -0.12723066310E+04  0.12824359267E+04  0.79146601859E+02 0.  0.
         24    2    1    2    0    0  0.10518339615E+03  0.13972380860E+03 -0.20795140802E+03  0.28428264710E+03  0.83585559947E+02 0.  0.
        -11    1    5    5    0    0  0.91616828559E+02  0.14884678167E+03 -0.20140968842E+03  0.26667371502E+03  0.00000000000E+00 0.  1.
         12    1    5    5    0    0  0.13566567589E+02 -0.91229730773E+01 -0.65417195985E+01  0.17608932087E+02  0.00000000000E+00 0. -1.
         11    1    4    4    0    0 -0.25564809304E+02 -0.81627173717E+00 -0.25153153660E+03  0.25282867654E+03  0.00000000000E+00 0. -1.
        -12    1    4    4    0    0 -0.12346466756E+02 -0.13400321276E+03 -0.10207750944E+04  0.10296072502E+04  0.00000000000E+00 0.  1.
          5    1    3    3  501    0  0.46395157820E+00 -0.50640385787E+02 -0.20976044409E+03  0.21582766326E+03  0.41800000000E+01 0.  1.
         -5    1    3    3    0  501 -0.67736071667E+02  0.45736061691E+02 -0.73894960950E+03  0.74346752487E+03  0.41800000000E+01 0.  1.
</event>
<event>
11    1  0.1704459E-009  0.1707070E+03  0.7561462E-02  0.1077418E+00
         22   -1    0    0    0    0  0.00000000000E+00  0.00000000000E+00  0.97062670587E+03  0.97062670587E+03  0.00000000000E+00 0.  1.
         22   -1    0    0    0    0 -0.00000000000E+00 -0.00000000000E+00 -0.14700613595E+03  0.14700613595E+03  0.00000000000E+00 0. -1.
         25    2    1    2    0    0 -0.67342636140E+02 -0.14824991154E+03 -0.19277486507E+02  0.20619665159E+03  0.12502947943E+03 0.  0.
        -24    2    1    2    0    0 -0.48851728891E+01  0.60195809360E+02  0.66038100151E+02  0.12187364065E+03  0.82733023854E+02 0.  0.
         24    2    1    2    0    0  0.72227809029E+02  0.88054102177E+02  0.77685995627E+03  0.78956254958E+03  0.83230083136E+02 0.  0.
        -11    1    5    5    0    0  0.84555982739E+02  0.55016379544E+02  0.47134768565E+03  0.48202194660E+03  0.00000000000E+00 0.  1.
         12    1    5    5    0    0 -0.12328173711E+02  0.33037722634E+02  0.30551227062E+03  0.30754060298E+03  0.00000000000E+00 0. -1.
         13    1    4    4    0    0  0.19883031595E+02  0.37494262362E+02  0.75812104395E+02  0.86882851175E+02  0.00000000000E+00 0. -1.
        -14    1    4    4    0    0 -0.24768204484E+02  0.22701546997E+02 -0.97740042436E+01  0.34990789479E+02  0.00000000000E+00 0.  1.
          5    1    3    3  501    0 -0.39882289559E+02 -0.16680672008E+03 -0.11797191399E+02  0.17196431318E+03  0.41800000000E+01 0.  1.
         -5    1    3    3    0  501 -0.27460346580E+02  0.18556808542E+02 -0.74802951073E+01  0.34232338402E+02  0.41800000000E+01 0.  1.
</event>
<event>
11    1  0.1831336E-009  0.4669125E+03  0.7561462E-02  0.9470656E-01
         22   -1    0    0    0    0  0.00000000000E+00  0.00000000000E+00  0.20326670160E+04  0.20326670160E+04  0.00000000000E+00 0.  1.
         22   -1    0    0    0    0 -0.00000000000E+00 -0.00000000000E+00 -0.55385474013E+03  0.55385474013E+03  0.00000000000E+00 0.  1.
         25    2    1    2    0    0  0.10678946831E+03 -0.43720543445E+03 -0.39846183752E+03  0.61398025890E+03  0.12508932772E+03 0.  0.
        -24    2    1    2    0    0 -0.50658288471E+02 -0.82881264033E+01  0.98792478966E+02  0.13649176687E+03  0.78962606935E+02 0.  0.
         24    2    1    2    0    0 -0.56131179836E+02  0.44549356085E+03  0.17784816344E+04  0.18360497304E+04  0.80414341017E+02 0.  0.
        -13    1    5    5    0    0 -0.33357845111E+02  0.34273754705E+03  0.12166188503E+04  0.12644141722E+04  0.00000000000E+00 0.  1.
         14    1    5    5    0    0 -0.22773334725E+02  0.10275601380E+03  0.56186278416E+03  0.57163555817E+03  0.00000000000E+00 0. -1.
         11    1    4    4    0    0  0.16321120485E+02  0.15968011169E+02  0.26887230820E+02  0.35274346709E+02  0.00000000000E+00 0. -1.
        -12    1    4    4    0    0 -0.66979408955E+02 -0.24256137572E+02  0.71905248146E+02  0.10121742017E+03  0.00000000000E+00 0.  1.
          5    1    3    3  501    0 -0.19802469858E+02 -0.85141563225E+02 -0.41483291056E+02  0.96848125629E+02  0.41800000000E+01 0.  1.
         -5    1    3    3    0  501  0.12659193816E+03 -0.35206387122E+03 -0.35697854646E+03  0.51713213327E+03  0.41800000000E+01 0.  1.
</event>
<event>
11    1  0.1704459E-009  0.6147956E+03  0.7561462E-02  0.9168240E-01
         22   -1    0    0    0    0  0.00000000000E+00  0.00000000000E+00  0.81286484918E+03  0.81286484918E+03  0.00000000000E+00 0.  1.
         22   -1    0    0    0    0 -0.00000000000E+00 -0.00000000000E+00 -0.11104160626E+04  0.11104160626E+04  0.00000000000E+00 0.  1.
         25    2    1    2    0    0 -0.55644324466E+03 -0.25839154382E+03 -0.75561264159E+03  0.98132244120E+03  0.12509194634E+03 0.  0.
         24    2    1    2    0    0  0.50754170405E+03  0.25165248376E+03  0.11111342054E+03  0.58250598007E+03  0.77714031291E+02 0.  0.
        -24    2    1    2    0    0  0.48901540610E+02  0.67390600595E+01  0.34694800767E+03  0.35945249047E+03  0.79977479815E+02 0.  0.
        -11    1    4    4    0    0  0.34611455810E+03  0.15880579948E+03  0.10963814077E+03  0.39627653373E+03  0.00000000000E+00 0.  1.
         12    1    4    4    0    0  0.16142714595E+03  0.92846684282E+02  0.14752797681E+01  0.18622944633E+03  0.00000000000E+00 0. -1.
         13    1    5    5    0    0 -0.71148427740E+01 -0.17203598812E+01 -0.57481091653E+00  0.73424133232E+01  0.00000000000E+00 0. -1.
        -14    1    5    5    0    0  0.56016383384E+02  0.84594199407E+01  0.34752281859E+03  0.35211007715E+03  0.00000000000E+00 0.  1.
          5    1    3    3  501    0 -0.28274413467E+03 -0.19962148440E+03 -0.41309901883E+03  0.53894457460E+03  0.41800000000E+01 0. -1.
         -5    1    3    3    0  501 -0.27369910998E+03 -0.58770059418E+02 -0.34251362275E+03  0.44237786660E+03  0.41800000000E+01 0. -1.
</event>
<event>
11    1  0.1704459E-009  0.1396009E+03  0.7561462E-02  0.1108005E+00
         22   -1    0    0    0    0  0.00000000000E+00  0.00000000000E+00  0.14305245697E+03  0.14305245697E+03  0.00000000000E+00 0. -1.
         22   -1    0    0    0    0 -0.00000000000E+00 -0.00000000000E+00 -0.18686395926E+03  0.18686395926E+03  0.00000000000E+00 0. -1.
         25    2    1    2    0    0  0.59638184446E+02 -0.32572932985E+01 -0.28590008766E+02  0.14153499791E+03  0.12508974390E+03 0.  0.
        -24    2    1    2    0    0 -0.63697367811E+02  0.36805519866E+01 -0.16764452232E+02  0.10857717261E+03  0.86238358196E+02 0.  0.
         24    2    1    2    0    0  0.40591833651E+01 -0.42325868810E+00  0.15429587024E+01  0.79804245708E+02  0.79684884351E+02 0.  0.
        -11    1    5    5    0    0 -0.73742968249E+01 -0.14332868562E+02  0.36822330631E+02  0.40195713801E+02  0.00000000000E+00 0.  1.
         12    1    5    5    0    0  0.11433480190E+02  0.13909609874E+02 -0.35279371929E+02  0.39608531907E+02  0.00000000000E+00 0. -1.
         11    1    4    4    0    0  0.20520479010E+01 -0.10746546485E+02  0.26424304707E+02  0.28599703516E+02  0.00000000000E+00 0. -1.
        -12    1    4    4    0    0 -0.65749415712E+02  0.14427098471E+02 -0.43188756939E+02  0.79977469095E+02  0.00000000000E+00 0.  1.
          5    1    3    3  501    0  0.74222947884E+02 -0.38614222531E+01  0.30558282571E+02  0.80468861108E+02  0.41800000000E+01 0. -1.
         -5    1    3    3    0  501 -0.14584763437E+02  0.60412895467E+00 -0.59148291337E+02  0.61066136806E+02  0.41800000000E+01 0. -1.
</event>
<event>
11    1  0.2595491E-009  0.7676187E+03  0.7561462E-02  0.8938191E-01
         22   -1    0    0    0    0  0.00000000000E+00  0.00000000000E+00  0.21530927667E+04  0.21530927667E+04  0.00000000000E+00 0.  1.
         22   -1    0    0    0    0 -0.00000000000E+00 -0.00000000000E+00 -0.49677593654E+03  0.49677593654E+03  0.00000000000E+00 0.  1.
         25    2    1    2    0    0 -0.36858157429E+03 -0.67600758584E+03 -0.16487178085E+01  0.78005720734E+03  0.12509154821E+03 0.  0.
        -24    2    1    2    0    0  0.40684766632E+03  0.59000100275E+03  0.12554291362E+04  0.14478251953E+04  0.80431792800E+02 0.  0.
         24    2    1    2    0    0 -0.38266092027E+02  0.86006583086E+02  0.40253641172E+03  0.42198630057E+03  0.84708021868E+02 0.  0.
        -11    1    5    5    0    0 -0.65405363234E+02  0.65811158772E+02  0.29136637328E+03  0.30578314806E+03  0.00000000000E+00 0.  1.
         12    1    5    5    0    0  0.27139271208E+02  0.20195424315E+02  0.11117003844E+03  0.11620315251E+03  0.00000000000E+00 0. -1.
         13    1    4    4    0    0  0.11269459942E+03  0.22529570122E+03  0.40848135728E+03  0.47991170539E+03  0.00000000000E+00 0. -1.
        -14    1    4    4    0    0  0.29415306690E+03  0.36470530153E+03  0.84694777895E+03  0.96791348994E+03  0.00000000000E+00 0.  1.
          5    1    3    3  501    0 -0.84556880564E+02 -0.85236311046E+02 -0.30368967542E+02  0.12391465354E+03  0.41800000000E+01 0.  1.
         -5    1    3    3    0  501 -0.28402469373E+03 -0.59077127479E+03  0.28720249733E+02  0.65614255380E+03  0.41800000000E+01 0.  1.
</event>
<event>
11    1  0.1704459E-009  0.3425163E+03  0.7561462E-02  0.9836473E-01
         22   -1    0    0    0    0  0.00000000000E+00  0.00000000000E+00  0.16423084707E+04  0.16423084707E+04  0.00000000000E+00 0.  1.
         22   -1    0    0    0    0 -0.00000000000E+00 -0.00000000000E+00 -0.36550612131E+03  0.36550612131E+03  0.00000000000E+00 0.  1.
         25    2    1    2    0    0 -0.16292997588E+03 -0.24028837787E+03 -0.14906309315E+03  0.34950240744E+03  0.12508974974E+03 0.  0.
        -24    2    1    2    0    0  0.27351962160E+03  0.44592511660E+03  0.61802245390E+03  0.81357659180E+03  0.79327953330E+02 0.  0.
         24    2    1    2    0    0 -0.11058964572E+03 -0.20563673874E+03  0.80784298861E+03  0.84473559274E+03  0.80320541192E+02 0.  0.
        -11    1    5    5    0    0 -0.11411848826E+03 -0.21133935118E+03  0.78371228720E+03  0.81969036827E+03  0.00000000000E+00 0.  1.
         12    1    5    5    0    0  0.35288425452E+01  0.57026124435E+01  0.24130701410E+02  0.25045224473E+02  0.00000000000E+00 0. -1.
         13    1    4    4    0    0  0.44560816350E+02  0.12838822311E+03  0.18904038078E+03  0.23282067724E+03  0.00000000000E+00 0. -1.
        -14    1    4    4    0    0  0.22895880525E+03  0.31753689350E+03  0.42898207312E+03  0.58075591455E+03  0.00000000000E+00 0.  1.
          5    1    3    3  501    0 -0.55903496707E+02 -0.18534526515E+03 -0.72105367251E+02  0.20662701819E+03  0.41800000000E+01 0. -1.
         -5    1    3    3    0  501 -0.10702647917E+03 -0.54943112715E+02 -0.76957725898E+02  0.14287538925E+03  0.41800000000E+01 0. -1.
</event>
<event>
11    1  0.1704459E-009  0.4553382E+03  0.7561462E-02  0.9499259E-01
         22   -1    0    0    0    0  0.00000000000E+00  0.00000000000E+00  0.13460348021E+04  0.13460348021E+04  0.00000000000E+00 0. -1.
         22   -1    0    0    0    0 -0.00000000000E+00 -0.00000000000E+00 -0.34868724308E+03  0.34868724308E+03  0.00000000000E+00 0. -1.
         25    2    1    2    0    0 -0.38161391794E+02 -0.17890111944E+03  0.53662148441E+02  0.22801172178E+03  0.12509123363E+03 0.  0.
        -24    2    1    2    0    0  0.90878445436E+01  0.58794391134E+03  0.22381915198E+03  0.63443046169E+03  0.81525248395E+02 0.  0.
         24    2    1    2    0    0  0.29073547251E+02 -0.40904279190E+03  0.71986625862E+03  0.83227986174E+03  0.79505101670E+02 0.  0.
        -11    1    5    5    0    0 -0.11233260230E+02 -0.95400252875E+01  0.14746584757E+02  0.20848500663E+02  0.00000000000E+00 0.  1.
         12    1    5    5    0    0  0.40306807480E+02 -0.39950276661E+03  0.70511967387E+03  0.81143136107E+03  0.00000000000E+00 0. -1.
         13    1    4    4    0    0  0.34925391314E+02  0.13335671223E+03  0.41517461822E+02  0.14397046673E+03  0.00000000000E+00 0. -1.
        -14    1    4    4    0    0 -0.25837546770E+02  0.45458719911E+03  0.18230169016E+03  0.49045999496E+03  0.00000000000E+00 0.  1.
          5    1    3    3  501    0 -0.54533189907E+02 -0.43378773361E+02 -0.20299223990E+02  0.72698814807E+02  0.41800000000E+01 0.  1.
         -5    1    3    3    0  501  0.16371798112E+02 -0.13552234608E+03  0.73961372430E+02  0.15531290697E+03  0.41800000000E+01 0.  1.
</event>
<event>
11    1  0.1704459E-009  0.1398753E+03  0.7561462E-02  0.1107698E+00
         22   -1    0    0    0    0  0.00000000000E+00  0.00000000000E+00  0.39796978362E+02  0.39796978362E+02  0.00000000000E+00 0.  1.
         22   -1    0    0    0    0 -0.00000000000E+00 -0.00000000000E+00 -0.32419776916E+04  0.32419776916E+04  0.00000000000E+00 0. -1.
         25    2    1    2    0    0  0.21776269634E+02  0.55067563485E+02 -0.22145943148E+04  0.22189146484E+04  0.12509034715E+03 0.  0.
        -24    2    1    2    0    0 -0.23716604685E+02 -0.62737151073E+02 -0.97519547150E+03  0.98092853168E+03  0.81952115077E+02 0.  0.
         24    2    1    2    0    0  0.19403350502E+01  0.76695875883E+01 -0.12390926867E+02  0.81931489884E+02  0.80601777227E+02 0.  0.
        -13    1    5    5    0    0 -0.17516198399E+02 -0.22687695542E+01  0.29673123539E+02  0.34531996499E+02  0.00000000000E+00 0.  1.
         14    1    5    5    0    0  0.19456533450E+02  0.99383571425E+01 -0.42064050407E+02  0.47399493385E+02  0.00000000000E+00 0. -1.
         11    1    4    4    0    0 -0.95826391499E+01 -0.46462957448E+02 -0.20445966569E+03  0.20989137258E+03  0.00000000000E+00 0. -1.
        -12    1    4    4    0    0 -0.14133965535E+02 -0.16274193625E+02 -0.77073580581E+03  0.77103715910E+03  0.00000000000E+00 0.  1.
          5    1    3    3  501    0  0.55960717076E+01 -0.40468804971E+02 -0.58942676632E+03  0.59085567227E+03  0.41800000000E+01 0.  1.
         -5    1    3    3    0  501  0.16180197927E+02  0.95536368456E+02 -0.16251675485E+04  0.16280589761E+04  0.41800000000E+01 0.  1.
</event>
<event>
11    1  0.1704459E-009  0.1752748E+03  0.7561462E-02  0.1073530E+00
         22   -1    0    0    0    0  0.00000000000E+00  0.00000000000E+00  0.43053211274E+03  0.43053211274E+03  0.00000000000E+00 0. -1.
         22   -1    0    0    0    0 -0.00000000000E+00 -0.00000000000E+00 -0.25121127058E+03  0.25121127058E+03  0.00000000000E+00 0. -1.
         25    2    1    2    0    0  0.12047425059E+03  0.10832761978E+03 -0.98392224126E+02  0.22710731080E+03  0.12509109717E+03 0.  0.
         24    2    1    2    0    0 -0.80364714963E+02 -0.49540212211E+02 -0.31299872893E+02  0.12715702388E+03  0.79224406860E+02 0.  0.
        -24    2    1    2    0    0 -0.40109535622E+02 -0.58787407570E+02  0.30901293919E+03  0.32747904863E+03  0.81785063265E+02 0.  0.
        -13    1    4    4    0    0 -0.62777923321E+02  0.77007861421E+01 -0.13340177423E+02  0.64640003847E+02  0.00000000000E+00 0.  1.
         14    1    4    4    0    0 -0.17586791643E+02 -0.57240998353E+02 -0.17959695469E+02  0.62517020035E+02  0.00000000000E+00 0. -1.
         13    1    5    5    0    0 -0.40787124760E+02 -0.66505263318E+02  0.15745413223E+03  0.17572234733E+03  0.00000000000E+00 0. -1.
        -14    1    5    5    0    0  0.67758913807E+00  0.77178557473E+01  0.15155880696E+03  0.15175670131E+03  0.00000000000E+00 0.  1.
          5    1    3    3  501    0  0.74218926975E+01  0.69077234316E+01 -0.72081261725E+02  0.72910779903E+02  0.41800000000E+01 0.  1.
         -5    1    3    3    0  501  0.11305235789E+03  0.10141989635E+03 -0.26310962401E+02  0.15419653090E+03  0.41800000000E+01 0.  1.
</event>
<event>
11    1  0.1704459E-009  0.1928112E+03  0.7561462E-02  0.1059727E+00
         22   -1    0    0    0    0  0.00000000000E+00  0.00000000000E+00  0.69194463297E+03  0.69194463297E+03  0.00000000000E+00 0. -1.
         22   -1    0    0    0    0 -0.00000000000E+00 -0.00000000000E+00 -0.10353869384E+03  0.10353869384E+03  0.00000000000E+00 0. -1.
         25    2    1    2    0    0  0.33394969320E+02 -0.12400453688E+03  0.11229067594E+03  0.21153921101E+03  0.12508913921E+03 0.  0.
        -24    2    1    2    0    0  0.29683172616E+02  0.17872750597E+03  0.18867049917E+03  0.27387541561E+03  0.81157710018E+02 0.  0.
         24    2    1    2    0    0 -0.63078141936E+02 -0.54722969088E+02  0.28744476402E+03  0.31006870018E+03  0.80899018131E+02 0.  0.
        -13    1    5    5    0    0 -0.79521205540E+02 -0.32726695563E+02  0.24360739328E+03  0.25833935200E+03  0.00000000000E+00 0.  1.
         14    1    5    5    0    0  0.16443063604E+02 -0.21996273525E+02  0.43837370741E+02  0.51729348180E+02  0.00000000000E+00 0. -1.
         11    1    4    4    0    0  0.34124491142E+02  0.17366708837E+03  0.19589029288E+03  0.26400330551E+03  0.00000000000E+00 0. -1.
        -12    1    4    4    0    0 -0.44413185255E+01  0.50604176015E+01 -0.72197937137E+01  0.98721100994E+01  0.00000000000E+00 0.  1.
          5    1    3    3  501    0 -0.19273723938E+02 -0.12478808101E+03  0.82344764247E+02  0.15080342899E+03  0.41800000000E+01 0. -1.
         -5    1    3    3    0  501  0.52668693257E+02  0.78354412490E+00  0.29945911697E+02  0.60735782025E+02  0.41800000000E+01 0. -1.
</event>
<event>
11    1  0.1704459E-009  0.3825495E+03  0.7561462E-02  0.9702698E-01
         22   -1    0    0    0    0  0.00000000000E+00  0.00000000000E+00  0.52371832126E+03  0.52371832126E+03  0.00000000000E+00 0. -1.
         22   -1    0    0    0    0 -0.00000000000E+00 -0.00000000000E+00 -0.24844883495E+03  0.24844883495E+03  0.00000000000E+00 0. -1.
         25    2    1    2    0    0  0.13961541470E+03  0.35977396471E+01  0.12778021508E+03  0.22689333685E+03  0.12508954869E+03 0.  0.
         24    2    1    2    0    0 -0.29389897419E+03  0.83776331025E+02  0.29311742016E+02  0.31737125869E+03  0.80437907448E+02 0.  0.
        -24    2    1    2    0    0  0.15428355949E+03 -0.87374070672E+02  0.11817752922E+03  0.22790256067E+03  0.80845555172E+02 0.  0.
        -13    1    4    4    0    0 -0.46910818317E+02  0.18989541432E+01 -0.22492021928E+02  0.52058831647E+02  0.00000000000E+00 0.  1.
         14    1    4    4    0    0 -0.24698815587E+03  0.81877376881E+02  0.51803763944E+02  0.26531242705E+03  0.00000000000E+00 0. -1.
         13    1    5    5    0    0  0.16242477995E+03 -0.76068766130E+02  0.10118413325E+03  0.20592837382E+03  0.00000000000E+00 0. -1.
        -14    1    5    5    0    0 -0.81412204546E+01 -0.11305304542E+02  0.16993395960E+02  0.21974186846E+02  0.00000000000E+00 0.  1.
          5    1    3    3  501    0  0.95202128069E+02 -0.54496928395E+02  0.10018969132E+03  0.14862303671E+03  0.41800000000E+01 0. -1.
         -5    1    3    3    0  501  0.44413286628E+02  0.58094668042E+02  0.27590523758E+02  0.78270300148E+02  0.41800000000E+01 0. -1.
</event>
<event>
11    1  0.1704459E-009  0.3685816E+03  0.7561462E-02  0.9747297E-01
         22   -1    0    0    0    0  0.00000000000E+00  0.00000000000E+00  0.29504775518E+03  0.29504775518E+03  0.00000000000E+00 0.  1.
         22   -1    0    0    0    0 -0.00000000000E+00 -0.00000000000E+00 -0.19601193661E+04  0.19601193661E+04  0.00000000000E+00 0.  1.
         25    2    1    2    0    0 -0.21025614265E+03  0.28599781855E+03 -0.16724145330E+04  0.17142389931E+04  0.12507021073E+03 0.  0.
         24    2    1    2    0    0  0.18056889371E+03 -0.24896231105E+03 -0.15494604050E+03  0.35338572465E+03  0.79283271990E+02 0.  0.
        -24    2    1    2    0    0  0.29687248930E+02 -0.37035507496E+02  0.16228896255E+03  0.18754240353E+03  0.81126347097E+02 0.  0.
        -11    1    4    4    0    0  0.70042552815E+01 -0.61505013727E+02 -0.24927835061E+02  0.66733224607E+02  0.00000000000E+00 0.  1.
         12    1    4    4    0    0  0.17356463843E+03 -0.18745729732E+03 -0.13001820544E+03  0.28665250004E+03  0.00000000000E+00 0. -1.
         11    1    5    5    0    0 -0.18865031644E+02  0.11014162703E+02  0.19614423387E+02  0.29358589949E+02  0.00000000000E+00 0. -1.
        -12    1    5    5    0    0  0.48552280574E+02 -0.48049670199E+02  0.14267453916E+03  0.15818381359E+03  0.00000000000E+00 0.  1.
          5    1    3    3  501    0 -0.10433319224E+03  0.96600400114E+02 -0.42747982556E+03  0.45052583274E+03  0.41800000000E+01 0.  1.
         -5    1    3    3    0  501 -0.10592295040E+03  0.18939741843E+03 -0.12449347074E+04  0.12637131603E+04  0.41800000000E+01 0.  1.
</event>
<event>
11    1  0.1923646E-009  0.4636187E+03  0.7561462E-02  0.9478705E-01
         22   -1    0    0    0    0  0.00000000000E+00  0.00000000000E+00  0.88864778402E+03  0.88864778402E+03  0.00000000000E+00 0. -1.
         22   -1    0    0    0    0 -0.00000000000E+00 -0.00000000000E+00 -0.21103059364E+04  0.21103059364E+04  0.00000000000E+00 0.  1.
         25    2    1    2    0    0 -0.24585642804E+03  0.22820379012E+03 -0.18713685640E+04  0.19053059808E+04  0.12509286564E+03 0.  0.
         24    2    1    2    0    0 -0.77493790972E+02  0.84868551207E+02 -0.12846210533E+03  0.19121962657E+03  0.82791753552E+02 0.  0.
        -24    2    1    2    0    0  0.32335021901E+03 -0.31307234133E+03  0.77817251700E+03  0.90242811301E+03  0.79084624985E+02 0.  0.
        -13    1    4    4    0    0 -0.93363224587E+01 -0.51102084934E+01  0.85826993296E+01  0.13672742069E+02  0.00000000000E+00 0.  1.
         14    1    4    4    0    0 -0.68157468514E+02  0.89978759700E+02 -0.13704480466E+03  0.17754688450E+03  0.00000000000E+00 0. -1.
         11    1    5    5    0    0  0.29180832032E+03 -0.29059415917E+03  0.65877132508E+03  0.77690200148E+03  0.00000000000E+00 0. -1.
        -12    1    5    5    0    0  0.31541898693E+02 -0.22478182154E+02  0.11940119192E+03  0.12552611154E+03  0.00000000000E+00 0.  1.
          5    1    3    3  501    0 -0.96107678826E+02  0.13851202383E+03 -0.65002306469E+03  0.67154279365E+03  0.41800000000E+01 0.  1.
         -5    1    3    3    0  501 -0.14974874921E+03  0.89691766291E+02 -0.12213454993E+04  0.12337631871E+04  0.41800000000E+01 0.  1.
</event>
<event>
11    1  0.1704459E-009  0.3427213E+03  0.7561462E-02  0.9835739E-01
         22   -1    0    0    0    0  0.00000000000E+00  0.00000000000E+00  0.41797792995E+03  0.41797792995E+03  0.00000000000E+00 0.  1.
         22   -1    0    0    0    0 -0.00000000000E+00 -0.00000000000E+00 -0.67726551929E+03  0.67726551929E+03  0.00000000000E+00 0.  1.
         25    2    1    2    0    0  0.30296067941E+03  0.98687066134E+02 -0.47798223804E+03  0.58790792828E+03  0.12507758377E+03 0.  0.
         24    2    1    2    0    0 -0.32843139881E+03 -0.22665605117E+02  0.13251585560E+03  0.36366863287E+03  0.79457593527E+02 0.  0.
        -24    2    1    2    0    0  0.25470719400E+02 -0.76021461017E+02  0.86178793092E+02  0.14366688809E+03  0.82373358999E+02 0.  0.
        -11    1    4    4    0    0 -0.29185041102E+03  0.64191391213E+01  0.11324302846E+03  0.31311635418E+03  0.00000000000E+00 0.  1.
         12    1    4    4    0    0 -0.36580987797E+02 -0.29084744238E+02  0.19272827137E+02  0.50552278697E+02  0.00000000000E+00 0. -1.
         13    1    5    5    0    0 -0.14287618572E+02  0.75629354012E+01 -0.14201297478E+01  0.16228086912E+02  0.00000000000E+00 0. -1.
        -14    1    5    5    0    0  0.39758337972E+02 -0.83584396419E+02  0.87598922840E+02  0.12743880118E+03  0.00000000000E+00 0.  1.
          5    1    3    3  501    0  0.27766791306E+03  0.67151592658E+02 -0.34018926516E+03  0.44424656990E+03  0.41800000000E+01 0.  1.
         -5    1    3    3    0  501  0.25292766357E+02  0.31535473476E+02 -0.13779297287E+03  0.14366135837E+03  0.41800000000E+01 0.  1.
</event>
<event>
11    1  0.1704459E-009  0.1495222E+03  0.7561462E-02  0.1097368E+00
         22   -1    0    0    0    0  0.00000000000E+00  0.00000000000E+00  0.21307467246E+03  0.21307467246E+03  0.00000000000E+00 0. -1.
         22   -1    0    0    0    0 -0.00000000000E+00 -0.00000000000E+00 -0.24490581886E+03  0.24490581886E+03  0.00000000000E+00 0.  1.
         25    2    1    2    0    0 -0.11482458615E+03  0.64424275827E+02 -0.92346863944E+02  0.20373810017E+03  0.12508436065E+03 0.  0.
        -24    2    1    2    0    0  0.65505296119E+02 -0.93855239792E+01 -0.31603322851E+02  0.10864111529E+03  0.80156659341E+02 0.  0.
         24    2    1    2    0    0  0.49319290032E+02 -0.55038751848E+02  0.92119040398E+02  0.14560127587E+03  0.85159599318E+02 0.  0.
        -11    1    5    5    0    0  0.58058861152E+02 -0.68493421812E+02  0.55336235191E+02  0.10547169817E+03  0.00000000000E+00 0.  1.
         12    1    5    5    0    0 -0.87395711202E+01  0.13454669964E+02  0.36782805207E+02  0.40129577697E+02  0.00000000000E+00 0. -1.
         13    1    4    4    0    0 -0.10348321591E+02 -0.12310675529E+02 -0.28431568672E+02  0.32664883115E+02  0.00000000000E+00 0. -1.
        -14    1    4    4    0    0  0.75853617710E+02  0.29251515498E+01 -0.31717541789E+01  0.75976232177E+02  0.00000000000E+00 0.  1.
          5    1    3    3  501    0 -0.10642149196E+02  0.75857331662E+02 -0.38527420759E+02  0.85845353145E+02  0.41800000000E+01 0. -1.
         -5    1    3    3    0  501 -0.10418243695E+03 -0.11433055835E+02 -0.53819443186E+02  0.11789274702E+03  0.41800000000E+01 0. -1.
</event>
<event>
11    1  0.1704459E-009  0.2152476E+03  0.7561462E-02  0.1044236E+00
         22   -1    0    0    0    0  0.00000000000E+00  0.00000000000E+00  0.10686107512E+03  0.10686107512E+03  0.00000000000E+00 0. -1.
         22   -1    0    0    0    0 -0.00000000000E+00 -0.00000000000E+00 -0.22940047500E+04  0.22940047500E+04  0.00000000000E+00 0. -1.
         25    2    1    2    0    0 -0.10976419647E+03  0.13444943932E+03 -0.20289001625E+04  0.20401486801E+04  0.12508371904E+03 0.  0.
        -24    2    1    2    0    0  0.15634397519E+03 -0.12920254792E+03 -0.59533301642E+02  0.22785661789E+03  0.85074598705E+02 0.  0.
         24    2    1    2    0    0 -0.46579778720E+02 -0.52468913998E+01 -0.98710210738E+02  0.13286052718E+03  0.75571213589E+02 0.  0.
        -11    1    5    5    0    0  0.24692094905E+01  0.21688789164E+02 -0.30576543258E+01  0.22042001290E+02  0.00000000000E+00 0.  1.
         12    1    5    5    0    0 -0.49048988211E+02 -0.26935680564E+02 -0.95652556412E+02  0.11081852589E+03  0.00000000000E+00 0. -1.
         11    1    4    4    0    0  0.15768386803E+03 -0.94067568430E+02 -0.41089318262E+02  0.18815217709E+03  0.00000000000E+00 0. -1.
        -12    1    4    4    0    0 -0.13398928397E+01 -0.35134979492E+02 -0.18443983380E+02  0.39704440805E+02  0.00000000000E+00 0.  1.
          5    1    3    3  501    0 -0.86252218800E+02  0.15777543622E+03 -0.16467593191E+04  0.16565525229E+04  0.41800000000E+01 0. -1.
         -5    1    3    3    0  501 -0.23511977670E+02 -0.23325996900E+02 -0.38214084338E+03  0.38359615718E+03  0.41800000000E+01 0. -1.
</event>
<event>
11    1  0.1704459E-009  0.1650960E+04  0.7561462E-02  0.8227378E-01
         22   -1    0    0    0    0  0.00000000000E+00  0.00000000000E+00  0.28897859999E+04  0.28897859999E+04  0.00000000000E+00 0. -1.
         22   -1    0    0    0    0 -0.00000000000E+00 -0.00000000000E+00 -0.15174482158E+04  0.15174482158E+04  0.00000000000E+00 0. -1.
         25    2    1    2    0    0 -0.14959965340E+04 -0.57392819007E+03 -0.45994618827E+03  0.16717051461E+04  0.12509357390E+03 0.  0.
        -24    2    1    2    0    0  0.16748079052E+04  0.60494724571E+03  0.14238179783E+04  0.22814333139E+04  0.82083134663E+02 0.  0.
         24    2    1    2    0    0 -0.17881137125E+03 -0.31019055646E+02  0.40846599411E+03  0.45409575567E+03  0.80142365042E+02 0.  0.
        -13    1    5    5    0    0  0.84723568213E+01  0.41751057015E+00  0.18001324556E+02  0.19899819872E+02  0.00000000000E+00 0.  1.
         14    1    5    5    0    0 -0.18728372807E+03 -0.31436566216E+02  0.39046466955E+03  0.43419593580E+03  0.00000000000E+00 0. -1.
         11    1    4    4    0    0  0.78719552181E+03  0.24154642301E+03  0.66719319365E+03  0.10597963114E+04  0.00000000000E+00 0. -1.
        -12    1    4    4    0    0  0.88761238341E+03  0.36340082270E+03  0.75662478460E+03  0.12216370025E+04  0.00000000000E+00 0.  1.
          5    1    3    3  501    0 -0.11733645060E+04 -0.41776387905E+03 -0.40060712262E+03  0.13083632759E+04  0.41800000000E+01 0. -1.
         -5    1    3    3    0  501 -0.32263202796E+03 -0.15616431101E+03 -0.59339065647E+02  0.36334187016E+03  0.41800000000E+01 0. -1.
</event>
<event>
11    1  0.1704459E-009  0.1267228E+03  0.7561462E-02  0.1123362E+00
         22   -1    0    0    0    0  0.00000000000E+00  0.00000000000E+00  0.35154509318E+03  0.35154509318E+03  0.00000000000E+00 0. -1.
         22   -1    0    0    0    0 -0.00000000000E+00 -0.00000000000E+00 -0.71659725311E+02  0.71659725311E+02  0.00000000000E+00 0.  1.
         25    2    1    2    0    0  0.33032344680E+01 -0.20518149260E+02  0.56496392889E+02  0.13882186971E+03  0.12509102004E+03 0.  0.
        -24    2    1    2    0    0 -0.33120497584E+02  0.67236966848E+01  0.80127061562E+02  0.11618223312E+03  0.77044077255E+02 0.  0.
         24    2    1    2    0    0  0.29817263116E+02  0.13794452575E+02  0.14326191341E+03  0.16820071566E+03  0.81781103020E+02 0.  0.
        -11    1    5    5    0    0  0.12803451936E+01 -0.81847039570E+01 -0.87087814532E+01  0.12019631320E+02  0.00000000000E+00 0.  1.
         12    1    5    5    0    0  0.28536917923E+02  0.21979156532E+02  0.15197069487E+03  0.15618108434E+03  0.00000000000E+00 0. -1.
         13    1    4    4    0    0  0.16132610424E+02 -0.15515730737E+02  0.48871395299E+02  0.53753253835E+02  0.00000000000E+00 0. -1.
        -14    1    4    4    0    0 -0.49253108009E+02  0.22239427422E+02  0.31255666263E+02  0.62428979281E+02  0.00000000000E+00 0.  1.
          5    1    3    3  501    0  0.40279030157E+02  0.39218293050E+02  0.27141091212E+02  0.62566652558E+02  0.41800000000E+01 0. -1.
         -5    1    3    3    0  501 -0.36975795689E+02 -0.59736442310E+02  0.29355301677E+02  0.76255217155E+02  0.41800000000E+01 0. -1.
</event>
<event>
11    1  0.1704459E-009  0.2698898E+03  0.7561462E-02  0.1013807E+00
         22   -1    0    0    0    0  0.00000000000E+00  0.00000000000E+00  0.28301114056E+03  0.28301114056E+03  0.00000000000E+00 0.  1.
         22   -1    0    0    0    0 -0.00000000000E+00 -0.00000000000E+00 -0.43288145751E+03  0.43288145751E+03  0.00000000000E+00 0. -1.
         25    2    1    2    0    0  0.29435847758E+02 -0.10533928264E+02 -0.11863112186E+03  0.17520787904E+03  0.12508806908E+03 0.  0.
         24    2    1    2    0    0 -0.28969413718E+02  0.26233835555E+03 -0.99128444410E+01  0.27534627881E+03  0.77824604367E+02 0.  0.
        -24    2    1    2    0    0 -0.46643403936E+00 -0.25180442728E+03 -0.21326350646E+02  0.26533844022E+03  0.80894916205E+02 0.  0.
        -11    1    4    4    0    0  0.35515920945E+01  0.40388331451E+02  0.26007386008E+02  0.48168612714E+02  0.00000000000E+00 0.  1.
         12    1    4    4    0    0 -0.32521005813E+02  0.22195002410E+03 -0.35920230449E+02  0.22717766609E+03  0.00000000000E+00 0. -1.
         13    1    5    5    0    0  0.13642931118E+02 -0.23582190336E+02 -0.24526834849E+02  0.36658080941E+02  0.00000000000E+00 0. -1.
        -14    1    5    5    0    0 -0.14109365157E+02 -0.22822223695E+03  0.32004842036E+01  0.22868035928E+03  0.00000000000E+00 0.  1.
          5    1    3    3  501    0  0.71595243216E+02  0.39118110307E+01 -0.33991469752E+02  0.79461144798E+02  0.41800000000E+01 0. -1.
         -5    1    3    3    0  501 -0.42159395459E+02 -0.14445739295E+02 -0.84639652108E+02  0.95746734243E+02  0.41800000000E+01 0. -1.
</event>
<event>
11    1  0.1704459E-009  0.1399155E+03  0.7561462E-02  0.1107653E+00
         22   -1    0    0    0    0  0.00000000000E+00  0.00000000000E+00  0.25457981767E+03  0.25457981767E+03  0.00000000000E+00 0.  1.
         22   -1    0    0    0    0 -0.00000000000E+00 -0.00000000000E+00 -0.23045805642E+04  0.23045805642E+04  0.00000000000E+00 0. -1.
         25    2    1    2    0    0  0.60816622906E+02  0.32097773484E+02 -0.15047676442E+04  0.15115235814E+04  0.12509574566E+03 0.  0.
        -24    2    1    2    0    0 -0.35916998425E+02 -0.48050813236E+02 -0.78588347383E+03  0.79221976773E+03  0.80002590701E+02 0.  0.
         24    2    1    2    0    0 -0.24899624481E+02  0.15953039753E+02  0.24065037146E+03  0.25541703271E+03  0.80316676565E+02 0.  0.
        -11    1    5    5    0    0 -0.37929345518E+02 -0.17360966803E+02  0.18199622753E+03  0.18671546603E+03  0.00000000000E+00 0.  1.
         12    1    5    5    0    0  0.13029721038E+02  0.33314006556E+02  0.58654143931E+02  0.68701566673E+02  0.00000000000E+00 0. -1.
         13    1    4    4    0    0 -0.61763285879E+02 -0.35318979798E+02 -0.56887127827E+03  0.57330329239E+03  0.00000000000E+00 0. -1.
        -14    1    4    4    0    0  0.25846287454E+02 -0.12731833438E+02 -0.21701219556E+03  0.21891647535E+03  0.00000000000E+00 0.  1.
          5    1    3    3  501    0 -0.10756495665E+01  0.31483460658E+02 -0.12042699829E+04  0.12046891838E+04  0.41800000000E+01 0.  1.
         -5    1    3    3    0  501  0.61892272472E+02  0.61431282540E+00 -0.30049766128E+03  0.30683439769E+03  0.41800000000E+01 0.  1.
</event>
<event>
11    1  0.1704459E-009  0.2266756E+03  0.7561462E-02  0.1037114E+00
         22   -1    0    0    0    0  0.00000000000E+00  0.00000000000E+00  0.18208709163E+04  0.18208709163E+04  0.00000000000E+00 0. -1.
         22   -1    0    0    0    0 -0.00000000000E+00 -0.00000000000E+00 -0.84759330021E+02  0.84759330021E+02  0.00000000000E+00 0.  1.
         25    2    1    2    0    0  0.17142642930E+03 -0.60142813440E+02  0.22553850901E+03  0.31546792438E+03  0.12509281993E+03 0.  0.
        -24    2    1    2    0    0 -0.21898238103E+03 -0.83791321751E+02  0.43297594308E+03  0.49898832502E+03  0.80912992908E+02 0.  0.
         24    2    1    2    0    0  0.47555951736E+02  0.14393413519E+03  0.10775971342E+04  0.10911739969E+04  0.80414576486E+02 0.  0.
        -11    1    5    5    0    0 -0.79977550715E+01  0.16459076868E+01  0.11025008418E+02  0.13719471889E+02  0.00000000000E+00 0.  1.
         12    1    5    5    0    0  0.55553706807E+02  0.14228822750E+03  0.10665721258E+04  0.10774545250E+04  0.00000000000E+00 0. -1.
         13    1    4    4    0    0 -0.23578460020E+02  0.10854973858E+02  0.21345929687E+02  0.33606888410E+02  0.00000000000E+00 0. -1.
        -14    1    4    4    0    0 -0.19540392101E+03 -0.94646295610E+02  0.41163001339E+03  0.46538143661E+03  0.00000000000E+00 0.  1.
          5    1    3    3  501    0  0.15363115735E+03 -0.41700113474E+01  0.19739902571E+03  0.25020745244E+03  0.41800000000E+01 0.  1.
         -5    1    3    3    0  501  0.17795271943E+02 -0.55972802093E+02  0.28139483293E+02  0.65260471939E+02  0.41800000000E+01 0.  1.
</event>
<event>
11    1  0.1704459E-009  0.1434437E+03  0.7561462E-02  0.1103773E+00
         22   -1    0    0    0    0  0.00000000000E+00  0.00000000000E+00  0.12057112045E+04  0.12057112045E+04  0.00000000000E+00 0.  1.
         22   -1    0    0    0    0 -0.00000000000E+00 -0.00000000000E+00 -0.30956167073E+02  0.30956167073E+02  0.00000000000E+00 0.  1.
         25    2    1    2    0    0 -0.13130587117E+02 -0.31366117739E+02  0.31526341554E+03  0.34087341223E+03  0.12508963317E+03 0.  0.
         24    2    1    2    0    0  0.68917153224E+01  0.11093559536E+03  0.34407324050E+03  0.37002398805E+03  0.78594877976E+02 0.  0.
        -24    2    1    2    0    0  0.62388717945E+01 -0.79569477620E+02  0.51541838144E+03  0.52576997135E+03  0.66390733967E+02 0.  0.
        -11    1    4    4    0    0 -0.32997253289E+00  0.78591453570E+02  0.11956025579E+03  0.14307823112E+03  0.00000000000E+00 0.  1.
         12    1    4    4    0    0  0.72216878553E+01  0.32344141789E+02  0.22451298471E+03  0.22694575692E+03  0.00000000000E+00 0. -1.
         11    1    5    5    0    0  0.18322762360E+02  0.11193225525E+01  0.50193005071E+02  0.53444497018E+02  0.00000000000E+00 0. -1.
        -12    1    5    5    0    0 -0.12083890566E+02 -0.80688800173E+02  0.46522537637E+03  0.47232547433E+03  0.00000000000E+00 0.  1.
          5    1    3    3  501    0  0.42343485390E+01  0.14995264214E+02  0.27874922325E+03  0.27921566847E+03  0.41800000000E+01 0. -1.
         -5    1    3    3    0  501 -0.17364935656E+02 -0.46361381953E+02  0.36514192289E+02  0.61657743759E+02  0.41800000000E+01 0. -1.
</event>
<event>
11    1  0.1704459E-009  0.3987937E+03  0.7561462E-02  0.9653324E-01
         22   -1    0    0    0    0  0.00000000000E+00  0.00000000000E+00  0.10182071865E+04  0.10182071865E+04  0.00000000000E+00 0. -1.
         22   -1    0    0    0    0 -0.00000000000E+00 -0.00000000000E+00 -0.26796267831E+04  0.26796267831E+04  0.00000000000E+00 0. -1.
         25    2    1    2    0    0  0.21452348905E+03  0.15686528938E+03 -0.12172719565E+04  0.12522078546E+04  0.12508576479E+03 0.  0.
        -24    2    1    2    0    0 -0.23427681580E+03 -0.53797541717E+03 -0.13410699803E+04  0.14659419191E+04  0.78827927549E+02 0.  0.
         24    2    1    2    0    0  0.19753326745E+02  0.38111012779E+03  0.89692234020E+03  0.97968419592E+03  0.98368267050E+02 0.  0.
        -13    1    5    5    0    0 -0.66860134105E-01  0.13851365200E+03  0.21631970152E+03  0.25686620939E+03  0.00000000000E+00 0.  1.
         14    1    5    5    0    0  0.19820186880E+02  0.24259647580E+03  0.68060263868E+03  0.72281798653E+03  0.00000000000E+00 0. -1.
         13    1    4    4    0    0 -0.22483976119E+02 -0.39861747589E+02 -0.16615880656E+03  0.17234627092E+03  0.00000000000E+00 0. -1.
        -14    1    4    4    0    0 -0.21179283968E+03 -0.49811366958E+03 -0.11749111737E+04  0.12935956482E+04  0.00000000000E+00 0.  1.
          5    1    3    3  501    0  0.91745230287E+02  0.13799057924E+03 -0.59576498294E+03  0.61839467538E+03  0.41800000000E+01 0.  1.
         -5    1    3    3    0  501  0.12277825877E+03  0.18874710134E+02 -0.62150697360E+03  0.63381317921E+03  0.41800000000E+01 0.  1.
</event>
<event>
11    1  0.1704459E-009  0.1367861E+04  0.7561462E-02  0.8391122E-01
         22   -1    0    0    0    0  0.00000000000E+00  0.00000000000E+00  0.25671875314E+04  0.25671875314E+04  0.00000000000E+00 0. -1.
         22   -1    0    0    0    0 -0.00000000000E+00 -0.00000000000E+00 -0.18220751842E+03  0.18220751842E+03  0.00000000000E+00 0. -1.
         25    2    1    2    0    0  0.13331569562E+03 -0.18618489443E+03 -0.74661150806E+02  0.27140317046E+03  0.12508998315E+03 0.  0.
         24    2    1    2    0    0 -0.92433762740E+02  0.10448529123E+03  0.96982901514E+03  0.98325510908E+03  0.82225995585E+02 0.  0.
        -24    2    1    2    0    0 -0.40881932878E+02  0.81699603202E+02  0.14898121486E+04  0.14947367703E+04  0.79697029859E+02 0.  0.
        -11    1    4    4    0    0 -0.37623434500E+02 -0.50530628199E+01  0.29079813079E+03  0.29326542438E+03  0.00000000000E+00 0.  1.
         12    1    4    4    0    0 -0.54810328240E+02  0.10953835405E+03  0.67903088435E+03  0.68998968470E+03  0.00000000000E+00 0. -1.
         11    1    5    5    0    0 -0.52753257624E+02  0.75293388455E+02  0.88267930587E+03  0.88745408757E+03  0.00000000000E+00 0. -1.
        -12    1    5    5    0    0  0.11871324746E+02  0.64062147468E+01  0.60713284278E+03  0.60728268271E+03  0.00000000000E+00 0.  1.
          5    1    3    3  501    0  0.52241993423E+01 -0.34437106103E+02 -0.63399571181E+02  0.72458157315E+02  0.41800000000E+01 0. -1.
         -5    1    3    3    0  501  0.12809149628E+03 -0.15174778833E+03 -0.11261579625E+02  0.19894501315E+03  0.41800000000E+01 0. -1.
</event>
<event>
11    1  0.1704459E-009  0.4118720E+03  0.7561462E-02  0.9615364E-01
         22   -1    0    0    0    0  0.00000000000E+00  0.00000000000E+00  0.51637827795E+03  0.51637827795E+03  0.00000000000E+00 0. -1.
         22   -1    0    0    0    0 -0.00000000000E+00 -0.00000000000E+00 -0.93309069706E+03  0.93309069706E+03  0.00000000000E+00 0.  1.
         25    2    1    2    0    0  0.11223851268E+03  0.63722708027E+02 -0.47443940139E+03  0.50734474327E+03  0.12509146928E+03 0.  0.
        -24    2    1    2    0    0  0.20418590855E+03 -0.54199503587E+01 -0.35131185416E+03  0.41542483882E+03  0.86235240619E+02 0.  0.
         24    2    1    2    0    0 -0.31642442124E+03 -0.58302757668E+02  0.40903883644E+03  0.52669939292E+03  0.81091644935E+02 0.  0.
        -11    1    5    5    0    0 -0.84312974325E+02 -0.47068602297E+02  0.90004907830E+02  0.13200384235E+03  0.00000000000E+00 0.  1.
         12    1    5    5    0    0 -0.23211144691E+03 -0.11234155371E+02  0.31903392861E+03  0.39469555057E+03  0.00000000000E+00 0. -1.
         11    1    4    4    0    0  0.83420176391E+02 -0.44594957979E+02 -0.14215726633E+03  0.17075223125E+03  0.00000000000E+00 0. -1.
        -12    1    4    4    0    0  0.12076573216E+03  0.39175007621E+02 -0.20915458783E+03  0.24467260757E+03  0.00000000000E+00 0.  1.
          5    1    3    3  501    0  0.10892811899E+03  0.89739073032E+02 -0.44858360555E+03  0.47027987401E+03  0.41800000000E+01 0.  1.
         -5    1    3    3    0  501  0.33103936988E+01 -0.26016365005E+02 -0.25855795836E+02  0.37064869254E+02  0.41800000000E+01 0.  1.
</event>
<event>
11    1  0.1704459E-009  0.1354195E+03  0.7561462E-02  0.1112784E+00
         22   -1    0    0    0    0  0.00000000000E+00  0.00000000000E+00  0.15187224391E+03  0.15187224391E+03  0.00000000000E+00 0. -1.
         22   -1    0    0    0    0 -0.00000000000E+00 -0.00000000000E+00 -0.14758125377E+04  0.14758125377E+04  0.00000000000E+00 0. -1.
         25    2    1    2    0    0  0.48931390622E+02  0.82511208050E+01 -0.93258954179E+03  0.94224876809E+03  0.12508847082E+03 0.  0.
         24    2    1    2    0    0 -0.51783932135E+02 -0.15608675974E+02 -0.52307782589E+03  0.53170498074E+03  0.78578420765E+02 0.  0.
        -24    2    1    2    0    0  0.28525415137E+01  0.73575551693E+01  0.13172707390E+03  0.15373103278E+03  0.78860242385E+02 0.  0.
        -11    1    4    4    0    0 -0.44211672668E+02 -0.15690485420E+02 -0.12434884298E+03  0.13290409356E+03  0.00000000000E+00 0.  1.
         12    1    4    4    0    0 -0.75722594673E+01  0.81809445784E-01 -0.39872898291E+03  0.39880088718E+03  0.00000000000E+00 0. -1.
         13    1    5    5    0    0  0.90161979905E+01  0.12305654939E+02  0.14084234046E+03  0.14166610687E+03  0.00000000000E+00 0. -1.
        -14    1    5    5    0    0 -0.61636564768E+01 -0.49480997700E+01 -0.91152665634E+01  0.12064925902E+02  0.00000000000E+00 0.  1.
          5    1    3    3  501    0  0.16795252869E+02 -0.38677771974E+02 -0.74445687401E+03  0.74566182699E+03  0.41800000000E+01 0.  1.
         -5    1    3    3    0  501  0.32136137753E+02  0.46928892779E+02 -0.18813266778E+03  0.19658694110E+03  0.41800000000E+01 0.  1.
</event>
<event>
11    1  0.1704459E-009  0.5389642E+03  0.7561462E-02  0.9310436E-01
         22   -1    0    0    0    0  0.00000000000E+00  0.00000000000E+00  0.86779494748E+03  0.86779494748E+03  0.00000000000E+00 0. -1.
         22   -1    0    0    0    0 -0.00000000000E+00 -0.00000000000E+00 -0.77363274217E+03  0.77363274217E+03  0.00000000000E+00 0. -1.
         25    2    1    2    0    0  0.14768068764E+03  0.12029183171E+03 -0.10552299241E+03  0.25112161869E+03  0.12508898899E+03 0.  0.
        -24    2    1    2    0    0 -0.61356151793E+03  0.10203245026E+03 -0.27512987180E+03  0.68477140568E+03  0.79668528871E+02 0.  0.
         24    2    1    2    0    0  0.46588083029E+03 -0.22232428197E+03  0.47481506952E+03  0.70553466528E+03  0.76529597429E+02 0.  0.
        -11    1    5    5    0    0  0.22159581295E+03 -0.14574913997E+03  0.25872547813E+03  0.37052177959E+03  0.00000000000E+00 0.  1.
         12    1    5    5    0    0  0.24428501735E+03 -0.76575142003E+02  0.21608959140E+03  0.33501288569E+03  0.00000000000E+00 0. -1.
         11    1    4    4    0    0 -0.31011767437E+03  0.19473255955E+02 -0.11035209345E+03  0.32974196606E+03  0.00000000000E+00 0. -1.
        -12    1    4    4    0    0 -0.30344384356E+03  0.82559194306E+02 -0.16477777835E+03  0.35502943962E+03  0.00000000000E+00 0.  1.
          5    1    3    3  501    0  0.24006419321E+02  0.96974479896E+02 -0.63147863639E+02  0.11826023424E+03  0.41800000000E+01 0. -1.
         -5    1    3    3    0  501  0.12367426832E+03  0.23317351813E+02 -0.42375128773E+02  0.13286138445E+03  0.41800000000E+01 0. -1.
</event>
<event>
11    1  0.1704459E-009  0.1912346E+03  0.7561462E-02  0.1060901E+00
         22   -1    0    0    0    0  0.00000000000E+00  0.00000000000E+00  0.17820929743E+03  0.17820929743E+03  0.00000000000E+00 0.  1.
         22   -1    0    0    0    0 -0.00000000000E+00 -0.00000000000E+00 -0.81186718824E+03  0.81186718824E+03  0.00000000000E+00 0.  1.
         25    2    1    2    0    0  0.14079396534E+03 -0.15329942116E+02 -0.53754473255E+03  0.56978846544E+03  0.12508640235E+03 0.  0.
        -24    2    1    2    0    0 -0.12843097005E+03  0.12662758619E+03 -0.17289186461E+03  0.26206267933E+03  0.79096089636E+02 0.  0.
         24    2    1    2    0    0 -0.12362995290E+02 -0.11129764408E+03  0.76778706351E+02  0.15822534091E+03  0.81242104393E+02 0.  0.
        -13    1    5    5    0    0 -0.39750241519E+02 -0.10139357134E+03  0.64859312676E+02  0.12675751832E+03  0.00000000000E+00 0.  1.
         14    1    5    5    0    0  0.27387246228E+02 -0.99040727387E+01  0.11919393675E+02  0.31467822587E+02  0.00000000000E+00 0. -1.
         13    1    4    4    0    0 -0.21878974511E+02  0.13596611712E+02  0.46320175433E+01  0.26172752286E+02  0.00000000000E+00 0. -1.
        -14    1    4    4    0    0 -0.10655199553E+03  0.11303097448E+03 -0.17752388215E+03  0.23588992704E+03  0.00000000000E+00 0.  1.
          5    1    3    3  501    0  0.80301281738E+02 -0.22507592710E+02 -0.47535783738E+03  0.48263592234E+03  0.41800000000E+01 0. -1.
         -5    1    3    3    0  501  0.60492683598E+02  0.71776505942E+01 -0.62186895173E+02  0.87152543096E+02  0.41800000000E+01 0. -1.
</event>
<event>
11    1  0.1704459E-009  0.1319799E+03  0.7561462E-02  0.1116860E+00
         22   -1    0    0    0    0  0.00000000000E+00  0.00000000000E+00  0.32774261486E+03  0.32774261486E+03  0.00000000000E+00 0.  1.
         22   -1    0    0    0    0 -0.00000000000E+00 -0.00000000000E+00 -0.11280749648E+04  0.11280749648E+04  0.00000000000E+00 0. -1.
         25    2    1    2    0    0 -0.54671693286E+02  0.34362589917E+02 -0.80032127784E+03  0.81260819271E+03  0.12509254760E+03 0.  0.
         24    2    1    2    0    0  0.37569376552E+02  0.39794673620E+01 -0.30869066290E+03  0.32151838496E+03  0.81589535427E+02 0.  0.
        -24    2    1    2    0    0  0.17102316734E+02 -0.38342057279E+02  0.30867959080E+03  0.32169100199E+03  0.80245924438E+02 0.  0.
        -11    1    4    4    0    0 -0.20579213175E+02  0.13652485151E+01 -0.16801353704E+03  0.16927467781E+03  0.00000000000E+00 0.  1.
         12    1    4    4    0    0  0.58148589727E+02  0.26142188468E+01 -0.14067712586E+03  0.15224370716E+03  0.00000000000E+00 0. -1.
         11    1    5    5    0    0 -0.49849203513E+01  0.20150962375E+02  0.32814429897E+02  0.38829080919E+02  0.00000000000E+00 0. -1.
        -12    1    5    5    0    0  0.22087237086E+02 -0.58493019654E+02  0.27586516090E+03  0.28286192107E+03  0.00000000000E+00 0.  1.
          5    1    3    3  501    0 -0.81000005059E+02 -0.88955072431E+01 -0.61712279532E+03  0.62249349215E+03  0.41800000000E+01 0. -1.
         -5    1    3    3    0  501  0.26328311773E+02  0.43258097160E+02 -0.18319848252E+03  0.19011470056E+03  0.41800000000E+01 0. -1.
</event>
<event>
11    1  0.1704459E-009  0.1428150E+03  0.7561462E-02  0.1104455E+00
         22   -1    0    0    0    0  0.00000000000E+00  0.00000000000E+00  0.26527916971E+03  0.26527916971E+03  0.00000000000E+00 0.  1.
         22   -1    0    0    0    0 -0.00000000000E+00 -0.00000000000E+00 -0.54760288633E+03  0.54760288633E+03  0.00000000000E+00 0.  1.
         25    2    1    2    0    0 -0.42996348337E+02 -0.21337305565E+02 -0.19958726812E+03  0.24038879091E+03  0.12509087344E+03 0.  0.
        -24    2    1    2    0    0  0.81375063583E+02 -0.18888478835E+02 -0.30742189738E+03  0.32758483855E+03  0.76321214988E+02 0.  0.
         24    2    1    2    0    0 -0.38378715245E+02  0.40225784400E+02  0.22468544887E+03  0.24490842658E+03  0.80034661000E+02 0.  0.
        -11    1    5    5    0    0  0.14516100161E+02  0.12475061840E+02  0.13985072224E+03  0.14115441489E+03  0.00000000000E+00 0.  1.
         12    1    5    5    0    0 -0.52894815406E+02  0.27750722560E+02  0.84834726632E+02  0.10375401169E+03  0.00000000000E+00 0. -1.
         13    1    4    4    0    0 -0.90759882820E+01 -0.19849454117E+02 -0.45073425816E+02  0.50079817361E+02  0.00000000000E+00 0. -1.
        -14    1    4    4    0    0  0.90451051865E+02  0.96097528202E+00 -0.26234847156E+03  0.27750502119E+03  0.00000000000E+00 0.  1.
          5    1    3    3  501    0 -0.60568849106E+02 -0.15260986197E+02 -0.20967869402E+03  0.21882438234E+03  0.41800000000E+01 0.  1.
         -5    1    3    3    0  501  0.17572500768E+02 -0.60763193683E+01  0.10091425892E+02  0.21564408567E+02  0.41800000000E+01 0.  1.
</event>
<event>
11    1  0.1704459E-009  0.1761874E+03  0.7561462E-02  0.1072769E+00
         22   -1    0    0    0    0  0.00000000000E+00  0.00000000000E+00  0.17669752168E+04  0.17669752168E+04  0.00000000000E+00 0. -1.
         22   -1    0    0    0    0 -0.00000000000E+00 -0.00000000000E+00 -0.39553262513E+02  0.39553262513E+02  0.00000000000E+00 0. -1.
         25    2    1    2    0    0 -0.44641343707E+02  0.83251036399E+01  0.24188819258E+03  0.27607928697E+03  0.12509083926E+03 0.  0.
         24    2    1    2    0    0  0.88538012640E+02  0.14077792259E+03  0.57227238668E+03  0.60104381631E+03  0.78106218667E+02 0.  0.
        -24    2    1    2    0    0 -0.43896668933E+02 -0.14910302623E+03  0.91326137499E+03  0.92940537599E+03  0.74762182320E+02 0.  0.
        -13    1    4    4    0    0  0.13615402444E+02  0.60344473342E+02  0.11325915663E+03  0.12905220341E+03  0.00000000000E+00 0.  1.
         14    1    4    4    0    0  0.74922610196E+02  0.80433449246E+02  0.45901323006E+03  0.47199161289E+03  0.00000000000E+00 0. -1.
         11    1    5    5    0    0 -0.23434429150E+02 -0.68603032562E+02  0.23104916652E+03  0.24215545811E+03  0.00000000000E+00 0. -1.
        -12    1    5    5    0    0 -0.20462239783E+02 -0.80499993666E+02  0.68221220847E+03  0.68724991787E+03  0.00000000000E+00 0.  1.
          5    1    3    3  501    0 -0.61212583439E+02  0.45149354158E+02  0.21311353807E+03  0.22631901613E+03  0.41800000000E+01 0.  1.
         -5    1    3    3    0  501  0.16571239732E+02 -0.36824250518E+02  0.28774654508E+02  0.49760270845E+02  0.41800000000E+01 0.  1.
</event>
<event>
11    1  0.1704459E-009  0.1595470E+04  0.7561462E-02  0.8256654E-01
         22   -1    0    0    0    0  0.00000000000E+00  0.00000000000E+00  0.27673501892E+04  0.27673501892E+04  0.00000000000E+00 0. -1.
         22   -1    0    0    0    0 -0.00000000000E+00 -0.00000000000E+00 -0.22996043972E+03  0.22996043972E+03  0.00000000000E+00 0. -1.
         25    2    1    2    0    0  0.62317450064E+02 -0.61399052669E+03  0.40070499889E+03  0.74637714613E+03  0.12508603712E+03 0.  0.
         24    2    1    2    0    0 -0.15257650410E+03  0.31747560082E+03  0.83377331981E+03  0.90932721854E+03  0.87336675199E+02 0.  0.
        -24    2    1    2    0    0  0.90259054037E+02  0.29651492587E+03  0.13029114308E+04  0.13416062643E+04  0.79128842604E+02 0.  0.
        -13    1    4    4    0    0  0.13932908132E+01  0.38892343794E+02  0.15212717844E+03  0.15702622101E+03  0.00000000000E+00 0.  1.
         14    1    4    4    0    0 -0.15396979491E+03  0.27858325702E+03  0.68164614137E+03  0.75230099753E+03  0.00000000000E+00 0. -1.
         11    1    5    5    0    0  0.43474178639E+02  0.58246312523E+02  0.21594712578E+03  0.22785038570E+03  0.00000000000E+00 0. -1.
        -12    1    5    5    0    0  0.46784875399E+02  0.23826861335E+03  0.10869643050E+04  0.11137558786E+04  0.00000000000E+00 0.  1.
          5    1    3    3  501    0  0.98191530331E+02 -0.48685970267E+03  0.33199994929E+03  0.59742395788E+03  0.41800000000E+01 0. -1.
         -5    1    3    3    0  501 -0.35874080267E+02 -0.12713082402E+03  0.68705049593E+02  0.14895318825E+03  0.41800000000E+01 0. -1.
</event>
<event>
11    1  0.1704459E-009  0.1899089E+03  0.7561462E-02  0.1061898E+00
         22   -1    0    0    0    0  0.00000000000E+00  0.00000000000E+00  0.33718816564E+03  0.33718816564E+03  0.00000000000E+00 0. -1.
         22   -1    0    0    0    0 -0.00000000000E+00 -0.00000000000E+00 -0.37310040972E+03  0.37310040972E+03  0.00000000000E+00 0. -1.
         25    2    1    2    0    0 -0.13792625386E+03 -0.17192302514E+02 -0.27725383964E+03  0.33441945422E+03  0.12508977975E+03 0.  0.
        -24    2    1    2    0    0  0.17622585265E+03 -0.12954833235E+02  0.18384978730E+03  0.26861112233E+03  0.84426369717E+02 0.  0.
         24    2    1    2    0    0 -0.38299598791E+02  0.30147135749E+02  0.57491808260E+02  0.10725799881E+03  0.76310295698E+02 0.  0.
        -13    1    5    5    0    0 -0.10542135942E+02  0.53305593388E+02  0.36437356120E+02  0.65424031041E+02  0.00000000000E+00 0.  1.
         14    1    5    5    0    0 -0.27757462849E+02 -0.23158457639E+02  0.21054452140E+02  0.41833967765E+02  0.00000000000E+00 0. -1.
         11    1    4    4    0    0  0.70039409665E+02  0.31448408642E+02  0.47940672435E+02  0.90514249629E+02  0.00000000000E+00 0. -1.
        -12    1    4    4    0    0  0.10618644298E+03 -0.44403241877E+02  0.13590911487E+03  0.17809687271E+03  0.00000000000E+00 0.  1.
          5    1    3    3  501    0 -0.85664725904E+02  0.13328433999E+02 -0.25571539305E+03  0.27004430573E+03  0.41800000000E+01 0. -1.
         -5    1    3    3    0  501 -0.52261527956E+02 -0.30520736513E+02 -0.21538446591E+02  0.64375148490E+02  0.41800000000E+01 0. -1.
</event>
<event>
11    1  0.1704459E-009  0.1735130E+03  0.7561462E-02  0.1075014E+00
         22   -1    0    0    0    0  0.00000000000E+00  0.00000000000E+00  0.83214241085E+03  0.83214241085E+03  0.00000000000E+00 0. -1.
         22   -1    0    0    0    0 -0.00000000000E+00 -0.00000000000E+00 -0.10519612599E+03  0.10519612599E+03  0.00000000000E+00 0.  1.
         25    2    1    2    0    0 -0.46240047009E+02 -0.11160402315E+03  0.27194286868E+02  0.17601011829E+03  0.12508570090E+03 0.  0.
         24    2    1    2    0    0  0.59609106573E+02  0.10399443453E+03  0.15951929779E+03  0.21495403917E+03  0.79942132741E+02 0.  0.
        -24    2    1    2    0    0 -0.13369059564E+02  0.76095886196E+01  0.54023270020E+03  0.54637437939E+03  0.80230633134E+02 0.  0.
        -13    1    4    4    0    0  0.95160615892E+01 -0.13362903885E+02  0.16057393008E+02  0.22955663759E+02  0.00000000000E+00 0.  1.
         14    1    4    4    0    0  0.50093044984E+02  0.11735733842E+03  0.14346190478E+03  0.19199837541E+03  0.00000000000E+00 0. -1.
         13    1    5    5    0    0 -0.39004905221E+02  0.13954575019E+02  0.46097269542E+03  0.46283035631E+03  0.00000000000E+00 0. -1.
        -14    1    5    5    0    0  0.25635845657E+02 -0.63449863996E+01  0.79260004779E+02  0.83544023081E+02  0.00000000000E+00 0.  1.
          5    1    3    3  501    0  0.24618690146E+02 -0.40695527416E+02  0.54077628852E+02  0.72139227876E+02  0.41800000000E+01 0. -1.
         -5    1    3    3    0  501 -0.70858737155E+02 -0.70908495738E+02 -0.26883341984E+02  0.10387089041E+03  0.41800000000E+01 0. -1.
</event>
<event>
11    1  0.1704459E-009  0.1967878E+03  0.7561462E-02  0.1056819E+00
         22   -1    0    0    0    0  0.00000000000E+00  0.00000000000E+00  0.54702427325E+03  0.54702427325E+03  0.00000000000E+00 0. -1.
         22   -1    0    0    0    0 -0.00000000000E+00 -0.00000000000E+00 -0.10353534521E+03  0.10353534521E+03  0.00000000000E+00 0. -1.
         25    2    1    2    0    0  0.79060450014E+02 -0.12710512944E+03  0.14207890798E+03  0.24132921065E+03  0.12508838127E+03 0.  0.
         24    2    1    2    0    0 -0.81036110347E+02  0.13075385096E+03  0.11885640081E+03  0.21037227282E+03  0.80412862379E+02 0.  0.
        -24    2    1    2    0    0  0.19756603332E+01 -0.36487215182E+01  0.18255361925E+03  0.19885813499E+03  0.78749714587E+02 0.  0.
        -13    1    4    4    0    0 -0.28117160512E+02  0.11184572662E+02 -0.45221178843E+01  0.30596060711E+02  0.00000000000E+00 0.  1.
         14    1    4    4    0    0 -0.52918949836E+02  0.11956927830E+03  0.12337851869E+03  0.17977621211E+03  0.00000000000E+00 0. -1.
         13    1    5    5    0    0  0.19871278876E+02  0.32720468313E+02  0.91974979711E+02  0.99623760537E+02  0.00000000000E+00 0. -1.
        -14    1    5    5    0    0 -0.17895618543E+02 -0.36369189831E+02  0.90578639544E+02  0.99234374456E+02  0.00000000000E+00 0.  1.
          5    1    3    3  501    0 -0.26880026391E+02 -0.50741348493E+02  0.74718474790E+02  0.94326789093E+02  0.41800000000E+01 0.  1.
         -5    1    3    3    0  501  0.10594047641E+03 -0.76363780951E+02  0.67360433193E+02  0.14700242155E+03  0.41800000000E+01 0.  1.
</event>
<event>
11    1  0.1704459E-009  0.4241889E+03  0.7561462E-02  0.9580965E-01
         22   -1    0    0    0    0  0.00000000000E+00  0.00000000000E+00  0.73694235027E+03  0.73694235027E+03  0.00000000000E+00 0.  1.
         22   -1    0    0    0    0 -0.00000000000E+00 -0.00000000000E+00 -0.28347705909E+03  0.28347705909E+03  0.00000000000E+00 0.  1.
         25    2    1    2    0    0  0.23623137226E+02 -0.40001637239E+02 -0.24812136531E+02  0.13572601007E+03  0.12509086336E+03 0.  0.
         24    2    1    2    0    0  0.14175827796E+03 -0.23936111210E+03 -0.13346387180E+02  0.29017576868E+03  0.81453663650E+02 0.  0.
        -24    2    1    2    0    0 -0.16538141519E+03  0.27936274934E+03  0.49162381489E+03  0.59451763061E+03  0.79766406026E+02 0.  0.
        -11    1    4    4    0    0  0.11094754356E+03 -0.10761770739E+03 -0.64066857131E+01  0.15469962504E+03  0.00000000000E+00 0.  1.
         12    1    4    4    0    0  0.30810734399E+02 -0.13174340471E+03 -0.69397014668E+01  0.13547614364E+03  0.00000000000E+00 0. -1.
         11    1    5    5    0    0 -0.38511259730E+02  0.91705461751E+02  0.93760402926E+02  0.13668950946E+03  0.00000000000E+00 0. -1.
        -12    1    5    5    0    0 -0.12687015546E+03  0.18765728759E+03  0.39786341196E+03  0.45782812114E+03  0.00000000000E+00 0.  1.
          5    1    3    3  501    0  0.20631845988E+02 -0.63310031215E+02  0.32079931177E+02  0.74029909534E+02  0.41800000000E+01 0.  1.
         -5    1    3    3    0  501  0.29912912383E+01  0.23308393976E+02 -0.56892067708E+02  0.61696100534E+02  0.41800000000E+01 0.  1.
</event>
<event>
11    1  0.2793019E-009  0.2961073E+04  0.7561462E-02  0.7757819E-01
         22   -1    0    0    0    0  0.00000000000E+00  0.00000000000E+00  0.13522635713E+04  0.13522635713E+04  0.00000000000E+00 0.  1.
         22   -1    0    0    0    0 -0.00000000000E+00 -0.00000000000E+00 -0.16209768976E+04  0.16209768976E+04  0.00000000000E+00 0.  1.
         25    2    1    2    0    0  0.88129043184E+03 -0.45713444951E+02 -0.12828606984E+04  0.15620948603E+04  0.12508491763E+03 0.  0.
        -24    2    1    2    0    0 -0.69515911523E+03  0.20040232556E+03  0.75344241008E+03  0.10469123389E+04  0.70304284357E+02 0.  0.
         24    2    1    2    0    0 -0.18613131661E+03 -0.15468888061E+03  0.26070496203E+03  0.36423326968E+03  0.78264172583E+02 0.  0.
        -13    1    5    5    0    0 -0.47011590791E+02 -0.11463076433E+01  0.52997923240E+02  0.70853253684E+02  0.00000000000E+00 0.  1.
         14    1    5    5    0    0 -0.13911972582E+03 -0.15354257296E+03  0.20770703879E+03  0.29338001600E+03  0.00000000000E+00 0. -1.
         11    1    4    4    0    0 -0.42290745043E+03  0.15396131937E+03  0.44557280275E+03  0.63331660490E+03  0.00000000000E+00 0. -1.
        -12    1    4    4    0    0 -0.27225166479E+03  0.46441006186E+02  0.30786960734E+03  0.41359573397E+03  0.00000000000E+00 0.  1.
          5    1    3    3  501    0  0.69973323130E+03 -0.12737443103E+02 -0.93049405590E+03  0.11643133160E+04  0.41800000000E+01 0. -1.
         -5    1    3    3    0  501  0.18155720054E+03 -0.32976001848E+02 -0.35236664253E+03  0.39778154424E+03  0.41800000000E+01 0. -1.
</event>
<event>
11    1  0.1704459E-009  0.2282254E+03  0.7561462E-02  0.1036184E+00
         22   -1    0    0    0    0  0.00000000000E+00  0.00000000000E+00  0.32391095212E+03  0.32391095212E+03  0.00000000000E+00 0.  1.
         22   -1    0    0    0    0 -0.00000000000E+00 -0.00000000000E+00 -0.30279672971E+04  0.30279672971E+04  0.00000000000E+00 0. -1.
         25    2    1    2    0    0  0.75728855691E+02  0.19460842085E+03 -0.25666843852E+04  0.25782015570E+04  0.12508892047E+03 0.  0.
        -24    2    1    2    0    0 -0.72340679162E+02 -0.12483159172E+03 -0.43049451290E+03  0.46130670361E+03  0.81622601060E+02 0.  0.
         24    2    1    2    0    0 -0.33881765287E+01 -0.69776829127E+02  0.29312255309E+03  0.31236998868E+03  0.82303663796E+02 0.  0.
        -13    1    5    5    0    0 -0.25724678739E+02 -0.67223393932E+02  0.27255643864E+03  0.28190025902E+03  0.00000000000E+00 0.  1.
         14    1    5    5    0    0  0.22336502210E+02 -0.25534351953E+01  0.20566114448E+02  0.30469729664E+02  0.00000000000E+00 0. -1.
         13    1    4    4    0    0 -0.23054540276E+02 -0.10355082725E+03 -0.22251056994E+03  0.24650606359E+03  0.00000000000E+00 0. -1.
        -14    1    4    4    0    0 -0.49286138886E+02 -0.21280764469E+02 -0.20798394296E+03  0.21480064002E+03  0.00000000000E+00 0.  1.
          5    1    3    3  501    0  0.44873603527E+02  0.71081211125E+02 -0.17128116663E+04  0.17148782626E+04  0.41800000000E+01 0. -1.
         -5    1    3    3    0  501  0.30855252163E+02  0.12352720973E+03 -0.85387271890E+03  0.86332329438E+03  0.41800000000E+01 0. -1.
</event>
<event>
11    1  0.1704459E-009  0.1603362E+03  0.7561462E-02  0.1086761E+00
         22   -1    0    0    0    0  0.00000000000E+00  0.00000000000E+00  0.37422336485E+03  0.37422336485E+03  0.00000000000E+00 0.  1.
         22   -1    0    0    0    0 -0.00000000000E+00 -0.00000000000E+00 -0.25358380964E+03  0.25358380964E+03  0.00000000000E+00 0. -1.
         25    2    1    2    0    0 -0.10201246495E+03 -0.13898468001E+02 -0.15063440298E+03  0.22122001300E+03  0.12509140806E+03 0.  0.
         24    2    1    2    0    0  0.95464735474E+02 -0.52451002175E+02  0.35220978812E+02  0.14899483959E+03  0.95364152218E+02 0.  0.
        -24    2    1    2    0    0  0.65477294801E+01  0.66349470176E+02  0.23605297938E+03  0.25759232189E+03  0.78661745913E+02 0.  0.
        -13    1    4    4    0    0 -0.15992208055E+02 -0.24862169476E+02  0.28513558033E+01  0.29698626558E+02  0.00000000000E+00 0.  1.
         14    1    4    4    0    0  0.11145694353E+03 -0.27588832699E+02  0.32369623009E+02  0.11929621303E+03  0.00000000000E+00 0. -1.
         11    1    5    5    0    0 -0.13732165154E+02  0.17761806092E+02  0.84654514866E+01  0.23994123955E+02  0.00000000000E+00 0. -1.
        -12    1    5    5    0    0  0.20279894634E+02  0.48587664084E+02  0.22758752789E+03  0.23359819794E+03  0.00000000000E+00 0.  1.
          5    1    3    3  501    0 -0.22727208921E+02 -0.62401236675E+02 -0.82013196368E+02  0.10561286447E+03  0.41800000000E+01 0. -1.
         -5    1    3    3    0  501 -0.79285256033E+02  0.48502768674E+02 -0.68621206616E+02  0.11560714853E+03  0.41800000000E+01 0. -1.
</event>
<event>
11    1  0.1704459E-009  0.5847407E+04  0.7561462E-02  0.7275096E-01
         22   -1    0    0    0    0  0.00000000000E+00  0.00000000000E+00  0.26618160954E+04  0.26618160954E+04  0.00000000000E+00 0. -1.
         22   -1    0    0    0    0 -0.00000000000E+00 -0.00000000000E+00 -0.32113568432E+04  0.32113568432E+04  0.00000000000E+00 0. -1.
         25    2    1    2    0    0 -0.12346991747E+03  0.22028251633E+04 -0.21645417179E+04  0.30933106887E+04  0.12508656194E+03 0.  0.
         24    2    1    2    0    0  0.14983624634E+03 -0.21480664559E+04  0.15864640751E+04  0.26758469769E+04  0.81537613159E+02 0.  0.
        -24    2    1    2    0    0 -0.26366328865E+02 -0.54758707432E+02  0.28536894992E+02  0.10401527309E+03  0.79442578780E+02 0.  0.
        -13    1    4    4    0    0  0.54898217151E+00 -0.41313492251E+03  0.32339664580E+03  0.52465813259E+03  0.00000000000E+00 0.  1.
         14    1    4    4    0    0  0.14928726416E+03 -0.17349315334E+04  0.12630674293E+04  0.21511888443E+04  0.00000000000E+00 0. -1.
         11    1    5    5    0    0  0.27667029948E+02 -0.28377171349E+02  0.76707220728E+01  0.40367912715E+02  0.00000000000E+00 0. -1.
        -12    1    5    5    0    0 -0.54033358813E+02 -0.26381536083E+02  0.20866172919E+02  0.63647360377E+02  0.00000000000E+00 0.  1.
          5    1    3    3  501    0 -0.97046720215E+02  0.15998697767E+04 -0.16480801142E+04  0.22989534366E+04  0.41800000000E+01 0. -1.
         -5    1    3    3    0  501 -0.26423197257E+02  0.60295538656E+03 -0.51646160368E+03  0.79435725213E+03  0.41800000000E+01 0. -1.
</event>
<event>
11    1  0.1704459E-009  0.2461019E+03  0.7561462E-02  0.1025997E+00
         22   -1    0    0    0    0  0.00000000000E+00  0.00000000000E+00  0.13188215436E+04  0.13188215436E+04  0.00000000000E+00 0. -1.
         22   -1    0    0    0    0 -0.00000000000E+00 -0.00000000000E+00 -0.82647545724E+03  0.82647545724E+03  0.00000000000E+00 0. -1.
         25    2    1    2    0    0 -0.12479020296E+03 -0.15112162618E+03 -0.42784583834E+03  0.48693747695E+03  0.12508279024E+03 0.  0.
        -24    2    1    2    0    0  0.14858413288E+03  0.18142289346E+03 -0.32586020967E+03  0.40938389220E+03  0.80117314773E+02 0.  0.
         24    2    1    2    0    0 -0.23793929929E+02 -0.30301267286E+02  0.12460521344E+04  0.12489756317E+04  0.76222628633E+02 0.  0.
        -11    1    5    5    0    0 -0.43933100410E+02 -0.42073231457E+02  0.79700287894E+03  0.79932087622E+03  0.00000000000E+00 0.  1.
         12    1    5    5    0    0  0.20139170481E+02  0.11771964171E+02  0.44904925543E+03  0.44965475548E+03  0.00000000000E+00 0. -1.
         11    1    4    4    0    0  0.15206289325E+03  0.18624536943E+03 -0.30912185656E+03  0.39162071362E+03  0.00000000000E+00 0. -1.
        -12    1    4    4    0    0 -0.34787603637E+01 -0.48224759673E+01 -0.16738353112E+02  0.17763178573E+02  0.00000000000E+00 0.  1.
          5    1    3    3  501    0 -0.34948784228E+01 -0.95827547932E+02 -0.21939545208E+03  0.23947227378E+03  0.41800000000E+01 0. -1.
         -5    1    3    3    0  501 -0.12129532453E+03 -0.55294078245E+02 -0.20845038627E+03  0.24746520316E+03  0.41800000000E+01 0. -1.
</event>
<event>
11    1  0.1704459E-009  0.3598801E+03  0.7561462E-02  0.9776164E-01
         22   -1    0    0    0    0  0.00000000000E+00  0.00000000000E+00  0.67121764947E+03  0.67121764947E+03  0.00000000000E+00 0. -1.
         22   -1    0    0    0    0 -0.00000000000E+00 -0.00000000000E+00 -0.30950141683E+03  0.30950141683E+03  0.00000000000E+00 0. -1.
         25    2    1    2    0    0 -0.44814198946E+02 -0.29830659262E+03  0.61954579600E+02  0.33238505436E+03  0.12508524615E+03 0.  0.
        -24    2    1    2    0    0  0.39959545345E+02  0.37828056387E+03  0.74838748485E+02  0.39637041536E+03  0.82557359644E+02 0.  0.
         24    2    1    2    0    0  0.48546536007E+01 -0.79973971252E+02  0.22492290456E+03  0.25196359657E+03  0.80473208367E+02 0.  0.
        -13    1    5    5    0    0  0.16723207261E+02  0.67499268270E+01  0.85192463667E+02  0.87080325211E+02  0.00000000000E+00 0.  1.
         14    1    5    5    0    0 -0.11868553661E+02 -0.86723898079E+02  0.13973044089E+03  0.16488327136E+03  0.00000000000E+00 0. -1.
         11    1    4    4    0    0  0.20162390704E+02  0.33824403015E+03  0.87475162434E+02  0.34995349687E+03  0.00000000000E+00 0. -1.
        -12    1    4    4    0    0  0.19797154641E+02  0.40036533716E+02 -0.12636413949E+02  0.46416918482E+02  0.00000000000E+00 0.  1.
          5    1    3    3  501    0 -0.50867026021E+02 -0.32274963118E+02  0.13473534590E+02  0.61871933175E+02  0.41800000000E+01 0. -1.
         -5    1    3    3    0  501  0.60528270755E+01 -0.26603162950E+03  0.48481045010E+02  0.27051312119E+03  0.41800000000E+01 0. -1.
</event>
<event>
11    1  0.1704459E-009  0.1800669E+03  0.7561462E-02  0.1069589E+00
         22   -1    0    0    0    0  0.00000000000E+00  0.00000000000E+00  0.44178676512E+02  0.44178676512E+02  0.00000000000E+00 0. -1.
         22   -1    0    0    0    0 -0.00000000000E+00 -0.00000000000E+00 -0.27480751811E+04  0.27480751811E+04  0.00000000000E+00 0.  1.
         25    2    1    2    0    0  0.28848910177E+02  0.10683232434E+03 -0.12523355604E+04  0.12634228380E+04  0.12508999404E+03 0.  0.
         24    2    1    2    0    0 -0.37643840394E+02 -0.14099933232E+03 -0.14265499244E+04  0.14361959646E+04  0.79475099535E+02 0.  0.
        -24    2    1    2    0    0  0.87949302169E+01  0.34167007977E+02 -0.25011019799E+02  0.92635055034E+02  0.81920492419E+02 0.  0.
        -11    1    4    4    0    0 -0.24575541614E+02 -0.14120348783E+03 -0.13901812588E+04  0.13975501116E+04  0.00000000000E+00 0.  1.
         12    1    4    4    0    0 -0.13068298780E+02  0.20415550598E+00 -0.36368665624E+02  0.38645852970E+02  0.00000000000E+00 0. -1.
         13    1    5    5    0    0 -0.11667306620E+02 -0.16078419582E+02 -0.32274894895E+02  0.37898686792E+02  0.00000000000E+00 0. -1.
        -14    1    5    5    0    0  0.20462236837E+02  0.50245427560E+02  0.72638750961E+01  0.54736368243E+02  0.00000000000E+00 0.  1.
          5    1    3    3  501    0 -0.36133292539E+02  0.18158987334E+02 -0.63949302939E+03  0.64078402812E+03  0.41800000000E+01 0.  1.
         -5    1    3    3    0  501  0.64982202717E+02  0.88673337009E+02 -0.61284253105E+03  0.62263880993E+03  0.41800000000E+01 0.  1.
</event>
<event>
11    1  0.1704459E-009  0.1924833E+03  0.7561462E-02  0.1059970E+00
         22   -1    0    0    0    0  0.00000000000E+00  0.00000000000E+00  0.13482521138E+04  0.13482521138E+04  0.00000000000E+00 0.  1.
         22   -1    0    0    0    0 -0.00000000000E+00 -0.00000000000E+00 -0.37265178136E+02  0.37265178136E+02  0.00000000000E+00 0.  1.
         25    2    1    2    0    0 -0.38968933991E+02  0.12660937976E+03  0.51925489161E+03  0.55029229198E+03  0.12508977294E+03 0.  0.
         24    2    1    2    0    0  0.32522445756E+02 -0.15591017288E+03  0.47430304341E+03  0.50615143365E+03  0.76551977850E+02 0.  0.
        -24    2    1    2    0    0  0.64464882340E+01  0.29300793117E+02  0.31742900069E+03  0.32907356635E+03  0.81413438097E+02 0.  0.
        -13    1    4    4    0    0  0.33701535076E+02 -0.15091369890E+03  0.47620134014E+03  0.50067799466E+03  0.00000000000E+00 0.  1.
         14    1    4    4    0    0 -0.11790893192E+01 -0.49964739820E+01 -0.18982967352E+01  0.54734389894E+01  0.00000000000E+00 0. -1.
         13    1    5    5    0    0 -0.23587689030E+02 -0.15087949547E+02  0.61227366732E+02  0.67326189052E+02  0.00000000000E+00 0. -1.
        -14    1    5    5    0    0  0.30034177264E+02  0.44388742664E+02  0.25620163396E+03  0.26174737730E+03  0.00000000000E+00 0.  1.
          5    1    3    3  501    0 -0.82987942422E+02  0.96930042265E+02  0.33530037490E+03  0.35878439973E+03  0.41800000000E+01 0.  1.
         -5    1    3    3    0  501  0.44019008431E+02  0.29679337497E+02  0.18395451671E+03  0.19150789226E+03  0.41800000000E+01 0.  1.
</event>
<event>
11    1  0.1704459E-009  0.1434751E+04  0.7561462E-02  0.8348939E-01
         22   -1    0    0    0    0  0.00000000000E+00  0.00000000000E+00  0.36423377174E+03  0.36423377174E+03  0.00000000000E+00 0.  1.
         22   -1    0    0    0    0 -0.00000000000E+00 -0.00000000000E+00 -0.14129040045E+04  0.14129040045E+04  0.00000000000E+00 0.  1.
         25    2    1    2    0    0  0.44264998689E+03 -0.26357477896E+03 -0.11009613423E+04  0.12219550610E+04  0.12509044204E+03 0.  0.
         24    2    1    2    0    0 -0.30511875053E+03  0.12157944765E+03  0.35793445963E+02  0.34199499748E+03  0.88319836435E+02 0.  0.
        -24    2    1    2    0    0 -0.13753123636E+03  0.14199533131E+03  0.16497663590E+02  0.21318771782E+03  0.78098111616E+02 0.  0.
        -11    1    4    4    0    0 -0.27226625422E+03  0.10680818385E+03  0.18081588959E+01  0.29247251284E+03  0.00000000000E+00 0.  1.
         12    1    4    4    0    0 -0.32852496310E+02  0.14771263804E+02  0.33985287067E+02  0.49522484642E+02  0.00000000000E+00 0. -1.
         13    1    5    5    0    0 -0.90960934618E+02  0.83625378171E+02 -0.27409762386E+02  0.12656378066E+03  0.00000000000E+00 0. -1.
        -14    1    5    5    0    0 -0.46570301741E+02  0.58369953135E+02  0.43907425976E+02  0.86623937160E+02  0.00000000000E+00 0.  1.
          5    1    3    3  501    0  0.15222116020E+03 -0.15953868717E+03 -0.42099856265E+03  0.47526954086E+03  0.41800000000E+01 0. -1.
         -5    1    3    3    0  501  0.29042882669E+03 -0.10403609179E+03 -0.67996277969E+03  0.74668552010E+03  0.41800000000E+01 0. -1.
</event>
<event>
11    1  0.1704459E-009  0.2273229E+03  0.7561462E-02  0.1036725E+00
         22   -1    0    0    0    0  0.00000000000E+00  0.00000000000E+00  0.53350264150E+03  0.53350264150E+03  0.00000000000E+00 0. -1.
         22   -1    0    0    0    0 -0.00000000000E+00 -0.00000000000E+00 -0.15571035388E+04  0.15571035388E+04  0.00000000000E+00 0.  1.
         25    2    1    2    0    0 -0.14830701376E+03 -0.11990255143E+03 -0.15139474311E+04  0.15310300964E+04  0.12507893499E+03 0.  0.
        -24    2    1    2    0    0  0.13535084874E+03  0.77851362737E+02  0.31624096678E+03  0.36277161630E+03  0.84936503293E+02 0.  0.
         24    2    1    2    0    0  0.12956165023E+02  0.42051188690E+02  0.17410556705E+03  0.19680446751E+03  0.80517608451E+02 0.  0.
        -11    1    5    5    0    0  0.35559359693E+02  0.41638067897E+01  0.32037006730E+02  0.48043471450E+02  0.00000000000E+00 0.  1.
         12    1    5    5    0    0 -0.22603194670E+02  0.37887381901E+02  0.14206856032E+03  0.14876099606E+03  0.00000000000E+00 0. -1.
         13    1    4    4    0    0  0.99501055620E+02  0.37987391676E+02  0.27569727031E+03  0.29555454125E+03  0.00000000000E+00 0. -1.
        -14    1    4    4    0    0  0.35849793120E+02  0.39863971061E+02  0.40543696465E+02  0.67217075052E+02  0.00000000000E+00 0.  1.
          5    1    3    3  501    0 -0.13441718346E+03 -0.63947230010E+02 -0.13275410597E+04  0.13358667467E+04  0.41800000000E+01 0.  1.
         -5    1    3    3    0  501 -0.13889830304E+02 -0.55955321418E+02 -0.18640637142E+03  0.19516334975E+03  0.41800000000E+01 0.  1.
</event>
<event>
11    1  0.1704459E-009  0.1790580E+03  0.7561462E-02  0.1070407E+00
         22   -1    0    0    0    0  0.00000000000E+00  0.00000000000E+00  0.26677477749E+03  0.26677477749E+03  0.00000000000E+00 0.  1.
         22   -1    0    0    0    0 -0.00000000000E+00 -0.00000000000E+00 -0.42360389812E+03  0.42360389812E+03  0.00000000000E+00 0. -1.
         25    2    1    2    0    0 -0.39396638707E+02  0.14219871133E+03 -0.21370685617E+03  0.28825173604E+03  0.12508346938E+03 0.  0.
        -24    2    1    2    0    0  0.67360094662E+02 -0.94123671017E+02 -0.13017324095E+03  0.19164333338E+03  0.79908990545E+02 0.  0.
         24    2    1    2    0    0 -0.27963455955E+02 -0.48075040309E+02  0.18705097649E+03  0.21048360619E+03  0.78880392365E+02 0.  0.
        -13    1    5    5    0    0  0.10437976418E+02  0.16947458638E+01  0.11237344538E+03  0.11286990184E+03  0.00000000000E+00 0.  1.
         14    1    5    5    0    0 -0.38401432374E+02 -0.49769786173E+02  0.74677531108E+02  0.97613704348E+02  0.00000000000E+00 0. -1.
         11    1    4    4    0    0  0.54795841800E+02 -0.96315827376E+02 -0.72140156473E+02  0.13222528146E+03  0.00000000000E+00 0. -1.
        -12    1    4    4    0    0  0.12564252862E+02  0.21921563591E+01 -0.58033084478E+02  0.59418051916E+02  0.00000000000E+00 0.  1.
          5    1    3    3  501    0  0.54091735180E+01  0.14709968326E+03 -0.15103860858E+03  0.21094480238E+03  0.41800000000E+01 0. -1.
         -5    1    3    3    0  501 -0.44805812225E+02 -0.49009719316E+01 -0.62668247592E+02  0.77306933656E+02  0.41800000000E+01 0. -1.
</event>
<event>
11    1  0.1704459E-009  0.1376073E+03  0.7561462E-02  0.1110260E+00
         22   -1    0    0    0    0  0.00000000000E+00  0.00000000000E+00  0.97692190544E+03  0.97692190544E+03  0.00000000000E+00 0. -1.
         22   -1    0    0    0    0 -0.00000000000E+00 -0.00000000000E+00 -0.23199022276E+03  0.23199022276E+03  0.00000000000E+00 0. -1.
         25    2    1    2    0    0 -0.33516714768E+02 -0.38523727347E+02 -0.13790062992E+03  0.19304618963E+03  0.12507117918E+03 0.  0.
        -24    2    1    2    0    0  0.70713539183E+02  0.22460138537E+02 -0.17100536087E+02  0.11162887584E+03  0.81631581762E+02 0.  0.
         24    2    1    2    0    0 -0.37196824415E+02  0.16063588810E+02  0.89993284869E+03  0.90423706272E+03  0.78255292505E+02 0.  0.
        -11    1    5    5    0    0  0.20688341831E+02  0.10863402326E+02  0.12769946686E+03  0.12981977828E+03  0.00000000000E+00 0.  1.
         12    1    5    5    0    0 -0.57885166246E+02  0.52001864835E+01  0.77223338183E+03  0.77441728443E+03  0.00000000000E+00 0. -1.
         11    1    4    4    0    0  0.10208825305E+02  0.41395125026E+02 -0.22120237699E+02  0.48032087253E+02  0.00000000000E+00 0. -1.
        -12    1    4    4    0    0  0.60504713878E+02 -0.18934986489E+02  0.50197016126E+01  0.63596788591E+02  0.00000000000E+00 0.  1.
          5    1    3    3  501    0 -0.68935375061E+02 -0.30102464072E+02 -0.13704909650E+03  0.15639108520E+03  0.41800000000E+01 0. -1.
         -5    1    3    3    0  501  0.35418660293E+02 -0.84212632747E+01 -0.85153342541E+00  0.36655104437E+02  0.41800000000E+01 0. -1.
</event>
<event>
11    1  0.1704459E-009  0.1871151E+03  0.7561462E-02  0.1064029E+00
         22   -1    0    0    0    0  0.00000000000E+00  0.00000000000E+00  0.31890204827E+03  0.31890204827E+03  0.00000000000E+00 0.  1.
         22   -1    0    0    0    0 -0.00000000000E+00 -0.00000000000E+00 -0.21743979462E+03  0.21743979462E+03  0.00000000000E+00 0. -1.
         25    2    1    2    0    0  0.13291079798E+03 -0.39172110459E+01 -0.77634507313E+02  0.19837640561E+03  0.12508180049E+03 0.  0.
        -24    2    1    2    0    0 -0.14790087235E+03  0.49480006028E+02  0.59149600833E+02  0.18548102528E+03  0.81127038786E+02 0.  0.
         24    2    1    2    0    0  0.14990074373E+02 -0.45562794982E+02  0.11994716014E+03  0.15248441200E+03  0.81015455702E+02 0.  0.
        -13    1    5    5    0    0  0.13258081258E+01 -0.38983606802E+02  0.12903672929E+03  0.13480340082E+03  0.00000000000E+00 0.  1.
         14    1    5    5    0    0  0.13664266247E+02 -0.65791881804E+01 -0.90895691515E+01  0.17681011186E+02  0.00000000000E+00 0. -1.
         11    1    4    4    0    0 -0.32416316327E+02 -0.20378708690E+02  0.43324474707E+00  0.38292258135E+02  0.00000000000E+00 0. -1.
        -12    1    4    4    0    0 -0.11548455602E+03  0.69858714718E+02  0.58716356086E+02  0.14718876715E+03  0.00000000000E+00 0.  1.
          5    1    3    3  501    0 -0.33415493422E+01  0.17189763488E+02 -0.55907682807E+02  0.58734958224E+02  0.41800000000E+01 0. -1.
         -5    1    3    3    0  501  0.13625234732E+03 -0.21106974534E+02 -0.21726824506E+02  0.13964144738E+03  0.41800000000E+01 0. -1.
</event>
<event>
11    1  0.1704459E-009  0.1773619E+03  0.7561462E-02  0.1071797E+00
         22   -1    0    0    0    0  0.00000000000E+00  0.00000000000E+00  0.13450310509E+03  0.13450310509E+03  0.00000000000E+00 0.  1.
         22   -1    0    0    0    0 -0.00000000000E+00 -0.00000000000E+00 -0.11113756068E+04  0.11113756068E+04  0.00000000000E+00 0.  1.
         25    2    1    2    0    0  0.12742497996E+03  0.26907410393E+02 -0.98772853386E+03  0.10040996509E+04  0.12508924017E+03 0.  0.
         24    2    1    2    0    0 -0.58157932575E+02  0.47747453624E+02 -0.78792740409E+01  0.11057833158E+03  0.80643164666E+02 0.  0.
        -24    2    1    2    0    0 -0.69267047389E+02 -0.74654864017E+02  0.18735306197E+02  0.13120072943E+03  0.80568896787E+02 0.  0.
        -13    1    4    4    0    0 -0.67906682306E+02  0.35131945633E+02 -0.30992964654E+02  0.82499302808E+02  0.00000000000E+00 0.  1.
         14    1    4    4    0    0  0.97487497314E+01  0.12615507991E+02  0.23113690613E+02  0.28079028775E+02  0.00000000000E+00 0. -1.
         13    1    5    5    0    0 -0.21568987365E+02 -0.26491038657E+02 -0.31783818506E+02  0.46660555761E+02  0.00000000000E+00 0. -1.
        -14    1    5    5    0    0 -0.47698060024E+02 -0.48163825360E+02  0.50519124703E+02  0.84540173670E+02  0.00000000000E+00 0.  1.
          5    1    3    3  501    0  0.60608941964E+02  0.73762344625E+02 -0.43573204035E+03  0.44608767156E+03  0.41800000000E+01 0. -1.
         -5    1    3    3    0  501  0.66816037999E+02 -0.46854934232E+02 -0.55199649351E+03  0.55801197930E+03  0.41800000000E+01 0. -1.
</event>
<event>
11    1  0.1704459E-009  0.1753241E+03  0.7561462E-02  0.1073489E+00
         22   -1    0    0    0    0  0.00000000000E+00  0.00000000000E+00  0.85486690108E+03  0.85486690108E+03  0.00000000000E+00 0.  1.
         22   -1    0    0    0    0 -0.00000000000E+00 -0.00000000000E+00 -0.10438468375E+04  0.10438468375E+04  0.00000000000E+00 0. -1.
         25    2    1    2    0    0 -0.11552286023E+02 -0.89869881223E+02 -0.99877371935E+03  0.10106467174E+04  0.12509114332E+03 0.  0.
         24    2    1    2    0    0 -0.12266473425E+03  0.13868160115E+03  0.41491881967E+03  0.46170066244E+03  0.82040546412E+02 0.  0.
        -24    2    1    2    0    0  0.13421702027E+03 -0.48811719926E+02  0.39487496320E+03  0.42636635874E+03  0.73927280294E+02 0.  0.
        -13    1    4    4    0    0 -0.13116681431E+03  0.11086552828E+03  0.37344645031E+03  0.41104519190E+03  0.00000000000E+00 0.  1.
         14    1    4    4    0    0  0.85020800577E+01  0.27816072869E+02  0.41472369365E+02  0.50655470543E+02  0.00000000000E+00 0. -1.
         11    1    5    5    0    0  0.12150168093E+02 -0.29859955102E+02  0.13251314576E+03  0.13637806753E+03  0.00000000000E+00 0. -1.
        -12    1    5    5    0    0  0.12206685218E+03 -0.18951764824E+02  0.26236181744E+03  0.28998829122E+03  0.00000000000E+00 0.  1.
          5    1    3    3  501    0  0.19049572093E+02 -0.62465678168E+02 -0.91412410370E+03  0.91646341799E+03  0.41800000000E+01 0. -1.
         -5    1    3    3    0  501 -0.30601858116E+02 -0.27404203055E+02 -0.84649615652E+02  0.94183299450E+02  0.41800000000E+01 0. -1.
</event>
<event>
11    1  0.1704459E-009  0.5979500E+03  0.7561462E-02  0.9197881E-01
         22   -1    0    0    0    0  0.00000000000E+00  0.00000000000E+00  0.28227052131E+04  0.28227052131E+04  0.00000000000E+00 0. -1.
         22   -1    0    0    0    0 -0.00000000000E+00 -0.00000000000E+00 -0.80170130377E+03  0.80170130377E+03  0.00000000000E+00 0. -1.
         25    2    1    2    0    0  0.52778118925E+03 -0.29142166765E+03 -0.62504215561E+03  0.87738473200E+03  0.12508676804E+03 0.  0.
        -24    2    1    2    0    0 -0.31964521641E+03 -0.37084244375E+02  0.99188094273E+03  0.10459108340E+04  0.80952841337E+02 0.  0.
         24    2    1    2    0    0 -0.20813597284E+03  0.32850591203E+03  0.16541651223E+04  0.17011109509E+04  0.79243285483E+02 0.  0.
        -11    1    5    5    0    0 -0.19615312479E+02  0.82259784065E+02  0.43308833400E+03  0.44126742187E+03  0.00000000000E+00 0.  1.
         12    1    5    5    0    0 -0.18852066036E+03  0.24624612796E+03  0.12210767882E+04  0.12598435291E+04  0.00000000000E+00 0. -1.
         11    1    4    4    0    0 -0.23030071166E+03 -0.63042609947E+02  0.71578393162E+03  0.75455909326E+03  0.00000000000E+00 0. -1.
        -12    1    4    4    0    0 -0.89344504750E+02  0.25958365572E+02  0.27609701111E+03  0.29135174071E+03  0.00000000000E+00 0.  1.
          5    1    3    3  501    0  0.34496642898E+03 -0.12052423485E+03 -0.36930959642E+03  0.51955267174E+03  0.41800000000E+01 0.  1.
         -5    1    3    3    0  501  0.18281476028E+03 -0.17089743280E+03 -0.25573255920E+03  0.35783206026E+03  0.41800000000E+01 0.  1.
</event>
<event>
11    1  0.1704459E-009  0.3885634E+03  0.7561462E-02  0.9684118E-01
         22   -1    0    0    0    0  0.00000000000E+00  0.00000000000E+00  0.61305025476E+03  0.61305025476E+03  0.00000000000E+00 0. -1.
         22   -1    0    0    0    0 -0.00000000000E+00 -0.00000000000E+00 -0.22955074712E+03  0.22955074712E+03  0.00000000000E+00 0. -1.
         25    2    1    2    0    0  0.12684711088E+03 -0.73805792322E+02  0.63527431936E+02  0.20302777318E+03  0.12508819910E+03 0.  0.
         24    2    1    2    0    0 -0.24233229794E+03  0.20099204066E+03  0.30667288221E+03  0.44651534557E+03  0.78771531095E+02 0.  0.
        -24    2    1    2    0    0  0.11548518706E+03 -0.12718624834E+03  0.13299193492E+02  0.19305788313E+03  0.87070704000E+02 0.  0.
        -11    1    4    4    0    0 -0.63551237236E+02  0.10057266186E+03  0.10054497709E+03  0.15576556900E+03  0.00000000000E+00 0.  1.
         12    1    4    4    0    0 -0.17878106071E+03  0.10041937880E+03  0.20612790513E+03  0.29074977658E+03  0.00000000000E+00 0. -1.
         11    1    5    5    0    0  0.10996960136E+03 -0.74348637633E+02 -0.13730003005E+02  0.13345241146E+03  0.00000000000E+00 0. -1.
        -12    1    5    5    0    0  0.55155857040E+01 -0.52837610703E+02  0.27029196497E+02  0.59605471676E+02  0.00000000000E+00 0.  1.
          5    1    3    3  501    0  0.92669648478E+02 -0.35865094295E+02 -0.23357065393E+02  0.10216160552E+03  0.41800000000E+01 0.  1.
         -5    1    3    3    0  501  0.34177462403E+02 -0.37940698027E+02  0.86884497329E+02  0.10086616766E+03  0.41800000000E+01 0.  1.
</event>
<event>
11    1  0.1704459E-009  0.1374921E+03  0.7561462E-02  0.1110392E+00
         22   -1    0    0    0    0  0.00000000000E+00  0.00000000000E+00  0.88471091571E+02  0.88471091571E+02  0.00000000000E+00 0.  1.
         22   -1    0    0    0    0 -0.00000000000E+00 -0.00000000000E+00 -0.13147808457E+04  0.13147808457E+04  0.00000000000E+00 0.  1.
         25    2    1    2    0    0 -0.65330223071E+02  0.11264703100E+02 -0.87674801622E+03  0.88810074289E+03  0.12506363977E+03 0.  0.
        -24    2    1    2    0    0  0.17484960048E+02  0.19688287047E+02 -0.39763815612E+03  0.40623739323E+03  0.78862944306E+02 0.  0.
         24    2    1    2    0    0  0.47845263022E+02 -0.30952990147E+02  0.48076418242E+02  0.10891380112E+03  0.79395322845E+02 0.  0.
        -13    1    5    5    0    0  0.42522429946E+02 -0.17680672726E+02  0.69369862227E+02  0.83264284192E+02  0.00000000000E+00 0.  1.
         14    1    5    5    0    0  0.53228330761E+01 -0.13272317421E+02 -0.21293443985E+02  0.25649516924E+02  0.00000000000E+00 0. -1.
         13    1    4    4    0    0  0.36533367516E+01  0.32996617380E+02 -0.64458691144E+02  0.72505492840E+02  0.00000000000E+00 0. -1.
        -14    1    4    4    0    0  0.13831623297E+02 -0.13308330333E+02 -0.33317946497E+03  0.33373190039E+03  0.00000000000E+00 0.  1.
          5    1    3    3  501    0  0.34120401540E+02  0.13050038962E+02 -0.35823057864E+03  0.36011265625E+03  0.41800000000E+01 0. -1.
         -5    1    3    3    0  501 -0.99450624611E+02 -0.17853358620E+01 -0.51851743758E+03  0.52798808664E+03  0.41800000000E+01 0. -1.
</event>
<event>
11    1  0.1704459E-009  0.4280676E+03  0.7561462E-02  0.9570390E-01
         22   -1    0    0    0    0  0.00000000000E+00  0.00000000000E+00  0.34205441265E+03  0.34205441265E+03  0.00000000000E+00 0. -1.
         22   -1    0    0    0    0 -0.00000000000E+00 -0.00000000000E+00 -0.67890776872E+03  0.67890776872E+03  0.00000000000E+00 0. -1.
         25    2    1    2    0    0  0.20034756192E+03  0.34088259684E+03 -0.21651532104E+03  0.46783045298E+03  0.12508540319E+03 0.  0.
        -24    2    1    2    0    0 -0.23012514920E+03 -0.35953744297E+03 -0.14793058200E+03  0.45932062961E+03  0.82868730523E+02 0.  0.
         24    2    1    2    0    0  0.29777587285E+02  0.18654846131E+02  0.27592546969E+02  0.93811098786E+02  0.82489184857E+02 0.  0.
        -13    1    5    5    0    0  0.15057808275E+02  0.48080315114E+02  0.33334110478E+02  0.60412061816E+02  0.00000000000E+00 0.  1.
         14    1    5    5    0    0  0.14719779010E+02 -0.29425468983E+02 -0.57415635090E+01  0.33399036970E+02  0.00000000000E+00 0. -1.
         11    1    4    4    0    0 -0.61529106726E+02 -0.95744966109E+02 -0.79594454853E+02  0.13888198858E+03  0.00000000000E+00 0. -1.
        -12    1    4    4    0    0 -0.16859604248E+03 -0.26379247686E+03 -0.68336127150E+02  0.32043864103E+03  0.00000000000E+00 0.  1.
          5    1    3    3  501    0  0.20181299895E+03  0.33391524070E+03 -0.17876512637E+03  0.42918797435E+03  0.41800000000E+01 0. -1.
         -5    1    3    3    0  501 -0.14654370355E+01  0.69673561388E+01 -0.37750194661E+02  0.38642478624E+02  0.41800000000E+01 0. -1.
</event>
<event>
11    1  0.1704459E-009  0.1710839E+03  0.7561462E-02  0.1077092E+00
         22   -1    0    0    0    0  0.00000000000E+00  0.00000000000E+00  0.86154914226E+02  0.86154914226E+02  0.00000000000E+00 0. -1.
         22   -1    0    0    0    0 -0.00000000000E+00 -0.00000000000E+00 -0.79139571948E+03  0.79139571948E+03  0.00000000000E+00 0. -1.
         25    2    1    2    0    0  0.83017571408E+02 -0.43836989599E+02 -0.30982546526E+03  0.34706353367E+03  0.12509068173E+03 0.  0.
         24    2    1    2    0    0 -0.17630003643E+03 -0.42699755599E+02 -0.25906851657E+03  0.32729192058E+03  0.84252792421E+02 0.  0.
        -24    2    1    2    0    0  0.93282465023E+02  0.86536745199E+02 -0.13634682342E+03  0.20319517945E+03  0.80669685413E+02 0.  0.
        -11    1    4    4    0    0 -0.56737753228E+02 -0.42110031947E+02 -0.14844159344E+03  0.16439992122E+03  0.00000000000E+00 0.  1.
         12    1    4    4    0    0 -0.11956228320E+03 -0.58972365224E+00 -0.11062692312E+03  0.16289199937E+03  0.00000000000E+00 0. -1.
         11    1    5    5    0    0  0.65432881096E+02  0.17227970000E+02 -0.98387648053E+02  0.11940851799E+03  0.00000000000E+00 0. -1.
        -12    1    5    5    0    0  0.27849583927E+02  0.69308775198E+02 -0.37959175370E+02  0.83786661463E+02  0.00000000000E+00 0.  1.
          5    1    3    3  501    0  0.26965545487E+02 -0.26955893167E+02 -0.27734947352E+03  0.27998922065E+03  0.41800000000E+01 0.  1.
         -5    1    3    3    0  501  0.56052025920E+02 -0.16881096432E+02 -0.32475991742E+02  0.67074313013E+02  0.41800000000E+01 0.  1.
</event>
<event>
11    1  0.1704459E-009  0.1339068E+03  0.7561462E-02  0.1114560E+00
         22   -1    0    0    0    0  0.00000000000E+00  0.00000000000E+00  0.43237930445E+03  0.43237930445E+03  0.00000000000E+00 0. -1.
         22   -1    0    0    0    0 -0.00000000000E+00 -0.00000000000E+00 -0.31434534254E+03  0.31434534254E+03  0.00000000000E+00 0.  1.
         25    2    1    2    0    0  0.17985999670E+02  0.78774223926E+02 -0.16262008987E+03  0.22050385108E+03  0.12509108750E+03 0.  0.
        -24    2    1    2    0    0 -0.16654317203E+02 -0.31911668133E+02 -0.10198176113E+03  0.13262977596E+03  0.76776669792E+02 0.  0.
         24    2    1    2    0    0 -0.13316824673E+01 -0.46862555792E+02  0.38263581291E+03  0.39359101995E+03  0.79409402134E+02 0.  0.
        -13    1    5    5    0    0  0.23563634263E+02 -0.40859031395E+02  0.10910235824E+03  0.11886138936E+03  0.00000000000E+00 0.  1.
         14    1    5    5    0    0 -0.24895316730E+02 -0.60035243973E+01  0.27353345467E+03  0.27472963059E+03  0.00000000000E+00 0. -1.
         13    1    4    4    0    0  0.42377321374E+01 -0.10584817004E+02  0.10956152111E+02  0.15812463241E+02  0.00000000000E+00 0. -1.
        -14    1    4    4    0    0 -0.20892049340E+02 -0.21326851129E+02 -0.11293791324E+03  0.11681731272E+03  0.00000000000E+00 0.  1.
          5    1    3    3  501    0 -0.30194820795E+02  0.76588151259E+01  0.52694437724E+01  0.31868857677E+02  0.41800000000E+01 0.  1.
         -5    1    3    3    0  501  0.48180820465E+02  0.71115408800E+02 -0.16788953364E+03  0.18863499340E+03  0.41800000000E+01 0.  1.
</event>
<event>
11    1  0.1793000E-009  0.2844859E+03  0.7561462E-02  0.1006980E+00
         22   -1    0    0    0    0  0.00000000000E+00  0.00000000000E+00  0.55034920140E+03  0.55034920140E+03  0.00000000000E+00 0. -1.
         22   -1    0    0    0    0 -0.00000000000E+00 -0.00000000000E+00 -0.67219075024E+03  0.67219075024E+03  0.00000000000E+00 0.  1.
         25    2    1    2    0    0  0.12865446260E+03 -0.22894062380E+03 -0.55290517740E+03  0.62475380964E+03  0.12508959787E+03 0.  0.
        -24    2    1    2    0    0 -0.64466652873E+02  0.74472726066E+02 -0.15958488230E+01  0.12686748260E+03  0.79941698433E+02 0.  0.
         24    2    1    2    0    0 -0.64187809724E+02  0.15446789773E+03  0.43265947738E+03  0.47091865940E+03  0.81177300104E+02 0.  0.
        -13    1    5    5    0    0 -0.25891859153E+02  0.11088710552E+02  0.27211923210E+02  0.39164226494E+02  0.00000000000E+00 0.  1.
         14    1    5    5    0    0 -0.38295950571E+02  0.14337918718E+03  0.40544755417E+03  0.43175443290E+03  0.00000000000E+00 0. -1.
         11    1    4    4    0    0 -0.79732639661E+02  0.54165861869E+02  0.13475262967E+02  0.97328398381E+02  0.00000000000E+00 0. -1.
        -12    1    4    4    0    0  0.15265986788E+02  0.20306864197E+02 -0.15071111790E+02  0.29539084222E+02  0.00000000000E+00 0.  1.
          5    1    3    3  501    0 -0.10623480177E+02  0.15444597707E+01 -0.77547264234E+02  0.78398305321E+02  0.41800000000E+01 0. -1.
         -5    1    3    3    0  501  0.13927794277E+03 -0.23048508357E+03 -0.47535791317E+03  0.54635550432E+03  0.41800000000E+01 0. -1.
</event>
<event>
11    1  0.1704459E-009  0.1368144E+03  0.7561462E-02  0.1111169E+00
         22   -1    0    0    0    0  0.00000000000E+00  0.00000000000E+00  0.27935376310E+02  0.27935376310E+02  0.00000000000E+00 0.  1.
         22   -1    0    0    0    0 -0.00000000000E+00 -0.00000000000E+00 -0.36202389683E+04  0.36202389683E+04  0.00000000000E+00 0.  1.
         25    2    1    2    0    0 -0.31499510693E+01 -0.35366275683E+02 -0.18664830105E+04  0.18710068645E+04  0.12508861989E+03 0.  0.
         24    2    1    2    0    0  0.21820995113E+02  0.69013268890E+02 -0.16683974097E+04  0.16721398422E+04  0.85221757865E+02 0.  0.
        -24    2    1    2    0    0 -0.18671044044E+02 -0.33646993207E+02 -0.57423171744E+02  0.10502763789E+03  0.79073737933E+02 0.  0.
        -11    1    4    4    0    0  0.54427631905E+02  0.50550836772E+02 -0.11343048546E+04  0.11367344709E+04  0.00000000000E+00 0.  1.
         12    1    4    4    0    0 -0.32606636792E+02  0.18462432118E+02 -0.53409255510E+03  0.53540537126E+03  0.00000000000E+00 0. -1.
         13    1    5    5    0    0 -0.29209038775E+02 -0.39916260398E+02 -0.71129809111E+02  0.86636744713E+02  0.00000000000E+00 0. -1.
        -14    1    5    5    0    0  0.10537994731E+02  0.62692671903E+01  0.13706637367E+02  0.18390893180E+02  0.00000000000E+00 0.  1.
          5    1    3    3  501    0 -0.99640821037E+01 -0.27394874162E+02 -0.18537737628E+04  0.18540076586E+04  0.41800000000E+01 0. -1.
         -5    1    3    3    0  501  0.68141310344E+01 -0.79714015209E+01 -0.12709247688E+02  0.16999205886E+02  0.41800000000E+01 0. -1.
</event>
<event>
11    1  0.1704459E-009  0.3270269E+03  0.7561462E-02  0.9893601E-01
         22   -1    0    0    0    0  0.00000000000E+00  0.00000000000E+00  0.30886824453E+04  0.30886824453E+04  0.00000000000E+00 0. -1.
         22   -1    0    0    0    0 -0.00000000000E+00 -0.00000000000E+00 -0.77043181855E+02  0.77043181855E+02  0.00000000000E+00 0. -1.
         25    2    1    2    0    0 -0.27974454057E+03  0.11398557365E+03  0.41168869308E+03  0.52572280384E+03  0.12508863852E+03 0.  0.
         24    2    1    2    0    0  0.29395030069E+03 -0.78280766173E+02  0.13189657145E+04  0.13558469054E+04  0.78202411368E+02 0.  0.
        -24    2    1    2    0    0 -0.14205760113E+02 -0.35704807479E+02  0.12809848559E+04  0.12841559179E+04  0.81594017828E+02 0.  0.
        -11    1    4    4    0    0  0.30074133075E+02 -0.12274173018E+02  0.64348241833E+02  0.72081932760E+02  0.00000000000E+00 0.  1.
         12    1    4    4    0    0  0.26387616761E+03 -0.66006593155E+02  0.12546174727E+04  0.12837649726E+04  0.00000000000E+00 0. -1.
         13    1    5    5    0    0  0.26642334819E+02 -0.39188148743E+00  0.74081325037E+03  0.74129227670E+03  0.00000000000E+00 0. -1.
        -14    1    5    5    0    0 -0.40848094932E+02 -0.35312925991E+02  0.54017160549E+03  0.54286364124E+03  0.00000000000E+00 0.  1.
          5    1    3    3  501    0 -0.66747573739E+02  0.64107364276E+02  0.20399094531E+03  0.22404189546E+03  0.41800000000E+01 0.  1.
         -5    1    3    3    0  501 -0.21299696683E+03  0.49878209375E+02  0.20769774778E+03  0.30168090838E+03  0.41800000000E+01 0.  1.
</event>
<event>
11    1  0.1704459E-009  0.1329248E+03  0.7561462E-02  0.1115727E+00
         22   -1    0    0    0    0  0.00000000000E+00  0.00000000000E+00  0.54370740623E+02  0.54370740623E+02  0.00000000000E+00 0.  1.
         22   -1    0    0    0    0 -0.00000000000E+00 -0.00000000000E+00 -0.11894855330E+04  0.11894855330E+04  0.00000000000E+00 0.  1.
         25    2    1    2    0    0 -0.15936523710E+02  0.39888168411E+02 -0.73131543523E+03  0.74317885965E+03  0.12509001903E+03 0.  0.
         24    2    1    2    0    0  0.12120589575E+02  0.51547034042E+01 -0.40066745189E+03  0.40855249286E+03  0.78786120348E+02 0.  0.
        -24    2    1    2    0    0  0.38159341351E+01 -0.45042871815E+02 -0.31319052438E+01  0.92124921097E+02  0.80210788564E+02 0.  0.
        -13    1    4    4    0    0 -0.11361303304E+02  0.15669514115E+02 -0.35940546319E+03  0.35992624224E+03  0.00000000000E+00 0.  1.
         14    1    4    4    0    0  0.23481892880E+02 -0.10514810711E+02 -0.41261988702E+02  0.48626250618E+02  0.00000000000E+00 0. -1.
         13    1    5    5    0    0 -0.10772398032E+02  0.10269164781E+02 -0.26451338805E+02  0.30350842315E+02  0.00000000000E+00 0. -1.
        -14    1    5    5    0    0  0.14588332167E+02 -0.55312036596E+02  0.23319433561E+02  0.61774078783E+02  0.00000000000E+00 0.  1.
          5    1    3    3  501    0 -0.42921523128E+02  0.27943495293E+02 -0.69168652745E+03  0.69359269080E+03  0.41800000000E+01 0.  1.
         -5    1    3    3    0  501  0.26984999417E+02  0.11944673118E+02 -0.39628907781E+02  0.49586168851E+02  0.41800000000E+01 0.  1.
</event>
<event>
11    1  0.1704459E-009  0.2206899E+03  0.7561462E-02  0.1040786E+00
         22   -1    0    0    0    0  0.00000000000E+00  0.00000000000E+00  0.81766646238E+03  0.81766646238E+03  0.00000000000E+00 0.  1.
         22   -1    0    0    0    0 -0.00000000000E+00 -0.00000000000E+00 -0.43700964810E+03  0.43700964810E+03  0.00000000000E+00 0.  1.
         25    2    1    2    0    0 -0.10495094776E+02 -0.19040686969E+03 -0.19151427556E+03  0.29780648082E+03  0.12508420858E+03 0.  0.
         24    2    1    2    0    0 -0.15455572336E+01  0.17382806026E+03 -0.14120729032E+03  0.23893506732E+03  0.83257938202E+02 0.  0.
        -24    2    1    2    0    0  0.12040652009E+02  0.16578809431E+02  0.71337838017E+03  0.71793456234E+03  0.78112023910E+02 0.  0.
        -11    1    4    4    0    0 -0.84827860799E+01  0.17561844904E+03 -0.14742297328E+03  0.22945006069E+03  0.00000000000E+00 0.  1.
         12    1    4    4    0    0  0.69372288464E+01 -0.17903887794E+01  0.62156829562E+01  0.94850066241E+01  0.00000000000E+00 0. -1.
         11    1    5    5    0    0  0.14290097621E+02  0.12914006561E+02  0.38563096187E+02  0.43105577864E+02  0.00000000000E+00 0. -1.
        -12    1    5    5    0    0 -0.22494456118E+01  0.36648028699E+01  0.67481528399E+03  0.67482898448E+03  0.00000000000E+00 0.  1.
          5    1    3    3  501    0  0.51188714191E+02 -0.13682341571E+03 -0.11852879478E+03  0.18816875176E+03  0.41800000000E+01 0. -1.
         -5    1    3    3    0  501 -0.61683808967E+02 -0.53583453980E+02 -0.72985480778E+02  0.10963772906E+03  0.41800000000E+01 0. -1.
</event>
<event>
11    1  0.1704459E-009  0.7418682E+03  0.7561462E-02  0.8972783E-01
         22   -1    0    0    0    0  0.00000000000E+00  0.00000000000E+00  0.11660908392E+03  0.11660908392E+03  0.00000000000E+00 0.  1.
         22   -1    0    0    0    0 -0.00000000000E+00 -0.00000000000E+00 -0.11799432223E+04  0.11799432223E+04  0.00000000000E+00 0.  1.
         25    2    1    2    0    0  0.21188409140E+03  0.82179944710E+02 -0.96064286384E+03  0.99504969216E+03  0.12506305017E+03 0.  0.
         24    2    1    2    0    0 -0.10168154468E+03 -0.69936084234E+02 -0.48793639368E+02  0.15459093426E+03  0.79292782184E+02 0.  0.
        -24    2    1    2    0    0 -0.11020254672E+03 -0.12243860476E+02 -0.53897635151E+02  0.14691167978E+03  0.79897266280E+02 0.  0.
        -11    1    4    4    0    0 -0.59631297435E+02 -0.32929283846E+02  0.14941606372E+02  0.69738661941E+02  0.00000000000E+00 0.  1.
         12    1    4    4    0    0 -0.42050247245E+02 -0.37006800388E+02 -0.63735245740E+02  0.84852272320E+02  0.00000000000E+00 0. -1.
         13    1    5    5    0    0  0.92487971549E+01  0.11461880138E+02 -0.80652594119E+01  0.16791764484E+02  0.00000000000E+00 0. -1.
        -14    1    5    5    0    0 -0.11945134387E+03 -0.23705740614E+02 -0.45832375739E+02  0.13011991530E+03  0.00000000000E+00 0.  1.
          5    1    3    3  501    0  0.96425323109E+02  0.10012393644E+01 -0.60063044449E+03  0.60833646008E+03  0.41800000000E+01 0. -1.
         -5    1    3    3    0  501  0.11545876829E+03  0.81178705346E+02 -0.36001241935E+03  0.38671323208E+03  0.41800000000E+01 0. -1.
</event>
<event>
11    1  0.1704459E-009  0.3786775E+03  0.7561462E-02  0.9714854E-01
         22   -1    0    0    0    0  0.00000000000E+00  0.00000000000E+00  0.75536015861E+02  0.75536015861E+02  0.00000000000E+00 0.  1.
         22   -1    0    0    0    0 -0.00000000000E+00 -0.00000000000E+00 -0.16449615358E+04  0.16449615358E+04  0.00000000000E+00 0.  1.
         25    2    1    2    0    0 -0.48911316723E+01  0.11219030595E+03 -0.37571939324E+03  0.41161097317E+03  0.12509173779E+03 0.  0.
        -24    2    1    2    0    0 -0.84439367911E+02 -0.26440259457E+03 -0.96620307591E+03  0.10082658811E+04  0.77543305061E+02 0.  0.
         24    2    1    2    0    0  0.89330499584E+02  0.15221228862E+03 -0.22750305078E+03  0.30062069741E+03  0.86409760073E+02 0.  0.
        -11    1    5    5    0    0  0.96929216266E+02  0.15550598702E+03 -0.19714550811E+03  0.26915374107E+03  0.00000000000E+00 0.  1.
         12    1    5    5    0    0 -0.75987166820E+01 -0.32936984018E+01 -0.30357542668E+02  0.31466956339E+02  0.00000000000E+00 0. -1.
         11    1    4    4    0    0 -0.90159734829E+01 -0.15497342751E+03 -0.51139485935E+03  0.53443685612E+03  0.00000000000E+00 0. -1.
        -12    1    4    4    0    0 -0.75423394429E+02 -0.10942916705E+03 -0.45480821656E+03  0.47382902494E+03  0.00000000000E+00 0.  1.
          5    1    3    3  501    0 -0.36781874609E+02  0.76382208717E+02 -0.97550724107E+02  0.12930879430E+03  0.41800000000E+01 0. -1.
         -5    1    3    3    0  501  0.31890742937E+02  0.35808097233E+02 -0.27816866913E+03  0.28230217888E+03  0.41800000000E+01 0. -1.
</event>
<event>
11    1  0.1704459E-009  0.2625341E+03  0.7561462E-02  0.1017426E+00
         22   -1    0    0    0    0  0.00000000000E+00  0.00000000000E+00  0.36580370404E+03  0.36580370404E+03  0.00000000000E+00 0.  1.
         22   -1    0    0    0    0 -0.00000000000E+00 -0.00000000000E+00 -0.38142545324E+03  0.38142545324E+03  0.00000000000E+00 0.  1.
         25    2    1    2    0    0 -0.57073190436E+02  0.20676279985E+03 -0.13349157371E+03  0.28191512384E+03  0.12509169569E+03 0.  0.
         24    2    1    2    0    0 -0.41535762142E+02 -0.27904910967E+03  0.31887306904E+02  0.29550090929E+03  0.81916798686E+02 0.  0.
        -24    2    1    2    0    0  0.98608952577E+02  0.72286309824E+02  0.85982517608E+02  0.16981312415E+03  0.80588260210E+02 0.  0.
        -11    1    4    4    0    0 -0.45215259538E+02 -0.62369465773E+02  0.65170627060E+01  0.77310038560E+02  0.00000000000E+00 0.  1.
         12    1    4    4    0    0  0.36794973956E+01 -0.21667964390E+03  0.25370244198E+02  0.21819087073E+03  0.00000000000E+00 0. -1.
         13    1    5    5    0    0  0.18892320024E+02  0.25375776538E+02  0.68814486388E+02  0.75738255378E+02  0.00000000000E+00 0. -1.
        -14    1    5    5    0    0  0.79716632554E+02  0.46910533286E+02  0.17168031219E+02  0.94074868774E+02  0.00000000000E+00 0.  1.
          5    1    3    3  501    0 -0.19900922180E+02  0.67203658175E+02 -0.11705478714E+03  0.13649788998E+03  0.41800000000E+01 0.  1.
         -5    1    3    3    0  501 -0.37172268255E+02  0.13955914167E+03 -0.16436786572E+02  0.14541723386E+03  0.41800000000E+01 0.  1.
</event>
<event>
11    1  0.1704459E-009  0.1745864E+03  0.7561462E-02  0.1074108E+00
         22   -1    0    0    0    0  0.00000000000E+00  0.00000000000E+00  0.19858335727E+03  0.19858335727E+03  0.00000000000E+00 0. -1.
         22   -1    0    0    0    0 -0.00000000000E+00 -0.00000000000E+00 -0.42913510695E+03  0.42913510695E+03  0.00000000000E+00 0. -1.
         25    2    1    2    0    0 -0.37512257587E+02  0.74166314403E+02 -0.78660096043E+02  0.16953687679E+03  0.12509008843E+03 0.  0.
        -24    2    1    2    0    0 -0.14338209426E+02 -0.21011884693E+03 -0.19299348348E+03  0.29562971350E+03  0.76124429436E+02 0.  0.
         24    2    1    2    0    0  0.51850467013E+02  0.13595253253E+03  0.41101829842E+02  0.16255187393E+03  0.59684078875E+02 0.  0.
        -11    1    5    5    0    0  0.62623515136E+02  0.90708591803E+02  0.34972095236E+02  0.11564082635E+03  0.00000000000E+00 0.  1.
         12    1    5    5    0    0 -0.10773048122E+02  0.45243940723E+02  0.61297346057E+01  0.46911047572E+02  0.00000000000E+00 0. -1.
         13    1    4    4    0    0  0.21011847661E+02 -0.13549892264E+03 -0.91741959583E+02  0.16497891661E+03  0.00000000000E+00 0. -1.
        -14    1    4    4    0    0 -0.35350057087E+02 -0.74619924289E+02 -0.10125152390E+03  0.13065079689E+03  0.00000000000E+00 0.  1.
          5    1    3    3  501    0  0.15176833307E+02  0.29859703496E+02 -0.93136936861E+02  0.99065127921E+02  0.41800000000E+01 0.  1.
         -5    1    3    3    0  501 -0.52689090894E+02  0.44306610907E+02  0.14476840818E+02  0.70471748874E+02  0.41800000000E+01 0.  1.
</event>
<event>
11    1  0.1704459E-009  0.1528418E+03  0.7561462E-02  0.1094010E+00
         22   -1    0    0    0    0  0.00000000000E+00  0.00000000000E+00  0.63172676131E+03  0.63172676131E+03  0.00000000000E+00 0. -1.
         22   -1    0    0    0    0 -0.00000000000E+00 -0.00000000000E+00 -0.36931734325E+03  0.36931734325E+03  0.00000000000E+00 0. -1.
         25    2    1    2    0    0 -0.32143081851E+02  0.96355463321E+02 -0.17179089946E+03  0.23553616924E+03  0.12509045072E+03 0.  0.
         24    2    1    2    0    0 -0.56015805554E+02 -0.78000779407E+02 -0.13182376312E+03  0.18675630189E+03  0.90986371042E+02 0.  0.
        -24    2    1    2    0    0  0.88158887404E+02 -0.18354683914E+02  0.56602408064E+03  0.57875163342E+03  0.80382270883E+02 0.  0.
        -11    1    4    4    0    0 -0.41435627636E+02 -0.25495311211E+02 -0.52284968177E+01  0.48931169108E+02  0.00000000000E+00 0.  1.
         12    1    4    4    0    0 -0.14580177918E+02 -0.52505468196E+02 -0.12659526630E+03  0.13782513279E+03  0.00000000000E+00 0. -1.
         11    1    5    5    0    0  0.93681614945E+02 -0.23163797636E+02  0.56232826887E+03  0.57054876082E+03  0.00000000000E+00 0. -1.
        -12    1    5    5    0    0 -0.55227275404E+01  0.48091137224E+01  0.36958117675E+01  0.82028726006E+01  0.00000000000E+00 0.  1.
          5    1    3    3  501    0 -0.13963026846E+02  0.44855034026E+02 -0.17443398696E+03  0.18069761593E+03  0.41800000000E+01 0.  1.
         -5    1    3    3    0  501 -0.18180055004E+02  0.51500429294E+02  0.26430875056E+01  0.54838553309E+02  0.41800000000E+01 0.  1.
</event>
<event>
11    1  0.1704459E-009  0.2962050E+03  0.7561462E-02  0.1001810E+00
         22   -1    0    0    0    0  0.00000000000E+00  0.00000000000E+00  0.13420010817E+04  0.13420010817E+04  0.00000000000E+00 0.  1.
         22   -1    0    0    0    0 -0.00000000000E+00 -0.00000000000E+00 -0.13396509265E+03  0.13396509265E+03  0.00000000000E+00 0.  1.
         25    2    1    2    0    0  0.23871819195E+03 -0.10120125048E+03  0.14446250146E+03  0.32209447045E+03  0.12508942922E+03 0.  0.
         24    2    1    2    0    0 -0.25392069955E+03  0.14342731020E+03  0.51234543090E+03  0.59502926820E+03  0.80714772351E+02 0.  0.
        -24    2    1    2    0    0  0.15202507603E+02 -0.42226059719E+02  0.55122805667E+03  0.55884243567E+03  0.80239273995E+02 0.  0.
        -13    1    4    4    0    0 -0.99512272801E+02  0.97944350948E+02  0.27226384479E+03  0.30597939392E+03  0.00000000000E+00 0.  1.
         14    1    4    4    0    0 -0.15440842675E+03  0.45482959255E+02  0.24008158611E+03  0.28904987428E+03  0.00000000000E+00 0. -1.
         13    1    5    5    0    0  0.68978204748E+01 -0.50156279626E+02  0.54130074114E+03  0.54366324565E+03  0.00000000000E+00 0. -1.
        -14    1    5    5    0    0  0.83046871279E+01  0.79302199073E+01  0.99273155304E+01  0.15179190022E+02  0.00000000000E+00 0.  1.
          5    1    3    3  501    0  0.12684992443E+03 -0.10890319677E+03  0.47652766917E+02  0.17389384172E+03  0.41800000000E+01 0.  1.
         -5    1    3    3    0  501  0.11186826752E+03  0.77019462854E+01  0.96809734538E+02  0.14820062873E+03  0.41800000000E+01 0.  1.
</event>
<event>
11    1  0.1704459E-009  0.2235003E+03  0.7561462E-02  0.1039047E+00
         22   -1    0    0    0    0  0.00000000000E+00  0.00000000000E+00  0.32101180724E+03  0.32101180724E+03  0.00000000000E+00 0. -1.
         22   -1    0    0    0    0 -0.00000000000E+00 -0.00000000000E+00 -0.52896679045E+03  0.52896679045E+03  0.00000000000E+00 0.  1.
         25    2    1    2    0    0  0.19123526958E+03 -0.75305852659E+02 -0.26947354369E+03  0.36125534878E+03  0.12509011354E+03 0.  0.
        -24    2    1    2    0    0 -0.14238263321E+03  0.88838701416E+02 -0.16075826414E+03  0.24607148437E+03  0.80887742086E+02 0.  0.
         24    2    1    2    0    0 -0.48852636366E+02 -0.13532848757E+02  0.22227682462E+03  0.24265176454E+03  0.83085341656E+02 0.  0.
        -11    1    5    5    0    0 -0.40174306082E+02  0.12237213442E+02  0.38818407096E+02  0.57189098537E+02  0.00000000000E+00 0.  1.
         12    1    5    5    0    0 -0.86783302841E+01 -0.25770062198E+02  0.18345841752E+03  0.18546266601E+03  0.00000000000E+00 0. -1.
         11    1    4    4    0    0 -0.13882467330E+02 -0.15059798569E+02 -0.24162125974E+02  0.31675365250E+02  0.00000000000E+00 0. -1.
        -12    1    4    4    0    0 -0.12850016588E+03  0.10389849999E+03 -0.13659613817E+03  0.21439611912E+03  0.00000000000E+00 0.  1.
          5    1    3    3  501    0 -0.14913267908E+02  0.54764815884E+01 -0.70406309210E+01  0.17872892716E+02  0.41800000000E+01 0.  1.
         -5    1    3    3    0  501  0.20614853748E+03 -0.80782334248E+02 -0.26243291276E+03  0.34338245607E+03  0.41800000000E+01 0.  1.
</event>
<event>
11    1  0.1704459E-009  0.1698246E+03  0.7561462E-02  0.1078184E+00
         22   -1    0    0    0    0  0.00000000000E+00  0.00000000000E+00  0.33151826077E+03  0.33151826077E+03  0.00000000000E+00 0. -1.
         22   -1    0    0    0    0 -0.00000000000E+00 -0.00000000000E+00 -0.15322263868E+04  0.15322263868E+04  0.00000000000E+00 0. -1.
         25    2    1    2    0    0 -0.24023496345E+02  0.96405079334E+02 -0.11158805360E+04  0.11272568219E+04  0.12508998454E+03 0.  0.
         24    2    1    2    0    0  0.95910313830E+02 -0.17549634529E+03 -0.36604563856E+03  0.42504747910E+03  0.81720220712E+02 0.  0.
        -24    2    1    2    0    0 -0.71886817485E+02  0.79091265952E+02  0.28121804858E+03  0.31144034651E+03  0.80550330290E+02 0.  0.
        -13    1    4    4    0    0  0.52928555050E+00 -0.11418197525E+02  0.13675293596E+01  0.11511972657E+02  0.00000000000E+00 0.  1.
         14    1    4    4    0    0  0.95381028279E+02 -0.16407814776E+03 -0.36741316792E+03  0.41353550645E+03  0.00000000000E+00 0. -1.
         11    1    5    5    0    0 -0.49048788919E+02  0.88796714654E+02  0.25890470816E+03  0.27806885502E+03  0.00000000000E+00 0. -1.
        -12    1    5    5    0    0 -0.22838028566E+02 -0.97054487013E+01  0.22313340419E+02  0.33371491485E+02  0.00000000000E+00 0.  1.
          5    1    3    3  501    0  0.30447384776E+02 -0.16062613821E+02 -0.25198015195E+03  0.25435510646E+03  0.41800000000E+01 0. -1.
         -5    1    3    3    0  501 -0.54470881121E+02  0.11246769315E+03 -0.86390038407E+03  0.87290171548E+03  0.41800000000E+01 0. -1.
</event>
<event>
11    1  0.1704459E-009  0.2119789E+03  0.7561462E-02  0.1046362E+00
         22   -1    0    0    0    0  0.00000000000E+00  0.00000000000E+00  0.25703620266E+04  0.25703620266E+04  0.00000000000E+00 0. -1.
         22   -1    0    0    0    0 -0.00000000000E+00 -0.00000000000E+00 -0.57093522510E+02  0.57093522510E+02  0.00000000000E+00 0. -1.
         25    2    1    2    0    0 -0.13697452068E+03  0.23852991581E+01  0.15845786345E+03  0.24397317538E+03  0.12508519836E+03 0.  0.
         24    2    1    2    0    0 -0.32327843759E+02  0.40938969818E+02  0.18751178820E+03  0.20795271896E+03  0.73229597005E+02 0.  0.
        -24    2    1    2    0    0  0.16930236444E+03 -0.43324268976E+02  0.21672988524E+04  0.21755296547E+04  0.72143468945E+02 0.  0.
        -11    1    4    4    0    0 -0.64544361628E+01 -0.21403136981E+02  0.49886413076E+02  0.54666335422E+02  0.00000000000E+00 0.  1.
         12    1    4    4    0    0 -0.25873407597E+02  0.62342106799E+02  0.13762537512E+03  0.15328638354E+03  0.00000000000E+00 0. -1.
         11    1    5    5    0    0  0.13250250988E+03 -0.56320500581E+02  0.14386413092E+04  0.14458276974E+04  0.00000000000E+00 0. -1.
        -12    1    5    5    0    0  0.36799854555E+02  0.12996231605E+02  0.72865754319E+03  0.72970195736E+03  0.00000000000E+00 0.  1.
          5    1    3    3  501    0 -0.42249670171E+02 -0.22007207271E+02 -0.10257722040E+02  0.48908537730E+02  0.41800000000E+01 0. -1.
         -5    1    3    3    0  501 -0.94724850506E+02  0.24392506429E+02  0.16871558549E+03  0.19506463765E+03  0.41800000000E+01 0. -1.
</event>
<event>
11    1  0.1704459E-009  0.2347222E+03  0.7561462E-02  0.1032368E+00
         22   -1    0    0    0    0  0.00000000000E+00  0.00000000000E+00  0.14480979719E+03  0.14480979719E+03  0.00000000000E+00 0. -1.
         22   -1    0    0    0    0 -0.00000000000E+00 -0.00000000000E+00 -0.69381644972E+03  0.69381644972E+03  0.00000000000E+00 0.  1.
         25    2    1    2    0    0  0.12381157291E+03 -0.13716611123E+03 -0.39111273059E+03  0.45028243252E+03  0.12506499653E+03 0.  0.
         24    2    1    2    0    0 -0.18339818144E+03  0.14563419371E+03 -0.14376053833E+03  0.28673011998E+03  0.81870983806E+02 0.  0.
        -24    2    1    2    0    0  0.59586608530E+02 -0.84680824828E+01 -0.14133383617E+02  0.10161369441E+03  0.80643152359E+02 0.  0.
        -11    1    4    4    0    0 -0.12397883339E+03  0.14086235424E+03 -0.11886126077E+03  0.22212823613E+03  0.00000000000E+00 0.  1.
         12    1    4    4    0    0 -0.59419348049E+02  0.47718394636E+01 -0.24899277562E+02  0.64601883854E+02  0.00000000000E+00 0. -1.
         11    1    5    5    0    0  0.31593484238E+02  0.33930588416E+02 -0.19957001858E+02  0.50474894747E+02  0.00000000000E+00 0. -1.
        -12    1    5    5    0    0  0.27993124293E+02 -0.42398670899E+02  0.58236182412E+01  0.51138799664E+02  0.00000000000E+00 0.  1.
          5    1    3    3  501    0  0.19699667530E+01 -0.38638920542E+02 -0.19688096116E+03  0.20068989067E+03  0.41800000000E+01 0. -1.
         -5    1    3    3    0  501  0.12184160616E+03 -0.98527190683E+02 -0.19423176943E+03  0.24959254185E+03  0.41800000000E+01 0. -1.
</event>
<event>
11    1  0.1704459E-009  0.3639148E+03  0.7561462E-02  0.9762671E-01
         22   -1    0    0    0    0  0.00000000000E+00  0.00000000000E+00  0.13018929862E+04  0.13018929862E+04  0.00000000000E+00 0. -1.
         22   -1    0    0    0    0 -0.00000000000E+00 -0.00000000000E+00 -0.21328561330E+03  0.21328561330E+03  0.00000000000E+00 0. -1.
         25    2    1    2    0    0  0.84920251518E+02  0.17974445134E+03  0.10804062256E+03  0.25853473095E+03  0.12509162275E+03 0.  0.
        -24    2    1    2    0    0 -0.34209168557E+03  0.92256845350E+02  0.28185935390E+03  0.45991561871E+03  0.80868004213E+02 0.  0.
         24    2    1    2    0    0  0.25717143405E+03 -0.27200129669E+03  0.69870739649E+03  0.79672824988E+03  0.80386729940E+02 0.  0.
        -13    1    5    5    0    0  0.12960761837E+03 -0.12995477701E+03  0.42577063894E+03  0.46364535562E+03  0.00000000000E+00 0.  1.
         14    1    5    5    0    0  0.12756381568E+03 -0.14204651967E+03  0.27293675755E+03  0.33308289425E+03  0.00000000000E+00 0. -1.
         13    1    4    4    0    0 -0.23710789239E+03  0.32393821536E+02  0.21551820962E+03  0.32205218674E+03  0.00000000000E+00 0. -1.
        -14    1    4    4    0    0 -0.10498379317E+03  0.59863023814E+02  0.66341144278E+02  0.13786343197E+03  0.00000000000E+00 0.  1.
          5    1    3    3  501    0 -0.10026126312E+02 -0.31305535347E+01  0.39893470517E+02  0.41464261288E+02  0.41800000000E+01 0.  1.
         -5    1    3    3    0  501  0.94946377831E+02  0.18287500487E+03  0.68147152040E+02  0.21707046967E+03  0.41800000000E+01 0.  1.
</event>
<event>
11    1  0.1704459E-009  0.1106937E+04  0.7561462E-02  0.8583465E-01
         22   -1    0    0    0    0  0.00000000000E+00  0.00000000000E+00  0.10544878560E+04  0.10544878560E+04  0.00000000000E+00 0.  1.
         22   -1    0    0    0    0 -0.00000000000E+00 -0.00000000000E+00 -0.15919250277E+04  0.15919250277E+04  0.00000000000E+00 0.  1.
         25    2    1    2    0    0  0.77013577449E+03  0.76112379274E+03 -0.43502760896E+03  0.11735914150E+04  0.12509696154E+03 0.  0.
         24    2    1    2    0    0 -0.97294248740E+03 -0.56486366593E+03  0.74028118193E+02  0.11304108432E+04  0.81611686348E+02 0.  0.
        -24    2    1    2    0    0  0.20280671291E+03 -0.19626012682E+03 -0.17643768089E+03  0.34241062550E+03  0.80412567643E+02 0.  0.
        -11    1    4    4    0    0 -0.65774748636E+03 -0.38992344466E+03  0.12707647531E+02  0.76474409629E+03  0.00000000000E+00 0.  1.
         12    1    4    4    0    0 -0.31519500104E+03 -0.17494022126E+03  0.61320470662E+02  0.36566674694E+03  0.00000000000E+00 0. -1.
         11    1    5    5    0    0 -0.35853770281E+01 -0.15056680860E+01  0.44333329211E+01  0.58971523304E+01  0.00000000000E+00 0. -1.
        -12    1    5    5    0    0  0.20639208994E+03 -0.19475445873E+03 -0.18087101381E+03  0.33651347316E+03  0.00000000000E+00 0.  1.
          5    1    3    3  501    0  0.31492362429E+03  0.36904636194E+03 -0.24456484053E+03  0.54332452551E+03  0.41800000000E+01 0.  1.
         -5    1    3    3    0  501  0.45521215020E+03  0.39207743080E+03 -0.19046276842E+03  0.63026688949E+03  0.41800000000E+01 0.  1.
</event>
<event>
11    1  0.1704459E-009  0.1962237E+03  0.7561462E-02  0.1057227E+00
         22   -1    0    0    0    0  0.00000000000E+00  0.00000000000E+00  0.41508085331E+03  0.41508085331E+03  0.00000000000E+00 0. -1.
         22   -1    0    0    0    0 -0.00000000000E+00 -0.00000000000E+00 -0.23181901586E+03  0.23181901586E+03  0.00000000000E+00 0. -1.
         25    2    1    2    0    0  0.52138426886E+02 -0.14943312395E+03 -0.87660251891E+02  0.21995627520E+03  0.12509104344E+03 0.  0.
         24    2    1    2    0    0  0.11546413316E+00  0.86661133650E+01 -0.26592426645E+02  0.84574706731E+02  0.79816094937E+02 0.  0.
        -24    2    1    2    0    0 -0.52253891019E+02  0.14076701058E+03  0.29751451598E+03  0.34236888724E+03  0.78458570815E+02 0.  0.
        -11    1    4    4    0    0 -0.14825549993E+02 -0.30224762661E+02  0.25040076228E+01  0.33758010378E+02  0.00000000000E+00 0.  1.
         12    1    4    4    0    0  0.14941014126E+02  0.38890876025E+02 -0.29096434268E+02  0.50816696353E+02  0.00000000000E+00 0. -1.
         11    1    5    5    0    0 -0.39826388619E+02  0.14765904719E+03  0.28496320087E+03  0.32340896910E+03  0.00000000000E+00 0. -1.
        -12    1    5    5    0    0 -0.12427502400E+02 -0.68920366110E+01  0.12551315113E+02  0.18959918134E+02  0.00000000000E+00 0.  1.
          5    1    3    3  501    0  0.87213167778E+02 -0.13111743055E+03 -0.50269224191E+02  0.16535532809E+03  0.41800000000E+01 0.  1.
         -5    1    3    3    0  501 -0.35074740892E+02 -0.18315693400E+02 -0.37391027700E+02  0.54600947114E+02  0.41800000000E+01 0.  1.
</event>
<event>
11    1  0.1704459E-009  0.1583565E+03  0.7561462E-02  0.1088633E+00
         22   -1    0    0    0    0  0.00000000000E+00  0.00000000000E+00  0.62911799184E+02  0.62911799184E+02  0.00000000000E+00 0.  1.
         22   -1    0    0    0    0 -0.00000000000E+00 -0.00000000000E+00 -0.72914317631E+03  0.72914317631E+03  0.00000000000E+00 0. -1.
         25    2    1    2    0    0  0.48626508594E+02  0.82107759597E+02 -0.47011109488E+03  0.49573970101E+03  0.12508872095E+03 0.  0.
        -24    2    1    2    0    0 -0.28247318798E+02 -0.98408330774E+02 -0.15451248843E+03  0.20269421158E+03  0.82028798249E+02 0.  0.
         24    2    1    2    0    0 -0.20379189796E+02  0.16300571177E+02 -0.41607793816E+02  0.93621062899E+02  0.79703669393E+02 0.  0.
        -13    1    5    5    0    0 -0.23125252655E+02  0.30429598487E+02  0.10439920280E+02  0.39619814612E+02  0.00000000000E+00 0.  1.
         14    1    5    5    0    0  0.27460628587E+01 -0.14129027310E+02 -0.52047714096E+02  0.54001248287E+02  0.00000000000E+00 0. -1.
         11    1    4    4    0    0  0.13183859802E+02 -0.19509670392E+02 -0.89072667612E+02  0.92132412938E+02  0.00000000000E+00 0. -1.
        -12    1    4    4    0    0 -0.41431178601E+02 -0.78898660382E+02 -0.65439820816E+02  0.11056179864E+03  0.00000000000E+00 0.  1.
          5    1    3    3  501    0  0.78569712140E+02  0.39982539612E+02 -0.39319400677E+03  0.40297742182E+03  0.41800000000E+01 0.  1.
         -5    1    3    3    0  501 -0.29943203546E+02  0.42125219985E+02 -0.76917088111E+02  0.92762279192E+02  0.41800000000E+01 0.  1.
</event>
<event>
11    1  0.1704459E-009  0.1345925E+03  0.7561462E-02  0.1113752E+00
         22   -1    0    0    0    0  0.00000000000E+00  0.00000000000E+00  0.82395238186E+02  0.82395238186E+02  0.00000000000E+00 0. -1.
         22   -1    0    0    0    0 -0.00000000000E+00 -0.00000000000E+00 -0.25346149630E+04  0.25346149630E+04  0.00000000000E+00 0.  1.
         25    2    1    2    0    0  0.33355760523E+02  0.48570448048E+01 -0.12217137637E+04  0.12285623064E+04  0.12507846641E+03 0.  0.
         24    2    1    2    0    0 -0.59041371585E+02  0.43030829144E+01 -0.12838836821E+04  0.12878012942E+04  0.81058400373E+02 0.  0.
        -24    2    1    2    0    0  0.25685611062E+02 -0.91601277193E+01  0.53377720914E+02  0.10064660055E+03  0.80851088775E+02 0.  0.
        -13    1    4    4    0    0 -0.29820957239E+02 -0.37063893010E+02 -0.75537456871E+03  0.75687103308E+03  0.00000000000E+00 0.  1.
         14    1    4    4    0    0 -0.29220414346E+02  0.41366975924E+02 -0.52850911336E+03  0.53093026117E+03  0.00000000000E+00 0. -1.
         11    1    5    5    0    0  0.35766036823E+02  0.27424896178E+02  0.40439714558E+02  0.60553322237E+02  0.00000000000E+00 0. -1.
        -12    1    5    5    0    0 -0.10080425761E+02 -0.36585023898E+02  0.12938006356E+02  0.40093278309E+02  0.00000000000E+00 0.  1.
          5    1    3    3  501    0 -0.33020836076E+02 -0.18674230730E+02 -0.80613947755E+03  0.80704239800E+03  0.41800000000E+01 0. -1.
         -5    1    3    3    0  501  0.66376596599E+02  0.23531275534E+02 -0.41557428613E+03  0.42151990843E+03  0.41800000000E+01 0. -1.
</event>
<event>
11    1  0.1704459E-009  0.3009872E+03  0.7561462E-02  0.9997743E-01
         22   -1    0    0    0    0  0.00000000000E+00  0.00000000000E+00  0.25809738233E+03  0.25809738233E+03  0.00000000000E+00 0. -1.
         22   -1    0    0    0    0 -0.00000000000E+00 -0.00000000000E+00 -0.71578890585E+03  0.71578890585E+03  0.00000000000E+00 0.  1.
         25    2    1    2    0    0 -0.24696080127E+03 -0.14472775722E+03 -0.38460412425E+03  0.49548107477E+03  0.12508158132E+03 0.  0.
         24    2    1    2    0    0  0.27443190139E+03  0.62905341655E+01 -0.11554791729E+03  0.31066697028E+03  0.88375369401E+02 0.  0.
        -24    2    1    2    0    0 -0.27471100116E+02  0.13843722306E+03  0.42460518022E+02  0.16773824313E+03  0.80085557687E+02 0.  0.
        -11    1    4    4    0    0  0.18385160888E+03 -0.48792378239E+01 -0.31496858608E+02  0.18659387223E+03  0.00000000000E+00 0.  1.
         12    1    4    4    0    0  0.90580292504E+02  0.11169771989E+02 -0.84051058677E+02  0.12407309806E+03  0.00000000000E+00 0. -1.
         13    1    5    5    0    0 -0.56041712959E+02  0.90349885732E+02  0.29115783921E+02  0.11023386193E+03  0.00000000000E+00 0. -1.
        -14    1    5    5    0    0  0.28570612844E+02  0.48087337324E+02  0.13344734101E+02  0.57504381202E+02  0.00000000000E+00 0.  1.
          5    1    3    3  501    0 -0.24561758540E+03 -0.14488927374E+03 -0.31186253014E+03  0.42260692139E+03  0.41800000000E+01 0.  1.
         -5    1    3    3    0  501 -0.13432158744E+01  0.16151651417E+00 -0.72741594114E+02  0.72874153379E+02  0.41800000000E+01 0.  1.
</event>
<event>
11    1  0.1704459E-009  0.1747867E+03  0.7561462E-02  0.1073940E+00
         22   -1    0    0    0    0  0.00000000000E+00  0.00000000000E+00  0.25787805677E+03  0.25787805677E+03  0.00000000000E+00 0.  1.
         22   -1    0    0    0    0 -0.00000000000E+00 -0.00000000000E+00 -0.13052347662E+04  0.13052347662E+04  0.00000000000E+00 0.  1.
         25    2    1    2    0    0  0.47468616720E+02 -0.76508051073E+02 -0.11065255750E+04  0.11172077953E+04  0.12509060047E+03 0.  0.
         24    2    1    2    0    0 -0.27598359113E+01 -0.37816050585E+02 -0.15864433167E+03  0.18306849542E+03  0.83116663011E+02 0.  0.
        -24    2    1    2    0    0 -0.44708780809E+02  0.11432410166E+03  0.21781319726E+03  0.26283653222E+03  0.81065272891E+02 0.  0.
        -13    1    4    4    0    0  0.12463533589E+02  0.24328148415E+02 -0.50001905209E+02  0.56985866663E+02  0.00000000000E+00 0.  1.
         14    1    4    4    0    0 -0.15223369500E+02 -0.62144198999E+02 -0.10864242646E+03  0.12608262876E+03  0.00000000000E+00 0. -1.
         11    1    5    5    0    0 -0.47084241814E+00  0.37326644422E+02  0.13959269140E+03  0.14449781856E+03  0.00000000000E+00 0. -1.
        -12    1    5    5    0    0 -0.44237938391E+02  0.76997457236E+02  0.78220505853E+02  0.11833871366E+03  0.00000000000E+00 0.  1.
          5    1    3    3  501    0  0.23662919593E+02 -0.40115773870E+02 -0.10119459294E+04  0.10130257872E+04  0.41800000000E+01 0.  1.
         -5    1    3    3    0  501  0.23805697127E+02 -0.36392277202E+02 -0.94579645625E+02  0.10418200815E+03  0.41800000000E+01 0.  1.
</event>
<event>
11    1  0.1704459E-009  0.4229444E+03  0.7561462E-02  0.9584384E-01
         22   -1    0    0    0    0  0.00000000000E+00  0.00000000000E+00  0.27503783959E+04  0.27503783959E+04  0.00000000000E+00 0.  1.
         22   -1    0    0    0    0 -0.00000000000E+00 -0.00000000000E+00 -0.21008976579E+03  0.21008976579E+03  0.00000000000E+00 0. -1.
         25    2    1    2    0    0  0.31010745423E+01 -0.76825185353E+02  0.14558511421E+02  0.14754997816E+03  0.12508924827E+03 0.  0.
         24    2    1    2    0    0  0.32234490516E+03 -0.19125601331E+03  0.17184325546E+03  0.42013548596E+03  0.80614028610E+02 0.  0.
        -24    2    1    2    0    0 -0.32544597970E+03  0.26808119867E+03  0.23538868633E+04  0.23927826976E+04  0.82722778458E+02 0.  0.
        -13    1    4    4    0    0  0.24959401136E+03 -0.14628878696E+03  0.16794763644E+03  0.33452053492E+03  0.00000000000E+00 0.  1.
         14    1    4    4    0    0  0.72750893796E+02 -0.44967226350E+02  0.38956190131E+01  0.85614951038E+02  0.00000000000E+00 0. -1.
         13    1    5    5    0    0 -0.17881882668E+03  0.12863059572E+03  0.10095520866E+04  0.10333041269E+04  0.00000000000E+00 0. -1.
        -14    1    5    5    0    0 -0.14662715302E+03  0.13945060295E+03  0.13443347766E+04  0.13594785707E+04  0.00000000000E+00 0.  1.
          5    1    3    3  501    0  0.42916606165E+02  0.15363334620E+02 -0.13385410980E+01  0.45794445380E+02  0.41800000000E+01 0. -1.
         -5    1    3    3    0  501 -0.39815531623E+02 -0.92188519972E+02  0.15897052519E+02  0.10175553278E+03  0.41800000000E+01 0. -1.
</event>
<event>
11    1  0.1704459E-009  0.1706675E+03  0.7561462E-02  0.1077452E+00
         22   -1    0    0    0    0  0.00000000000E+00  0.00000000000E+00  0.18591732372E+03  0.18591732372E+03  0.00000000000E+00 0. -1.
         22   -1    0    0    0    0 -0.00000000000E+00 -0.00000000000E+00 -0.58248648772E+03  0.58248648772E+03  0.00000000000E+00 0. -1.
         25    2    1    2    0    0 -0.37887098682E+02 -0.10892401206E+03 -0.40221952068E+03  0.43672568469E+03  0.12509559624E+03 0.  0.
        -24    2    1    2    0    0  0.32899062090E+02  0.11302366146E+03 -0.11719790209E+03  0.18492267247E+03  0.81267153285E+02 0.  0.
         24    2    1    2    0    0  0.49880365916E+01 -0.40996494083E+01  0.12284825877E+03  0.14675545427E+03  0.80023628020E+02 0.  0.
        -13    1    5    5    0    0  0.40927079204E+02  0.53719231429E+01  0.80094561607E+02  0.90105616747E+02  0.00000000000E+00 0.  1.
         14    1    5    5    0    0 -0.35939042612E+02 -0.94715725512E+01  0.42753697163E+02  0.56649837525E+02  0.00000000000E+00 0. -1.
         13    1    4    4    0    0 -0.19436003944E+02  0.56598665919E+01 -0.45649623537E+01  0.20751655848E+02  0.00000000000E+00 0. -1.
        -14    1    4    4    0    0  0.52335066034E+02  0.10736379487E+03 -0.11263293973E+03  0.16417101662E+03  0.00000000000E+00 0.  1.
          5    1    3    3  501    0 -0.76884032493E+02 -0.32669064871E+02 -0.17812228822E+03  0.19678273353E+03  0.41800000000E+01 0.  1.
         -5    1    3    3    0  501  0.38996933811E+02 -0.76254947184E+02 -0.22409723246E+03  0.23994295116E+03  0.41800000000E+01 0.  1.
</event>
<event>
11    1  0.1704459E-009  0.1964011E+03  0.7561462E-02  0.1057098E+00
         22   -1    0    0    0    0  0.00000000000E+00  0.00000000000E+00  0.32055446705E+03  0.32055446705E+03  0.00000000000E+00 0.  1.
         22   -1    0    0    0    0 -0.00000000000E+00 -0.00000000000E+00 -0.72670778367E+03  0.72670778367E+03  0.00000000000E+00 0.  1.
         25    2    1    2    0    0 -0.61438387458E+02 -0.60935543627E+02 -0.45446768726E+03  0.47924680616E+03  0.12509518985E+03 0.  0.
        -24    2    1    2    0    0 -0.90582459737E+02  0.26884267293E+02 -0.21709856699E+03  0.25002215484E+03  0.80320260729E+02 0.  0.
         24    2    1    2    0    0  0.15202084719E+03  0.34051276334E+02  0.26541293763E+03  0.31799328972E+03  0.80036725576E+02 0.  0.
        -11    1    5    5    0    0  0.15602228769E+03  0.28134857640E+02  0.26714289985E+03  0.31064425540E+03  0.00000000000E+00 0.  1.
         12    1    5    5    0    0 -0.40014404984E+01  0.59164186937E+01 -0.17299622135E+01  0.73490343231E+01  0.00000000000E+00 0. -1.
         13    1    4    4    0    0 -0.48297358280E+02  0.28988733916E+02 -0.19354189399E+03  0.20157243422E+03  0.00000000000E+00 0. -1.
        -14    1    4    4    0    0 -0.42285101456E+02 -0.21044666233E+01 -0.23556672998E+02  0.48449720615E+02  0.00000000000E+00 0.  1.
          5    1    3    3  501    0 -0.80486936801E+02 -0.19237745397E+02 -0.39730482553E+03  0.40585321809E+03  0.41800000000E+01 0. -1.
         -5    1    3    3    0  501  0.19048549343E+02 -0.41697798230E+02 -0.57162861735E+02  0.73393588078E+02  0.41800000000E+01 0. -1.
</event>
<event>
11    1  0.1704459E-009  0.4062993E+03  0.7561462E-02  0.9631352E-01
         22   -1    0    0    0    0  0.00000000000E+00  0.00000000000E+00  0.11493190005E+04  0.11493190005E+04  0.00000000000E+00 0. -1.
         22   -1    0    0    0    0 -0.00000000000E+00 -0.00000000000E+00 -0.60352731322E+03  0.60352731322E+03  0.00000000000E+00 0.  1.
         25    2    1    2    0    0 -0.10707896494E+03  0.35503465807E+03 -0.35281179905E+03  0.52691420972E+03  0.12508759209E+03 0.  0.
        -24    2    1    2    0    0 -0.65355484879E+02 -0.50503301784E+03  0.34134106416E+03  0.61831509583E+03  0.80437224830E+02 0.  0.
         24    2    1    2    0    0  0.17243444982E+03  0.14999835977E+03  0.55726242219E+03  0.60761700819E+03  0.80149073840E+02 0.  0.
        -13    1    5    5    0    0  0.29226281483E+02  0.80057488860E+01  0.15150796523E+03  0.15450867637E+03  0.00000000000E+00 0.  1.
         14    1    5    5    0    0  0.14320816834E+03  0.14199261088E+03  0.40575445696E+03  0.45310833182E+03  0.00000000000E+00 0. -1.
         11    1    4    4    0    0 -0.36109930798E+02 -0.38597247456E+03  0.29543811155E+03  0.48740368892E+03  0.00000000000E+00 0. -1.
        -12    1    4    4    0    0 -0.29245554081E+02 -0.11906054328E+03  0.45902952601E+02  0.13091140690E+03  0.00000000000E+00 0.  1.
          5    1    3    3  501    0 -0.22618587998E+02  0.15820248869E+03 -0.22962140999E+03  0.27979115832E+03  0.41800000000E+01 0. -1.
         -5    1    3    3    0  501 -0.84460376944E+02  0.19683216938E+03 -0.12319038906E+03  0.24712305140E+03  0.41800000000E+01 0. -1.
</event>
<event>
11    1  0.1704459E-009  0.1345394E+03  0.7561462E-02  0.1113814E+00
         22   -1    0    0    0    0  0.00000000000E+00  0.00000000000E+00  0.70146496856E+02  0.70146496856E+02  0.00000000000E+00 0. -1.
         22   -1    0    0    0    0 -0.00000000000E+00 -0.00000000000E+00 -0.20510647811E+04  0.20510647811E+04  0.00000000000E+00 0.  1.
         25    2    1    2    0    0  0.34590793409E+02 -0.20586750858E+02 -0.16659039455E+04  0.16710792322E+04  0.12509799111E+03 0.  0.
        -24    2    1    2    0    0 -0.65418913967E+02  0.11195050114E+03 -0.28380948436E+03  0.32221893697E+03  0.80403177295E+02 0.  0.
         24    2    1    2    0    0  0.30828120558E+02 -0.91363750282E+02 -0.31204854377E+02  0.12791310877E+03  0.78040454743E+02 0.  0.
        -11    1    5    5    0    0 -0.23109109096E+02 -0.27720667792E+02 -0.25703508767E+02  0.44307298597E+02  0.00000000000E+00 0.  1.
         12    1    5    5    0    0  0.53937229654E+02 -0.63643082490E+02 -0.55013456101E+01  0.83605810176E+02  0.00000000000E+00 0. -1.
         13    1    4    4    0    0 -0.22209549789E+02  0.98927725289E+01 -0.90386493316E+01  0.25938932744E+02  0.00000000000E+00 0. -1.
        -14    1    4    4    0    0 -0.43209364178E+02  0.10205772861E+03 -0.27477083503E+03  0.29628000423E+03  0.00000000000E+00 0.  1.
          5    1    3    3  501    0 -0.21671819066E+02 -0.53548969168E+02 -0.49954701104E+03  0.50289347627E+03  0.41800000000E+01 0.  1.
         -5    1    3    3    0  501  0.56262612475E+02  0.32962218311E+02 -0.11663569345E+04  0.11681857560E+04  0.41800000000E+01 0.  1.
</event>
<event>
11    1  0.1704459E-009  0.1691657E+03  0.7561462E-02  0.1078760E+00
         22   -1    0    0    0    0  0.00000000000E+00  0.00000000000E+00  0.13108785484E+04  0.13108785484E+04  0.00000000000E+00 0. -1.
         22   -1    0    0    0    0 -0.00000000000E+00 -0.00000000000E+00 -0.67038945785E+02  0.67038945785E+02  0.00000000000E+00 0. -1.
         25    2    1    2    0    0  0.72615833010E+02 -0.95860144754E+02  0.17184348432E+03  0.24420931499E+03  0.12508309184E+03 0.  0.
         24    2    1    2    0    0 -0.34638146450E+02  0.10619830465E+03  0.13558208969E+03  0.19278537075E+03  0.79409162145E+02 0.  0.
        -24    2    1    2    0    0 -0.37977686561E+02 -0.10338159892E+02  0.93641402860E+03  0.94092280844E+03  0.83158380588E+02 0.  0.
        -13    1    4    4    0    0 -0.28169078130E+02  0.57116120532E+02  0.12764037305E+03  0.14264576061E+03  0.00000000000E+00 0.  1.
         14    1    4    4    0    0 -0.64690683197E+01  0.49082184114E+02  0.79417166409E+01  0.50139610146E+02  0.00000000000E+00 0. -1.
         13    1    5    5    0    0 -0.42253138478E+02  0.29350803027E+02  0.47163569042E+03  0.47443336922E+03  0.00000000000E+00 0. -1.
        -14    1    5    5    0    0  0.42754519176E+01 -0.39688962919E+02  0.46477833818E+03  0.46648943922E+03  0.00000000000E+00 0.  1.
          5    1    3    3  501    0  0.66875926718E+02  0.45290222791E+01  0.39387265326E+02  0.77857117126E+02  0.41800000000E+01 0.  1.
         -5    1    3    3    0  501  0.57399062923E+01 -0.10038916703E+03  0.13245621900E+03  0.16635219786E+03  0.41800000000E+01 0.  1.
</event>
<event>
11    1  0.1704459E-009  0.5661594E+03  0.7561462E-02  0.9256740E-01
         22   -1    0    0    0    0  0.00000000000E+00  0.00000000000E+00  0.49253244029E+03  0.49253244029E+03  0.00000000000E+00 0. -1.
         22   -1    0    0    0    0 -0.00000000000E+00 -0.00000000000E+00 -0.15173401422E+04  0.15173401422E+04  0.00000000000E+00 0. -1.
         25    2    1    2    0    0  0.50700544040E+02 -0.78620910543E+02 -0.42546928649E+02  0.16189172399E+03  0.12508755501E+03 0.  0.
        -24    2    1    2    0    0 -0.52570812646E+03 -0.20162678606E+03 -0.11357305039E+04  0.12702621940E+04  0.81608020312E+02 0.  0.
         24    2    1    2    0    0  0.47500758242E+03  0.28024769661E+03  0.15346973068E+03  0.57771866444E+03  0.77684761704E+02 0.  0.
        -13    1    5    5    0    0  0.32971606333E+03  0.21295466693E+03  0.75814324251E+02  0.39976266002E+03  0.00000000000E+00 0.  1.
         14    1    5    5    0    0  0.14529151909E+03  0.67293029679E+02  0.77655406428E+02  0.17795600442E+03  0.00000000000E+00 0. -1.
         13    1    4    4    0    0 -0.25143873225E+03 -0.84201918078E+02 -0.62235640764E+03  0.67649013091E+03  0.00000000000E+00 0. -1.
        -14    1    4    4    0    0 -0.27426939421E+03 -0.11742486799E+03 -0.51337409626E+03  0.59377206311E+03  0.00000000000E+00 0.  1.
          5    1    3    3  501    0 -0.32409827893E+02 -0.43939142411E+02  0.12626061987E+02  0.56195507126E+02  0.41800000000E+01 0. -1.
         -5    1    3    3    0  501  0.83110371934E+02 -0.34681768132E+02 -0.55172990636E+02  0.10569621686E+03  0.41800000000E+01 0. -1.
</event>
<event>
11    1  0.1704459E-009  0.1515663E+03  0.7561462E-02  0.1095289E+00
         22   -1    0    0    0    0  0.00000000000E+00  0.00000000000E+00  0.10110702956E+03  0.10110702956E+03  0.00000000000E+00 0. -1.
         22   -1    0    0    0    0 -0.00000000000E+00 -0.00000000000E+00 -0.38100112114E+03  0.38100112114E+03  0.00000000000E+00 0.  1.
         25    2    1    2    0    0  0.43278949917E+02  0.19837815582E+02 -0.13184407745E+03  0.18788167006E+03  0.12510017886E+03 0.  0.
        -24    2    1    2    0    0  0.20055879728E+02  0.71978912730E+02 -0.10168524693E+03  0.14909937995E+03  0.79419981541E+02 0.  0.
         24    2    1    2    0    0 -0.63334829645E+02 -0.91816728312E+02 -0.46364767192E+02  0.14512710070E+03  0.80439862492E+02 0.  0.
        -13    1    5    5    0    0 -0.10365588619E+02  0.12194306663E+02 -0.19729315313E+02  0.25404574886E+02  0.00000000000E+00 0.  1.
         14    1    5    5    0    0 -0.52969241026E+02 -0.10401103497E+03 -0.26635451879E+02  0.11972252582E+03  0.00000000000E+00 0. -1.
         11    1    4    4    0    0  0.26467742260E+01  0.55729232580E+02 -0.13019260159E+02  0.57290958387E+02  0.00000000000E+00 0. -1.
        -12    1    4    4    0    0  0.17409105502E+02  0.16249680150E+02 -0.88665986771E+02  0.91808421560E+02  0.00000000000E+00 0.  1.
          5    1    3    3  501    0  0.12632227775E+02 -0.18235666518E+02  0.18847025671E+02  0.29407405336E+02  0.41800000000E+01 0.  1.
         -5    1    3    3    0  501  0.30646722142E+02  0.38073482100E+02 -0.15069110313E+03  0.15847426472E+03  0.41800000000E+01 0.  1.
</event>
<event>
11    1  0.1704459E-009  0.2280535E+03  0.7561462E-02  0.1036287E+00
         22   -1    0    0    0    0  0.00000000000E+00  0.00000000000E+00  0.65731960308E+03  0.65731960308E+03  0.00000000000E+00 0.  1.
         22   -1    0    0    0    0 -0.00000000000E+00 -0.00000000000E+00 -0.10887182858E+03  0.10887182858E+03  0.00000000000E+00 0. -1.
         25    2    1    2    0    0  0.11398386445E+03 -0.14496509504E+03  0.15382784956E+03  0.27077153880E+03  0.12508804415E+03 0.  0.
         24    2    1    2    0    0 -0.12023726578E+03  0.15874236384E+03  0.24496572668E+03  0.32560206586E+03  0.79701693103E+02 0.  0.
        -24    2    1    2    0    0  0.62534013322E+01 -0.13777268801E+02  0.14965419825E+03  0.16981782700E+03  0.78821298819E+02 0.  0.
        -11    1    4    4    0    0 -0.90834710433E+02  0.13718137071E+03  0.23661881720E+03  0.28819808768E+03  0.00000000000E+00 0.  1.
         12    1    4    4    0    0 -0.29402555352E+02  0.21560993124E+02  0.83469094829E+01  0.37403978179E+02  0.00000000000E+00 0. -1.
         11    1    5    5    0    0  0.96510287450E+01  0.31467573060E+02  0.45010368036E+02  0.55760951757E+02  0.00000000000E+00 0. -1.
        -12    1    5    5    0    0 -0.33976274128E+01 -0.45244841861E+02  0.10464383022E+03  0.11405687524E+03  0.00000000000E+00 0.  1.
          5    1    3    3  501    0  0.49221266673E+02 -0.10093104320E+03  0.15606779901E+03  0.19231338711E+03  0.41800000000E+01 0.  1.
         -5    1    3    3    0  501  0.64762597780E+02 -0.44034051836E+02 -0.22399494528E+01  0.78458151685E+02  0.41800000000E+01 0.  1.
</event>
<event>
11    1  0.1704459E-009  0.6695516E+03  0.7561462E-02  0.9078418E-01
         22   -1    0    0    0    0  0.00000000000E+00  0.00000000000E+00  0.97658150063E+03  0.97658150063E+03  0.00000000000E+00 0.  1.
         22   -1    0    0    0    0 -0.00000000000E+00 -0.00000000000E+00 -0.16024724731E+04  0.16024724731E+04  0.00000000000E+00 0. -1.
         25    2    1    2    0    0  0.53930477391E+03 -0.42067306816E+03 -0.13412807441E+04  0.15107940096E+04  0.12509610530E+03 0.  0.
        -24    2    1    2    0    0 -0.41516604428E+03  0.31600809186E+03  0.28166913458E+03  0.59822754849E+03  0.79465338059E+02 0.  0.
         24    2    1    2    0    0 -0.12413872963E+03  0.10466497630E+03  0.43372063701E+03  0.47003241567E+03  0.80322471031E+02 0.  0.
        -11    1    5    5    0    0 -0.11268352189E+03  0.51007606478E+02  0.33474879142E+03  0.35686987177E+03  0.00000000000E+00 0.  1.
         12    1    5    5    0    0 -0.11455207742E+02  0.53657369827E+02  0.98971845592E+02  0.11316254390E+03  0.00000000000E+00 0. -1.
         11    1    4    4    0    0 -0.23306981250E+03  0.13274799147E+03  0.12332984515E+03  0.29521825391E+03  0.00000000000E+00 0. -1.
        -12    1    4    4    0    0 -0.18209623178E+03  0.18326010039E+03  0.15833928943E+03  0.30300929458E+03  0.00000000000E+00 0.  1.
          5    1    3    3  501    0  0.25066210218E+03 -0.25147192635E+03 -0.59440405667E+03  0.69238953934E+03  0.41800000000E+01 0.  1.
         -5    1    3    3    0  501  0.28864267173E+03 -0.16920114182E+03 -0.74687668740E+03  0.81840447025E+03  0.41800000000E+01 0.  1.
</event>
<event>
11    1  0.1704459E-009  0.3432884E+03  0.7561462E-02  0.9833710E-01
         22   -1    0    0    0    0  0.00000000000E+00  0.00000000000E+00  0.51801763239E+03  0.51801763239E+03  0.00000000000E+00 0.  1.
         22   -1    0    0    0    0 -0.00000000000E+00 -0.00000000000E+00 -0.13571106375E+04  0.13571106375E+04  0.00000000000E+00 0.  1.
         25    2    1    2    0    0 -0.31216648835E+03 -0.89196270099E+02 -0.11105718278E+04  0.11637964836E+04  0.12509428205E+03 0.  0.
         24    2    1    2    0    0  0.32428013561E+03 -0.17133206025E+03  0.92761710961E+02  0.38743070805E+03  0.83579526776E+02 0.  0.
        -24    2    1    2    0    0 -0.12113647262E+02  0.26052833035E+03  0.17871711177E+03  0.32390107824E+03  0.70358731361E+02 0.  0.
        -11    1    4    4    0    0  0.29789114847E+03 -0.15994630618E+03  0.59223990556E+02  0.34326292875E+03  0.00000000000E+00 0.  1.
         12    1    4    4    0    0  0.26388987141E+02 -0.11385754077E+02  0.33537720406E+02  0.44167779299E+02  0.00000000000E+00 0. -1.
         11    1    5    5    0    0  0.18902884833E+02  0.19649952740E+02  0.17888826834E+02  0.32610578394E+02  0.00000000000E+00 0. -1.
        -12    1    5    5    0    0 -0.31016532095E+02  0.24087837761E+03  0.16082828494E+03  0.29129049984E+03  0.00000000000E+00 0.  1.
          5    1    3    3  501    0 -0.91797786141E+02 -0.78672761977E+02 -0.29347784605E+03  0.31743181243E+03  0.41800000000E+01 0. -1.
         -5    1    3    3    0  501 -0.22036870221E+03 -0.10523508122E+02 -0.81709398179E+03  0.84636467118E+03  0.41800000000E+01 0. -1.
</event>
<event>
11    1  0.1704459E-009  0.1077522E+04  0.7561462E-02  0.8608585E-01
         22   -1    0    0    0    0  0.00000000000E+00  0.00000000000E+00  0.54782478576E+03  0.54782478576E+03  0.00000000000E+00 0. -1.
         22   -1    0    0    0    0 -0.00000000000E+00 -0.00000000000E+00 -0.52984728467E+03  0.52984728467E+03  0.00000000000E+00 0.  1.
         25    2    1    2    0    0 -0.45806452104E+02 -0.50448362192E+03 -0.55789444675E+02  0.52474977674E+03  0.12509160726E+03 0.  0.
         24    2    1    2    0    0  0.18825271294E+02  0.38627222208E+03  0.14581228147E+02  0.39561533544E+03  0.82086911466E+02 0.  0.
        -24    2    1    2    0    0  0.26981180809E+02  0.11821139985E+03  0.59185717615E+02  0.15730695825E+03  0.80874042643E+02 0.  0.
        -13    1    4    4    0    0  0.44814266228E+02  0.32895290796E+03  0.55750570353E+01  0.33203827396E+03  0.00000000000E+00 0.  1.
         14    1    4    4    0    0 -0.25988994934E+02  0.57319314116E+02  0.90061711117E+01  0.63577061481E+02  0.00000000000E+00 0. -1.
         13    1    5    5    0    0  0.12167333481E+02  0.12299507126E+03  0.66227883050E+02  0.14022112556E+03  0.00000000000E+00 0. -1.
        -14    1    5    5    0    0  0.14813847328E+02 -0.47836714168E+01 -0.70421654352E+01  0.17085832695E+02  0.00000000000E+00 0.  1.
          5    1    3    3  501    0 -0.63357193148E+02 -0.33684828563E+03  0.12094157772E+02  0.34299364791E+03  0.41800000000E+01 0. -1.
         -5    1    3    3    0  501  0.17550741045E+02 -0.16763533630E+03 -0.67883602447E+02  0.18175612883E+03  0.41800000000E+01 0. -1.
</event>
<event>
11    1  0.1704459E-009  0.9353539E+03  0.7561462E-02  0.8743055E-01
         22   -1    0    0    0    0  0.00000000000E+00  0.00000000000E+00  0.35968647009E+04  0.35968647009E+04  0.00000000000E+00 0. -1.
         22   -1    0    0    0    0 -0.00000000000E+00 -0.00000000000E+00 -0.34452135580E+03  0.34452135580E+03  0.00000000000E+00 0. -1.
         25    2    1    2    0    0  0.89151878584E+03  0.35684748374E+03  0.12817549781E+04  0.16064527752E+04  0.12509525491E+03 0.  0.
         24    2    1    2    0    0 -0.82204413412E+03 -0.36885760018E+03  0.95921602717E+03  0.13188100081E+04  0.85743588518E+02 0.  0.
        -24    2    1    2    0    0 -0.69474651721E+02  0.12010116437E+02  0.10113723398E+04  0.10161232734E+04  0.68275375892E+02 0.  0.
        -11    1    4    4    0    0 -0.73074467901E+02 -0.49196501997E+02  0.65792281779E+02  0.10994907007E+03  0.00000000000E+00 0.  1.
         12    1    4    4    0    0 -0.74896966622E+03 -0.31966109818E+03  0.89342374539E+03  0.12088609380E+04  0.00000000000E+00 0. -1.
         11    1    5    5    0    0 -0.76641859913E+02  0.22283685569E+02  0.95718056605E+03  0.96050256291E+03  0.00000000000E+00 0. -1.
        -12    1    5    5    0    0  0.71672081922E+01 -0.10273569131E+02  0.54191773778E+02  0.55620710542E+02  0.00000000000E+00 0.  1.
          5    1    3    3  501    0  0.52032146292E+03  0.15506881293E+03  0.65840073917E+03  0.85339894964E+03  0.41800000000E+01 0.  1.
         -5    1    3    3    0  501  0.37119732292E+03  0.20177867081E+03  0.62335423897E+03  0.75305382555E+03  0.41800000000E+01 0.  1.
</event>
<event>
11    1  0.1704459E-009  0.1639787E+03  0.7561462E-02  0.1083394E+00
         22   -1    0    0    0    0  0.00000000000E+00  0.00000000000E+00  0.13762651779E+04  0.13762651779E+04  0.00000000000E+00 0. -1.
         22   -1    0    0    0    0 -0.00000000000E+00 -0.00000000000E+00 -0.51234925010E+02  0.51234925010E+02  0.00000000000E+00 0.  1.
         25    2    1    2    0    0 -0.15006950747E+02 -0.45988996305E+02  0.10609344446E+03  0.17100811885E+03  0.12509101248E+03 0.  0.
        -24    2    1    2    0    0  0.13571454943E+02 -0.68743439365E+02  0.18722295621E+03  0.21530429256E+03  0.79960354053E+02 0.  0.
         24    2    1    2    0    0  0.14354958034E+01  0.11473243567E+03  0.10317138523E+04  0.10411876915E+04  0.80453363014E+02 0.  0.
        -13    1    5    5    0    0  0.27985905388E+02  0.84561031241E+02  0.49338463328E+03  0.50136032478E+03  0.00000000000E+00 0.  1.
         14    1    5    5    0    0 -0.26550409584E+02  0.30171404429E+02  0.53832921897E+03  0.53982736675E+03  0.00000000000E+00 0. -1.
         13    1    4    4    0    0  0.29673569119E+02 -0.36119945477E+01  0.10505099855E+03  0.10922124109E+03  0.00000000000E+00 0. -1.
        -14    1    4    4    0    0 -0.16102114176E+02 -0.65131444817E+02  0.82171957662E+02  0.10608305148E+03  0.00000000000E+00 0.  1.
          5    1    3    3  501    0 -0.17793078567E+02 -0.85784037017E+02  0.46778923790E+02  0.99404400118E+02  0.41800000000E+01 0.  1.
         -5    1    3    3    0  501  0.27861278200E+01  0.39795040712E+02  0.59314520673E+02  0.71603718732E+02  0.41800000000E+01 0.  1.
</event>
<event>
11    1  0.1704459E-009  0.4020306E+03  0.7561462E-02  0.9643786E-01
         22   -1    0    0    0    0  0.00000000000E+00  0.00000000000E+00  0.22706130028E+03  0.22706130028E+03  0.00000000000E+00 0. -1.
         22   -1    0    0    0    0 -0.00000000000E+00 -0.00000000000E+00 -0.40100991329E+04  0.40100991329E+04  0.00000000000E+00 0. -1.
         25    2    1    2    0    0  0.22789721521E+03  0.30530596265E+03 -0.36895827931E+04  0.37113091344E+04  0.12508170338E+03 0.  0.
        -24    2    1    2    0    0 -0.19961434447E+03 -0.35143022733E+03 -0.33092178349E+02  0.41322672919E+03  0.79449016674E+02 0.  0.
         24    2    1    2    0    0 -0.28282870741E+02  0.46124264679E+02 -0.60362861176E+02  0.11262456959E+03  0.78187275789E+02 0.  0.
        -13    1    5    5    0    0 -0.46060542196E+01  0.62192951065E+02 -0.25131025026E+02  0.67236502857E+02  0.00000000000E+00 0.  1.
         14    1    5    5    0    0 -0.23676816521E+02 -0.16068686386E+02 -0.35231836150E+02  0.45388066728E+02  0.00000000000E+00 0. -1.
         11    1    4    4    0    0 -0.18970083826E+03 -0.27207752609E+03 -0.20970725772E+02  0.33234373708E+03  0.00000000000E+00 0. -1.
        -12    1    4    4    0    0 -0.99135062091E+01 -0.79352701241E+02 -0.12121452577E+02  0.80882992107E+02  0.00000000000E+00 0.  1.
          5    1    3    3  501    0  0.20833428036E+03  0.20352718531E+03 -0.29771018314E+04  0.29913173142E+04  0.41800000000E+01 0. -1.
         -5    1    3    3    0  501  0.19562934850E+02  0.10177877734E+03 -0.71248096175E+03  0.71999182023E+03  0.41800000000E+01 0. -1.
</event>
<event>
11    1  0.1704459E-009  0.2171309E+03  0.7561462E-02  0.1043030E+00
         22   -1    0    0    0    0  0.00000000000E+00  0.00000000000E+00  0.19876689886E+04  0.19876689886E+04  0.00000000000E+00 0.  1.
         22   -1    0    0    0    0 -0.00000000000E+00 -0.00000000000E+00 -0.67856094258E+02  0.67856094258E+02  0.00000000000E+00 0. -1.
         25    2    1    2    0    0  0.17572298307E+02 -0.17723867836E+03  0.17195361412E+03  0.27737526987E+03  0.12508661059E+03 0.  0.
         24    2    1    2    0    0  0.38386459793E+02  0.17681730521E+03  0.14866177405E+04  0.14996952898E+04  0.79471857131E+02 0.  0.
        -24    2    1    2    0    0 -0.55958758100E+02  0.42137314912E+00  0.26124153968E+03  0.27845452319E+03  0.78474322321E+02 0.  0.
        -11    1    4    4    0    0  0.42089879881E+02  0.18285759993E+03  0.14644671530E+04  0.14764391291E+04  0.00000000000E+00 0.  1.
         12    1    4    4    0    0 -0.37034200886E+01 -0.60402947232E+01  0.22150587505E+02  0.23256160636E+02  0.00000000000E+00 0. -1.
         11    1    5    5    0    0  0.13717553208E+01 -0.12251209278E+02  0.18076997330E+01  0.12459599502E+02  0.00000000000E+00 0. -1.
        -12    1    5    5    0    0 -0.57330513421E+02  0.12672582427E+02  0.25943383995E+03  0.26599492369E+03  0.00000000000E+00 0.  1.
          5    1    3    3  501    0  0.49387394187E+02 -0.10802076722E+03  0.40822396549E+02  0.12566439956E+03  0.41800000000E+01 0.  1.
         -5    1    3    3    0  501 -0.31815095879E+02 -0.69217911136E+02  0.13113121757E+03  0.15171087031E+03  0.41800000000E+01 0.  1.
</event>
<event>
11    1  0.1704459E-009  0.2873019E+03  0.7561462E-02  0.1005713E+00
         22   -1    0    0    0    0  0.00000000000E+00  0.00000000000E+00  0.39783321532E+03  0.39783321532E+03  0.00000000000E+00 0.  1.
         22   -1    0    0    0    0 -0.00000000000E+00 -0.00000000000E+00 -0.39013760856E+04  0.39013760856E+04  0.00000000000E+00 0.  1.
         25    2    1    2    0    0  0.77418017886E+02 -0.24811049438E+03 -0.37488197975E+04  0.37599004007E+04  0.12509509288E+03 0.  0.
        -24    2    1    2    0    0 -0.11216300433E+03  0.20853225886E+03 -0.25302713441E+02  0.25189301151E+03  0.82119543442E+02 0.  0.
         24    2    1    2    0    0  0.34744986448E+02  0.39578235527E+02  0.27057964064E+03  0.28741588871E+03  0.81368915122E+02 0.  0.
        -13    1    5    5    0    0  0.12539297554E+02  0.37503479537E+02  0.25953171552E+03  0.26252705827E+03  0.00000000000E+00 0.  1.
         14    1    5    5    0    0  0.22205688894E+02  0.20747559894E+01  0.11047925112E+02  0.24888830445E+02  0.00000000000E+00 0. -1.
         13    1    4    4    0    0 -0.92129394413E+02  0.20762887427E+03 -0.11295745219E+02  0.22743167898E+03  0.00000000000E+00 0. -1.
        -14    1    4    4    0    0 -0.20033609920E+02  0.90338458596E+00 -0.14006968222E+02  0.24461332525E+02  0.00000000000E+00 0.  1.
          5    1    3    3  501    0  0.74394834700E+02 -0.14639299637E+03 -0.15404758169E+04  0.15492090614E+04  0.41800000000E+01 0. -1.
         -5    1    3    3    0  501  0.30231831854E+01 -0.10171749801E+03 -0.22083439805E+04  0.22106913393E+04  0.41800000000E+01 0. -1.
</event>
<event>
11    1  0.2372880E-009  0.3767429E+03  0.7561462E-02  0.9720986E-01
         22   -1    0    0    0    0  0.00000000000E+00  0.00000000000E+00  0.60002513028E+03  0.60002513028E+03  0.00000000000E+00 0. -1.
         22   -1    0    0    0    0 -0.00000000000E+00 -0.00000000000E+00 -0.12941185654E+04  0.12941185654E+04  0.00000000000E+00 0. -1.
         25    2    1    2    0    0 -0.18345597593E+03 -0.29939528006E+03 -0.11290709315E+04  0.11890095892E+04  0.12509598725E+03 0.  0.
         24    2    1    2    0    0  0.23364137191E+03  0.35532353010E+03  0.39788291877E+03  0.58822396212E+03  0.82785933912E+02 0.  0.
        -24    2    1    2    0    0 -0.50185395988E+02 -0.55928250032E+02  0.37094577565E+02  0.11691014439E+03  0.81519513336E+02 0.  0.
        -13    1    4    4    0    0  0.26965503440E+02  0.12924696266E+02  0.49471836320E+02  0.57806995582E+02  0.00000000000E+00 0.  1.
         14    1    4    4    0    0  0.20667586847E+03  0.34239883383E+03  0.34841108245E+03  0.53041696654E+03  0.00000000000E+00 0. -1.
         11    1    5    5    0    0 -0.59374093705E+02 -0.10151721284E+02  0.53962476354E+01  0.60476937232E+02  0.00000000000E+00 0. -1.
        -12    1    5    5    0    0  0.91886977174E+01 -0.45776528747E+02  0.31698329929E+02  0.56433207159E+02  0.00000000000E+00 0.  1.
          5    1    3    3  501    0 -0.14973781122E+02 -0.21176637320E+02 -0.25542147620E+03  0.25676889802E+03  0.41800000000E+01 0.  1.
         -5    1    3    3    0  501 -0.16848219480E+03 -0.27821864274E+03 -0.87364945527E+03  0.93224069115E+03  0.41800000000E+01 0.  1.
</event>
<event>
11    1  0.1704459E-009  0.5077430E+03  0.7561462E-02  0.9376384E-01
         22   -1    0    0    0    0  0.00000000000E+00  0.00000000000E+00  0.12667735867E+04  0.12667735867E+04  0.00000000000E+00 0. -1.
         22   -1    0    0    0    0 -0.00000000000E+00 -0.00000000000E+00 -0.16612361981E+04  0.16612361981E+04  0.00000000000E+00 0.  1.
         25    2    1    2    0    0  0.46087677578E+03  0.16002680414E+03 -0.12185818309E+04  0.13185590838E+04  0.12506157870E+03 0.  0.
         24    2    1    2    0    0 -0.41853687872E+03 -0.32420183671E+03 -0.19782565194E+03  0.57040816104E+03  0.77139690392E+02 0.  0.
        -24    2    1    2    0    0 -0.42339897062E+02  0.16417503258E+03  0.10219448714E+04  0.10390425400E+04  0.80572772019E+02 0.  0.
        -13    1    4    4    0    0 -0.96239080754E+01 -0.14786074432E+02 -0.22255769903E+02  0.28400121438E+02  0.00000000000E+00 0.  1.
         14    1    4    4    0    0 -0.40891297064E+03 -0.30941576228E+03 -0.17556988204E+03  0.54200803960E+03  0.00000000000E+00 0. -1.
         11    1    5    5    0    0 -0.52345122253E+02  0.61699431318E+02  0.34832309672E+03  0.35759727538E+03  0.00000000000E+00 0. -1.
        -12    1    5    5    0    0  0.10005225191E+02  0.10247560126E+03  0.67362177466E+03  0.68144526463E+03  0.00000000000E+00 0.  1.
          5    1    3    3  501    0  0.28839446115E+03  0.35605731808E+02 -0.68052479894E+03  0.73998014009E+03  0.41800000000E+01 0.  1.
         -5    1    3    3    0  501  0.17248231463E+03  0.12442107233E+03 -0.53805703192E+03  0.57857894370E+03  0.41800000000E+01 0.  1.
</event>
<event>
11    1  0.1704459E-009  0.1290619E+03  0.7561462E-02  0.1120427E+00
         22   -1    0    0    0    0  0.00000000000E+00  0.00000000000E+00  0.84294686210E+02  0.84294686210E+02  0.00000000000E+00 0.  1.
         22   -1    0    0    0    0 -0.00000000000E+00 -0.00000000000E+00 -0.37871648584E+03  0.37871648584E+03  0.00000000000E+00 0. -1.
         25    2    1    2    0    0  0.19787648907E+02 -0.98447620625E+01 -0.22913780396E+03  0.26199151847E+03  0.12508777781E+03 0.  0.
         24    2    1    2    0    0 -0.56924236302E+02 -0.11451414902E+02 -0.34979680706E+02  0.10511663971E+03  0.80339444230E+02 0.  0.
        -24    2    1    2    0    0  0.37136587395E+02  0.21296176964E+02 -0.30304314971E+02  0.95903013881E+02  0.80289372204E+02 0.  0.
        -11    1    4    4    0    0 -0.51411594373E+02 -0.11594771832E+02  0.15029777536E+02  0.54804059910E+02  0.00000000000E+00 0.  1.
         12    1    4    4    0    0 -0.55126419294E+01  0.14335693067E+00 -0.50009458242E+02  0.50312579797E+02  0.00000000000E+00 0. -1.
         13    1    5    5    0    0  0.10786550589E+02 -0.75418655159E+01 -0.50318125063E+02  0.52010990367E+02  0.00000000000E+00 0. -1.
        -14    1    5    5    0    0  0.26350036806E+02  0.28838042480E+02  0.20013810092E+02  0.43892023514E+02  0.00000000000E+00 0.  1.
          5    1    3    3  501    0  0.71439580742E+02 -0.33827861361E+01 -0.16035052404E+03  0.17562693386E+03  0.41800000000E+01 0. -1.
         -5    1    3    3    0  501 -0.51651931835E+02 -0.64619759264E+01 -0.68787279918E+02  0.86364584603E+02  0.41800000000E+01 0. -1.
</event>
<event>
11    1  0.1704459E-009  0.2008016E+03  0.7561462E-02  0.1053958E+00
         22   -1    0    0    0    0  0.00000000000E+00  0.00000000000E+00  0.55897409232E+03  0.55897409232E+03  0.00000000000E+00 0. -1.
         22   -1    0    0    0    0 -0.00000000000E+00 -0.00000000000E+00 -0.68182834028E+03  0.68182834028E+03  0.00000000000E+00 0.  1.
         25    2    1    2    0    0  0.36191404445E+02  0.83279521895E+02 -0.59152938561E+03  0.61139108866E+03  0.12508698067E+03 0.  0.
         24    2    1    2    0    0  0.23712093553E+02  0.63808654025E+02 -0.18026780144E+02  0.11118908837E+03  0.86047898642E+02 0.  0.
        -24    2    1    2    0    0 -0.59903497997E+02 -0.14708817592E+03  0.48670191779E+03  0.51822225557E+03  0.80325517858E+02 0.  0.
        -11    1    4    4    0    0  0.13988079469E+02  0.46393964237E+01  0.30615226115E+02  0.33977675560E+02  0.00000000000E+00 0.  1.
         12    1    4    4    0    0  0.97240140840E+01  0.59169257601E+02 -0.48642006259E+02  0.77211412809E+02  0.00000000000E+00 0. -1.
         13    1    5    5    0    0 -0.30909052032E+02 -0.12352534377E+02  0.16363999702E+03  0.16699102739E+03  0.00000000000E+00 0. -1.
        -14    1    5    5    0    0 -0.28994445966E+02 -0.13473564154E+03  0.32306192077E+03  0.35123122818E+03  0.00000000000E+00 0.  1.
          5    1    3    3  501    0 -0.16875979721E+02  0.61823579657E+02 -0.11754838245E+03  0.13394793134E+03  0.41800000000E+01 0.  1.
         -5    1    3    3    0  501  0.53067384166E+02  0.21455942239E+02 -0.47398100316E+03  0.47744315733E+03  0.41800000000E+01 0.  1.
</event>
<event>
11    1  0.1704459E-009  0.1383512E+03  0.7561462E-02  0.1109414E+00
         22   -1    0    0    0    0  0.00000000000E+00  0.00000000000E+00  0.24355515583E+03  0.24355515583E+03  0.00000000000E+00 0. -1.
         22   -1    0    0    0    0 -0.00000000000E+00 -0.00000000000E+00 -0.15294784545E+03  0.15294784545E+03  0.00000000000E+00 0.  1.
         25    2    1    2    0    0  0.20642454797E+02 -0.24819249254E+02  0.12925946987E+02  0.12983168763E+03  0.12508829256E+03 0.  0.
        -24    2    1    2    0    0 -0.52977366300E+02 -0.76871417977E+02  0.35494576899E+02  0.13090340050E+03  0.84616895655E+02 0.  0.
         24    2    1    2    0    0  0.32334911503E+02  0.10169066723E+03  0.42186786495E+02  0.13576791316E+03  0.72571778155E+02 0.  0.
        -11    1    5    5    0    0 -0.36685489107E+01  0.64598119304E+02 -0.61538140138E+01  0.64994189707E+02  0.00000000000E+00 0.  1.
         12    1    5    5    0    0  0.36003460414E+02  0.37092547926E+02  0.48340600509E+02  0.70773723450E+02  0.00000000000E+00 0. -1.
         11    1    4    4    0    0 -0.43590990045E+02 -0.59903322367E+02  0.62999754957E+02  0.97249943796E+02  0.00000000000E+00 0. -1.
        -12    1    4    4    0    0 -0.93863762555E+01 -0.16968095610E+02 -0.27505178058E+02  0.33653456700E+02  0.00000000000E+00 0.  1.
          5    1    3    3  501    0 -0.24386953248E+02 -0.53365263332E+02  0.38755563826E+02  0.70441755704E+02  0.41800000000E+01 0.  1.
         -5    1    3    3    0  501  0.45029408045E+02  0.28546014078E+02 -0.25829616839E+02  0.59389931930E+02  0.41800000000E+01 0.  1.
</event>
<event>
11    1  0.1704459E-009  0.2176981E+03  0.7561462E-02  0.1042669E+00
         22   -1    0    0    0    0  0.00000000000E+00  0.00000000000E+00  0.12901352369E+04  0.12901352369E+04  0.00000000000E+00 0.  1.
         22   -1    0    0    0    0 -0.00000000000E+00 -0.00000000000E+00 -0.17210396617E+04  0.17210396617E+04  0.00000000000E+00 0.  1.
         25    2    1    2    0    0 -0.48506837346E+02 -0.17362824058E+03 -0.16660306291E+04  0.16804180777E+04  0.12508868761E+03 0.  0.
         24    2    1    2    0    0  0.10113543324E+03  0.10834732123E+03  0.11223275151E+03  0.20247738416E+03  0.80208370595E+02 0.  0.
        -24    2    1    2    0    0 -0.52628595893E+02  0.65280919350E+02  0.11228934528E+04  0.11282794367E+04  0.71368154694E+02 0.  0.
        -13    1    4    4    0    0 -0.38675840984E+01  0.46503159086E+02  0.31047182379E+02  0.56048457119E+02  0.00000000000E+00 0.  1.
         14    1    4    4    0    0  0.10500301734E+03  0.61844162140E+02  0.81185569126E+02  0.14642892704E+03  0.00000000000E+00 0. -1.
         13    1    5    5    0    0  0.13182184090E+02 -0.44508744061E+01  0.17321690324E+03  0.17377478479E+03  0.00000000000E+00 0. -1.
        -14    1    5    5    0    0 -0.65810779983E+02  0.69731793756E+02  0.94967654951E+03  0.95450465191E+03  0.00000000000E+00 0.  1.
          5    1    3    3  501    0  0.32653481037E+02 -0.14810006631E+02 -0.17017994405E+03  0.17396629523E+03  0.41800000000E+01 0.  1.
         -5    1    3    3    0  501 -0.81160318384E+02 -0.15881823394E+03 -0.14958506850E+04  0.15064517825E+04  0.41800000000E+01 0.  1.
</event>
<event>
11    1  0.1704459E-009  0.5400171E+03  0.7561462E-02  0.9308295E-01
         22   -1    0    0    0    0  0.00000000000E+00  0.00000000000E+00  0.58603900937E+03  0.58603900937E+03  0.00000000000E+00 0.  1.
         22   -1    0    0    0    0 -0.00000000000E+00 -0.00000000000E+00 -0.84813780073E+03  0.84813780073E+03  0.00000000000E+00 0. -1.
         25    2    1    2    0    0  0.22929952760E+03 -0.48215508641E+03 -0.52624949968E+03  0.76001861250E+03  0.12505180814E+03 0.  0.
        -24    2    1    2    0    0 -0.23137694834E+03  0.44385460448E+03  0.15377230541E+03  0.53003260688E+03  0.82136717169E+02 0.  0.
         24    2    1    2    0    0  0.20774207403E+01  0.38300481933E+02  0.11037840292E+03  0.14412559072E+03  0.84365582287E+02 0.  0.
        -13    1    5    5    0    0  0.31930708618E+02  0.48295250053E+02  0.88620709683E+02  0.10585665551E+03  0.00000000000E+00 0.  1.
         14    1    5    5    0    0 -0.29853287878E+02 -0.99947681207E+01  0.21757693238E+02  0.38268935208E+02  0.00000000000E+00 0. -1.
         13    1    4    4    0    0 -0.48437238848E+02  0.11194817107E+03  0.74237969270E+02  0.14279298020E+03  0.00000000000E+00 0. -1.
        -14    1    4    4    0    0 -0.18293970950E+03  0.33190643341E+03  0.79534336135E+02  0.38723962668E+03  0.00000000000E+00 0.  1.
          5    1    3    3  501    0  0.97753209409E+02 -0.17237493818E+03 -0.11708749220E+03  0.23020808520E+03  0.41800000000E+01 0. -1.
         -5    1    3    3    0  501  0.13154631819E+03 -0.30978014823E+03 -0.40916200748E+03  0.52981052730E+03  0.41800000000E+01 0. -1.
</event>
<event>
11    1  0.1704459E-009  0.1853634E+03  0.7561462E-02  0.1065385E+00
         22   -1    0    0    0    0  0.00000000000E+00  0.00000000000E+00  0.23432583539E+03  0.23432583539E+03  0.00000000000E+00 0. -1.
         22   -1    0    0    0    0 -0.00000000000E+00 -0.00000000000E+00 -0.32504872219E+03  0.32504872219E+03  0.00000000000E+00 0.  1.
         25    2    1    2    0    0 -0.10932498325E+03  0.50868383906E+02 -0.13515036433E+03  0.22011981210E+03  0.12509023247E+03 0.  0.
        -24    2    1    2    0    0 -0.32356248207E+02 -0.42329995872E+02 -0.86817653972E+02  0.12958043607E+03  0.80093876307E+02 0.  0.
         24    2    1    2    0    0  0.14168123146E+03 -0.85383880338E+01  0.13124513151E+03  0.20967430941E+03  0.81188398590E+02 0.  0.
        -13    1    5    5    0    0  0.12802482737E+03 -0.33824819365E+02  0.92902335216E+02  0.16175697424E+03  0.00000000000E+00 0.  1.
         14    1    5    5    0    0  0.13656404085E+02  0.25286431331E+02  0.38342796289E+02  0.47917335164E+02  0.00000000000E+00 0. -1.
         13    1    4    4    0    0 -0.36748743579E+02 -0.63193288711E+02 -0.76782674288E+02  0.10601622972E+03  0.00000000000E+00 0. -1.
        -14    1    4    4    0    0  0.43924953720E+01  0.20863292839E+02 -0.10034979684E+02  0.23564206351E+02  0.00000000000E+00 0.  1.
          5    1    3    3  501    0 -0.72130564497E+02 -0.21731567800E+02 -0.18445613443E+02  0.77671052709E+02  0.41800000000E+01 0.  1.
         -5    1    3    3    0  501 -0.37194418751E+02  0.72599951705E+02 -0.11670475088E+03  0.14244875939E+03  0.41800000000E+01 0.  1.
</event>
<event>
11    1  0.1704459E-009  0.6911057E+03  0.7561462E-02  0.9045515E-01
         22   -1    0    0    0    0  0.00000000000E+00  0.00000000000E+00  0.97833591149E+03  0.97833591149E+03  0.00000000000E+00 0.  1.
         22   -1    0    0    0    0 -0.00000000000E+00 -0.00000000000E+00 -0.14034426370E+04  0.14034426370E+04  0.00000000000E+00 0.  1.
         25    2    1    2    0    0 -0.54927859882E+03 -0.24256857288E+03 -0.64947803646E+03  0.89331795330E+03  0.12509498062E+03 0.  0.
        -24    2    1    2    0    0  0.83470950969E+03  0.50532532832E+03 -0.89196948890E+02  0.98314002468E+03  0.80712820688E+02 0.  0.
         24    2    1    2    0    0 -0.28543091087E+03 -0.26275675545E+03  0.31356825980E+03  0.50532057055E+03  0.80696394304E+02 0.  0.
        -13    1    5    5    0    0 -0.20792685583E+02 -0.51474930394E+02  0.27136410292E+02  0.61793114474E+02  0.00000000000E+00 0.  1.
         14    1    5    5    0    0 -0.26463822529E+03 -0.21128182505E+03  0.28643184950E+03  0.44352745607E+03  0.00000000000E+00 0. -1.
         11    1    4    4    0    0  0.14787751202E+03  0.58360773029E+02 -0.27729912869E+02  0.16137746577E+03  0.00000000000E+00 0. -1.
        -12    1    4    4    0    0  0.68683199768E+03  0.44696455529E+03 -0.61467036021E+02  0.82176255892E+03  0.00000000000E+00 0.  1.
          5    1    3    3  501    0 -0.27758703494E+03 -0.17978214780E+03 -0.30310782905E+03  0.44862903503E+03  0.41800000000E+01 0.  1.
         -5    1    3    3    0  501 -0.27169156388E+03 -0.62786425077E+02 -0.34637020741E+03  0.44468891827E+03  0.41800000000E+01 0.  1.
</event>
<event>
11    1  0.1704459E-009  0.1912616E+03  0.7561462E-02  0.1060881E+00
         22   -1    0    0    0    0  0.00000000000E+00  0.00000000000E+00  0.51619145898E+02  0.51619145898E+02  0.00000000000E+00 0. -1.
         22   -1    0    0    0    0 -0.00000000000E+00 -0.00000000000E+00 -0.11070840455E+04  0.11070840455E+04  0.00000000000E+00 0. -1.
         25    2    1    2    0    0  0.10149215554E+03  0.58987916397E+02 -0.55682895668E+03  0.58265452512E+03  0.12509027430E+03 0.  0.
        -24    2    1    2    0    0  0.45904831229E+01  0.61554041395E+02 -0.24162953260E+03  0.26281453413E+03  0.82925724461E+02 0.  0.
         24    2    1    2    0    0 -0.10608263867E+03 -0.12054195779E+03 -0.25700641035E+03  0.31323413218E+03  0.79242897392E+02 0.  0.
        -13    1    5    5    0    0 -0.15122203607E+02  0.22254959117E+01 -0.12797617501E+01  0.15338567865E+02  0.00000000000E+00 0.  1.
         14    1    5    5    0    0 -0.90960435059E+02 -0.12276745370E+03 -0.25572664860E+03  0.29789556431E+03  0.00000000000E+00 0. -1.
         11    1    4    4    0    0 -0.22201102681E+02  0.67070496063E+02 -0.13081395322E+03  0.14867289853E+03  0.00000000000E+00 0. -1.
        -12    1    4    4    0    0  0.26791585804E+02 -0.55164546685E+01 -0.11081557939E+03  0.11414163560E+03  0.00000000000E+00 0.  1.
          5    1    3    3  501    0  0.50735781632E+02 -0.10960788416E+02 -0.40141108473E+03  0.40477473953E+03  0.41800000000E+01 0.  1.
         -5    1    3    3    0  501  0.50756373912E+02  0.69948704813E+02 -0.15541787195E+03  0.17787978558E+03  0.41800000000E+01 0.  1.
</event>
<event>
11    1  0.1704459E-009  0.6130951E+03  0.7561462E-02  0.9171187E-01
         22   -1    0    0    0    0  0.00000000000E+00  0.00000000000E+00  0.27524184820E+03  0.27524184820E+03  0.00000000000E+00 0.  1.
         22   -1    0    0    0    0 -0.00000000000E+00 -0.00000000000E+00 -0.17994632144E+04  0.17994632144E+04  0.00000000000E+00 0.  1.
         25    2    1    2    0    0  0.50241207684E+03  0.31613880901E+03 -0.98506289477E+03  0.11568740598E+04  0.12508813764E+03 0.  0.
         24    2    1    2    0    0 -0.55278920561E+03 -0.26642457079E+03 -0.52240444238E+03  0.80996708560E+03  0.81131501744E+02 0.  0.
        -24    2    1    2    0    0  0.50377128771E+02 -0.49714238220E+02 -0.16754029023E+02  0.10786391711E+03  0.79652787407E+02 0.  0.
        -13    1    4    4    0    0 -0.31454391776E+03 -0.18891557266E+03 -0.28222844808E+03  0.46290373373E+03  0.00000000000E+00 0.  1.
         14    1    4    4    0    0 -0.23824528786E+03 -0.77508998129E+02 -0.24017599430E+03  0.34706335187E+03  0.00000000000E+00 0. -1.
         13    1    5    5    0    0  0.25200471931E+02 -0.71517800988E+01 -0.44145954158E+02  0.51333001204E+02  0.00000000000E+00 0. -1.
        -14    1    5    5    0    0  0.25176656840E+02 -0.42562458121E+02  0.27391925135E+02  0.56530915909E+02  0.00000000000E+00 0.  1.
          5    1    3    3  501    0  0.46243829971E+03  0.30872082399E+03 -0.84959600725E+03  0.10153760762E+04  0.41800000000E+01 0.  1.
         -5    1    3    3    0  501  0.39973777131E+02  0.74179850258E+01 -0.13546688752E+03  0.14149798364E+03  0.41800000000E+01 0.  1.
</event>
<event>
11    1  0.1704459E-009  0.1956820E+03  0.7561462E-02  0.1057620E+00
         22   -1    0    0    0    0  0.00000000000E+00  0.00000000000E+00  0.99673154634E+02  0.99673154634E+02  0.00000000000E+00 0.  1.
         22   -1    0    0    0    0 -0.00000000000E+00 -0.00000000000E+00 -0.14965864266E+04  0.14965864266E+04  0.00000000000E+00 0.  1.
         25    2    1    2    0    0  0.11401109153E+02  0.13669110118E+03 -0.10434708440E+04  0.10598550724E+04  0.12508768836E+03 0.  0.
        -24    2    1    2    0    0 -0.28940616403E+02 -0.24431672881E+03 -0.22749520338E+03  0.34491501125E+03  0.81756187365E+02 0.  0.
         24    2    1    2    0    0  0.17539507250E+02  0.10762562762E+03 -0.12594722452E+03  0.19148949752E+03  0.94417234972E+02 0.  0.
        -13    1    5    5    0    0  0.23329123602E+02  0.68790482731E+02 -0.15504692737E+02  0.74274989191E+02  0.00000000000E+00 0.  1.
         14    1    5    5    0    0 -0.57896163513E+01  0.38835144893E+02 -0.11044253178E+03  0.11721450833E+03  0.00000000000E+00 0. -1.
         11    1    4    4    0    0  0.21633231768E+02 -0.10546268287E+03 -0.67274139335E+02  0.12694953335E+03  0.00000000000E+00 0. -1.
        -12    1    4    4    0    0 -0.50573848171E+02 -0.13885404593E+03 -0.16022106405E+03  0.21796547790E+03  0.00000000000E+00 0.  1.
          5    1    3    3  501    0  0.15935363252E+02  0.15736315056E+03 -0.98298340300E+03  0.99563594749E+03  0.41800000000E+01 0. -1.
         -5    1    3    3    0  501 -0.45342540996E+01 -0.20672049379E+02 -0.60487441035E+02  0.64219124945E+02  0.41800000000E+01 0. -1.
</event>
<event>
11    1  0.1704459E-009  0.2289772E+03  0.7561462E-02  0.1035735E+00
         22   -1    0    0    0    0  0.00000000000E+00  0.00000000000E+00  0.11189842431E+03  0.11189842431E+03  0.00000000000E+00 0. -1.
         22   -1    0    0    0    0 -0.00000000000E+00 -0.00000000000E+00 -0.11457388170E+04  0.11457388170E+04  0.00000000000E+00 0.  1.
         25    2    1    2    0    0  0.95289618974E+02  0.17864033141E+03 -0.54845273449E+03  0.59786289053E+03  0.12508858627E+03 0.  0.
        -24    2    1    2    0    0  0.63257915465E+02 -0.20454585992E+03 -0.39943117314E+03  0.46016624500E+03  0.79794349911E+02 0.  0.
         24    2    1    2    0    0 -0.15854753444E+03  0.25905528517E+02 -0.85956485037E+02  0.19960810577E+03  0.81525833226E+02 0.  0.
        -13    1    5    5    0    0 -0.22530404791E+02  0.76826834401E+01  0.15969484763E+02  0.28664738067E+02  0.00000000000E+00 0.  1.
         14    1    5    5    0    0 -0.13601712965E+03  0.18222845077E+02 -0.10192596980E+03  0.17094336770E+03  0.00000000000E+00 0. -1.
         13    1    4    4    0    0  0.40177361036E+02 -0.60005740958E+02 -0.74326978204E+02  0.10363111973E+03  0.00000000000E+00 0. -1.
        -14    1    4    4    0    0  0.23080554429E+02 -0.14454011897E+03 -0.32510419494E+03  0.35653512527E+03  0.00000000000E+00 0.  1.
          5    1    3    3  501    0 -0.16952720784E+02  0.10075158731E+02 -0.14522281889E+03  0.14661528942E+03  0.41800000000E+01 0. -1.
         -5    1    3    3    0  501  0.11224233976E+03  0.16856517268E+03 -0.40322991560E+03  0.45124760111E+03  0.41800000000E+01 0. -1.
</event>
<event>
11    1  0.1704459E-009  0.1412124E+03  0.7561462E-02  0.1106212E+00
         22   -1    0    0    0    0  0.00000000000E+00  0.00000000000E+00  0.14251592367E+04  0.14251592367E+04  0.00000000000E+00 0. -1.
         22   -1    0    0    0    0 -0.00000000000E+00 -0.00000000000E+00 -0.84063562174E+03  0.84063562174E+03  0.00000000000E+00 0.  1.
         25    2    1    2    0    0 -0.93732567575E+01  0.74026032167E+02 -0.44041193878E+03  0.46387286668E+03  0.12509056416E+03 0.  0.
         24    2    1    2    0    0 -0.54376569695E+01 -0.10236488848E+02 -0.38244711733E+03  0.39071224058E+03  0.79094270169E+02 0.  0.
        -24    2    1    2    0    0  0.14810913727E+02 -0.63789543318E+02  0.14073826711E+04  0.14112097512E+04  0.80613336557E+02 0.  0.
        -13    1    4    4    0    0 -0.13199548315E+02 -0.40626275643E+00 -0.37670011241E+03  0.37693151608E+03  0.00000000000E+00 0.  1.
         14    1    4    4    0    0  0.77618913453E+01 -0.98302260920E+01 -0.57470049134E+01  0.13780724500E+02  0.00000000000E+00 0. -1.
         11    1    5    5    0    0 -0.21792108992E+02  0.23435023511E+01  0.57039958023E+03  0.57082052271E+03  0.00000000000E+00 0. -1.
        -12    1    5    5    0    0  0.36603022719E+02 -0.66133045669E+02  0.83698309083E+03  0.84038922848E+03  0.00000000000E+00 0.  1.
          5    1    3    3  501    0  0.19118167331E+02 -0.12439030782E+02 -0.26670212817E+03  0.26770829531E+03  0.41800000000E+01 0.  1.
         -5    1    3    3    0  501 -0.28491424089E+02  0.86465062949E+02 -0.17370981061E+03  0.19616457137E+03  0.41800000000E+01 0.  1.
</event>
<event>
11    1  0.1704459E-009  0.1806881E+03  0.7561462E-02  0.1069088E+00
         22   -1    0    0    0    0  0.00000000000E+00  0.00000000000E+00  0.75748065829E+03  0.75748065829E+03  0.00000000000E+00 0. -1.
         22   -1    0    0    0    0 -0.00000000000E+00 -0.00000000000E+00 -0.78814191187E+03  0.78814191187E+03  0.00000000000E+00 0. -1.
         25    2    1    2    0    0  0.96203754780E+02 -0.62469291858E+02 -0.36142084141E+03  0.39929245705E+03  0.12510742102E+03 0.  0.
        -24    2    1    2    0    0 -0.83457538206E+02  0.12521619448E+03 -0.38602668811E+03  0.42203428894E+03  0.80324847111E+02 0.  0.
         24    2    1    2    0    0 -0.12746216574E+02 -0.62746902623E+02  0.71678627594E+03  0.72429582417E+03  0.81989241469E+02 0.  0.
        -11    1    5    5    0    0  0.31108311944E+01 -0.48603255089E+02  0.16344741469E+03  0.17054914554E+03  0.00000000000E+00 0.  1.
         12    1    5    5    0    0 -0.15857047768E+02 -0.14143647535E+02  0.55333886125E+03  0.55374667863E+03  0.00000000000E+00 0. -1.
         13    1    4    4    0    0 -0.70493267128E+02  0.64268338524E+02 -0.30651223638E+03  0.32101319459E+03  0.00000000000E+00 0. -1.
        -14    1    4    4    0    0 -0.12964271078E+02  0.60947855958E+02 -0.79514451724E+02  0.10102109435E+03  0.00000000000E+00 0.  1.
          5    1    3    3  501    0  0.71724872693E+02 -0.68558241133E+02 -0.11668187187E+03  0.15322147830E+03  0.41800000000E+01 0. -1.
         -5    1    3    3    0  501  0.24478882087E+02  0.60889492744E+01 -0.24473896954E+03  0.24607097875E+03  0.41800000000E+01 0. -1.
</event>
<event>
11    1  0.1769841E-009  0.7681231E+03  0.7561462E-02  0.8937528E-01
         22   -1    0    0    0    0  0.00000000000E+00  0.00000000000E+00  0.76332160475E+03  0.76332160475E+03  0.00000000000E+00 0. -1.
         22   -1    0    0    0    0 -0.00000000000E+00 -0.00000000000E+00 -0.16524915161E+04  0.16524915161E+04  0.00000000000E+00 0. -1.
         25    2    1    2    0    0 -0.55836485867E+03 -0.49747383657E+03 -0.12156010964E+04  0.14326842887E+04  0.12508681835E+03 0.  0.
         24    2    1    2    0    0  0.62341439012E+03  0.52277239387E+03  0.32041038921E+03  0.87805772629E+03  0.79912925003E+02 0.  0.
        -24    2    1    2    0    0 -0.65049531452E+02 -0.25298557301E+02  0.60207958326E+01  0.10507110585E+03  0.78308548433E+02 0.  0.
        -11    1    4    4    0    0  0.13955081478E+03  0.16143121991E+03  0.74649675655E+02  0.22606866820E+03  0.00000000000E+00 0.  1.
         12    1    4    4    0    0  0.48386357534E+03  0.36134117396E+03  0.24576071356E+03  0.65198905809E+03  0.00000000000E+00 0. -1.
         11    1    5    5    0    0 -0.32684701962E+02  0.63690979309E+01 -0.31821667323E+02  0.46059457900E+02  0.00000000000E+00 0. -1.
        -12    1    5    5    0    0 -0.32364829490E+02 -0.31667655231E+02  0.37842463155E+02  0.59011647947E+02  0.00000000000E+00 0.  1.
          5    1    3    3  501    0 -0.94658442506E+01 -0.22668261742E+02 -0.13141827429E+02  0.28171480720E+02  0.41800000000E+01 0.  1.
         -5    1    3    3    0  501 -0.54889901442E+03 -0.47480557482E+03 -0.12024592690E+04  0.14045128080E+04  0.41800000000E+01 0.  1.
</event>
<event>
11    1  0.1704459E-009  0.2251062E+03  0.7561462E-02  0.1038065E+00
         22   -1    0    0    0    0  0.00000000000E+00  0.00000000000E+00  0.39001245049E+03  0.39001245049E+03  0.00000000000E+00 0.  1.
         22   -1    0    0    0    0 -0.00000000000E+00 -0.00000000000E+00 -0.34875821045E+03  0.34875821045E+03  0.00000000000E+00 0.  1.
         25    2    1    2    0    0  0.33617652443E+02 -0.17900241698E+03 -0.15081426199E+03  0.26751643004E+03  0.12509231343E+03 0.  0.
        -24    2    1    2    0    0 -0.24553695136E+02  0.19298078502E+03 -0.49155855658E+02  0.21647213285E+03  0.81236807085E+02 0.  0.
         24    2    1    2    0    0 -0.90639573076E+01 -0.13978368031E+02  0.24122435769E+03  0.25478209804E+03  0.80294312656E+02 0.  0.
        -13    1    5    5    0    0 -0.17548413396E+02 -0.26620069192E+02  0.23678663746E+03  0.23892359987E+03  0.00000000000E+00 0.  1.
         14    1    5    5    0    0  0.84844560882E+01  0.12641701161E+02  0.44377202304E+01  0.15858498170E+02  0.00000000000E+00 0. -1.
         13    1    4    4    0    0  0.27165057777E+02  0.66225992914E+02 -0.32325547241E+02  0.78541476342E+02  0.00000000000E+00 0. -1.
        -14    1    4    4    0    0 -0.51718752913E+02  0.12675479210E+03 -0.16830308416E+02  0.13793065651E+03  0.00000000000E+00 0.  1.
          5    1    3    3  501    0 -0.18622373433E+02 -0.14843600272E+02  0.14935085274E+02  0.28419261662E+02  0.41800000000E+01 0.  1.
         -5    1    3    3    0  501  0.52240025877E+02 -0.16415881671E+03 -0.16574934727E+03  0.23909716838E+03  0.41800000000E+01 0.  1.
</event>
<event>
11    1  0.1704459E-009  0.1316953E+03  0.7561462E-02  0.1117203E+00
         22   -1    0    0    0    0  0.00000000000E+00  0.00000000000E+00  0.10014837755E+03  0.10014837755E+03  0.00000000000E+00 0. -1.
         22   -1    0    0    0    0 -0.00000000000E+00 -0.00000000000E+00 -0.90828921715E+03  0.90828921715E+03  0.00000000000E+00 0. -1.
         25    2    1    2    0    0 -0.13616372298E+02 -0.43244024957E+02 -0.57119995962E+03  0.58649155921E+03  0.12508998310E+03 0.  0.
         24    2    1    2    0    0  0.33856379125E+01  0.37570670811E+02 -0.30252680720E+03  0.31698076764E+03  0.86783178835E+02 0.  0.
        -24    2    1    2    0    0  0.10230734385E+02  0.56733541459E+01  0.65585927213E+02  0.10496526785E+03  0.81113123065E+02 0.  0.
        -11    1    4    4    0    0  0.69737427817E+01 -0.27316260045E+02 -0.67894038580E+02  0.73514703468E+02  0.00000000000E+00 0.  1.
         12    1    4    4    0    0 -0.35881048692E+01  0.64886930856E+02 -0.23463276862E+03  0.24346606417E+03  0.00000000000E+00 0. -1.
         13    1    5    5    0    0  0.52914910419E+00  0.31337238094E+02 -0.26169047603E+01  0.31450765979E+02  0.00000000000E+00 0. -1.
        -14    1    5    5    0    0  0.97015852810E+01 -0.25663883949E+02  0.68202831973E+02  0.73514501872E+02  0.00000000000E+00 0.  1.
          5    1    3    3  501    0 -0.25999763558E+02  0.98451009882E+01 -0.47506987911E+03  0.47590101508E+03  0.41800000000E+01 0. -1.
         -5    1    3    3    0  501  0.12383391261E+02 -0.53089125945E+02 -0.96130080512E+02  0.11059054413E+03  0.41800000000E+01 0. -1.
</event>
<event>
11    1  0.1704459E-009  0.2209257E+03  0.7561462E-02  0.1040639E+00
         22   -1    0    0    0    0  0.00000000000E+00  0.00000000000E+00  0.15509914586E+03  0.15509914586E+03  0.00000000000E+00 0. -1.
         22   -1    0    0    0    0 -0.00000000000E+00 -0.00000000000E+00 -0.59246985688E+03  0.59246985688E+03  0.00000000000E+00 0.  1.
         25    2    1    2    0    0  0.17844512886E+02 -0.74530954272E+02 -0.11954689444E+03  0.18924146824E+03  0.12509030157E+03 0.  0.
        -24    2    1    2    0    0 -0.21231662946E+03  0.24935704875E+01 -0.23047613786E+03  0.31950221245E+03  0.62272342202E+02 0.  0.
         24    2    1    2    0    0  0.19447211657E+03  0.72037383785E+02 -0.87347678727E+02  0.23882532205E+03  0.79994554114E+02 0.  0.
        -13    1    5    5    0    0  0.20194628070E+03  0.71779744045E+02 -0.87089689383E+02  0.23134227012E+03  0.00000000000E+00 0.  1.
         14    1    5    5    0    0 -0.74741641349E+01  0.25763973948E+00 -0.25798934385E+00  0.74830519344E+01  0.00000000000E+00 0. -1.
         11    1    4    4    0    0 -0.35573717619E+02 -0.27415024883E+01 -0.10343805977E+02  0.37148345094E+02  0.00000000000E+00 0. -1.
        -12    1    4    4    0    0 -0.17674291184E+03  0.52350729758E+01 -0.22013233188E+03  0.28235386736E+03  0.00000000000E+00 0.  1.
          5    1    3    3  501    0  0.23764690755E+02 -0.35549411314E+01  0.20635332812E+02  0.31948200159E+02  0.41800000000E+01 0. -1.
         -5    1    3    3    0  501 -0.59201778688E+01 -0.70976013141E+02 -0.14018222725E+03  0.15729326808E+03  0.41800000000E+01 0. -1.
</event>
<event>
11    1  0.1704459E-009  0.3464007E+03  0.7561462E-02  0.9822653E-01
         22   -1    0    0    0    0  0.00000000000E+00  0.00000000000E+00  0.49797420290E+03  0.49797420290E+03  0.00000000000E+00 0. -1.
         22   -1    0    0    0    0 -0.00000000000E+00 -0.00000000000E+00 -0.15615166485E+04  0.15615166485E+04  0.00000000000E+00 0.  1.
         25    2    1    2    0    0  0.54458266918E+02 -0.31357256777E+03 -0.11733042941E+04  0.12221228452E+04  0.12509126304E+03 0.  0.
         24    2    1    2    0    0 -0.37123602775E+03  0.31554229657E+03  0.12714439500E+03  0.50989662964E+03  0.80285406637E+02 0.  0.
        -24    2    1    2    0    0  0.31677776083E+03 -0.19697288052E+01 -0.17382546442E+02  0.32747137651E+03  0.81137660346E+02 0.  0.
        -11    1    4    4    0    0 -0.11636185471E+03  0.93570654395E+02  0.77677466743E+02  0.16831321230E+03  0.00000000000E+00 0.  1.
         12    1    4    4    0    0 -0.25487417304E+03  0.22197164218E+03  0.49466928254E+02  0.34158341734E+03  0.00000000000E+00 0. -1.
         13    1    5    5    0    0  0.26538248281E+03 -0.34649214588E+01 -0.44865020242E+02  0.26917046254E+03  0.00000000000E+00 0. -1.
        -14    1    5    5    0    0  0.51395278016E+02  0.14951926535E+01  0.27482473799E+02  0.58300913969E+02  0.00000000000E+00 0.  1.
          5    1    3    3  501    0 -0.39966753479E+01 -0.18736115217E+03 -0.84506413569E+03  0.86560443656E+03  0.41800000000E+01 0. -1.
         -5    1    3    3    0  501  0.58454942266E+02 -0.12621141560E+03 -0.32824015845E+03  0.35651840867E+03  0.41800000000E+01 0. -1.
</event>
<event>
11    1  0.1704459E-009  0.1452931E+03  0.7561462E-02  0.1101788E+00
         22   -1    0    0    0    0  0.00000000000E+00  0.00000000000E+00  0.33033993209E+03  0.33033993209E+03  0.00000000000E+00 0. -1.
         22   -1    0    0    0    0 -0.00000000000E+00 -0.00000000000E+00 -0.67380155109E+03  0.67380155109E+03  0.00000000000E+00 0.  1.
         25    2    1    2    0    0 -0.53981492754E+02 -0.36414568388E+01 -0.26739903406E+03  0.30012900739E+03  0.12509162998E+03 0.  0.
         24    2    1    2    0    0  0.67909067505E+02 -0.65514387986E+02 -0.37067760256E+03  0.39071484698E+03  0.79702133794E+02 0.  0.
        -24    2    1    2    0    0 -0.13927574752E+02  0.69155844825E+02  0.29461501763E+03  0.31329762880E+03  0.79880456874E+02 0.  0.
        -13    1    4    4    0    0  0.81797422313E+02 -0.70613756398E+02 -0.33776469357E+03  0.35462953785E+03  0.00000000000E+00 0.  1.
         14    1    4    4    0    0 -0.13888354807E+02  0.50993684123E+01 -0.32912908986E+02  0.36085309135E+02  0.00000000000E+00 0. -1.
         13    1    5    5    0    0 -0.75007874168E+01  0.85228499959E+01  0.20257978950E+03  0.20289768825E+03  0.00000000000E+00 0. -1.
        -14    1    5    5    0    0 -0.64267873350E+01  0.60632994829E+02  0.92035228125E+02  0.11039994055E+03  0.00000000000E+00 0.  1.
          5    1    3    3  501    0 -0.57998637643E+02 -0.30710270392E+02 -0.26420124030E+03  0.27226224574E+03  0.41800000000E+01 0. -1.
         -5    1    3    3    0  501  0.40171448889E+01  0.27068813553E+02 -0.31977937631E+01  0.27866761656E+02  0.41800000000E+01 0. -1.
</event>
<event>
11    1  0.1704459E-009  0.3656402E+03  0.7561462E-02  0.9756958E-01
         22   -1    0    0    0    0  0.00000000000E+00  0.00000000000E+00  0.13602661864E+03  0.13602661864E+03  0.00000000000E+00 0. -1.
         22   -1    0    0    0    0 -0.00000000000E+00 -0.00000000000E+00 -0.17483973047E+04  0.17483973047E+04  0.00000000000E+00 0. -1.
         25    2    1    2    0    0  0.20526782817E+03 -0.31573480694E+03 -0.11719504698E+04  0.12373111084E+04  0.12509007077E+03 0.  0.
         24    2    1    2    0    0 -0.23467510071E+03  0.18186812971E+03 -0.34821065103E+03  0.46332574745E+03  0.72606275609E+02 0.  0.
        -24    2    1    2    0    0  0.29407272544E+02  0.13386667723E+03 -0.92209565224E+02  0.18378706745E+03  0.80560581489E+02 0.  0.
        -11    1    4    4    0    0 -0.11857300444E+02  0.19726157393E+02 -0.61458166958E+02  0.65626390615E+02  0.00000000000E+00 0.  1.
         12    1    4    4    0    0 -0.22281780027E+03  0.16214197232E+03 -0.28675248408E+03  0.39769935683E+03  0.00000000000E+00 0. -1.
         13    1    5    5    0    0  0.33817134556E+02  0.34475730121E+02 -0.64379543350E+02  0.80479190844E+02  0.00000000000E+00 0. -1.
        -14    1    5    5    0    0 -0.44098620113E+01  0.99390947110E+02 -0.27830021875E+02  0.10330787660E+03  0.00000000000E+00 0.  1.
          5    1    3    3  501    0  0.13596511207E+03 -0.96425301708E+02 -0.50223803940E+03  0.52919265975E+03  0.41800000000E+01 0. -1.
         -5    1    3    3    0  501  0.69302716095E+02 -0.21930950523E+03 -0.66971243040E+03  0.70811844869E+03  0.41800000000E+01 0. -1.
</event>
<event>
11    1  0.1704459E-009  0.2447987E+03  0.7561462E-02  0.1026707E+00
         22   -1    0    0    0    0  0.00000000000E+00  0.00000000000E+00  0.10848153052E+04  0.10848153052E+04  0.00000000000E+00 0. -1.
         22   -1    0    0    0    0 -0.00000000000E+00 -0.00000000000E+00 -0.65175901700E+03  0.65175901700E+03  0.00000000000E+00 0. -1.
         25    2    1    2    0    0 -0.10386382277E+03 -0.16996530377E+03 -0.51043570238E+03  0.56202214451E+03  0.12509351097E+03 0.  0.
         24    2    1    2    0    0  0.12360105863E+03  0.31255584027E+03  0.17161622667E+03  0.38575373530E+03  0.79908948588E+02 0.  0.
        -24    2    1    2    0    0 -0.19737235856E+02 -0.14259053649E+03  0.77187576393E+03  0.78879844240E+03  0.75426574995E+02 0.  0.
        -13    1    4    4    0    0  0.11285462387E+02  0.55970458521E+02  0.63826270307E+02  0.85637881043E+02  0.00000000000E+00 0.  1.
         14    1    4    4    0    0  0.11231559624E+03  0.25658538175E+03  0.10778995636E+03  0.30011585426E+03  0.00000000000E+00 0. -1.
         11    1    5    5    0    0 -0.41089905107E+02 -0.38687940260E+02  0.27033619175E+03  0.27616443217E+03  0.00000000000E+00 0. -1.
        -12    1    5    5    0    0  0.21352669251E+02 -0.10390259623E+03  0.50153957218E+03  0.51263401023E+03  0.00000000000E+00 0.  1.
          5    1    3    3  501    0 -0.70298351793E+02 -0.16627139211E+03 -0.31030118820E+03  0.35901578503E+03  0.41800000000E+01 0.  1.
         -5    1    3    3    0  501 -0.33565470982E+02 -0.36939116678E+01 -0.20013451418E+03  0.20300635948E+03  0.41800000000E+01 0.  1.
</event>
<event>
11    1  0.1704459E-009  0.1255701E+04  0.7561462E-02  0.8467806E-01
         22   -1    0    0    0    0  0.00000000000E+00  0.00000000000E+00  0.32268577488E+03  0.32268577488E+03  0.00000000000E+00 0. -1.
         22   -1    0    0    0    0 -0.00000000000E+00 -0.00000000000E+00 -0.12216111302E+04  0.12216111302E+04  0.00000000000E+00 0. -1.
         25    2    1    2    0    0 -0.42721646411E+03  0.25119509445E+02 -0.94220287316E+03  0.10423736482E+04  0.12510664008E+03 0.  0.
         24    2    1    2    0    0  0.36601207747E+03  0.38913378404E+01  0.92730527817E+02  0.38593373038E+03  0.79786653611E+02 0.  0.
        -24    2    1    2    0    0  0.61204386637E+02 -0.29010847286E+02 -0.49453009944E+02  0.11598952642E+03  0.80127172934E+02 0.  0.
        -11    1    4    4    0    0  0.30864735364E+02 -0.17798388448E+02 -0.54159923524E+01  0.36038139430E+02  0.00000000000E+00 0.  1.
         12    1    4    4    0    0  0.33514734211E+03  0.21689726288E+02  0.98146520170E+02  0.34989559095E+03  0.00000000000E+00 0. -1.
         11    1    5    5    0    0  0.66619166246E+02  0.81588986429E+01 -0.35436533227E+02  0.75897488927E+02  0.00000000000E+00 0. -1.
        -12    1    5    5    0    0 -0.54147796085E+01 -0.37169745929E+02 -0.14016476717E+02  0.40092037491E+02  0.00000000000E+00 0.  1.
          5    1    3    3  501    0 -0.30453241132E+03  0.73746356176E+02 -0.64067926778E+03  0.71320818220E+03  0.41800000000E+01 0. -1.
         -5    1    3    3    0  501 -0.12268405278E+03 -0.48626846730E+02 -0.30152360538E+03  0.32916546604E+03  0.41800000000E+01 0. -1.
</event>
<event>
11    1  0.1704459E-009  0.1923462E+03  0.7561462E-02  0.1060072E+00
         22   -1    0    0    0    0  0.00000000000E+00  0.00000000000E+00  0.17487002233E+04  0.17487002233E+04  0.00000000000E+00 0. -1.
         22   -1    0    0    0    0 -0.00000000000E+00 -0.00000000000E+00 -0.24117601157E+03  0.24117601157E+03  0.00000000000E+00 0.  1.
         25    2    1    2    0    0 -0.13053714388E+03 -0.15855314795E+02 -0.47500582130E+02  0.18759849798E+03  0.12508218979E+03 0.  0.
         24    2    1    2    0    0  0.16073848096E+03 -0.38333066507E+01 -0.55716006525E+02  0.18911706398E+03  0.82519312908E+02 0.  0.
        -24    2    1    2    0    0 -0.30201337082E+02  0.19688621445E+02  0.16107408004E+04  0.16131606729E+04  0.80632921321E+02 0.  0.
        -13    1    4    4    0    0  0.99049088508E+02  0.71314992524E+01 -0.74002896094E+02  0.12384671512E+03  0.00000000000E+00 0.  1.
         14    1    4    4    0    0  0.61689392454E+02 -0.10964805903E+02  0.18286889570E+02  0.65270348858E+02  0.00000000000E+00 0. -1.
         13    1    5    5    0    0 -0.22792649564E+02 -0.44061464017E+01  0.14697997488E+04  0.14699830681E+04  0.00000000000E+00 0. -1.
        -14    1    5    5    0    0 -0.74086875175E+01  0.24094767847E+02  0.14094105160E+03  0.14317760479E+03  0.00000000000E+00 0.  1.
          5    1    3    3  501    0 -0.60036025483E+02  0.27503133996E+02 -0.75249920870E+02  0.10020364128E+03  0.41800000000E+01 0.  1.
         -5    1    3    3    0  501 -0.70501118397E+02 -0.43358448791E+02  0.27749338740E+02  0.87394856698E+02  0.41800000000E+01 0.  1.
</event>
<event>
11    1  0.1704459E-009  0.6336311E+03  0.7561462E-02  0.9136264E-01
         22   -1    0    0    0    0  0.00000000000E+00  0.00000000000E+00  0.36751198581E+03  0.36751198581E+03  0.00000000000E+00 0. -1.
         22   -1    0    0    0    0 -0.00000000000E+00 -0.00000000000E+00 -0.17563179752E+04  0.17563179752E+04  0.00000000000E+00 0. -1.
         25    2    1    2    0    0  0.56659600927E+03  0.39418730417E+03 -0.86964724156E+03  0.11172952746E+04  0.12509091698E+03 0.  0.
        -24    2    1    2    0    0 -0.29157163982E+03 -0.47457609749E+03 -0.30383972401E+03  0.63977793635E+03  0.82223697881E+02 0.  0.
         24    2    1    2    0    0 -0.27502436945E+03  0.80388793321E+02 -0.21531902385E+03  0.36675675006E+03  0.77765479482E+02 0.  0.
        -11    1    5    5    0    0 -0.16299739822E+03  0.14567220972E+02 -0.14690975211E+03  0.21991550881E+03  0.00000000000E+00 0.  1.
         12    1    5    5    0    0 -0.11202697123E+03  0.65821572349E+02 -0.68409271743E+02  0.14684124124E+03  0.00000000000E+00 0. -1.
         13    1    4    4    0    0 -0.20932925661E+03 -0.28114159624E+03 -0.21772095389E+03  0.41262785724E+03  0.00000000000E+00 0. -1.
        -14    1    4    4    0    0 -0.82242383210E+02 -0.19343450125E+03 -0.86118770118E+02  0.22715007910E+03  0.00000000000E+00 0.  1.
          5    1    3    3  501    0  0.25053663015E+03  0.23860060852E+03 -0.48395641239E+03  0.59492027610E+03  0.41800000000E+01 0.  1.
         -5    1    3    3    0  501  0.31605937912E+03  0.15558669565E+03 -0.38569082917E+03  0.52237499854E+03  0.41800000000E+01 0.  1.
</event>
<event>
11    1  0.1704459E-009  0.3124371E+03  0.7561462E-02  0.9950608E-01
         22   -1    0    0    0    0  0.00000000000E+00  0.00000000000E+00  0.49143275242E+03  0.49143275242E+03  0.00000000000E+00 0. -1.
         22   -1    0    0    0    0 -0.00000000000E+00 -0.00000000000E+00 -0.35157987334E+03  0.35157987334E+03  0.00000000000E+00 0. -1.
         25    2    1    2    0    0 -0.21294858978E+03 -0.18584891105E+03 -0.11323303108E+03  0.32917639769E+03  0.12509381216E+03 0.  0.
         24    2    1    2    0    0  0.27578527486E+03  0.12447165681E+03  0.11765926484E+03  0.33464666818E+03  0.81203317332E+02 0.  0.
        -24    2    1    2    0    0 -0.62836685074E+02  0.61377254236E+02  0.13542664532E+03  0.17918955990E+03  0.77800422791E+02 0.  0.
        -11    1    4    4    0    0  0.38065911077E+02  0.52557917533E+02  0.22604961211E+02  0.68719229863E+02  0.00000000000E+00 0.  1.
         12    1    4    4    0    0  0.23771936378E+03  0.71913739276E+02  0.95054303627E+02  0.26592743832E+03  0.00000000000E+00 0. -1.
         13    1    5    5    0    0 -0.37726416701E+02 -0.11115933785E+02  0.58934995724E+02  0.70853230145E+02  0.00000000000E+00 0. -1.
        -14    1    5    5    0    0 -0.25110268374E+02  0.72493188021E+02  0.76491649593E+02  0.10833632975E+03  0.00000000000E+00 0.  1.
          5    1    3    3  501    0 -0.92457468511E+02 -0.11437454077E+03  0.28968530430E+01  0.14715904056E+03  0.41800000000E+01 0. -1.
         -5    1    3    3    0  501 -0.12049112127E+03 -0.71474370276E+02 -0.11612988412E+03  0.18201735713E+03  0.41800000000E+01 0. -1.
</event>
<event>
11    1  0.1704459E-009  0.1277506E+03  0.7561462E-02  0.1122064E+00
         22   -1    0    0    0    0  0.00000000000E+00  0.00000000000E+00  0.12299810596E+04  0.12299810596E+04  0.00000000000E+00 0. -1.
         22   -1    0    0    0    0 -0.00000000000E+00 -0.00000000000E+00 -0.39155790248E+02  0.39155790248E+02  0.00000000000E+00 0.  1.
         25    2    1    2    0    0  0.51283839531E+01 -0.19373679533E+02  0.11815268711E+03  0.17322932579E+03  0.12508677812E+03 0.  0.
         24    2    1    2    0    0  0.61442589222E+02 -0.10304598711E+02  0.33075047124E+03  0.34609574943E+03  0.80653685725E+02 0.  0.
        -24    2    1    2    0    0 -0.66570973175E+02  0.29678278243E+02  0.74192211105E+03  0.74981177468E+03  0.80354115743E+02 0.  0.
        -13    1    4    4    0    0  0.19889035097E+02  0.11060808673E+02  0.15815650669E+02  0.27713715227E+02  0.00000000000E+00 0.  1.
         14    1    4    4    0    0  0.41553554125E+02 -0.21365407384E+02  0.31493482057E+03  0.31838203420E+03  0.00000000000E+00 0. -1.
         11    1    5    5    0    0 -0.81445064227E+02  0.24205796974E+02  0.48385600503E+03  0.49125945558E+03  0.00000000000E+00 0. -1.
        -12    1    5    5    0    0  0.14874091052E+02  0.54724812695E+01  0.25806610602E+03  0.25855231910E+03  0.00000000000E+00 0.  1.
          5    1    3    3  501    0 -0.33788775150E+02  0.36754444625E+02  0.81330078013E+02  0.95522900476E+02  0.41800000000E+01 0. -1.
         -5    1    3    3    0  501  0.38917159103E+02 -0.56128124157E+02  0.36822609098E+02  0.77706425312E+02  0.41800000000E+01 0. -1.
</event>
<event>
11    1  0.1704459E-009  0.7727856E+03  0.7561462E-02  0.8931422E-01
         22   -1    0    0    0    0  0.00000000000E+00  0.00000000000E+00  0.42613694482E+03  0.42613694482E+03  0.00000000000E+00 0. -1.
         22   -1    0    0    0    0 -0.00000000000E+00 -0.00000000000E+00 -0.17766701920E+04  0.17766701920E+04  0.00000000000E+00 0. -1.
         25    2    1    2    0    0  0.36939988822E+03  0.61850458979E+03 -0.69878577745E+03  0.10114113099E+04  0.12508824905E+03 0.  0.
        -24    2    1    2    0    0 -0.47186688225E+03 -0.66696507708E+03 -0.65901020169E+03  0.10528170782E+04  0.81416126547E+02 0.  0.
         24    2    1    2    0    0  0.10246699403E+03  0.48460487297E+02  0.72627319674E+01  0.13857874867E+03  0.79394071638E+02 0.  0.
        -11    1    5    5    0    0  0.45222329789E+01  0.30711008623E+02  0.21870119918E+02  0.37972605744E+02  0.00000000000E+00 0.  1.
         12    1    5    5    0    0  0.97944761052E+02  0.17749478673E+02 -0.14607387951E+02  0.10060614292E+03  0.00000000000E+00 0. -1.
         11    1    4    4    0    0 -0.19026556334E+03 -0.20543531892E+03 -0.20957967982E+03  0.34975462405E+03  0.00000000000E+00 0. -1.
        -12    1    4    4    0    0 -0.28160131891E+03 -0.46152975816E+03 -0.44943052186E+03  0.70306245417E+03  0.00000000000E+00 0.  1.
          5    1    3    3  501    0  0.34572865870E+03  0.48628838367E+03 -0.57789253331E+03  0.83065152139E+03  0.41800000000E+01 0.  1.
         -5    1    3    3    0  501  0.23671229522E+02  0.13221620612E+03 -0.12089324414E+03  0.18075978853E+03  0.41800000000E+01 0.  1.
</event>
<event>
11    1  0.1704459E-009  0.1800588E+03  0.7561462E-02  0.1069595E+00
         22   -1    0    0    0    0  0.00000000000E+00  0.00000000000E+00  0.17414322883E+03  0.17414322883E+03  0.00000000000E+00 0. -1.
         22   -1    0    0    0    0 -0.00000000000E+00 -0.00000000000E+00 -0.36833828315E+03  0.36833828315E+03  0.00000000000E+00 0.  1.
         25    2    1    2    0    0  0.96938083421E+02 -0.69777835920E+02 -0.14990273558E+03  0.22887671263E+03  0.12509109099E+03 0.  0.
        -24    2    1    2    0    0 -0.41277261781E+02 -0.84605381791E+02  0.28196698718E+01  0.12545503699E+03  0.82880231664E+02 0.  0.
         24    2    1    2    0    0 -0.55660821640E+02  0.15438321771E+03 -0.47111988618E+02  0.18814976237E+03  0.79047382186E+02 0.  0.
        -13    1    5    5    0    0 -0.27107443036E+02  0.50128735081E+02 -0.55734856957E+02  0.79712469719E+02  0.00000000000E+00 0.  1.
         14    1    5    5    0    0 -0.28553378604E+02  0.10425448263E+03  0.86228683387E+01  0.10843729265E+03  0.00000000000E+00 0. -1.
         13    1    4    4    0    0 -0.76700190650E+01 -0.52365330901E+02  0.39609976547E+02  0.66105274486E+02  0.00000000000E+00 0. -1.
        -14    1    4    4    0    0 -0.33607242716E+02 -0.32240050890E+02 -0.36790306675E+02  0.59349762507E+02  0.00000000000E+00 0.  1.
          5    1    3    3  501    0 -0.15931887802E+02 -0.79902940126E+01 -0.80625449449E+02  0.82677719769E+02  0.41800000000E+01 0.  1.
         -5    1    3    3    0  501  0.11286997122E+03 -0.61787541907E+02 -0.69277286129E+02  0.14619899286E+03  0.41800000000E+01 0.  1.
</event>
<event>
11    1  0.1704459E-009  0.2377324E+03  0.7561462E-02  0.1030645E+00
         22   -1    0    0    0    0  0.00000000000E+00  0.00000000000E+00  0.60905859952E+03  0.60905859952E+03  0.00000000000E+00 0.  1.
         22   -1    0    0    0    0 -0.00000000000E+00 -0.00000000000E+00 -0.19143268213E+03  0.19143268213E+03  0.00000000000E+00 0. -1.
         25    2    1    2    0    0 -0.19957827835E+03  0.71279118557E+01  0.95559783467E+02  0.25428542784E+03  0.12508840985E+03 0.  0.
         24    2    1    2    0    0  0.20243315131E+03  0.35532171646E+02  0.89360817037E+01  0.22062416509E+03  0.79708548461E+02 0.  0.
        -24    2    1    2    0    0 -0.28548729517E+01 -0.42660083501E+02  0.31313005222E+03  0.32558168871E+03  0.78262209234E+02 0.  0.
        -11    1    4    4    0    0  0.27219517283E+02 -0.16434599048E+02 -0.16967016871E+02  0.36039947676E+02  0.00000000000E+00 0.  1.
         12    1    4    4    0    0  0.17521363402E+03  0.51966770694E+02  0.25903098575E+02  0.18458421742E+03  0.00000000000E+00 0. -1.
         13    1    5    5    0    0 -0.34887692754E+02 -0.12667790283E+01  0.93603830278E+02  0.99902116482E+02  0.00000000000E+00 0. -1.
        -14    1    5    5    0    0  0.32032819803E+02 -0.41393304473E+02  0.21952622194E+03  0.22567957223E+03  0.00000000000E+00 0.  1.
          5    1    3    3  501    0 -0.13168021078E+03  0.57079224339E+02  0.28245297108E+02  0.14633176337E+03  0.41800000000E+01 0. -1.
         -5    1    3    3    0  501 -0.67898067575E+02 -0.49951312483E+02  0.67314486359E+02  0.10795366447E+03  0.41800000000E+01 0. -1.
</event>
<event>
11    1  0.1704459E-009  0.3192587E+03  0.7561462E-02  0.9923546E-01
         22   -1    0    0    0    0  0.00000000000E+00  0.00000000000E+00  0.39564787650E+03  0.39564787650E+03  0.00000000000E+00 0.  1.
         22   -1    0    0    0    0 -0.00000000000E+00 -0.00000000000E+00 -0.42455604734E+03  0.42455604734E+03  0.00000000000E+00 0.  1.
         25    2    1    2    0    0  0.47923137847E+02 -0.53470623867E+02 -0.26997696184E+02  0.14673930431E+03  0.12509121900E+03 0.  0.
         24    2    1    2    0    0  0.13776538752E+03  0.29319859649E+03 -0.95380784583E+02  0.34585887679E+03  0.74673620567E+02 0.  0.
        -24    2    1    2    0    0 -0.18568852537E+03 -0.23972797262E+03  0.93470309929E+02  0.32760574274E+03  0.81480638991E+02 0.  0.
        -11    1    4    4    0    0  0.14081463559E+03  0.29467590466E+03 -0.98633952015E+02  0.34116170194E+03  0.00000000000E+00 0.  1.
         12    1    4    4    0    0 -0.30492480731E+01 -0.14773081691E+01  0.32531674323E+01  0.46971748509E+01  0.00000000000E+00 0. -1.
         13    1    5    5    0    0 -0.49727438054E+02 -0.11287393391E+03  0.98980197583E+01  0.12373889383E+03  0.00000000000E+00 0. -1.
        -14    1    5    5    0    0 -0.13596108731E+03 -0.12685403871E+03  0.83572290170E+02  0.20386684891E+03  0.00000000000E+00 0.  1.
          5    1    3    3  501    0  0.16162425006E+02 -0.26678361901E+02  0.50037996872E+02  0.59112033519E+02  0.41800000000E+01 0. -1.
         -5    1    3    3    0  501  0.31760712841E+02 -0.26792261966E+02 -0.77035693056E+02  0.87627270790E+02  0.41800000000E+01 0. -1.
</event>
<event>
11    1  0.1704459E-009  0.4643811E+03  0.7561462E-02  0.9476836E-01
         22   -1    0    0    0    0  0.00000000000E+00  0.00000000000E+00  0.77721090930E+03  0.77721090930E+03  0.00000000000E+00 0.  1.
         22   -1    0    0    0    0 -0.00000000000E+00 -0.00000000000E+00 -0.24351775234E+03  0.24351775234E+03  0.00000000000E+00 0.  1.
         25    2    1    2    0    0 -0.11583768800E+02 -0.15800673061E+03  0.54418534578E+02  0.20907089916E+03  0.12509577673E+03 0.  0.
        -24    2    1    2    0    0 -0.10344022362E+03  0.37273447628E+03  0.32050908200E+03  0.50975188196E+03  0.86545016300E+02 0.  0.
         24    2    1    2    0    0  0.11502399242E+03 -0.21472774567E+03  0.15876554038E+03  0.30190588051E+03  0.81253555493E+02 0.  0.
        -11    1    5    5    0    0  0.34196083535E+02 -0.10486061855E+03  0.29934496697E+02  0.11428558765E+03  0.00000000000E+00 0.  1.
         12    1    5    5    0    0  0.80827908888E+02 -0.10986712713E+03  0.12883104368E+03  0.18762029287E+03  0.00000000000E+00 0. -1.
         11    1    4    4    0    0 -0.81665016837E+02  0.27689692863E+03  0.18697112737E+03  0.34394663325E+03  0.00000000000E+00 0. -1.
        -12    1    4    4    0    0 -0.21775206786E+02  0.95837547655E+02  0.13353795463E+03  0.16580524871E+03  0.00000000000E+00 0.  1.
          5    1    3    3  501    0 -0.54237460680E+02 -0.63635805017E+02  0.63429120742E+02  0.10503305946E+03  0.41800000000E+01 0.  1.
         -5    1    3    3    0  501  0.42653691880E+02 -0.94370925589E+02 -0.90105861639E+01  0.10403783971E+03  0.41800000000E+01 0.  1.
</event>
<event>
11    1  0.1704459E-009  0.1669024E+03  0.7561462E-02  0.1080759E+00
         22   -1    0    0    0    0  0.00000000000E+00  0.00000000000E+00  0.78248090583E+02  0.78248090583E+02  0.00000000000E+00 0. -1.
         22   -1    0    0    0    0 -0.00000000000E+00 -0.00000000000E+00 -0.73699891096E+03  0.73699891096E+03  0.00000000000E+00 0.  1.
         25    2    1    2    0    0 -0.34814314785E+02 -0.10152070833E+03 -0.33149180058E+03  0.37020738505E+03  0.12509277899E+03 0.  0.
        -24    2    1    2    0    0 -0.53070799808E+02  0.12526130831E+03 -0.16449324210E+03  0.22838684596E+03  0.81213419797E+02 0.  0.
         24    2    1    2    0    0  0.87885114593E+02 -0.23740599979E+02 -0.16276577769E+03  0.21665277054E+03  0.11026475022E+03 0.  0.
        -13    1    5    5    0    0  0.20311898539E+02  0.19895221607E+02 -0.12426422765E+03  0.12747545387E+03  0.00000000000E+00 0.  1.
         14    1    5    5    0    0  0.67573216054E+02 -0.43635821586E+02 -0.38501550041E+02  0.89177316673E+02  0.00000000000E+00 0. -1.
         13    1    4    4    0    0  0.52770998680E+01  0.34754285658E+02 -0.92231936808E+02  0.98703790818E+02  0.00000000000E+00 0. -1.
        -14    1    4    4    0    0 -0.58347899676E+02  0.90507022656E+02 -0.72261305296E+02  0.12968305514E+03  0.00000000000E+00 0.  1.
          5    1    3    3  501    0  0.40897500429E+02 -0.12770291795E+02 -0.53272874227E+02  0.68492024515E+02  0.41800000000E+01 0. -1.
         -5    1    3    3    0  501 -0.75711815213E+02 -0.88750416540E+02 -0.27821892636E+03  0.30171536053E+03  0.41800000000E+01 0. -1.
</event>
<event>
11    1  0.1704459E-009  0.3213260E+03  0.7561462E-02  0.9915488E-01
         22   -1    0    0    0    0  0.00000000000E+00  0.00000000000E+00  0.72886686373E+03  0.72886686373E+03  0.00000000000E+00 0.  1.
         22   -1    0    0    0    0 -0.00000000000E+00 -0.00000000000E+00 -0.24756485240E+03  0.24756485240E+03  0.00000000000E+00 0.  1.
         25    2    1    2    0    0  0.29421803626E+03  0.29357291756E+02 -0.11871765667E+02  0.32126993516E+03  0.12508928401E+03 0.  0.
         24    2    1    2    0    0 -0.29688242242E+03 -0.98035499966E+01  0.24901060968E+03  0.39599037374E+03  0.81035856415E+02 0.  0.
        -24    2    1    2    0    0  0.26643861535E+01 -0.19553741760E+02  0.24416316732E+03  0.25917140724E+03  0.84644658926E+02 0.  0.
        -13    1    4    4    0    0 -0.21894305891E+03 -0.99642669377E+01  0.22578183355E+03  0.31466297212E+03  0.00000000000E+00 0.  1.
         14    1    4    4    0    0 -0.77939363506E+02  0.16071694108E+00  0.23228776136E+02  0.81327401621E+02  0.00000000000E+00 0. -1.
         11    1    5    5    0    0  0.42792353327E+02 -0.81025334655E+01  0.99604284353E+02  0.10870993521E+03  0.00000000000E+00 0. -1.
        -12    1    5    5    0    0 -0.40127967174E+02 -0.11451208294E+02  0.14455888297E+03  0.15046147203E+03  0.00000000000E+00 0.  1.
          5    1    3    3  501    0  0.17986225688E+03  0.40407463401E+02 -0.63804824149E+02  0.19511976459E+03  0.41800000000E+01 0. -1.
         -5    1    3    3    0  501  0.11435577938E+03 -0.11050171644E+02  0.51933058482E+02  0.12615017057E+03  0.41800000000E+01 0. -1.
</event>
<event>
11    1  0.1704459E-009  0.4774450E+03  0.7561462E-02  0.9445383E-01
         22   -1    0    0    0    0  0.00000000000E+00  0.00000000000E+00  0.41293404942E+04  0.41293404942E+04  0.00000000000E+00 0. -1.
         22   -1    0    0    0    0 -0.00000000000E+00 -0.00000000000E+00 -0.20593736076E+04  0.20593736076E+04  0.00000000000E+00 0. -1.
         25    2    1    2    0    0 -0.41494355936E+03  0.19995402516E+03 -0.20112385153E+04  0.20670963382E+04  0.12508851409E+03 0.  0.
         24    2    1    2    0    0  0.42141265163E+03 -0.23392979401E+03  0.35634357303E+04  0.35967641619E+04  0.79539051314E+02 0.  0.
        -24    2    1    2    0    0 -0.64690922623E+01  0.33975768847E+02  0.51776967165E+03  0.52485360176E+03  0.78674445529E+02 0.  0.
        -13    1    4    4    0    0  0.20819129987E+02 -0.95854146169E+01  0.80605191281E+02  0.83800436802E+02  0.00000000000E+00 0.  1.
         14    1    4    4    0    0  0.40059352164E+03 -0.22434437939E+03  0.34828305390E+04  0.35129637251E+04  0.00000000000E+00 0. -1.
         11    1    5    5    0    0 -0.31254160561E+02  0.43268632650E+02  0.24199904541E+03  0.24781552636E+03  0.00000000000E+00 0. -1.
        -12    1    5    5    0    0  0.24785068298E+02 -0.92928638033E+01  0.27577062624E+03  0.27703807541E+03  0.00000000000E+00 0.  1.
          5    1    3    3  501    0 -0.16553310096E+02 -0.22934687084E+01 -0.23109271893E+03  0.23173387585E+03  0.41800000000E+01 0. -1.
         -5    1    3    3    0  501 -0.39839024927E+03  0.20224749387E+03 -0.17801457963E+04  0.18353624623E+04  0.41800000000E+01 0. -1.
</event>
<event>
11    1  0.1927557E-009  0.1887988E+04  0.7561462E-02  0.8114511E-01
         22   -1    0    0    0    0  0.00000000000E+00  0.00000000000E+00  0.39688220394E+03  0.39688220394E+03  0.00000000000E+00 0. -1.
         22   -1    0    0    0    0 -0.00000000000E+00 -0.00000000000E+00 -0.22453128061E+04  0.22453128061E+04  0.00000000000E+00 0. -1.
         25    2    1    2    0    0 -0.24458147408E+03  0.48295073297E+03 -0.19596242951E+04  0.20368692048E+04  0.12508905441E+03 0.  0.
         24    2    1    2    0    0  0.18744799495E+03 -0.24118102170E+03 -0.11520695245E+02  0.31698464422E+03  0.83913659297E+02 0.  0.
        -24    2    1    2    0    0  0.57133479128E+02 -0.24176971128E+03  0.12271438816E+03  0.28834116105E+03  0.79780801977E+02 0.  0.
        -13    1    4    4    0    0  0.77502645654E+02 -0.13669464070E+03 -0.41164888708E+02  0.16243962861E+03  0.00000000000E+00 0.  1.
         14    1    4    4    0    0  0.10994534930E+03 -0.10448638099E+03  0.29644193462E+02  0.15454501561E+03  0.00000000000E+00 0. -1.
         11    1    5    5    0    0  0.22304808405E+02 -0.15483022176E+03  0.35589323692E+02  0.16042600166E+03  0.00000000000E+00 0. -1.
        -12    1    5    5    0    0  0.34828670722E+02 -0.86939489515E+02  0.87125064470E+02  0.12791515938E+03  0.00000000000E+00 0.  1.
          5    1    3    3  501    0 -0.20742849302E+02  0.50549459317E+02 -0.94560399314E+02  0.10929160605E+03  0.41800000000E+01 0.  1.
         -5    1    3    3    0  501 -0.22383862478E+03  0.43240127366E+03 -0.18650638958E+04  0.19275775987E+04  0.41800000000E+01 0.  1.
</event>
<event>
11    1  0.1704459E-009  0.1962339E+03  0.7561462E-02  0.1057219E+00
         22   -1    0    0    0    0  0.00000000000E+00  0.00000000000E+00  0.11849853392E+04  0.11849853392E+04  0.00000000000E+00 0. -1.
         22   -1    0    0    0    0 -0.00000000000E+00 -0.00000000000E+00 -0.11466636691E+03  0.11466636691E+03  0.00000000000E+00 0. -1.
         25    2    1    2    0    0 -0.12247254734E+03  0.10339480267E+03  0.13112259159E+03  0.24193133476E+03  0.12509047383E+03 0.  0.
        -24    2    1    2    0    0  0.16660576978E+03  0.16677630957E+02  0.11229187088E+03  0.21714791600E+03  0.80672964841E+02 0.  0.
         24    2    1    2    0    0 -0.44133222442E+02 -0.12007243362E+03  0.82690450984E+03  0.84057245539E+03  0.80161422868E+02 0.  0.
        -11    1    5    5    0    0 -0.48790118411E+02 -0.52577010268E+02  0.26235316888E+03  0.27198162233E+03  0.00000000000E+00 0.  1.
         12    1    5    5    0    0  0.46568959689E+01 -0.67495423355E+02  0.56455134096E+03  0.56859083305E+03  0.00000000000E+00 0. -1.
         13    1    4    4    0    0  0.84943701742E+02  0.47542650916E+02  0.71540354607E+02  0.12080462929E+03  0.00000000000E+00 0. -1.
        -14    1    4    4    0    0  0.81662068042E+02 -0.30865019959E+02  0.40751516272E+02  0.96343286701E+02  0.00000000000E+00 0.  1.
          5    1    3    3  501    0 -0.11119250018E+03  0.68315326040E+02  0.15118897083E+03  0.19976569567E+03  0.41800000000E+01 0.  1.
         -5    1    3    3    0  501 -0.11280047162E+02  0.35079476626E+02 -0.20066379232E+02  0.42165639089E+02  0.41800000000E+01 0.  1.
</event>
<event>
11    1  0.1704459E-009  0.4313036E+03  0.7561462E-02  0.9561658E-01
         22   -1    0    0    0    0  0.00000000000E+00  0.00000000000E+00  0.29367289682E+04  0.29367289682E+04  0.00000000000E+00 0. -1.
         22   -1    0    0    0    0 -0.00000000000E+00 -0.00000000000E+00 -0.17675584441E+03  0.17675584441E+03  0.00000000000E+00 0.  1.
         25    2    1    2    0    0 -0.42667097154E+03 -0.38107306986E+02  0.25089877133E+03  0.51195526413E+03  0.12509082388E+03 0.  0.
        -24    2    1    2    0    0  0.37537729049E+03 -0.12699940236E+03  0.97972929033E+03  0.10599030599E+04  0.80548467247E+02 0.  0.
         24    2    1    2    0    0  0.51293681048E+02  0.16510670935E+03  0.15293450621E+04  0.15416264886E+04  0.88457018395E+02 0.  0.
        -11    1    5    5    0    0  0.47183936774E+02  0.83289786863E+02  0.11250656700E+04  0.11291307605E+04  0.00000000000E+00 0.  1.
         12    1    5    5    0    0  0.41097442740E+01  0.81816922484E+02  0.40427939212E+03  0.41249572810E+03  0.00000000000E+00 0. -1.
         13    1    4    4    0    0  0.29339135109E+03 -0.62334525541E+02  0.73171056452E+03  0.79079986608E+03  0.00000000000E+00 0. -1.
        -14    1    4    4    0    0  0.81985939405E+02 -0.64664876820E+02  0.24801872582E+03  0.26910319379E+03  0.00000000000E+00 0.  1.
          5    1    3    3  501    0 -0.15573839628E+03  0.40923301809E+02  0.63445259289E+02  0.17312405388E+03  0.41800000000E+01 0. -1.
         -5    1    3    3    0  501 -0.27093257526E+03 -0.79030608796E+02  0.18745351204E+03  0.33883121025E+03  0.41800000000E+01 0. -1.
</event>
<event>
11    1  0.1704459E-009  0.1475525E+03  0.7561462E-02  0.1099406E+00
         22   -1    0    0    0    0  0.00000000000E+00  0.00000000000E+00  0.18460443920E+04  0.18460443920E+04  0.00000000000E+00 0. -1.
         22   -1    0    0    0    0 -0.00000000000E+00 -0.00000000000E+00 -0.44858851177E+03  0.44858851177E+03  0.00000000000E+00 0. -1.
         25    2    1    2    0    0 -0.79471678474E+02 -0.10072998680E+03 -0.22291863954E+03  0.28601591650E+03  0.12510038654E+03 0.  0.
        -24    2    1    2    0    0  0.92285041564E+01  0.66838170193E+02 -0.17836441135E+03  0.20647811631E+03  0.79163394289E+02 0.  0.
         24    2    1    2    0    0  0.70243174317E+02  0.33891816604E+02  0.17987389311E+04  0.18021388709E+04  0.78485725653E+02 0.  0.
        -11    1    5    5    0    0  0.55232240632E+02  0.14722374518E+02  0.51388810744E+03  0.51705738142E+03  0.00000000000E+00 0.  1.
         12    1    5    5    0    0  0.15010933685E+02  0.19169442086E+02  0.12848508236E+04  0.12850814895E+04  0.00000000000E+00 0. -1.
         13    1    4    4    0    0  0.15350632282E+01  0.48585497891E+02 -0.30703216570E+02  0.57494299997E+02  0.00000000000E+00 0. -1.
        -14    1    4    4    0    0  0.76934409282E+01  0.18252672302E+02 -0.14766119478E+03  0.14898381631E+03  0.00000000000E+00 0.  1.
          5    1    3    3  501    0  0.26412750871E+02 -0.55366124882E+02 -0.56007217711E+02  0.83170439633E+02  0.41800000000E+01 0.  1.
         -5    1    3    3    0  501 -0.10588442934E+03 -0.45363861915E+02 -0.16691142183E+03  0.20284547686E+03  0.41800000000E+01 0.  1.
</event>
<event>
11    1  0.1704459E-009  0.2188456E+03  0.7561462E-02  0.1041943E+00
         22   -1    0    0    0    0  0.00000000000E+00  0.00000000000E+00  0.42709909532E+03  0.42709909532E+03  0.00000000000E+00 0. -1.
         22   -1    0    0    0    0 -0.00000000000E+00 -0.00000000000E+00 -0.15844709956E+03  0.15844709956E+03  0.00000000000E+00 0. -1.
         25    2    1    2    0    0  0.55140966471E+02  0.15195234075E+03  0.79379086827E+02  0.21926834117E+03  0.12509007145E+03 0.  0.
        -24    2    1    2    0    0 -0.42628049304E+02 -0.19971767624E+03  0.13594210165E+03  0.25819784392E+03  0.80508203386E+02 0.  0.
         24    2    1    2    0    0 -0.12512917167E+02  0.47765335496E+02  0.53330807286E+02  0.10808000978E+03  0.79993831872E+02 0.  0.
        -11    1    5    5    0    0  0.84315875500E+01 -0.20087393308E+02  0.20241403828E+02  0.29737341297E+02  0.00000000000E+00 0.  1.
         12    1    5    5    0    0 -0.20944504717E+02  0.67852728805E+02  0.33089403459E+02  0.78342668485E+02  0.00000000000E+00 0. -1.
         13    1    4    4    0    0 -0.52798714634E+02 -0.16113075703E+03  0.75124947973E+02  0.18545776591E+03  0.00000000000E+00 0. -1.
        -14    1    4    4    0    0  0.10170665330E+02 -0.38586919208E+02  0.60817153673E+02  0.72740078004E+02  0.00000000000E+00 0.  1.
          5    1    3    3  501    0  0.60734941246E+02  0.95874806386E+01  0.19215074802E+02  0.64554971712E+02  0.41800000000E+01 0.  1.
         -5    1    3    3    0  501 -0.55939747750E+01  0.14236486011E+03  0.60164012025E+02  0.15471336946E+03  0.41800000000E+01 0.  1.
</event>
<event>
11    1  0.1704459E-009  0.7745150E+03  0.7561462E-02  0.8929169E-01
         22   -1    0    0    0    0  0.00000000000E+00  0.00000000000E+00  0.19250708912E+04  0.19250708912E+04  0.00000000000E+00 0.  1.
         22   -1    0    0    0    0 -0.00000000000E+00 -0.00000000000E+00 -0.22067167425E+04  0.22067167425E+04  0.00000000000E+00 0.  1.
         25    2    1    2    0    0  0.45797853272E+03 -0.29088032610E+03 -0.15892054485E+04  0.16839182343E+04  0.12510380333E+03 0.  0.
         24    2    1    2    0    0  0.28858173705E+03  0.63092422574E+03 -0.20295823211E+03  0.72707067108E+03  0.78069963349E+02 0.  0.
        -24    2    1    2    0    0 -0.74656026978E+03 -0.34004389964E+03  0.15105178293E+04  0.17207987283E+04  0.80635356021E+02 0.  0.
        -13    1    4    4    0    0  0.10751774112E+03  0.18394146709E+03 -0.32255686224E+02  0.21548771952E+03  0.00000000000E+00 0.  1.
         14    1    4    4    0    0  0.18106399593E+03  0.44698275865E+03 -0.17070254589E+03  0.51158295156E+03  0.00000000000E+00 0. -1.
         13    1    5    5    0    0 -0.13363529864E+03 -0.83766023861E+02  0.24228839611E+03  0.28909999427E+03  0.00000000000E+00 0. -1.
        -14    1    5    5    0    0 -0.61292497113E+03 -0.25627787578E+03  0.12682294332E+04  0.14316987341E+04  0.00000000000E+00 0.  1.
          5    1    3    3  501    0  0.28787193551E+02 -0.53523888584E+02 -0.11312457070E+03  0.12848404593E+03  0.41800000000E+01 0.  1.
         -5    1    3    3    0  501  0.42919133917E+03 -0.23735643752E+03 -0.14760808778E+04  0.15554341884E+04  0.41800000000E+01 0.  1.
</event>
<event>
11    1  0.1704459E-009  0.1525495E+03  0.7561462E-02  0.1094302E+00
         22   -1    0    0    0    0  0.00000000000E+00  0.00000000000E+00  0.18047152906E+04  0.18047152906E+04  0.00000000000E+00 0.  1.
         22   -1    0    0    0    0 -0.00000000000E+00 -0.00000000000E+00 -0.50709783223E+02  0.50709783223E+02  0.00000000000E+00 0.  1.
         25    2    1    2    0    0 -0.13941254218E+02  0.10084142555E+03  0.12959207107E+03  0.20689465007E+03  0.12509172501E+03 0.  0.
         24    2    1    2    0    0 -0.14529816101E+02 -0.64669478481E+02  0.26908362184E+03  0.29006894237E+03  0.85678111434E+02 0.  0.
        -24    2    1    2    0    0  0.28471070319E+02 -0.36171947068E+02  0.13553298145E+04  0.13584614814E+04  0.79872891743E+02 0.  0.
        -13    1    4    4    0    0  0.17196355238E+02 -0.48859839012E+02  0.65918190252E+02  0.83834398118E+02  0.00000000000E+00 0.  1.
         14    1    4    4    0    0 -0.31726171340E+02 -0.15809639469E+02  0.20316543159E+03  0.20623454425E+03  0.00000000000E+00 0. -1.
         13    1    5    5    0    0 -0.57967704050E+01  0.80624627791E+01  0.84751688384E+03  0.84757505523E+03  0.00000000000E+00 0. -1.
        -14    1    5    5    0    0  0.34267840724E+02 -0.44234409848E+02  0.50781293061E+03  0.51088642615E+03  0.00000000000E+00 0.  1.
          5    1    3    3  501    0 -0.32356694473E+01 -0.25666466096E+02  0.51494218794E+02  0.57778577413E+02  0.41800000000E+01 0. -1.
         -5    1    3    3    0  501 -0.10705584771E+02  0.12650789165E+03  0.78097852273E+02  0.14911607265E+03  0.41800000000E+01 0. -1.
</event>
<event>
11    1  0.1704459E-009  0.2101876E+03  0.7561462E-02  0.1047544E+00
         22   -1    0    0    0    0  0.00000000000E+00  0.00000000000E+00  0.15016001288E+04  0.15016001288E+04  0.00000000000E+00 0. -1.
         22   -1    0    0    0    0 -0.00000000000E+00 -0.00000000000E+00 -0.84528588025E+02  0.84528588025E+02  0.00000000000E+00 0. -1.
         25    2    1    2    0    0  0.10525249165E+03  0.35718013302E+01  0.12115446412E+03  0.20351417943E+03  0.12509505302E+03 0.  0.
         24    2    1    2    0    0 -0.27013792249E+03  0.63434982385E+01  0.60182219935E+03  0.66460460572E+03  0.80588989192E+02 0.  0.
        -24    2    1    2    0    0  0.16488543083E+03 -0.99152995687E+01  0.69409487728E+03  0.71800993164E+03  0.80529775869E+02 0.  0.
        -13    1    4    4    0    0 -0.41092197271E+02 -0.12128111318E+02  0.44521522242E+02  0.61788556411E+02  0.00000000000E+00 0.  1.
         14    1    4    4    0    0 -0.22904572522E+03  0.18471609557E+02  0.55730067711E+03  0.60281604931E+03  0.00000000000E+00 0. -1.
         11    1    5    5    0    0  0.14685340794E+03 -0.36551514865E+02  0.58652297871E+03  0.60573190540E+03  0.00000000000E+00 0. -1.
        -12    1    5    5    0    0  0.18032022893E+02  0.26636215296E+02  0.10757189857E+03  0.11227802625E+03  0.00000000000E+00 0.  1.
          5    1    3    3  501    0 -0.14926475833E+02  0.33457265557E+02  0.44576678974E+02  0.57851024258E+02  0.41800000000E+01 0.  1.
         -5    1    3    3    0  501  0.12017896749E+03 -0.29885464227E+02  0.76577785142E+02  0.14566315518E+03  0.41800000000E+01 0.  1.
</event>
<event>
11    1  0.1704459E-009  0.6326605E+03  0.7561462E-02  0.9137883E-01
         22   -1    0    0    0    0  0.00000000000E+00  0.00000000000E+00  0.17913608605E+04  0.17913608605E+04  0.00000000000E+00 0.  1.
         22   -1    0    0    0    0 -0.00000000000E+00 -0.00000000000E+00 -0.40955324783E+03  0.40955324783E+03  0.00000000000E+00 0.  1.
         25    2    1    2    0    0  0.29741275948E+03 -0.11226285239E+03  0.82350400159E+02  0.35140629694E+03  0.12508996601E+03 0.  0.
         24    2    1    2    0    0  0.33712972226E+03  0.43489581368E+03  0.33716392890E+03  0.64990570372E+03  0.76857598160E+02 0.  0.
        -24    2    1    2    0    0 -0.63454248174E+03 -0.32263296129E+03  0.96229328364E+03  0.11996021077E+04  0.79376723394E+02 0.  0.
        -13    1    4    4    0    0  0.17849704784E+03  0.23128109435E+03  0.13394920709E+03  0.32139466512E+03  0.00000000000E+00 0.  1.
         14    1    4    4    0    0  0.15863267442E+03  0.20361471933E+03  0.20321472181E+03  0.32851103860E+03  0.00000000000E+00 0. -1.
         11    1    5    5    0    0 -0.11596700991E+03 -0.60286074252E+02  0.12877374868E+03  0.18348143362E+03  0.00000000000E+00 0. -1.
        -12    1    5    5    0    0 -0.51857547183E+03 -0.26234688704E+03  0.83351953496E+03  0.10161206741E+04  0.00000000000E+00 0.  1.
          5    1    3    3  501    0  0.20464610624E+02 -0.16910415235E+02 -0.27595880139E+02  0.38519701869E+02  0.41800000000E+01 0.  1.
         -5    1    3    3    0  501  0.27694814885E+03 -0.95352437157E+02  0.10994628030E+03  0.31288659507E+03  0.41800000000E+01 0.  1.
</event>
<event>
11    1  0.1704459E-009  0.1859572E+03  0.7561462E-02  0.1064923E+00
         22   -1    0    0    0    0  0.00000000000E+00  0.00000000000E+00  0.35498829476E+02  0.35498829476E+02  0.00000000000E+00 0.  1.
         22   -1    0    0    0    0 -0.00000000000E+00 -0.00000000000E+00 -0.26575071502E+04  0.26575071502E+04  0.00000000000E+00 0.  1.
         25    2    1    2    0    0 -0.14167668434E+02  0.10827679674E+03 -0.88208693951E+03  0.89757970849E+03  0.12508947475E+03 0.  0.
        -24    2    1    2    0    0  0.87334412441E+02 -0.13461558493E+03 -0.16282271227E+04  0.16380938001E+04  0.80492729568E+02 0.  0.
         24    2    1    2    0    0 -0.73166744008E+02  0.26338788184E+02 -0.11169425851E+03  0.15733247108E+03  0.78935384224E+02 0.  0.
        -11    1    5    5    0    0 -0.29437429382E+02  0.22685888096E+02  0.17445196057E+00  0.37165066942E+02  0.00000000000E+00 0.  1.
         12    1    5    5    0    0 -0.43729314626E+02  0.36529000880E+01 -0.11186871047E+03  0.12016740414E+03  0.00000000000E+00 0. -1.
         11    1    4    4    0    0  0.19142262776E+01 -0.12049745306E+02 -0.48415625953E+03  0.48430996713E+03  0.00000000000E+00 0. -1.
        -12    1    4    4    0    0  0.85420186164E+02 -0.12256583962E+03 -0.11440708631E+04  0.11537838329E+04  0.00000000000E+00 0.  1.
          5    1    3    3  501    0 -0.32259068134E+01  0.80131321636E+02 -0.21044929106E+03  0.22525055314E+03  0.41800000000E+01 0. -1.
         -5    1    3    3    0  501 -0.10941761620E+02  0.28145475108E+02 -0.67163764845E+03  0.67232915534E+03  0.41800000000E+01 0. -1.
</event>
<event>
11    1  0.1704459E-009  0.1653153E+03  0.7561462E-02  0.1082182E+00
         22   -1    0    0    0    0  0.00000000000E+00  0.00000000000E+00  0.27219300243E+03  0.27219300243E+03  0.00000000000E+00 0. -1.
         22   -1    0    0    0    0 -0.00000000000E+00 -0.00000000000E+00 -0.16488125612E+03  0.16488125612E+03  0.00000000000E+00 0.  1.
         25    2    1    2    0    0 -0.11672859594E+03 -0.54151065747E+02 -0.16719705330E+02  0.18023167191E+03  0.12508398772E+03 0.  0.
        -24    2    1    2    0    0  0.20328379297E+02  0.20537898632E+02  0.13796308019E+02  0.87946135422E+02  0.81909317758E+02 0.  0.
         24    2    1    2    0    0  0.96400216640E+02  0.33613167116E+02  0.11023514362E+03  0.16889645122E+03  0.77145172080E+02 0.  0.
        -11    1    5    5    0    0  0.66020204555E+02  0.89754208259E+01  0.18466118711E+02  0.69139157710E+02  0.00000000000E+00 0.  1.
         12    1    5    5    0    0  0.30380012084E+02  0.24637746290E+02  0.91769024909E+02  0.99757293514E+02  0.00000000000E+00 0. -1.
         11    1    4    4    0    0  0.51909436090E+02  0.66345817360E+01  0.92264369390E+01  0.53138821671E+02  0.00000000000E+00 0. -1.
        -12    1    4    4    0    0 -0.31581056793E+02  0.13903316896E+02  0.45698710802E+01  0.34807313751E+02  0.00000000000E+00 0.  1.
          5    1    3    3  501    0 -0.10543346941E+03 -0.77410206798E+02 -0.48037600890E+02  0.13940459134E+03  0.41800000000E+01 0. -1.
         -5    1    3    3    0  501 -0.11295126530E+02  0.23259141050E+02  0.31317895560E+02  0.40827080572E+02  0.41800000000E+01 0. -1.
</event>
<event>
11    1  0.1704459E-009  0.3570803E+03  0.7561462E-02  0.9785639E-01
         22   -1    0    0    0    0  0.00000000000E+00  0.00000000000E+00  0.77768357544E+03  0.77768357544E+03  0.00000000000E+00 0.  1.
         22   -1    0    0    0    0 -0.00000000000E+00 -0.00000000000E+00 -0.11289727440E+04  0.11289727440E+04  0.00000000000E+00 0.  1.
         25    2    1    2    0    0  0.29470414164E+03 -0.13505951806E+03 -0.86725941331E+03  0.93427920820E+03  0.12508854617E+03 0.  0.
        -24    2    1    2    0    0 -0.39423554728E+03  0.36181164021E+03  0.45009173713E+03  0.70374154787E+03  0.79625778729E+02 0.  0.
         24    2    1    2    0    0  0.99531405637E+02 -0.22675212215E+03  0.65878507642E+02  0.26863556335E+03  0.80635367673E+02 0.  0.
        -13    1    5    5    0    0  0.20576600542E+02 -0.23727147795E+02 -0.16822398306E+02  0.35628178695E+02  0.00000000000E+00 0.  1.
         14    1    5    5    0    0  0.78954805095E+02 -0.20302497436E+03  0.82700905948E+02  0.23300738466E+03  0.00000000000E+00 0. -1.
         13    1    4    4    0    0 -0.11671615296E+03  0.14514875379E+03  0.12325846727E+03  0.22334607864E+03  0.00000000000E+00 0. -1.
        -14    1    4    4    0    0 -0.27751939432E+03  0.21666288642E+03  0.32683326985E+03  0.48039546923E+03  0.00000000000E+00 0.  1.
          5    1    3    3  501    0  0.14954978779E+02 -0.17517953176E+02 -0.11060811485E+02  0.25891002770E+02  0.41800000000E+01 0. -1.
         -5    1    3    3    0  501  0.27974916287E+03 -0.11754156488E+03 -0.85619860183E+03  0.90838820543E+03  0.41800000000E+01 0. -1.
</event>
<event>
11    1  0.1704459E-009  0.2077210E+03  0.7561462E-02  0.1049194E+00
         22   -1    0    0    0    0  0.00000000000E+00  0.00000000000E+00  0.14277926645E+04  0.14277926645E+04  0.00000000000E+00 0.  1.
         22   -1    0    0    0    0 -0.00000000000E+00 -0.00000000000E+00 -0.11721063856E+03  0.11721063856E+03  0.00000000000E+00 0.  1.
         25    2    1    2    0    0 -0.11918051827E+03 -0.10321436153E+03  0.18248386915E+02  0.20208221300E+03  0.12508803630E+03 0.  0.
         24    2    1    2    0    0  0.17911851334E+03  0.11467682237E+03  0.58636042530E+03  0.62878860267E+03  0.79513162921E+02 0.  0.
        -24    2    1    2    0    0 -0.59937995069E+02 -0.11462460843E+02  0.70597321371E+03  0.71413248738E+03  0.88674008558E+02 0.  0.
        -11    1    4    4    0    0  0.17965680973E+03  0.89373457712E+02  0.53807043599E+03  0.57426821113E+03  0.00000000000E+00 0.  1.
         12    1    4    4    0    0 -0.53829639031E+00  0.25303364661E+02  0.48289989302E+02  0.54520391533E+02  0.00000000000E+00 0. -1.
         11    1    5    5    0    0 -0.74602858946E+02 -0.10142193833E+02  0.35718708107E+03  0.36503569900E+03  0.00000000000E+00 0. -1.
        -12    1    5    5    0    0  0.14664863877E+02 -0.13202670103E+01  0.34878613264E+03  0.34909678839E+03  0.00000000000E+00 0.  1.
          5    1    3    3  501    0 -0.13456080727E+03 -0.62397187053E+02 -0.11953454831E+02  0.14886361976E+03  0.41800000000E+01 0.  1.
         -5    1    3    3    0  501  0.15380288997E+02 -0.40817174476E+02  0.30201841746E+02  0.53218593242E+02  0.41800000000E+01 0.  1.
</event>
<event>
11    1  0.1704459E-009  0.1916766E+03  0.7561462E-02  0.1060571E+00
         22   -1    0    0    0    0  0.00000000000E+00  0.00000000000E+00  0.59518516290E+02  0.59518516290E+02  0.00000000000E+00 0. -1.
         22   -1    0    0    0    0 -0.00000000000E+00 -0.00000000000E+00 -0.17139679346E+04  0.17139679346E+04  0.00000000000E+00 0. -1.
         25    2    1    2    0    0 -0.11157405399E+03 -0.53717239268E+02 -0.66280409806E+03  0.68577621327E+03  0.12508169713E+03 0.  0.
        -24    2    1    2    0    0  0.14059324681E+03  0.77925559683E+02 -0.98056238307E+03  0.99709933262E+03  0.82859146315E+02 0.  0.
         24    2    1    2    0    0 -0.29019192816E+02 -0.24208320415E+02 -0.11082937223E+02  0.90610905041E+02  0.81604830040E+02 0.  0.
        -13    1    5    5    0    0 -0.27094757879E+02  0.55711748588E+01 -0.40278860246E+02  0.48862567233E+02  0.00000000000E+00 0.  1.
         14    1    5    5    0    0 -0.19244349370E+01 -0.29779495274E+02  0.29195923023E+02  0.41748337808E+02  0.00000000000E+00 0. -1.
         11    1    4    4    0    0  0.13370383595E+03  0.91393240852E+02 -0.93911349331E+03  0.95297617679E+03  0.00000000000E+00 0. -1.
        -12    1    4    4    0    0  0.68894108627E+01 -0.13467681169E+02 -0.41448889763E+02  0.44123155833E+02  0.00000000000E+00 0.  1.
          5    1    3    3  501    0 -0.12458521097E+03 -0.13706094721E+02 -0.57235831275E+03  0.58593586884E+03  0.41800000000E+01 0.  1.
         -5    1    3    3    0  501  0.13011156977E+02 -0.40011144547E+02 -0.90445785310E+02  0.99840344422E+02  0.41800000000E+01 0.  1.
</event>
<event>
11    1  0.1704459E-009  0.1513519E+03  0.7561462E-02  0.1095505E+00
         22   -1    0    0    0    0  0.00000000000E+00  0.00000000000E+00  0.10155074505E+03  0.10155074505E+03  0.00000000000E+00 0.  1.
         22   -1    0    0    0    0 -0.00000000000E+00 -0.00000000000E+00 -0.81587429146E+03  0.81587429146E+03  0.00000000000E+00 0. -1.
         25    2    1    2    0    0 -0.13414806530E+03  0.16032692094E+02 -0.42503906711E+03  0.46320541905E+03  0.12509316937E+03 0.  0.
         24    2    1    2    0    0  0.58234079020E+02  0.10652521255E+02 -0.31982835867E+03  0.33448724440E+03  0.78018289463E+02 0.  0.
        -24    2    1    2    0    0  0.75913986281E+02 -0.26685213349E+02  0.30543879374E+02  0.11973237306E+03  0.83233879314E+02 0.  0.
        -13    1    4    4    0    0  0.77428368303E+00 -0.42127566249E+01  0.36386733105E+01  0.56202114785E+01  0.00000000000E+00 0.  1.
         14    1    4    4    0    0  0.57459795336E+02  0.14865277880E+02 -0.32346703198E+03  0.32886703293E+03  0.00000000000E+00 0. -1.
         13    1    5    5    0    0 -0.17730207173E+02 -0.10808801458E+02  0.45229843558E+01  0.21252007501E+02  0.00000000000E+00 0. -1.
        -14    1    5    5    0    0  0.93644193454E+02 -0.15876411891E+02  0.26020895018E+02  0.98480365554E+02  0.00000000000E+00 0.  1.
          5    1    3    3  501    0  0.21967317057E+02  0.10022541181E+02 -0.32538638702E+02  0.40733889563E+02  0.41800000000E+01 0. -1.
         -5    1    3    3    0  501 -0.15611538236E+03  0.60101509128E+01 -0.39250042841E+03  0.42247152949E+03  0.41800000000E+01 0. -1.
</event>
<event>
11    1  0.1704459E-009  0.3198868E+03  0.7561462E-02  0.9921091E-01
         22   -1    0    0    0    0  0.00000000000E+00  0.00000000000E+00  0.15467265335E+04  0.15467265335E+04  0.00000000000E+00 0. -1.
         22   -1    0    0    0    0 -0.00000000000E+00 -0.00000000000E+00 -0.91942783767E+03  0.91942783767E+03  0.00000000000E+00 0. -1.
         25    2    1    2    0    0 -0.29095706645E+03  0.91756054341E+02 -0.69611503532E+03  0.77025910444E+03  0.12509099709E+03 0.  0.
         24    2    1    2    0    0  0.27002229911E+03 -0.12266309875E+02 -0.75802371907E+02  0.29200548722E+03  0.80366041362E+02 0.  0.
        -24    2    1    2    0    0  0.20934767340E+02 -0.79489744466E+02  0.13992161030E+04  0.14038897795E+04  0.79648766406E+02 0.  0.
        -11    1    4    4    0    0  0.20934440934E+03  0.21375711598E+02 -0.41015240009E+02  0.21439275333E+03  0.00000000000E+00 0.  1.
         12    1    4    4    0    0  0.60677889772E+02 -0.33642021472E+02 -0.34787131898E+02  0.77612733889E+02  0.00000000000E+00 0. -1.
         13    1    5    5    0    0  0.49245997684E+02 -0.53438921453E+02  0.74249489429E+03  0.74604259574E+03  0.00000000000E+00 0. -1.
        -14    1    5    5    0    0 -0.28311230344E+02 -0.26050823014E+02  0.65672120872E+03  0.65784718372E+03  0.00000000000E+00 0.  1.
          5    1    3    3  501    0 -0.10579197191E+02  0.17874941859E+02 -0.15409767180E+03  0.15554741340E+03  0.41800000000E+01 0.  1.
         -5    1    3    3    0  501 -0.28037786926E+03  0.73881112482E+02 -0.54201736351E+03  0.61471169104E+03  0.41800000000E+01 0.  1.
</event>
<event>
11    1  0.1704459E-009  0.1421227E+03  0.7561462E-02  0.1105211E+00
         22   -1    0    0    0    0  0.00000000000E+00  0.00000000000E+00  0.44786205186E+03  0.44786205186E+03  0.00000000000E+00 0.  1.
         22   -1    0    0    0    0 -0.00000000000E+00 -0.00000000000E+00 -0.65313696789E+03  0.65313696789E+03  0.00000000000E+00 0.  1.
         25    2    1    2    0    0 -0.48818798328E+01  0.63932252094E+02 -0.34390675985E+03  0.37152386306E+03  0.12508779214E+03 0.  0.
         24    2    1    2    0    0 -0.69729094447E+00 -0.70224992627E+02 -0.28077273337E+03  0.30263481005E+03  0.88444698232E+02 0.  0.
        -24    2    1    2    0    0  0.55791707773E+01  0.62927405326E+01  0.41940457720E+03  0.42684034665E+03  0.78878111164E+02 0.  0.
        -13    1    4    4    0    0  0.28347733153E+02 -0.64690520880E+02 -0.25070839412E+03  0.26046718862E+03  0.00000000000E+00 0.  1.
         14    1    4    4    0    0 -0.29045024098E+02 -0.55344717463E+01 -0.30064339255E+02  0.42167621431E+02  0.00000000000E+00 0. -1.
         13    1    5    5    0    0 -0.76871248890E+01  0.11992631617E+02  0.10538367347E+02  0.17719263204E+02  0.00000000000E+00 0. -1.
        -14    1    5    5    0    0  0.13266295666E+02 -0.56998910845E+01  0.40886620985E+03  0.40912108344E+03  0.00000000000E+00 0.  1.
          5    1    3    3  501    0 -0.41247732370E+02  0.41612743301E+02 -0.31351730668E+03  0.31897267880E+03  0.41800000000E+01 0. -1.
         -5    1    3    3    0  501  0.36365852537E+02  0.22319508793E+02 -0.30389453175E+02  0.52551184267E+02  0.41800000000E+01 0. -1.
</event>
<event>
11    1  0.1704459E-009  0.1741127E+03  0.7561462E-02  0.1074507E+00
         22   -1    0    0    0    0  0.00000000000E+00  0.00000000000E+00  0.16930594285E+03  0.16930594285E+03  0.00000000000E+00 0.  1.
         22   -1    0    0    0    0 -0.00000000000E+00 -0.00000000000E+00 -0.47699291877E+03  0.47699291877E+03  0.00000000000E+00 0.  1.
         25    2    1    2    0    0  0.67728598283E+02 -0.12392374015E+02 -0.19680505683E+03  0.24314652479E+03  0.12508904095E+03 0.  0.
        -24    2    1    2    0    0  0.64580243010E+02  0.27595335678E+02 -0.19450248138E+03  0.22289569542E+03  0.83181520998E+02 0.  0.
         24    2    1    2    0    0 -0.13230884129E+03 -0.15202961663E+02  0.83620562283E+02  0.18025664141E+03  0.88109584084E+02 0.  0.
        -13    1    5    5    0    0 -0.10375566299E+03 -0.94982005690E+00  0.10024367227E+03  0.14427381464E+03  0.00000000000E+00 0.  1.
         14    1    5    5    0    0 -0.28553178300E+02 -0.14253141606E+02 -0.16623109984E+02  0.35982826768E+02  0.00000000000E+00 0. -1.
         13    1    4    4    0    0  0.45086434505E+02 -0.18797881156E+02 -0.50084616133E+02  0.69961530040E+02  0.00000000000E+00 0. -1.
        -14    1    4    4    0    0  0.19493808505E+02  0.46393216834E+02 -0.14441786525E+03  0.15293416538E+03  0.00000000000E+00 0.  1.
          5    1    3    3  501    0  0.92768201620E+02 -0.65840697495E+01 -0.19612159451E+03  0.21709546618E+03  0.41800000000E+01 0.  1.
         -5    1    3    3    0  501 -0.25039603338E+02 -0.58083042658E+01 -0.68346232054E+00  0.26051058606E+02  0.41800000000E+01 0.  1.
</event>
<event>
11    1  0.1704459E-009  0.1460717E+03  0.7561462E-02  0.1100962E+00
         22   -1    0    0    0    0  0.00000000000E+00  0.00000000000E+00  0.15882708866E+03  0.15882708866E+03  0.00000000000E+00 0. -1.
         22   -1    0    0    0    0 -0.00000000000E+00 -0.00000000000E+00 -0.45173860214E+03  0.45173860214E+03  0.00000000000E+00 0.  1.
         25    2    1    2    0    0  0.15170101368E+02 -0.55502258872E+02 -0.24271534544E+03  0.27904767710E+03  0.12508490902E+03 0.  0.
         24    2    1    2    0    0 -0.11698761829E+03  0.69773290925E+02 -0.10660871102E+03  0.19041428031E+03  0.79610086801E+02 0.  0.
        -24    2    1    2    0    0  0.10181751692E+03 -0.14271032052E+02  0.56412542983E+02  0.14110373340E+03  0.78469226235E+02 0.  0.
        -13    1    4    4    0    0  0.64695846293E+01  0.23827199606E+02 -0.83102768408E+01  0.26050943697E+02  0.00000000000E+00 0.  1.
         14    1    4    4    0    0 -0.12345720292E+03  0.45946091319E+02 -0.98298434178E+02  0.16436333661E+03  0.00000000000E+00 0. -1.
         13    1    5    5    0    0  0.39368477713E+02 -0.31511492074E+02  0.57278197936E+02  0.76312797937E+02  0.00000000000E+00 0. -1.
        -14    1    5    5    0    0  0.62449039207E+02  0.17240460021E+02 -0.86565495344E+00  0.64790935463E+02  0.00000000000E+00 0.  1.
          5    1    3    3  501    0 -0.50311945426E+02 -0.26292357357E+02 -0.15823941170E+03  0.16816588156E+03  0.41800000000E+01 0.  1.
         -5    1    3    3    0  501  0.65482046794E+02 -0.29209901516E+02 -0.84475933743E+02  0.11088179553E+03  0.41800000000E+01 0.  1.
</event>
<event>
11    1  0.1704459E-009  0.1588417E+03  0.7561462E-02  0.1088172E+00
         22   -1    0    0    0    0  0.00000000000E+00  0.00000000000E+00  0.64607771215E+02  0.64607771215E+02  0.00000000000E+00 0.  1.
         22   -1    0    0    0    0 -0.00000000000E+00 -0.00000000000E+00 -0.12430418380E+04  0.12430418380E+04  0.00000000000E+00 0.  1.
         25    2    1    2    0    0  0.77554444984E+02  0.93612681629E+02 -0.63733486096E+03  0.66077328645E+03  0.12509030732E+03 0.  0.
         24    2    1    2    0    0 -0.72194120027E+02  0.37525277061E+01 -0.50383497670E+03  0.51504756208E+03  0.78728870372E+02 0.  0.
        -24    2    1    2    0    0 -0.53603249573E+01 -0.97365209335E+02 -0.37264229135E+02  0.13182876070E+03  0.80507653685E+02 0.  0.
        -13    1    4    4    0    0 -0.87899871422E+02 -0.63421191444E+01 -0.40763852778E+03  0.41705608640E+03  0.00000000000E+00 0.  1.
         14    1    4    4    0    0  0.15705751395E+02  0.10094646850E+02 -0.96196448918E+02  0.97991475682E+02  0.00000000000E+00 0. -1.
         11    1    5    5    0    0  0.28817950858E+02 -0.83533370517E+02 -0.34477681900E+02  0.94852563649E+02  0.00000000000E+00 0. -1.
        -12    1    5    5    0    0 -0.34178275815E+02 -0.13831838818E+02 -0.27865472346E+01  0.36976197050E+02  0.00000000000E+00 0.  1.
          5    1    3    3  501    0  0.71556078673E+02  0.10746208741E+03 -0.63065393531E+03  0.64374702419E+03  0.41800000000E+01 0.  1.
         -5    1    3    3    0  501  0.59983663111E+01 -0.13849405784E+02 -0.66809256516E+01  0.17026262260E+02  0.41800000000E+01 0.  1.
</event>
<event>
11    1  0.1704459E-009  0.4331708E+03  0.7561462E-02  0.9556657E-01
         22   -1    0    0    0    0  0.00000000000E+00  0.00000000000E+00  0.10345963605E+04  0.10345963605E+04  0.00000000000E+00 0. -1.
         22   -1    0    0    0    0 -0.00000000000E+00 -0.00000000000E+00 -0.50886293414E+03  0.50886293414E+03  0.00000000000E+00 0.  1.
         25    2    1    2    0    0 -0.13787899672E+03  0.40102942255E+03  0.24632110211E+03  0.50612341133E+03  0.12510638139E+03 0.  0.
         24    2    1    2    0    0  0.11865722670E+03 -0.39440660212E+03 -0.25820053525E+03  0.49280586033E+03  0.80956743567E+02 0.  0.
        -24    2    1    2    0    0  0.19221770018E+02 -0.66228204361E+01  0.53761285945E+03  0.54453002293E+03  0.84095309259E+02 0.  0.
        -11    1    4    4    0    0  0.22250786141E+02 -0.21214201088E+03 -0.13985131237E+03  0.25506414847E+03  0.00000000000E+00 0.  1.
         12    1    4    4    0    0  0.96406440561E+02 -0.18226459124E+03 -0.11834922288E+03  0.23774171186E+03  0.00000000000E+00 0. -1.
         13    1    5    5    0    0  0.40958384632E+02 -0.18311225552E+02  0.16172588272E+03  0.16783370161E+03  0.00000000000E+00 0. -1.
        -14    1    5    5    0    0 -0.21736614614E+02  0.11688405116E+02  0.37588697672E+03  0.37669632132E+03  0.00000000000E+00 0.  1.
          5    1    3    3  501    0 -0.45111036726E+02  0.26078670492E+03  0.19971777288E+03  0.33158614612E+03  0.41800000000E+01 0.  1.
         -5    1    3    3    0  501 -0.92767959994E+02  0.14024271764E+03  0.46603329227E+02  0.17453726521E+03  0.41800000000E+01 0.  1.
</event>
<event>
11    1  0.1704459E-009  0.1679850E+03  0.7561462E-02  0.1079799E+00
         22   -1    0    0    0    0  0.00000000000E+00  0.00000000000E+00  0.34146382570E+02  0.34146382570E+02  0.00000000000E+00 0. -1.
         22   -1    0    0    0    0 -0.00000000000E+00 -0.00000000000E+00 -0.15095385229E+04  0.15095385229E+04  0.00000000000E+00 0. -1.
         25    2    1    2    0    0 -0.79824381154E+02  0.28100730779E+02 -0.79865485744E+03  0.81280991781E+03  0.12509515691E+03 0.  0.
        -24    2    1    2    0    0 -0.16940273192E+02  0.44323399837E+02 -0.46985511482E+03  0.47903824299E+03  0.80388262164E+02 0.  0.
         24    2    1    2    0    0  0.96764654346E+02 -0.72424130616E+02 -0.20688216811E+03  0.25183674471E+03  0.77542642966E+02 0.  0.
        -13    1    5    5    0    0 -0.57123806161E+01 -0.30795144942E+02 -0.62963813192E+02  0.70323637676E+02  0.00000000000E+00 0.  1.
         14    1    5    5    0    0  0.10247703496E+03 -0.41628985675E+02 -0.14391835491E+03  0.18151310703E+03  0.00000000000E+00 0. -1.
         11    1    4    4    0    0  0.31267790097E+02  0.66034694651E+01 -0.17552969781E+03  0.17841512077E+03  0.00000000000E+00 0. -1.
        -12    1    4    4    0    0 -0.48208063289E+02  0.37719930372E+02 -0.29432541701E+03  0.30062312221E+03  0.00000000000E+00 0.  1.
          5    1    3    3  501    0 -0.66755770437E+02 -0.37109902858E+02 -0.55346605661E+03  0.55872679012E+03  0.41800000000E+01 0.  1.
         -5    1    3    3    0  501 -0.13068610717E+02  0.65210633638E+02 -0.24518880083E+03  0.25408312769E+03  0.41800000000E+01 0.  1.
</event>
<event>
11    1  0.1704459E-009  0.3320423E+03  0.7561462E-02  0.9874738E-01
         22   -1    0    0    0    0  0.00000000000E+00  0.00000000000E+00  0.22294000527E+03  0.22294000527E+03  0.00000000000E+00 0.  1.
         22   -1    0    0    0    0 -0.00000000000E+00 -0.00000000000E+00 -0.11326339393E+04  0.11326339393E+04  0.00000000000E+00 0.  1.
         25    2    1    2    0    0 -0.25411764904E+03 -0.12583412792E+03 -0.38672621336E+03  0.49559621891E+03  0.12509372805E+03 0.  0.
        -24    2    1    2    0    0 -0.91902129476E+02  0.26446764635E+03 -0.30033940946E+03  0.41853911419E+03  0.81130092217E+02 0.  0.
         24    2    1    2    0    0  0.34601977851E+03 -0.13863351843E+03 -0.22262831123E+03  0.44143861149E+03  0.79722915175E+02 0.  0.
        -11    1    5    5    0    0  0.27101005867E+03 -0.13627915863E+03 -0.19886330958E+03  0.36271900539E+03  0.00000000000E+00 0.  1.
         12    1    5    5    0    0  0.75009719846E+02 -0.23543597976E+01 -0.23765001645E+02  0.78719606101E+02  0.00000000000E+00 0. -1.
         13    1    4    4    0    0 -0.67652617391E+02  0.21768561542E+03 -0.28229425447E+03  0.36284149419E+03  0.00000000000E+00 0. -1.
        -14    1    4    4    0    0 -0.24249512085E+02  0.46782030934E+02 -0.18045154984E+02  0.55697619995E+02  0.00000000000E+00 0.  1.
          5    1    3    3  501    0 -0.83548382727E+01  0.93599990575E+01 -0.75304630312E+02  0.76456998708E+02  0.41800000000E+01 0. -1.
         -5    1    3    3    0  501 -0.24576281077E+03 -0.13519412698E+03 -0.31142158305E+03  0.41913922021E+03  0.41800000000E+01 0. -1.
</event>
<event>
11    1  0.1704459E-009  0.9770101E+03  0.7561462E-02  0.8701193E-01
         22   -1    0    0    0    0  0.00000000000E+00  0.00000000000E+00  0.26908473621E+04  0.26908473621E+04  0.00000000000E+00 0. -1.
         22   -1    0    0    0    0 -0.00000000000E+00 -0.00000000000E+00 -0.72780906631E+03  0.72780906631E+03  0.00000000000E+00 0. -1.
         25    2    1    2    0    0 -0.20511591858E+03 -0.94902204237E+03 -0.20371222757E+03  0.99993100252E+03  0.12509181094E+03 0.  0.
         24    2    1    2    0    0  0.12911762347E+03  0.95259756482E+03  0.19356003264E+04  0.21626640409E+04  0.80334607049E+02 0.  0.
        -24    2    1    2    0    0  0.75998295111E+02 -0.35755224415E+01  0.23115019692E+03  0.25606138495E+03  0.79677437861E+02 0.  0.
        -11    1    4    4    0    0  0.74385176231E+02  0.47457016300E+03  0.87978103125E+03  0.10023794975E+04  0.00000000000E+00 0.  1.
         12    1    4    4    0    0  0.54732447242E+02  0.47802740182E+03  0.10558192952E+04  0.11602845434E+04  0.00000000000E+00 0. -1.
         13    1    5    5    0    0  0.75641112905E+02 -0.26119344476E+02  0.21157414776E+03  0.22620216205E+03  0.00000000000E+00 0. -1.
        -14    1    5    5    0    0  0.35718220615E+00  0.22543822035E+02  0.19576049161E+02  0.29859222894E+02  0.00000000000E+00 0.  1.
          5    1    3    3  501    0 -0.65401194564E+02 -0.52126752536E+03 -0.67097059094E+02  0.52963821330E+03  0.41800000000E+01 0. -1.
         -5    1    3    3    0  501 -0.13971472402E+03 -0.42775451701E+03 -0.13661516848E+03  0.47029278922E+03  0.41800000000E+01 0. -1.
</event>
<event>
11    1  0.1704459E-009  0.5709192E+03  0.7561462E-02  0.9247670E-01
         22   -1    0    0    0    0  0.00000000000E+00  0.00000000000E+00  0.70441150888E+03  0.70441150888E+03  0.00000000000E+00 0.  1.
         22   -1    0    0    0    0 -0.00000000000E+00 -0.00000000000E+00 -0.13093302019E+04  0.13093302019E+04  0.00000000000E+00 0. -1.
         25    2    1    2    0    0 -0.59298552189E+03  0.16566896596E+02 -0.10123409966E+04  0.11799950966E+04  0.12509134066E+03 0.  0.
        -24    2    1    2    0    0  0.43975811267E+03 -0.60797350968E+02  0.76632180719E+02  0.45760360491E+03  0.80281084702E+02 0.  0.
         24    2    1    2    0    0  0.15322740922E+03  0.44230454372E+02  0.33079012281E+03  0.37614300926E+03  0.81403231117E+02 0.  0.
        -11    1    5    5    0    0  0.75222647823E+02  0.13987596702E+02  0.24348438205E+03  0.25522292983E+03  0.00000000000E+00 0.  1.
         12    1    5    5    0    0  0.78004761392E+02  0.30242857670E+02  0.87305740758E+02  0.12092007943E+03  0.00000000000E+00 0. -1.
         11    1    4    4    0    0  0.24367967572E+02 -0.13293185839E+02 -0.11956726463E+02  0.30223665248E+02  0.00000000000E+00 0. -1.
        -12    1    4    4    0    0  0.41539014510E+03 -0.47504165129E+02  0.88588907182E+02  0.42737993967E+03  0.00000000000E+00 0.  1.
          5    1    3    3  501    0 -0.27431732877E+03  0.59779487453E+02 -0.40594725956E+03  0.49359318667E+03  0.41800000000E+01 0.  1.
         -5    1    3    3    0  501 -0.31866819312E+03 -0.43212590857E+02 -0.60639373702E+03  0.68640190997E+03  0.41800000000E+01 0.  1.
</event>
<event>
11    1  0.1704459E-009  0.3731103E+03  0.7561462E-02  0.9732608E-01
         22   -1    0    0    0    0  0.00000000000E+00  0.00000000000E+00  0.11979719482E+03  0.11979719482E+03  0.00000000000E+00 0. -1.
         22   -1    0    0    0    0 -0.00000000000E+00 -0.00000000000E+00 -0.21941073729E+04  0.21941073729E+04  0.00000000000E+00 0.  1.
         25    2    1    2    0    0  0.73257775655E+02  0.34020650409E+03 -0.16173077764E+04  0.16590474891E+04  0.12508781034E+03 0.  0.
         24    2    1    2    0    0 -0.80236340042E+02 -0.35636241954E+03 -0.34688813625E+03  0.51031868436E+03  0.81619459764E+02 0.  0.
        -24    2    1    2    0    0  0.69785643874E+01  0.16155915455E+02 -0.11011426546E+03  0.14453839432E+03  0.91959132282E+02 0.  0.
        -11    1    4    4    0    0 -0.14876666232E+02 -0.16482528167E+03 -0.20344981214E+03  0.26226039490E+03  0.00000000000E+00 0.  1.
         12    1    4    4    0    0 -0.65359673811E+02 -0.19153713787E+03 -0.14343832411E+03  0.24805828946E+03  0.00000000000E+00 0. -1.
         13    1    5    5    0    0  0.10729951777E+02 -0.35957071746E+02 -0.26483721114E+02  0.45928535332E+02  0.00000000000E+00 0. -1.
        -14    1    5    5    0    0 -0.37513873899E+01  0.52112987201E+02 -0.83630544348E+02  0.98609858991E+02  0.00000000000E+00 0.  1.
          5    1    3    3  501    0  0.21957454644E+02  0.11255687038E+03 -0.29951513167E+03  0.32074595147E+03  0.41800000000E+01 0.  1.
         -5    1    3    3    0  501  0.51300321011E+02  0.22764963371E+03 -0.13177926447E+04  0.13383015376E+04  0.41800000000E+01 0.  1.
</event>
<event>
11    1  0.1704459E-009  0.1305150E+03  0.7561462E-02  0.1118638E+00
         22   -1    0    0    0    0  0.00000000000E+00  0.00000000000E+00  0.63214753796E+03  0.63214753796E+03  0.00000000000E+00 0. -1.
         22   -1    0    0    0    0 -0.00000000000E+00 -0.00000000000E+00 -0.32453055684E+03  0.32453055684E+03  0.00000000000E+00 0.  1.
         25    2    1    2    0    0 -0.24691141349E+02 -0.70545100904E+02 -0.20722583376E+03  0.25332968326E+03  0.12508844279E+03 0.  0.
        -24    2    1    2    0    0  0.15029314879E+02  0.35217583895E+02 -0.65846265133E+02  0.11503097333E+03  0.86198814795E+02 0.  0.
         24    2    1    2    0    0  0.96618264697E+01  0.35327517010E+02  0.58068908001E+03  0.58831743821E+03  0.87041461970E+02 0.  0.
        -13    1    5    5    0    0  0.47300046183E+01 -0.21004158464E+02  0.47661709707E+02  0.52299007531E+02  0.00000000000E+00 0.  1.
         14    1    5    5    0    0  0.49318218514E+01  0.56331675474E+02  0.53302737031E+03  0.53601843068E+03  0.00000000000E+00 0. -1.
         13    1    4    4    0    0  0.26277018008E+02 -0.14814989249E+02  0.17120031448E+01  0.30214177742E+02  0.00000000000E+00 0. -1.
        -14    1    4    4    0    0 -0.11247703129E+02  0.50032573144E+02 -0.67558268278E+02  0.84816795588E+02  0.00000000000E+00 0.  1.
          5    1    3    3  501    0  0.38468591292E+02 -0.72328375743E+02 -0.12576739542E+03  0.15015370992E+03  0.41800000000E+01 0. -1.
         -5    1    3    3    0  501 -0.63159732641E+02  0.17832748384E+01 -0.81458438342E+02  0.10317597333E+03  0.41800000000E+01 0. -1.
</event>
<event>
11    1  0.1704459E-009  0.1744412E+03  0.7561462E-02  0.1074230E+00
         22   -1    0    0    0    0  0.00000000000E+00  0.00000000000E+00  0.10279520421E+04  0.10279520421E+04  0.00000000000E+00 0. -1.
         22   -1    0    0    0    0 -0.00000000000E+00 -0.00000000000E+00 -0.54418900900E+02  0.54418900900E+02  0.00000000000E+00 0.  1.
         25    2    1    2    0    0 -0.57477710151E+02 -0.73516137634E+02  0.16546738067E+03  0.22745179839E+03  0.12508619775E+03 0.  0.
        -24    2    1    2    0    0  0.11124958563E+02 -0.49352299434E+02  0.15239585438E+03  0.18025363872E+03  0.81899106692E+02 0.  0.
         24    2    1    2    0    0  0.46352751588E+02  0.12286843707E+03  0.65566990618E+03  0.67466550593E+03  0.89583975162E+02 0.  0.
        -13    1    5    5    0    0  0.38419980537E+02  0.20953029288E+02  0.92958814364E+02  0.10274466170E+03  0.00000000000E+00 0.  1.
         14    1    5    5    0    0  0.79327710509E+01  0.10191540778E+03  0.56271109182E+03  0.57192084422E+03  0.00000000000E+00 0. -1.
         13    1    4    4    0    0  0.46439649093E+02 -0.21082268525E+02  0.82902997267E+02  0.97334526300E+02  0.00000000000E+00 0. -1.
        -14    1    4    4    0    0 -0.35314690530E+02 -0.28270030909E+02  0.69492857117E+02  0.82919112423E+02  0.00000000000E+00 0.  1.
          5    1    3    3  501    0 -0.26664098306E+02 -0.10571258534E+02 -0.15835880275E+02  0.33029882675E+02  0.41800000000E+01 0.  1.
         -5    1    3    3    0  501 -0.30813611846E+02 -0.62944879100E+02  0.18130326095E+03  0.19442191571E+03  0.41800000000E+01 0.  1.
</event>
<event>
11    1  0.1704459E-009  0.2729479E+03  0.7561462E-02  0.1012338E+00
         22   -1    0    0    0    0  0.00000000000E+00  0.00000000000E+00  0.46361576744E+03  0.46361576744E+03  0.00000000000E+00 0. -1.
         22   -1    0    0    0    0 -0.00000000000E+00 -0.00000000000E+00 -0.34184976176E+03  0.34184976176E+03  0.00000000000E+00 0. -1.
         25    2    1    2    0    0 -0.12704194152E+03 -0.22114618950E+03 -0.19814515320E+03  0.34634344849E+03  0.12508793126E+03 0.  0.
        -24    2    1    2    0    0  0.89226956401E+02  0.18623456904E+03  0.16131050355E+03  0.27394047907E+03  0.79859520785E+02 0.  0.
         24    2    1    2    0    0  0.37814985116E+02  0.34911620453E+02  0.15860065533E+03  0.18518160164E+03  0.80555964225E+02 0.  0.
        -11    1    5    5    0    0  0.53101960133E+02 -0.38768461071E+01  0.78053314784E+02  0.94483692003E+02  0.00000000000E+00 0.  1.
         12    1    5    5    0    0 -0.15286975017E+02  0.38788466560E+02  0.80547340550E+02  0.90697909639E+02  0.00000000000E+00 0. -1.
         13    1    4    4    0    0  0.10039816773E+03  0.13268276119E+03  0.12762275863E+03  0.20969519718E+03  0.00000000000E+00 0. -1.
        -14    1    4    4    0    0 -0.11171211326E+02  0.53551807852E+02  0.33687744918E+02  0.64245281884E+02  0.00000000000E+00 0.  1.
          5    1    3    3  501    0 -0.55409136353E+02 -0.10509312656E+03 -0.17808375460E+02  0.12020544196E+03  0.41800000000E+01 0. -1.
         -5    1    3    3    0  501 -0.71632805164E+02 -0.11605306294E+03 -0.18033677774E+03  0.22613800653E+03  0.41800000000E+01 0. -1.
</event>
<event>
11    1  0.1704459E-009  0.1817611E+03  0.7561462E-02  0.1068227E+00
         22   -1    0    0    0    0  0.00000000000E+00  0.00000000000E+00  0.15144359587E+03  0.15144359587E+03  0.00000000000E+00 0.  1.
         22   -1    0    0    0    0 -0.00000000000E+00 -0.00000000000E+00 -0.62739534562E+03  0.62739534562E+03  0.00000000000E+00 0.  1.
         25    2    1    2    0    0 -0.65120232102E+02  0.87836098134E+02 -0.26641117415E+03  0.31397481754E+03  0.12509775207E+03 0.  0.
         24    2    1    2    0    0  0.51907989583E+02 -0.15052716820E+03 -0.28623162499E+03  0.33735830533E+03  0.80803559854E+02 0.  0.
        -24    2    1    2    0    0  0.13212242519E+02  0.62691070065E+02  0.76691049377E+02  0.12750581862E+03  0.79192696067E+02 0.  0.
        -13    1    4    4    0    0  0.23949320779E+02 -0.14506625190E+03 -0.21334077665E+03  0.25909858045E+03  0.00000000000E+00 0.  1.
         14    1    4    4    0    0  0.27958668805E+02 -0.54609162956E+01 -0.72890848334E+02  0.78259724884E+02  0.00000000000E+00 0. -1.
         11    1    5    5    0    0  0.10529883819E+01  0.53192981486E+02  0.41755139812E+01  0.53367002735E+02  0.00000000000E+00 0. -1.
        -12    1    5    5    0    0  0.12159254137E+02  0.94980885791E+01  0.72515535396E+02  0.74138815890E+02  0.00000000000E+00 0.  1.
          5    1    3    3  501    0 -0.33241689204E+02  0.10178864771E+03 -0.25582548122E+03  0.27736273713E+03  0.41800000000E+01 0.  1.
         -5    1    3    3    0  501 -0.31878542898E+02 -0.13952549580E+02 -0.10585692922E+02  0.36612080407E+02  0.41800000000E+01 0.  1.
</event>
<event>
11    1  0.1704459E-009  0.1537964E+03  0.7561462E-02  0.1093062E+00
         22   -1    0    0    0    0  0.00000000000E+00  0.00000000000E+00  0.65558163930E+03  0.65558163930E+03  0.00000000000E+00 0. -1.
         22   -1    0    0    0    0 -0.00000000000E+00 -0.00000000000E+00 -0.12881857767E+03  0.12881857767E+03  0.00000000000E+00 0.  1.
         25    2    1    2    0    0 -0.84962718430E+02  0.62011355124E+01  0.99071678365E+02  0.18088495360E+03  0.12508817442E+03 0.  0.
         24    2    1    2    0    0  0.85609670021E+02  0.36899824438E+02 -0.39185184721E+02  0.12787160078E+03  0.78262730217E+02 0.  0.
        -24    2    1    2    0    0 -0.64695159046E+00 -0.43100959950E+02  0.46687656799E+03  0.47564366258E+03  0.80031573304E+02 0.  0.
        -11    1    4    4    0    0  0.83801620791E+02  0.74884754351E+01 -0.48316887743E+02  0.97022216800E+02  0.00000000000E+00 0.  1.
         12    1    4    4    0    0  0.18080492291E+01  0.29411349002E+02  0.91317030219E+01  0.30849383985E+02  0.00000000000E+00 0. -1.
         13    1    5    5    0    0  0.10408964002E+02  0.53552612415E+01  0.32682404735E+03  0.32703361185E+03  0.00000000000E+00 0. -1.
        -14    1    5    5    0    0 -0.11055915593E+02 -0.48456221191E+02  0.14005252064E+03  0.14861005074E+03  0.00000000000E+00 0.  1.
          5    1    3    3  501    0  0.26285789914E+02  0.12005803852E+02 -0.34877862247E+01  0.29406107023E+02  0.41800000000E+01 0. -1.
         -5    1    3    3    0  501 -0.11124850834E+03 -0.58046683391E+01  0.10255946459E+03  0.15147884658E+03  0.41800000000E+01 0. -1.
</event>
<event>
11    1  0.1704459E-009  0.1536549E+03  0.7561462E-02  0.1093202E+00
         22   -1    0    0    0    0  0.00000000000E+00  0.00000000000E+00  0.45070846034E+02  0.45070846034E+02  0.00000000000E+00 0.  1.
         22   -1    0    0    0    0 -0.00000000000E+00 -0.00000000000E+00 -0.16262884099E+04  0.16262884099E+04  0.00000000000E+00 0. -1.
         25    2    1    2    0    0 -0.78309316400E+02 -0.87581643580E+02 -0.85513382459E+03  0.87218316079E+03  0.12508682860E+03 0.  0.
         24    2    1    2    0    0  0.67228176227E+02  0.36228860459E+02 -0.68590866486E+03  0.69491517534E+03  0.81266514515E+02 0.  0.
        -24    2    1    2    0    0  0.11081140173E+02  0.51352783121E+02 -0.40175074420E+02  0.10426091980E+03  0.80600265456E+02 0.  0.
        -11    1    4    4    0    0  0.24183439792E+02 -0.16994154001E+02 -0.82473552089E+02  0.87610084035E+02  0.00000000000E+00 0.  1.
         12    1    4    4    0    0  0.43044736436E+02  0.53223014459E+02 -0.60343511277E+03  0.60730509130E+03  0.00000000000E+00 0. -1.
         11    1    5    5    0    0  0.13959801529E+02  0.53690251946E+02 -0.61379739506E+02  0.82734464612E+02  0.00000000000E+00 0. -1.
        -12    1    5    5    0    0 -0.28786613565E+01 -0.23374688245E+01  0.21204665085E+02  0.21526455191E+02  0.00000000000E+00 0.  1.
          5    1    3    3  501    0 -0.74362083419E+02 -0.27798681772E+02 -0.71910311526E+03  0.72348410413E+03  0.41800000000E+01 0.  1.
         -5    1    3    3    0  501 -0.39472329810E+01 -0.59782961808E+02 -0.13603070933E+03  0.14869905666E+03  0.41800000000E+01 0.  1.
</event>
<event>
11    1  0.1704459E-009  0.1522823E+03  0.7561462E-02  0.1094569E+00
         22   -1    0    0    0    0  0.00000000000E+00  0.00000000000E+00  0.46767696244E+03  0.46767696244E+03  0.00000000000E+00 0. -1.
         22   -1    0    0    0    0 -0.00000000000E+00 -0.00000000000E+00 -0.17805696070E+03  0.17805696070E+03  0.00000000000E+00 0. -1.
         25    2    1    2    0    0 -0.55657986727E+01 -0.86869972263E+02 -0.11260798061E+03  0.18948915711E+03  0.12509281822E+03 0.  0.
        -24    2    1    2    0    0  0.16838325459E+02  0.10486799901E+01  0.85117754698E+02  0.11795287523E+03  0.79895054140E+02 0.  0.
         24    2    1    2    0    0 -0.11272526786E+02  0.85821292273E+02  0.31711022765E+03  0.33829189080E+03  0.79938368982E+02 0.  0.
        -11    1    5    5    0    0  0.28648706799E+02  0.43168887837E+02  0.20987955944E+03  0.21617985741E+03  0.00000000000E+00 0.  1.
         12    1    5    5    0    0 -0.39921233585E+02  0.42652404437E+02  0.10723066821E+03  0.12211203339E+03  0.00000000000E+00 0. -1.
         11    1    4    4    0    0  0.22554221726E+02 -0.21991088934E+02  0.20584660782E+01  0.31567993170E+02  0.00000000000E+00 0. -1.
        -12    1    4    4    0    0 -0.57158962678E+01  0.23039768925E+02  0.83059288620E+02  0.86384882059E+02  0.00000000000E+00 0.  1.
          5    1    3    3  501    0 -0.26682013997E+02 -0.10185332554E+03 -0.12238579540E+03  0.16149856071E+03  0.41800000000E+01 0.  1.
         -5    1    3    3    0  501  0.21116215324E+02  0.14983353275E+02  0.97778147958E+01  0.27990596406E+02  0.41800000000E+01 0.  1.
</event>
<event>
11    1  0.1704459E-009  0.5291368E+03  0.7561462E-02  0.9330672E-01
         22   -1    0    0    0    0  0.00000000000E+00  0.00000000000E+00  0.13354252309E+03  0.13354252309E+03  0.00000000000E+00 0. -1.
         22   -1    0    0    0    0 -0.00000000000E+00 -0.00000000000E+00 -0.27569340433E+04  0.27569340433E+04  0.00000000000E+00 0. -1.
         25    2    1    2    0    0  0.32663630322E+03 -0.34699869816E+03 -0.16420356767E+04  0.17143593092E+04  0.12508919355E+03 0.  0.
         24    2    1    2    0    0 -0.38301913605E+03  0.37066781406E+03 -0.74739598645E+03  0.92164962544E+03  0.82091318386E+02 0.  0.
        -24    2    1    2    0    0  0.56382832833E+02 -0.23669115899E+02 -0.23395985701E+03  0.25446763170E+03  0.79229476880E+02 0.  0.
        -13    1    4    4    0    0 -0.41701166307E+02  0.79160111702E+02 -0.10459971240E+03  0.13764596031E+03  0.00000000000E+00 0.  1.
         14    1    4    4    0    0 -0.34131796975E+03  0.29150770235E+03 -0.64279627406E+03  0.78400366513E+03  0.00000000000E+00 0. -1.
         13    1    5    5    0    0  0.76276210447E+02 -0.13119347287E+02 -0.18719431263E+03  0.20256329439E+03  0.00000000000E+00 0. -1.
        -14    1    5    5    0    0 -0.19893377614E+02 -0.10549768612E+02 -0.46765544375E+02  0.51904337307E+02  0.00000000000E+00 0.  1.
          5    1    3    3  501    0  0.75369011503E+02 -0.16260438854E+03 -0.53205668540E+03  0.56144675967E+03  0.41800000000E+01 0. -1.
         -5    1    3    3    0  501  0.25126729172E+03 -0.18439430962E+03 -0.11099789913E+04  0.11529125496E+04  0.41800000000E+01 0. -1.
</event>
<event>
11    1  0.1704459E-009  0.1353689E+03  0.7561462E-02  0.1112843E+00
         22   -1    0    0    0    0  0.00000000000E+00  0.00000000000E+00  0.22282372447E+03  0.22282372447E+03  0.00000000000E+00 0. -1.
         22   -1    0    0    0    0 -0.00000000000E+00 -0.00000000000E+00 -0.42263047673E+03  0.42263047673E+03  0.00000000000E+00 0.  1.
         25    2    1    2    0    0  0.45189674655E+02 -0.40158155325E+02 -0.26722675102E+03  0.30118536433E+03  0.12509077942E+03 0.  0.
         24    2    1    2    0    0 -0.32029779390E+02  0.29179360168E+02 -0.11344212793E+03  0.14622779227E+03  0.81462316538E+02 0.  0.
        -24    2    1    2    0    0 -0.13159895264E+02  0.10978795157E+02  0.18086212669E+03  0.19804104459E+03  0.78837996468E+02 0.  0.
        -11    1    4    4    0    0 -0.58791979863E+02  0.15123339740E+02 -0.63495490569E+02  0.87845828721E+02  0.00000000000E+00 0.  1.
         12    1    4    4    0    0  0.26762200472E+02  0.14056020428E+02 -0.49946637357E+02  0.58381963548E+02  0.00000000000E+00 0. -1.
         13    1    5    5    0    0 -0.29984102317E+01 -0.24901050505E+02  0.14193620097E+03  0.14413513772E+03  0.00000000000E+00 0. -1.
        -14    1    5    5    0    0 -0.10161485033E+02  0.35879845662E+02  0.38925925720E+02  0.53905906875E+02  0.00000000000E+00 0.  1.
          5    1    3    3  501    0 -0.28059162180E+02 -0.43658085154E+02 -0.51238303112E+02  0.73049168971E+02  0.41800000000E+01 0. -1.
         -5    1    3    3    0  501  0.73248836835E+02  0.34999298286E+01 -0.21598844791E+03  0.22813619536E+03  0.41800000000E+01 0. -1.
</event>
<event>
11    1  0.1704459E-009  0.1404035E+03  0.7561462E-02  0.1107109E+00
         22   -1    0    0    0    0  0.00000000000E+00  0.00000000000E+00  0.25224332604E+03  0.25224332604E+03  0.00000000000E+00 0. -1.
         22   -1    0    0    0    0 -0.00000000000E+00 -0.00000000000E+00 -0.12812753237E+03  0.12812753237E+03  0.00000000000E+00 0.  1.
         25    2    1    2    0    0 -0.46579749156E+01 -0.49168498918E+02  0.14499729422E+02  0.13527377160E+03  0.12509801403E+03 0.  0.
        -24    2    1    2    0    0  0.60426044880E+02  0.61645682666E+02  0.36368764281E+02  0.12148859353E+03  0.77364683486E+02 0.  0.
         24    2    1    2    0    0 -0.55768069965E+02 -0.12477183748E+02  0.73247299960E+02  0.12360849328E+03  0.81536095794E+02 0.  0.
        -11    1    5    5    0    0 -0.40885444065E+02 -0.41854015456E+02  0.21628013186E+02  0.62379075823E+02  0.00000000000E+00 0.  1.
         12    1    5    5    0    0 -0.14882625899E+02  0.29376831708E+02  0.51619286775E+02  0.61229417456E+02  0.00000000000E+00 0. -1.
         11    1    4    4    0    0  0.61977085762E+02  0.75995779273E+02  0.20775295565E+02  0.10024036379E+03  0.00000000000E+00 0. -1.
        -12    1    4    4    0    0 -0.15510408813E+01 -0.14350096607E+02  0.15593468715E+02  0.21248229739E+02  0.00000000000E+00 0.  1.
          5    1    3    3  501    0 -0.75024718780E+01 -0.82717916351E+02  0.40527359912E+02  0.92512053653E+02  0.41800000000E+01 0.  1.
         -5    1    3    3    0  501  0.28444969623E+01  0.33549417433E+02 -0.26027630490E+02  0.42761717949E+02  0.41800000000E+01 0.  1.
</event>
<event>
11    1  0.1704459E-009  0.2212721E+03  0.7561462E-02  0.1040423E+00
         22   -1    0    0    0    0  0.00000000000E+00  0.00000000000E+00  0.24035003820E+03  0.24035003820E+03  0.00000000000E+00 0. -1.
         22   -1    0    0    0    0 -0.00000000000E+00 -0.00000000000E+00 -0.65076232896E+03  0.65076232896E+03  0.00000000000E+00 0. -1.
         25    2    1    2    0    0 -0.15192708905E+03 -0.64248055984E+01 -0.29203547060E+03  0.35221487108E+03  0.12508989090E+03 0.  0.
        -24    2    1    2    0    0  0.53506396436E+02  0.20211135652E+03 -0.19104193090E+03  0.29456263638E+03  0.80982667878E+02 0.  0.
         24    2    1    2    0    0  0.98420692614E+02 -0.19568655092E+03  0.72665110738E+02  0.24433485969E+03  0.80246161260E+02 0.  0.
        -11    1    5    5    0    0  0.63005356113E+01 -0.17774292887E+02  0.36028886691E+02  0.40665746185E+02  0.00000000000E+00 0.  1.
         12    1    5    5    0    0  0.92120157003E+02 -0.17791225803E+03  0.36636224048E+02  0.20366911351E+03  0.00000000000E+00 0. -1.
         11    1    4    4    0    0  0.74624561441E+01  0.14696028582E+03 -0.15660464311E+03  0.21489073527E+03  0.00000000000E+00 0. -1.
        -12    1    4    4    0    0  0.46043940292E+02  0.55151070700E+02 -0.34437287788E+02  0.79671901114E+02  0.00000000000E+00 0.  1.
          5    1    3    3  501    0 -0.94868015165E+02  0.49970684548E+02 -0.11220348424E+03  0.15525496414E+03  0.41800000000E+01 0.  1.
         -5    1    3    3    0  501 -0.57059073886E+02 -0.56395490146E+02 -0.17983198636E+03  0.19695990694E+03  0.41800000000E+01 0.  1.
</event>
<event>
11    1  0.1704459E-009  0.5703234E+03  0.7561462E-02  0.9248800E-01
         22   -1    0    0    0    0  0.00000000000E+00  0.00000000000E+00  0.26965600062E+03  0.26965600062E+03  0.00000000000E+00 0.  1.
         22   -1    0    0    0    0 -0.00000000000E+00 -0.00000000000E+00 -0.16741797134E+04  0.16741797134E+04  0.00000000000E+00 0.  1.
         25    2    1    2    0    0  0.33738027451E+03 -0.44381556854E+03 -0.88274554095E+03  0.10515145749E+04  0.12508198394E+03 0.  0.
        -24    2    1    2    0    0 -0.42407631289E+03  0.36579691510E+03 -0.33833762592E+03  0.66002164014E+03  0.86649374411E+02 0.  0.
         24    2    1    2    0    0  0.86696038386E+02  0.78018653440E+02 -0.18344054592E+03  0.23229949896E+03  0.81911598513E+02 0.  0.
        -13    1    5    5    0    0  0.10179091314E+03  0.74705068981E+02 -0.17038317978E+03  0.21206759602E+03  0.00000000000E+00 0.  1.
         14    1    5    5    0    0 -0.15094874756E+02  0.33135844585E+01 -0.13057366139E+02  0.20231902934E+02  0.00000000000E+00 0. -1.
         11    1    4    4    0    0 -0.32786237432E+03  0.26281546285E+03 -0.29189434208E+03  0.51163269143E+03  0.00000000000E+00 0. -1.
        -12    1    4    4    0    0 -0.96213938576E+02  0.10298145225E+03 -0.46443283836E+02  0.14838894870E+03  0.00000000000E+00 0.  1.
          5    1    3    3  501    0  0.17320410327E+03 -0.15457574804E+03 -0.44284575558E+03  0.50002315837E+03  0.41800000000E+01 0.  1.
         -5    1    3    3    0  501  0.16417617124E+03 -0.28923982050E+03 -0.43989978537E+03  0.55149141655E+03  0.41800000000E+01 0.  1.
</event>
<event>
11    1  0.1704459E-009  0.1884903E+03  0.7561462E-02  0.1062975E+00
         22   -1    0    0    0    0  0.00000000000E+00  0.00000000000E+00  0.99354713617E+02  0.99354713617E+02  0.00000000000E+00 0.  1.
         22   -1    0    0    0    0 -0.00000000000E+00 -0.00000000000E+00 -0.71105744758E+03  0.71105744758E+03  0.00000000000E+00 0.  1.
         25    2    1    2    0    0 -0.51422469945E+02  0.25813594767E+01 -0.25832727061E+03  0.29159834129E+03  0.12508269294E+03 0.  0.
        -24    2    1    2    0    0 -0.78495563375E+00 -0.16751116161E+03 -0.19310324726E+03  0.26923633977E+03  0.84491047632E+02 0.  0.
         24    2    1    2    0    0  0.52207425579E+02  0.16492980214E+03 -0.16027221609E+03  0.24957748013E+03  0.81696269316E+02 0.  0.
        -13    1    5    5    0    0  0.59304188796E+02  0.15292735792E+03 -0.16701493339E+03  0.23408919578E+03  0.00000000000E+00 0.  1.
         14    1    5    5    0    0 -0.70967632171E+01  0.12002444221E+02  0.67427173000E+01  0.15488284347E+02  0.00000000000E+00 0. -1.
         13    1    4    4    0    0  0.13882848385E+02 -0.21191954779E+02 -0.79424808091E+02  0.83367455082E+02  0.00000000000E+00 0. -1.
        -14    1    4    4    0    0 -0.14667804018E+02 -0.14631920683E+03 -0.11367843917E+03  0.18586888469E+03  0.00000000000E+00 0.  1.
          5    1    3    3  501    0  0.16992372734E+02  0.47339715716E+02 -0.12920899955E+03  0.13871635585E+03  0.41800000000E+01 0. -1.
         -5    1    3    3    0  501 -0.68414842679E+02 -0.44758356239E+02 -0.12911827106E+03  0.15288198544E+03  0.41800000000E+01 0. -1.
</event>
<event>
11    1  0.1704459E-009  0.3639004E+03  0.7561462E-02  0.9762719E-01
         22   -1    0    0    0    0  0.00000000000E+00  0.00000000000E+00  0.50954693136E+03  0.50954693136E+03  0.00000000000E+00 0. -1.
         22   -1    0    0    0    0 -0.00000000000E+00 -0.00000000000E+00 -0.12673933948E+04  0.12673933948E+04  0.00000000000E+00 0. -1.
         25    2    1    2    0    0  0.13216305764E+03  0.67082331220E+02 -0.97995894351E+03  0.99896835119E+03  0.12510444734E+03 0.  0.
         24    2    1    2    0    0  0.21640745603E+02 -0.37469895265E+03  0.17163959874E+03  0.42126037147E+03  0.84454258174E+02 0.  0.
        -24    2    1    2    0    0 -0.15380380324E+03  0.30761662143E+03  0.50472881370E+02  0.35671160345E+03  0.80075343335E+02 0.  0.
        -11    1    4    4    0    0  0.29461757627E+02 -0.18552118801E+03  0.44044009416E+02  0.19294035640E+03  0.00000000000E+00 0.  1.
         12    1    4    4    0    0 -0.78210120243E+01 -0.18917776465E+03  0.12759558933E+03  0.22832001507E+03  0.00000000000E+00 0. -1.
         11    1    5    5    0    0 -0.55923387064E+01  0.86071463225E+02  0.58378563951E+01  0.86450283985E+02  0.00000000000E+00 0. -1.
        -12    1    5    5    0    0 -0.14821146454E+03  0.22154515821E+03  0.44635024975E+02  0.27026131947E+03  0.00000000000E+00 0.  1.
          5    1    3    3  501    0  0.13805870409E+03  0.33623103569E+02 -0.56533702045E+03  0.58293579232E+03  0.41800000000E+01 0.  1.
         -5    1    3    3    0  501 -0.58956464484E+01  0.33459227651E+02 -0.41462192306E+03  0.41603255887E+03  0.41800000000E+01 0.  1.
</event>
<event>
11    1  0.1704459E-009  0.1507136E+03  0.7561462E-02  0.1096152E+00
         22   -1    0    0    0    0  0.00000000000E+00  0.00000000000E+00  0.32814983703E+03  0.32814983703E+03  0.00000000000E+00 0. -1.
         22   -1    0    0    0    0 -0.00000000000E+00 -0.00000000000E+00 -0.11005917551E+03  0.11005917551E+03  0.00000000000E+00 0.  1.
         25    2    1    2    0    0 -0.18638221155E+02 -0.83378160868E+02  0.14846951824E+02  0.15221548737E+03  0.12509924707E+03 0.  0.
        -24    2    1    2    0    0 -0.44516609074E+01  0.84076688520E+02  0.60305911395E+02  0.11988701106E+03  0.60393589339E+02 0.  0.
         24    2    1    2    0    0  0.23089882063E+02 -0.69852765118E+00  0.14293779830E+03  0.16610651412E+03  0.81403496571E+02 0.  0.
        -11    1    5    5    0    0 -0.40275173476E+01 -0.80019073067E+01 -0.83426787899E+01  0.12241393136E+02  0.00000000000E+00 0.  1.
         12    1    5    5    0    0  0.27117399410E+02  0.73033796555E+01  0.15128047709E+03  0.15386512098E+03  0.00000000000E+00 0. -1.
         13    1    4    4    0    0 -0.24258440225E+02  0.72732983138E+02  0.59494937327E+02  0.97047443685E+02  0.00000000000E+00 0. -1.
        -14    1    4    4    0    0  0.19806779317E+02  0.11343705381E+02  0.81097406831E+00  0.22839567370E+02  0.00000000000E+00 0.  1.
          5    1    3    3  501    0  0.36824170270E+02 -0.86849162909E+02  0.19053195011E+02  0.96329088308E+02  0.41800000000E+01 0. -1.
         -5    1    3    3    0  501 -0.55462391425E+02  0.34710020410E+01 -0.42062431874E+01  0.55886399057E+02  0.41800000000E+01 0. -1.
</event>
<event>
11    1  0.1704459E-009  0.3066163E+03  0.7561462E-02  0.9974293E-01
         22   -1    0    0    0    0  0.00000000000E+00  0.00000000000E+00  0.46879840738E+03  0.46879840738E+03  0.00000000000E+00 0. -1.
         22   -1    0    0    0    0 -0.00000000000E+00 -0.00000000000E+00 -0.52934023219E+03  0.52934023219E+03  0.00000000000E+00 0. -1.
         25    2    1    2    0    0 -0.75758794687E+02 -0.11527322183E+03 -0.12201692994E+03  0.22263077030E+03  0.12509603530E+03 0.  0.
         24    2    1    2    0    0 -0.22588316714E+03  0.43509504778E+02 -0.23178002894E+03  0.34073975953E+03  0.97289874620E+02 0.  0.
        -24    2    1    2    0    0  0.30164196183E+03  0.71763717054E+02  0.29325513408E+03  0.43476810974E+03  0.82986934888E+02 0.  0.
        -11    1    4    4    0    0 -0.10749276492E+03 -0.22818352856E+02 -0.13495003505E+03  0.17403127218E+03  0.00000000000E+00 0.  1.
         12    1    4    4    0    0 -0.11839040222E+03  0.66327857634E+02 -0.96829993892E+02  0.16670848735E+03  0.00000000000E+00 0. -1.
         13    1    5    5    0    0  0.26854214052E+03  0.77632459643E+02  0.22558334257E+03  0.35920679903E+03  0.00000000000E+00 0. -1.
        -14    1    5    5    0    0  0.33099821310E+02 -0.58687425890E+01  0.67671791504E+02  0.75561310707E+02  0.00000000000E+00 0.  1.
          5    1    3    3  501    0 -0.73454869309E+02 -0.55392010851E+02 -0.63718134750E+01  0.92314490186E+02  0.41800000000E+01 0.  1.
         -5    1    3    3    0  501 -0.23039253780E+01 -0.59881210980E+02 -0.11564511646E+03  0.13031628011E+03  0.41800000000E+01 0.  1.
</event>
<event>
11    1  0.1704459E-009  0.1453858E+03  0.7561462E-02  0.1101689E+00
         22   -1    0    0    0    0  0.00000000000E+00  0.00000000000E+00  0.10891139527E+04  0.10891139527E+04  0.00000000000E+00 0.  1.
         22   -1    0    0    0    0 -0.00000000000E+00 -0.00000000000E+00 -0.56169591562E+03  0.56169591562E+03  0.00000000000E+00 0.  1.
         25    2    1    2    0    0 -0.20143929881E+01 -0.35436282830E+02 -0.22779581021E+03  0.26229304743E+03  0.12508766391E+03 0.  0.
        -24    2    1    2    0    0 -0.56667452808E+02  0.96699633543E+02 -0.29827680973E+03  0.32852736096E+03  0.79994701969E+02 0.  0.
         24    2    1    2    0    0  0.58681845796E+02 -0.61263350714E+02  0.10534906570E+04  0.10599894599E+04  0.80859962583E+02 0.  0.
        -13    1    5    5    0    0  0.40199739841E+02 -0.58950422607E+02  0.10119691734E+04  0.10144815323E+04  0.00000000000E+00 0.  1.
         14    1    5    5    0    0  0.18482105956E+02 -0.23129281061E+01  0.41521483627E+02  0.45507927657E+02  0.00000000000E+00 0. -1.
         11    1    4    4    0    0 -0.15670352275E+02 -0.93418441692E+01 -0.83992072494E+02  0.85950556919E+02  0.00000000000E+00 0. -1.
        -12    1    4    4    0    0 -0.40997100533E+02  0.10604147771E+03 -0.21428473724E+03  0.24257680405E+03  0.00000000000E+00 0.  1.
          5    1    3    3  501    0 -0.52915002942E+02  0.18056987229E+02 -0.98093811335E+02  0.11298637328E+03  0.41800000000E+01 0.  1.
         -5    1    3    3    0  501  0.50900609954E+02 -0.53493270059E+02 -0.12970199887E+03  0.14930667416E+03  0.41800000000E+01 0.  1.
</event>
<event>
11    1  0.1704459E-009  0.3095804E+03  0.7561462E-02  0.9962162E-01
         22   -1    0    0    0    0  0.00000000000E+00  0.00000000000E+00  0.21572103221E+04  0.21572103221E+04  0.00000000000E+00 0. -1.
         22   -1    0    0    0    0 -0.00000000000E+00 -0.00000000000E+00 -0.10916924261E+04  0.10916924261E+04  0.00000000000E+00 0.  1.
         25    2    1    2    0    0  0.13965629683E+03  0.24647470295E+03 -0.10377182404E+04  0.10829403871E+04  0.12508826929E+03 0.  0.
         24    2    1    2    0    0  0.93060111933E+01 -0.32232313384E+03  0.13596860025E+04  0.13997602492E+04  0.81264539240E+02 0.  0.
        -24    2    1    2    0    0 -0.14896230802E+03  0.75848430882E+02  0.74355013386E+03  0.76620211196E+03  0.79095645406E+02 0.  0.
        -13    1    4    4    0    0  0.28652151240E+02 -0.75776989322E+02  0.44047826132E+03  0.44786627086E+03  0.00000000000E+00 0.  1.
         14    1    4    4    0    0 -0.19346140047E+02 -0.24654614451E+03  0.91920774118E+03  0.95189397832E+03  0.00000000000E+00 0. -1.
         11    1    5    5    0    0 -0.14212901950E+03  0.74202705789E+02  0.55954998870E+03  0.58206777061E+03  0.00000000000E+00 0. -1.
        -12    1    5    5    0    0 -0.68332885225E+01  0.16457250928E+01  0.18400014516E+03  0.18413434135E+03  0.00000000000E+00 0.  1.
          5    1    3    3  501    0  0.74131729485E+01  0.10072849766E+03 -0.50498575997E+03  0.51500415100E+03  0.41800000000E+01 0. -1.
         -5    1    3    3    0  501  0.13224312388E+03  0.14574620529E+03 -0.53273248041E+03  0.56793623608E+03  0.41800000000E+01 0. -1.
</event>
<event>
11    1  0.1704459E-009  0.1792305E+03  0.7561462E-02  0.1070267E+00
         22   -1    0    0    0    0  0.00000000000E+00  0.00000000000E+00  0.16158081420E+03  0.16158081420E+03  0.00000000000E+00 0.  1.
         22   -1    0    0    0    0 -0.00000000000E+00 -0.00000000000E+00 -0.14463431419E+04  0.14463431419E+04  0.00000000000E+00 0. -1.
         25    2    1    2    0    0  0.12795030472E+03  0.19167999777E+02 -0.13003523046E+04  0.13127461683E+04  0.12509074174E+03 0.  0.
         24    2    1    2    0    0 -0.12469191520E+03  0.77357348336E+02  0.34373446329E+01  0.16839706028E+03  0.82544058036E+02 0.  0.
        -24    2    1    2    0    0 -0.32583895216E+01 -0.96525348113E+02  0.12152632275E+02  0.12678072749E+03  0.81227498183E+02 0.  0.
        -13    1    4    4    0    0 -0.69196147372E+02  0.62643581207E+02 -0.34578201777E+02  0.99538822153E+02  0.00000000000E+00 0.  1.
         14    1    4    4    0    0 -0.55495767825E+02  0.14713767129E+02  0.38015546410E+02  0.68858238131E+02  0.00000000000E+00 0. -1.
         13    1    5    5    0    0  0.37669650990E+01  0.11879315811E+02  0.13186621586E+02  0.18143736083E+02  0.00000000000E+00 0. -1.
        -14    1    5    5    0    0 -0.70253546206E+01 -0.10840466392E+03 -0.10339893106E+01  0.10863699141E+03  0.00000000000E+00 0.  1.
          5    1    3    3  501    0 -0.83215579788E+01  0.37925759166E+01 -0.72758992107E+01  0.12411408808E+02  0.41800000000E+01 0.  1.
         -5    1    3    3    0  501  0.13627186270E+03  0.15375423860E+02 -0.12930764054E+04  0.13003347595E+04  0.41800000000E+01 0.  1.
</event>
<event>
11    1  0.1704459E-009  0.3930327E+03  0.7561462E-02  0.9670542E-01
         22   -1    0    0    0    0  0.00000000000E+00  0.00000000000E+00  0.22252817136E+03  0.22252817136E+03  0.00000000000E+00 0. -1.
         22   -1    0    0    0    0 -0.00000000000E+00 -0.00000000000E+00 -0.10931708207E+04  0.10931708207E+04  0.00000000000E+00 0. -1.
         25    2    1    2    0    0 -0.36383168020E+03  0.52276369730E+02 -0.65212850870E+03  0.75896302280E+03  0.12508784026E+03 0.  0.
        -24    2    1    2    0    0  0.37960354229E+03 -0.47571866136E+02 -0.25584612442E+03  0.46697391636E+03  0.79028269714E+02 0.  0.
         24    2    1    2    0    0 -0.15771862091E+02 -0.47045035941E+01  0.37331983824E+02  0.89762052852E+02  0.79954143909E+02 0.  0.
        -13    1    5    5    0    0 -0.48627467997E+02 -0.26328550891E+01  0.21549793628E+02  0.53253696352E+02  0.00000000000E+00 0.  1.
         14    1    5    5    0    0  0.32855605906E+02 -0.20716485051E+01  0.15782190196E+02  0.36508356500E+02  0.00000000000E+00 0. -1.
         11    1    4    4    0    0  0.18692789319E+03 -0.58483583258E+02 -0.10645857010E+03  0.22292553446E+03  0.00000000000E+00 0. -1.
        -12    1    4    4    0    0  0.19267564909E+03  0.10911717122E+02 -0.14938755431E+03  0.24404838190E+03  0.00000000000E+00 0.  1.
          5    1    3    3  501    0 -0.10744480176E+03 -0.22421995501E+02 -0.11459237632E+03  0.15873253106E+03  0.41800000000E+01 0. -1.
         -5    1    3    3    0  501 -0.25638687844E+03  0.74698365232E+02 -0.53753613238E+03  0.60023049174E+03  0.41800000000E+01 0. -1.
</event>
<event>
11    1  0.1704459E-009  0.1604796E+03  0.7561462E-02  0.1086627E+00
         22   -1    0    0    0    0  0.00000000000E+00  0.00000000000E+00  0.41700767721E+03  0.41700767721E+03  0.00000000000E+00 0.  1.
         22   -1    0    0    0    0 -0.00000000000E+00 -0.00000000000E+00 -0.95844848377E+02  0.95844848377E+02  0.00000000000E+00 0. -1.
         25    2    1    2    0    0 -0.59396375344E+02 -0.66410656068E+02  0.63451690834E+02  0.16617027431E+03  0.12509251916E+03 0.  0.
         24    2    1    2    0    0  0.71389785275E+02  0.96489485908E+02  0.16593228565E+03  0.22011554267E+03  0.80688328592E+02 0.  0.
        -24    2    1    2    0    0 -0.11993409932E+02 -0.30078829840E+02  0.91778852348E+02  0.12656670861E+03  0.80914745895E+02 0.  0.
        -13    1    4    4    0    0  0.47119017074E+02  0.94074996791E+02  0.16501898991E+03  0.19570787879E+03  0.00000000000E+00 0.  1.
         14    1    4    4    0    0  0.24270768201E+02  0.24144891166E+01  0.91329574155E+00  0.24407663876E+02  0.00000000000E+00 0. -1.
         13    1    5    5    0    0 -0.22134901301E+02 -0.26744465984E+02  0.55540830799E+00  0.34720725724E+02  0.00000000000E+00 0. -1.
        -14    1    5    5    0    0  0.10141491369E+02 -0.33343638553E+01  0.91223444040E+02  0.91845982885E+02  0.00000000000E+00 0.  1.
          5    1    3    3  501    0  0.15868868088E+02 -0.75778860785E+02  0.29331052345E+02  0.82897766846E+02  0.41800000000E+01 0.  1.
         -5    1    3    3    0  501 -0.75265243432E+02  0.93682047173E+01  0.34120638488E+02  0.83272507464E+02  0.41800000000E+01 0.  1.
</event>
<event>
11    1  0.1704459E-009  0.1571493E+03  0.7561462E-02  0.1089790E+00
         22   -1    0    0    0    0  0.00000000000E+00  0.00000000000E+00  0.84941919316E+02  0.84941919316E+02  0.00000000000E+00 0.  1.
         22   -1    0    0    0    0 -0.00000000000E+00 -0.00000000000E+00 -0.29010557739E+04  0.29010557739E+04  0.00000000000E+00 0.  1.
         25    2    1    2    0    0  0.11668631190E+03  0.41120496709E+02 -0.18565433987E+04  0.18648609475E+04  0.12508545736E+03 0.  0.
        -24    2    1    2    0    0 -0.48480754056E+02 -0.64139232101E+02 -0.10003083048E+04  0.10067518814E+04  0.80426496242E+02 0.  0.
         24    2    1    2    0    0 -0.68205557848E+02  0.23018735392E+02  0.40737848906E+02  0.11438486439E+03  0.79009268873E+02 0.  0.
        -11    1    5    5    0    0 -0.84378544233E+02  0.90286300820E+01  0.27364596727E+02  0.89163198922E+02  0.00000000000E+00 0.  1.
         12    1    5    5    0    0  0.16172986385E+02  0.13990105310E+02  0.13373252179E+02  0.25221665469E+02  0.00000000000E+00 0. -1.
         11    1    4    4    0    0  0.13839917008E+02 -0.42165265524E+02 -0.28994183032E+03  0.29331845814E+03  0.00000000000E+00 0. -1.
        -12    1    4    4    0    0 -0.62320671065E+02 -0.21973966577E+02 -0.71036647451E+03  0.71343342321E+03  0.00000000000E+00 0.  1.
          5    1    3    3  501    0  0.12995459161E+03  0.66568685332E+02 -0.16116839582E+04  0.16182899120E+04  0.41800000000E+01 0.  1.
         -5    1    3    3    0  501 -0.13268279710E+02 -0.25448188623E+02 -0.24485944044E+03  0.24657103545E+03  0.41800000000E+01 0.  1.
</event>
<event>
11    1  0.1704459E-009  0.1575549E+03  0.7561462E-02  0.1089400E+00
         22   -1    0    0    0    0  0.00000000000E+00  0.00000000000E+00  0.49204197799E+02  0.49204197799E+02  0.00000000000E+00 0.  1.
         22   -1    0    0    0    0 -0.00000000000E+00 -0.00000000000E+00 -0.12719008495E+04  0.12719008495E+04  0.00000000000E+00 0. -1.
         25    2    1    2    0    0  0.13729001824E+02 -0.38805178083E+02 -0.61529864655E+03  0.62923371925E+03  0.12509325186E+03 0.  0.
         24    2    1    2    0    0  0.63707512068E+02  0.13848899860E+03 -0.40370067457E+03  0.43862541454E+03  0.78614056066E+02 0.  0.
        -24    2    1    2    0    0 -0.77436513893E+02 -0.99683820517E+02 -0.20369733059E+03  0.25324591351E+03  0.81900015039E+02 0.  0.
        -13    1    4    4    0    0  0.14399216448E+02  0.78504236820E+02 -0.11725333496E+03  0.14184004086E+03  0.00000000000E+00 0.  1.
         14    1    4    4    0    0  0.49308295621E+02  0.59984761780E+02 -0.28644733961E+03  0.29678537368E+03  0.00000000000E+00 0. -1.
         11    1    5    5    0    0 -0.65146225868E+02 -0.39631977760E+02 -0.16218000955E+03  0.17921238770E+03  0.00000000000E+00 0. -1.
        -12    1    5    5    0    0 -0.12290288024E+02 -0.60051842756E+02 -0.41517321042E+02  0.74033525815E+02  0.00000000000E+00 0.  1.
          5    1    3    3  501    0  0.32480236487E+02 -0.35552361130E+02 -0.60549538870E+03  0.60742166103E+03  0.41800000000E+01 0. -1.
         -5    1    3    3    0  501 -0.18751234663E+02 -0.32528169533E+01 -0.98032578446E+01  0.21812058222E+02  0.41800000000E+01 0. -1.
</event>
<event>
11    1  0.1704459E-009  0.1658982E+03  0.7561462E-02  0.1081657E+00
         22   -1    0    0    0    0  0.00000000000E+00  0.00000000000E+00  0.17679396849E+03  0.17679396849E+03  0.00000000000E+00 0. -1.
         22   -1    0    0    0    0 -0.00000000000E+00 -0.00000000000E+00 -0.50399029735E+03  0.50399029735E+03  0.00000000000E+00 0. -1.
         25    2    1    2    0    0 -0.16543153991E+02  0.61217084574E+02 -0.30171127650E+03  0.33271473316E+03  0.12509273324E+03 0.  0.
        -24    2    1    2    0    0 -0.11353124339E+03 -0.11351685106E+03 -0.45831290407E+02  0.18513145862E+03  0.79985818062E+02 0.  0.
         24    2    1    2    0    0  0.13007439738E+03  0.52299766484E+02  0.20346238046E+02  0.16293807405E+03  0.80499889098E+02 0.  0.
        -11    1    5    5    0    0  0.29143697004E+02  0.20362592050E+02 -0.29244795442E+02  0.46035293966E+02  0.00000000000E+00 0.  1.
         12    1    5    5    0    0  0.10093070038E+03  0.31937174433E+02  0.49591033488E+02  0.11690278009E+03  0.00000000000E+00 0. -1.
         11    1    4    4    0    0 -0.12118740077E+03 -0.10770514297E+03 -0.55625213784E+02  0.17140871721E+03  0.00000000000E+00 0. -1.
        -12    1    4    4    0    0  0.76561573774E+01 -0.58117080835E+01  0.97939233778E+01  0.13722741409E+02  0.00000000000E+00 0.  1.
          5    1    3    3  501    0  0.46488420445E+02  0.60576231688E+02 -0.18041923019E+03  0.19595719967E+03  0.41800000000E+01 0. -1.
         -5    1    3    3    0  501 -0.63031574436E+02  0.64085288599E+00 -0.12129204631E+03  0.13675753349E+03  0.41800000000E+01 0. -1.
</event>
<event>
11    1  0.1704459E-009  0.5281936E+03  0.7561462E-02  0.9332638E-01
         22   -1    0    0    0    0  0.00000000000E+00  0.00000000000E+00  0.35871325884E+03  0.35871325884E+03  0.00000000000E+00 0.  1.
         22   -1    0    0    0    0 -0.00000000000E+00 -0.00000000000E+00 -0.18422071274E+04  0.18422071274E+04  0.00000000000E+00 0.  1.
         25    2    1    2    0    0 -0.20403694224E+02  0.80628284536E+02 -0.87644500861E+03  0.88922485667E+03  0.12509101324E+03 0.  0.
         24    2    1    2    0    0  0.10259654833E+03 -0.57134468704E+03 -0.55096301908E+03  0.80444874274E+03  0.81343273653E+02 0.  0.
        -24    2    1    2    0    0 -0.82192854107E+02  0.49071640250E+03 -0.56085840909E+02  0.50724678686E+03  0.81212242184E+02 0.  0.
        -13    1    4    4    0    0  0.10689169757E+03 -0.46123124242E+03 -0.47461390603E+03  0.67038679416E+03  0.00000000000E+00 0.  1.
         14    1    4    4    0    0 -0.42951492366E+01 -0.11011344462E+03 -0.76349113048E+02  0.13406194858E+03  0.00000000000E+00 0. -1.
         11    1    5    5    0    0 -0.96492273894E+01  0.20181863722E+01  0.99037234195E+00  0.99076487030E+01  0.00000000000E+00 0. -1.
        -12    1    5    5    0    0 -0.72543626718E+02  0.48869821613E+03 -0.57076213251E+02  0.49733913816E+03  0.00000000000E+00 0.  1.
          5    1    3    3  501    0 -0.69607516579E+02  0.58026867996E+02 -0.42835858957E+03  0.43785942657E+03  0.41800000000E+01 0. -1.
         -5    1    3    3    0  501  0.49203822355E+02  0.22601416540E+02 -0.44808641904E+03  0.45136543011E+03  0.41800000000E+01 0. -1.
</event>
<event>
11    1  0.1704459E-009  0.1914745E+03  0.7561462E-02  0.1060722E+00
         22   -1    0    0    0    0  0.00000000000E+00  0.00000000000E+00  0.23413410542E+03  0.23413410542E+03  0.00000000000E+00 0. -1.
         22   -1    0    0    0    0 -0.00000000000E+00 -0.00000000000E+00 -0.33774785492E+03  0.33774785492E+03  0.00000000000E+00 0.  1.
         25    2    1    2    0    0  0.13648635580E+03 -0.21878019315E+02 -0.17643039630E+03  0.25667718076E+03  0.12509323456E+03 0.  0.
        -24    2    1    2    0    0 -0.15207222865E+03  0.91649861965E+02  0.68500221419E+02  0.20723230716E+03  0.82020051634E+02 0.  0.
         24    2    1    2    0    0  0.15585872851E+02 -0.69771842650E+02  0.43164253843E+01  0.10797247243E+03  0.80798476564E+02 0.  0.
        -11    1    5    5    0    0 -0.25504963014E+02 -0.37294616620E+02 -0.20971309573E+02  0.49811518672E+02  0.00000000000E+00 0.  1.
         12    1    5    5    0    0  0.41090835865E+02 -0.32477226029E+02  0.25287734958E+02  0.58160953757E+02  0.00000000000E+00 0. -1.
         11    1    4    4    0    0 -0.31407537222E+02 -0.11648471923E+02 -0.17632929446E+01  0.33544440590E+02  0.00000000000E+00 0. -1.
        -12    1    4    4    0    0 -0.12066469143E+03  0.10329833389E+03  0.70263514364E+02  0.17368786657E+03  0.00000000000E+00 0.  1.
          5    1    3    3  501    0  0.14889278610E+02 -0.52038328005E+02 -0.24085499127E+02  0.59390755739E+02  0.41800000000E+01 0. -1.
         -5    1    3    3    0  501  0.12159707719E+03  0.30160308690E+02 -0.15234489718E+03  0.19728642502E+03  0.41800000000E+01 0. -1.
</event>
<event>
11    1  0.1704459E-009  0.4071833E+03  0.7561462E-02  0.9628798E-01
         22   -1    0    0    0    0  0.00000000000E+00  0.00000000000E+00  0.38855435499E+03  0.38855435499E+03  0.00000000000E+00 0.  1.
         22   -1    0    0    0    0 -0.00000000000E+00 -0.00000000000E+00 -0.10989342958E+04  0.10989342958E+04  0.00000000000E+00 0. -1.
         25    2    1    2    0    0  0.22243238945E+03  0.31423907472E+03 -0.83333344076E+03  0.92645157774E+03  0.12508212684E+03 0.  0.
         24    2    1    2    0    0 -0.28870852829E+03 -0.28323384404E+03  0.21741845407E+02  0.41298121762E+03  0.80664450355E+02 0.  0.
        -24    2    1    2    0    0  0.66276138835E+02 -0.31005230683E+02  0.10121165449E+03  0.14805585547E+03  0.79516579569E+02 0.  0.
        -11    1    4    4    0    0 -0.18903292682E+03 -0.13039405896E+03  0.43508549153E+01  0.22968454013E+03  0.00000000000E+00 0.  1.
         12    1    4    4    0    0 -0.99675601465E+02 -0.15283978507E+03  0.17390990491E+02  0.18329667749E+03  0.00000000000E+00 0. -1.
         11    1    5    5    0    0  0.16526907639E+01  0.19374156915E+02  0.22509660114E+01  0.19574375875E+02  0.00000000000E+00 0. -1.
        -12    1    5    5    0    0  0.64623448071E+02 -0.50379387597E+02  0.98960688481E+02  0.12848147960E+03  0.00000000000E+00 0.  1.
          5    1    3    3  501    0  0.22775275359E+03  0.24424003032E+03 -0.70520401868E+03  0.78029141322E+03  0.41800000000E+01 0.  1.
         -5    1    3    3    0  501 -0.53203641369E+01  0.69999044400E+02 -0.12812942207E+03  0.14616016452E+03  0.41800000000E+01 0.  1.
</event>
<event>
11    1  0.1704459E-009  0.1902547E+03  0.7561462E-02  0.1061637E+00
         22   -1    0    0    0    0  0.00000000000E+00  0.00000000000E+00  0.87750938232E+03  0.87750938232E+03  0.00000000000E+00 0.  1.
         22   -1    0    0    0    0 -0.00000000000E+00 -0.00000000000E+00 -0.31189006817E+03  0.31189006817E+03  0.00000000000E+00 0.  1.
         25    2    1    2    0    0 -0.53879730134E+01 -0.13517354557E+03 -0.13895326119E+03  0.23077402614E+03  0.12509086565E+03 0.  0.
         24    2    1    2    0    0  0.31941869945E+02  0.15196072642E+03 -0.63347689204E+02  0.18583645505E+03  0.80061931463E+02 0.  0.
        -24    2    1    2    0    0 -0.26553896932E+02 -0.16787180846E+02  0.76792026454E+03  0.77278896930E+03  0.80711458206E+02 0.  0.
        -13    1    4    4    0    0  0.57348439204E+02  0.11126568915E+03 -0.56645369475E+02  0.13739576029E+03  0.00000000000E+00 0.  1.
         14    1    4    4    0    0 -0.25406569259E+02  0.40695037268E+02 -0.67023197289E+01  0.48440694767E+02  0.00000000000E+00 0. -1.
         11    1    5    5    0    0  0.21397146556E+02  0.41031705755E+01  0.80956358251E+02  0.83836780895E+02  0.00000000000E+00 0. -1.
        -12    1    5    5    0    0 -0.47951043488E+02 -0.20890351421E+02  0.68696390629E+03  0.68895218840E+03  0.00000000000E+00 0.  1.
          5    1    3    3  501    0  0.59641980537E+02 -0.66095919493E+02 -0.72123096325E+02  0.11465186365E+03  0.41800000000E+01 0.  1.
         -5    1    3    3    0  501 -0.65029953550E+02 -0.69077626081E+02 -0.66830164864E+02  0.11612216248E+03  0.41800000000E+01 0.  1.
</event>
<event>
11    1  0.1704459E-009  0.2152288E+03  0.7561462E-02  0.1044248E+00
         22   -1    0    0    0    0  0.00000000000E+00  0.00000000000E+00  0.85502890024E+03  0.85502890024E+03  0.00000000000E+00 0.  1.
         22   -1    0    0    0    0 -0.00000000000E+00 -0.00000000000E+00 -0.15041289239E+03  0.15041289239E+03  0.00000000000E+00 0.  1.
         25    2    1    2    0    0  0.20183611603E+03 -0.78919846719E+02  0.12713261837E+03  0.28066434095E+03  0.12507441658E+03 0.  0.
         24    2    1    2    0    0 -0.14324216593E+03 -0.91260376608E+02  0.11021951433E+03  0.21786475772E+03  0.80435917831E+02 0.  0.
        -24    2    1    2    0    0 -0.58593950100E+02  0.17018022333E+03  0.46726387515E+03  0.50691269395E+03  0.78932825082E+02 0.  0.
        -11    1    4    4    0    0  0.95964088766E+00 -0.22196870297E+02 -0.23255809612E+01  0.22338985842E+02  0.00000000000E+00 0.  1.
         12    1    4    4    0    0 -0.14420180682E+03 -0.69063506310E+02  0.11254509529E+03  0.19552577188E+03  0.00000000000E+00 0. -1.
         13    1    5    5    0    0  0.76348270635E+01  0.70557222404E+02  0.11764310983E+03  0.13739182475E+03  0.00000000000E+00 0. -1.
        -14    1    5    5    0    0 -0.66228777164E+02  0.99623000923E+02  0.34962076531E+03  0.36952086920E+03  0.00000000000E+00 0.  1.
          5    1    3    3  501    0  0.20982608429E+03 -0.45505432110E+02  0.10107721066E+03  0.23734322176E+03  0.41800000000E+01 0. -1.
         -5    1    3    3    0  501 -0.79899682593E+01 -0.33414414609E+02  0.26055407709E+02  0.43321119184E+02  0.41800000000E+01 0. -1.
</event>
<event>
11    1  0.1704459E-009  0.1613356E+03  0.7561462E-02  0.1085828E+00
         22   -1    0    0    0    0  0.00000000000E+00  0.00000000000E+00  0.48958380316E+03  0.48958380316E+03  0.00000000000E+00 0.  1.
         22   -1    0    0    0    0 -0.00000000000E+00 -0.00000000000E+00 -0.11053170171E+03  0.11053170171E+03  0.00000000000E+00 0. -1.
         25    2    1    2    0    0 -0.29619404598E+02  0.73526679143E+02  0.10059934145E+03  0.17902728448E+03  0.12508820653E+03 0.  0.
         24    2    1    2    0    0  0.14376708840E+03 -0.47741669296E+02  0.12838207175E+03  0.21438882986E+03  0.80823086603E+02 0.  0.
        -24    2    1    2    0    0 -0.11414768381E+03 -0.25785009847E+02  0.15007068824E+03  0.20669939053E+03  0.80677544120E+02 0.  0.
        -11    1    4    4    0    0  0.74409076916E+02  0.22279815339E+01  0.99274745516E+02  0.12408525185E+03  0.00000000000E+00 0.  1.
         12    1    4    4    0    0  0.69358011488E+02 -0.49969650830E+02  0.29107326234E+02  0.90303578014E+02  0.00000000000E+00 0. -1.
         11    1    5    5    0    0 -0.62221246391E+02  0.46821458165E+01  0.23747925092E+02  0.66763537490E+02  0.00000000000E+00 0. -1.
        -12    1    5    5    0    0 -0.51926437415E+02 -0.30467155664E+02  0.12632276315E+03  0.13993585304E+03  0.00000000000E+00 0.  1.
          5    1    3    3  501    0 -0.62221595578E+02 -0.53805784256E+01  0.43855038203E+02  0.76427837574E+02  0.41800000000E+01 0.  1.
         -5    1    3    3    0  501  0.32602190981E+02  0.78907257569E+02  0.56744303252E+02  0.10259944691E+03  0.41800000000E+01 0.  1.
</event>
<event>
11    1  0.1704459E-009  0.1349946E+03  0.7561462E-02  0.1113280E+00
         22   -1    0    0    0    0  0.00000000000E+00  0.00000000000E+00  0.23863003893E+04  0.23863003893E+04  0.00000000000E+00 0. -1.
         22   -1    0    0    0    0 -0.00000000000E+00 -0.00000000000E+00 -0.65395004883E+02  0.65395004883E+02  0.00000000000E+00 0. -1.
         25    2    1    2    0    0 -0.45320516973E+02 -0.17578087384E+02  0.33685275020E+02  0.13836882709E+03  0.12509314986E+03 0.  0.
         24    2    1    2    0    0  0.76818385830E+02 -0.74052420812E+02  0.40581830481E+03  0.42737620602E+03  0.81099318879E+02 0.  0.
        -24    2    1    2    0    0 -0.31497868857E+02  0.91630508196E+02  0.18814018046E+04  0.18859503611E+04  0.88021294995E+02 0.  0.
        -11    1    4    4    0    0  0.34755275076E+01 -0.16006054328E+02  0.71308200877E+01  0.17863976650E+02  0.00000000000E+00 0.  1.
         12    1    4    4    0    0  0.73342858323E+02 -0.58046366483E+02  0.39868748472E+03  0.40951222937E+03  0.00000000000E+00 0. -1.
         11    1    5    5    0    0 -0.49471094519E+01  0.80237323594E+02  0.77237086406E+03  0.77654314345E+03  0.00000000000E+00 0. -1.
        -12    1    5    5    0    0 -0.26550759405E+02  0.11393184602E+02  0.11090309406E+04  0.11094072177E+04  0.00000000000E+00 0.  1.
          5    1    3    3  501    0 -0.10921140826E+01 -0.16921080829E+02 -0.44853613057E+02  0.48133509054E+02  0.41800000000E+01 0.  1.
         -5    1    3    3    0  501 -0.44228402890E+02 -0.65700655514E+00  0.78538888077E+02  0.90235318032E+02  0.41800000000E+01 0.  1.
</event>
<event>
11    1  0.1704459E-009  0.6080529E+03  0.7561462E-02  0.9179983E-01
         22   -1    0    0    0    0  0.00000000000E+00  0.00000000000E+00  0.45420543341E+03  0.45420543341E+03  0.00000000000E+00 0.  1.
         22   -1    0    0    0    0 -0.00000000000E+00 -0.00000000000E+00 -0.16809150348E+04  0.16809150348E+04  0.00000000000E+00 0.  1.
         25    2    1    2    0    0 -0.58462773316E+02 -0.58770123355E+03 -0.12816156149E+04  0.14166846394E+04  0.12508456053E+03 0.  0.
        -24    2    1    2    0    0  0.48704399491E+02  0.61669947843E+03  0.83251013210E+02  0.62959731633E+03  0.82290244332E+02 0.  0.
         24    2    1    2    0    0  0.97583738257E+01 -0.28998244880E+02 -0.28344999643E+02  0.88838512454E+02  0.78439264559E+02 0.  0.
        -11    1    5    5    0    0 -0.52835706698E+01  0.26331270375E+02 -0.92803042611E+01  0.28414361963E+02  0.00000000000E+00 0.  1.
         12    1    5    5    0    0  0.15041944496E+02 -0.55329515255E+02 -0.19064695382E+02  0.60424150491E+02  0.00000000000E+00 0. -1.
         11    1    4    4    0    0  0.67147014117E+02  0.34307287064E+03  0.55301891169E+02  0.35392939302E+03  0.00000000000E+00 0. -1.
        -12    1    4    4    0    0 -0.18442614627E+02  0.27362660778E+03  0.27949122041E+02  0.27566792331E+03  0.00000000000E+00 0.  1.
          5    1    3    3  501    0 -0.80827421565E+02 -0.56683406894E+03 -0.12245271015E+04  0.13517832772E+04  0.41800000000E+01 0.  1.
         -5    1    3    3    0  501  0.22364648248E+02 -0.20867164604E+02 -0.57088513476E+02  0.64901362242E+02  0.41800000000E+01 0.  1.
</event>
<event>
11    1  0.1704459E-009  0.1564233E+03  0.7561462E-02  0.1090490E+00
         22   -1    0    0    0    0  0.00000000000E+00  0.00000000000E+00  0.27108486548E+04  0.27108486548E+04  0.00000000000E+00 0.  1.
         22   -1    0    0    0    0 -0.00000000000E+00 -0.00000000000E+00 -0.22764677842E+03  0.22764677842E+03  0.00000000000E+00 0.  1.
         25    2    1    2    0    0 -0.62949614428E+02 -0.63847037229E+02 -0.57619261601E+02  0.16433771089E+03  0.12509118992E+03 0.  0.
        -24    2    1    2    0    0  0.65623399796E+02  0.71074172739E+02 -0.80853113491E+02  0.15105198022E+03  0.83195589643E+02 0.  0.
         24    2    1    2    0    0 -0.26737853675E+01 -0.72271355100E+01  0.26216742514E+04  0.26231057421E+04  0.86304535264E+02 0.  0.
        -11    1    5    5    0    0 -0.41056068851E+02 -0.11367962565E+02  0.18244859399E+04  0.18249832263E+04  0.00000000000E+00 0.  1.
         12    1    5    5    0    0  0.38382283484E+02  0.41408270553E+01  0.79718831157E+03  0.79812251581E+03  0.00000000000E+00 0. -1.
         13    1    4    4    0    0  0.57411441144E+02  0.13262510752E+02 -0.10886792046E+02  0.59920697649E+02  0.00000000000E+00 0. -1.
        -14    1    4    4    0    0  0.82119586515E+01  0.57811661987E+02 -0.69966321445E+02  0.91131282571E+02  0.00000000000E+00 0.  1.
          5    1    3    3  501    0 -0.67980846472E+02 -0.97776095842E+02 -0.48054638337E+02  0.12848455577E+03  0.41800000000E+01 0. -1.
         -5    1    3    3    0  501  0.50312320435E+01  0.33929058613E+02 -0.95646232647E+01  0.35853155125E+02  0.41800000000E+01 0. -1.
</event>
<event>
11    1  0.1704459E-009  0.4011418E+03  0.7561462E-02  0.9646395E-01
         22   -1    0    0    0    0  0.00000000000E+00  0.00000000000E+00  0.14470966096E+04  0.14470966096E+04  0.00000000000E+00 0. -1.
         22   -1    0    0    0    0 -0.00000000000E+00 -0.00000000000E+00 -0.27488188721E+03  0.27488188721E+03  0.00000000000E+00 0. -1.
         25    2    1    2    0    0  0.25084416070E+03 -0.30899115923E+03 -0.37444267998E+02  0.41886710599E+03  0.12509696173E+03 0.  0.
        -24    2    1    2    0    0 -0.19731627948E+03  0.25528231778E+03  0.62098889670E+03  0.70419204832E+03  0.78463081663E+02 0.  0.
         24    2    1    2    0    0 -0.53527881227E+02  0.53708841451E+02  0.58867009374E+03  0.59891934254E+03  0.80137543529E+02 0.  0.
        -13    1    5    5    0    0  0.16910420788E+02  0.16402160276E+02  0.63389594540E+02  0.67625689563E+02  0.00000000000E+00 0.  1.
         14    1    5    5    0    0 -0.70438302014E+02  0.37306681175E+02  0.52528049920E+03  0.53129365297E+03  0.00000000000E+00 0. -1.
         13    1    4    4    0    0 -0.33611049255E+02  0.10259864353E+03  0.18984884078E+03  0.21840047305E+03  0.00000000000E+00 0. -1.
        -14    1    4    4    0    0 -0.16370523022E+03  0.15268367426E+03  0.43114005592E+03  0.48579157527E+03  0.00000000000E+00 0.  1.
          5    1    3    3  501    0  0.23667016854E+03 -0.28171783833E+03  0.29051030499E+01  0.36797231028E+03  0.41800000000E+01 0. -1.
         -5    1    3    3    0  501  0.14173992165E+02 -0.27273320908E+02 -0.40349371047E+02  0.50894795718E+02  0.41800000000E+01 0. -1.
</event>
<event>
11    1  0.1704459E-009  0.1447443E+03  0.7561462E-02  0.1102373E+00
         22   -1    0    0    0    0  0.00000000000E+00  0.00000000000E+00  0.28852479378E+03  0.28852479378E+03  0.00000000000E+00 0. -1.
         22   -1    0    0    0    0 -0.00000000000E+00 -0.00000000000E+00 -0.38281943772E+03  0.38281943772E+03  0.00000000000E+00 0. -1.
         25    2    1    2    0    0 -0.13902708634E+02  0.81285581769E+02 -0.20493137061E+03  0.25385936273E+03  0.12508828192E+03 0.  0.
        -24    2    1    2    0    0  0.37754657104E+02 -0.56753537360E+02 -0.12650606270E+03  0.16479975129E+03  0.80677109457E+02 0.  0.
         24    2    1    2    0    0 -0.23851948470E+02 -0.24532044409E+02  0.23714278937E+03  0.25268511749E+03  0.80264122759E+02 0.  0.
        -13    1    5    5    0    0 -0.23167046895E+02  0.23412376755E+02  0.52990155786E+02  0.62392371789E+02  0.00000000000E+00 0.  1.
         14    1    5    5    0    0 -0.68490157473E+00 -0.47944421164E+02  0.18415263358E+03  0.19029274570E+03  0.00000000000E+00 0. -1.
         11    1    4    4    0    0  0.24657427822E+02  0.33662344388E+01 -0.89730003148E+02  0.93117096959E+02  0.00000000000E+00 0. -1.
        -12    1    4    4    0    0  0.13097229282E+02 -0.60119771799E+02 -0.36776059547E+02  0.71682654330E+02  0.00000000000E+00 0.  1.
          5    1    3    3  501    0 -0.68197376188E+02  0.45640341708E+02 -0.90671632833E+02  0.12236314932E+03  0.41800000000E+01 0. -1.
         -5    1    3    3    0  501  0.54294667554E+02  0.35645240061E+02 -0.11425973778E+03  0.13149621341E+03  0.41800000000E+01 0. -1.
</event>
<event>
11    1  0.1704459E-009  0.2034978E+03  0.7561462E-02  0.1052077E+00
         22   -1    0    0    0    0  0.00000000000E+00  0.00000000000E+00  0.60820121375E+03  0.60820121375E+03  0.00000000000E+00 0.  1.
         22   -1    0    0    0    0 -0.00000000000E+00 -0.00000000000E+00 -0.15799362422E+03  0.15799362422E+03  0.00000000000E+00 0.  1.
         25    2    1    2    0    0 -0.11268765004E+03 -0.84948046903E+02  0.48336835442E+02  0.19467682484E+03  0.12509172365E+03 0.  0.
         24    2    1    2    0    0  0.78122122687E+02  0.18377013642E+03  0.91439342784E+02  0.23411190968E+03  0.81072213205E+02 0.  0.
        -24    2    1    2    0    0  0.34565527356E+02 -0.98822089517E+02  0.31043141131E+03  0.33740610344E+03  0.80713297865E+02 0.  0.
        -11    1    4    4    0    0  0.17781300287E+02  0.13320720022E+03  0.40558505103E+02  0.14037565731E+03  0.00000000000E+00 0.  1.
         12    1    4    4    0    0  0.60340822401E+02  0.50562936201E+02  0.50880837680E+02  0.93736252370E+02  0.00000000000E+00 0. -1.
         13    1    5    5    0    0  0.28528680629E+02 -0.15982795381E+02  0.17876063303E+03  0.18172699108E+03  0.00000000000E+00 0. -1.
        -14    1    5    5    0    0  0.60368467268E+01 -0.82839294136E+02  0.13167077828E+03  0.15567911236E+03  0.00000000000E+00 0.  1.
          5    1    3    3  501    0 -0.70000372288E+02  0.13993044328E+02 -0.97836357647E+01  0.72173744110E+02  0.41800000000E+01 0.  1.
         -5    1    3    3    0  501 -0.42687277755E+02 -0.98941091231E+02  0.58120471206E+02  0.12250308073E+03  0.41800000000E+01 0.  1.
</event>
<event>
11    1  0.1704459E-009  0.8603084E+03  0.7561462E-02  0.8824566E-01
         22   -1    0    0    0    0  0.00000000000E+00  0.00000000000E+00  0.14653025590E+04  0.14653025590E+04  0.00000000000E+00 0.  1.
         22   -1    0    0    0    0 -0.00000000000E+00 -0.00000000000E+00 -0.49500727635E+03  0.49500727635E+03  0.00000000000E+00 0.  1.
         25    2    1    2    0    0 -0.28527230072E+03 -0.14191232745E+03 -0.83778214389E+01  0.34239077992E+03  0.12506743797E+03 0.  0.
         24    2    1    2    0    0  0.72706740642E+03  0.31306618187E+03  0.69620274827E+03  0.10573938581E+04  0.82134382503E+02 0.  0.
        -24    2    1    2    0    0 -0.44179510570E+03 -0.17115385442E+03  0.28247035581E+03  0.56052519730E+03  0.99611433066E+02 0.  0.
        -11    1    4    4    0    0  0.49256281519E+03  0.24181561275E+03  0.51557527061E+03  0.75293477616E+03  0.00000000000E+00 0.  1.
         12    1    4    4    0    0  0.23450459123E+03  0.71250569121E+02  0.18062747766E+03  0.30445908197E+03  0.00000000000E+00 0. -1.
         11    1    5    5    0    0 -0.33108552123E+03 -0.15447461209E+03  0.25410953008E+03  0.44502997812E+03  0.00000000000E+00 0. -1.
        -12    1    5    5    0    0 -0.11070958446E+03 -0.16679242333E+02  0.28360825727E+02  0.11549521918E+03  0.00000000000E+00 0.  1.
          5    1    3    3  501    0 -0.13862393259E+03 -0.10038072901E+03  0.51194355339E+02  0.17869308846E+03  0.41800000000E+01 0.  1.
         -5    1    3    3    0  501 -0.14664836813E+03 -0.41531598441E+02 -0.59572176778E+02  0.16369769146E+03  0.41800000000E+01 0.  1.
</event>
<event>
11    1  0.1704459E-009  0.2570384E+03  0.7561462E-02  0.1020215E+00
         22   -1    0    0    0    0  0.00000000000E+00  0.00000000000E+00  0.77718560350E+02  0.77718560350E+02  0.00000000000E+00 0. -1.
         22   -1    0    0    0    0 -0.00000000000E+00 -0.00000000000E+00 -0.11870430566E+04  0.11870430566E+04  0.00000000000E+00 0. -1.
         25    2    1    2    0    0 -0.16629825687E+03 -0.14871323871E+03 -0.43040931225E+03  0.50066914034E+03  0.12508666761E+03 0.  0.
         24    2    1    2    0    0  0.12223631877E+03  0.19411260674E+03 -0.53528565564E+03  0.58781776832E+03  0.79859713878E+02 0.  0.
        -24    2    1    2    0    0  0.44061938097E+02 -0.45399368037E+02 -0.14362952841E+03  0.17627470833E+03  0.80254435142E+02 0.  0.
        -13    1    4    4    0    0 -0.11673383422E+01  0.59349114718E+02 -0.11152393697E+03  0.12633791439E+03  0.00000000000E+00 0.  1.
         14    1    4    4    0    0  0.12340365711E+03  0.13476349203E+03 -0.42376171867E+03  0.46147985393E+03  0.00000000000E+00 0. -1.
         11    1    5    5    0    0  0.35285561289E+02 -0.67469603662E+02 -0.12377223021E+03  0.14531614922E+03  0.00000000000E+00 0. -1.
        -12    1    5    5    0    0  0.87763768082E+01  0.22070235625E+02 -0.19857298198E+02  0.30958559110E+02  0.00000000000E+00 0.  1.
          5    1    3    3  501    0 -0.17791975733E+02 -0.86168332720E+02 -0.10155722619E+03  0.13443540663E+03  0.41800000000E+01 0.  1.
         -5    1    3    3    0  501 -0.14850628114E+03 -0.62544905988E+02 -0.32885208606E+03  0.36623373371E+03  0.41800000000E+01 0.  1.
</event>
<event>
11    1  0.1704459E-009  0.1747190E+03  0.7561462E-02  0.1073997E+00
         22   -1    0    0    0    0  0.00000000000E+00  0.00000000000E+00  0.63146687125E+03  0.63146687125E+03  0.00000000000E+00 0.  1.
         22   -1    0    0    0    0 -0.00000000000E+00 -0.00000000000E+00 -0.29849759749E+03  0.29849759749E+03  0.00000000000E+00 0. -1.
         25    2    1    2    0    0  0.15817811472E+03  0.20857145767E+02 -0.14155674518E+03  0.24726728072E+03  0.12508980574E+03 0.  0.
         24    2    1    2    0    0 -0.94260598408E+02  0.23857339477E+02 -0.58089866383E+02  0.13861079271E+03  0.79901728513E+02 0.  0.
        -24    2    1    2    0    0 -0.63917516315E+02 -0.44714485244E+02  0.53261588532E+03  0.54408639531E+03  0.79154849355E+02 0.  0.
        -11    1    4    4    0    0 -0.93487209672E+01 -0.34684335095E+01  0.18516009723E+02  0.21030245619E+02  0.00000000000E+00 0.  1.
         12    1    4    4    0    0 -0.84911877441E+02  0.27325772987E+02 -0.76605876105E+02  0.11758054709E+03  0.00000000000E+00 0. -1.
         11    1    5    5    0    0  0.51351024584E+01  0.10364667853E+02  0.14764353594E+02  0.18755845862E+02  0.00000000000E+00 0. -1.
        -12    1    5    5    0    0 -0.69052618774E+02 -0.55079153097E+02  0.51785153173E+03  0.52533054945E+03  0.00000000000E+00 0.  1.
          5    1    3    3  501    0  0.12054571576E+03  0.36234337598E+02 -0.31434896067E+02  0.12980686384E+03  0.41800000000E+01 0.  1.
         -5    1    3    3    0  501  0.37632398960E+02 -0.15377191832E+02 -0.11012184912E+03  0.11746041688E+03  0.41800000000E+01 0.  1.
</event>
<event>
11    1  0.1704459E-009  0.1418115E+03  0.7561462E-02  0.1105552E+00
         22   -1    0    0    0    0  0.00000000000E+00  0.00000000000E+00  0.22714764443E+03  0.22714764443E+03  0.00000000000E+00 0. -1.
         22   -1    0    0    0    0 -0.00000000000E+00 -0.00000000000E+00 -0.13255751919E+03  0.13255751919E+03  0.00000000000E+00 0.  1.
         25    2    1    2    0    0 -0.17408511254E+01  0.54571294307E+02  0.77888081025E+01  0.13670585681E+03  0.12508704580E+03 0.  0.
         24    2    1    2    0    0 -0.29725514988E+02 -0.78481557452E+02  0.45306343392E+02  0.12394534318E+03  0.79163263219E+02 0.  0.
        -24    2    1    2    0    0  0.31466366114E+02  0.23910263145E+02  0.41494973747E+02  0.99053963641E+02  0.80796175569E+02 0.  0.
        -13    1    4    4    0    0 -0.29729746199E+02 -0.33418289044E+02 -0.16309445658E+02  0.47609220424E+02  0.00000000000E+00 0.  1.
         14    1    4    4    0    0  0.42312101789E-02 -0.45063268408E+02  0.61615789050E+02  0.76336122758E+02  0.00000000000E+00 0. -1.
         11    1    5    5    0    0  0.11987827682E+02  0.32357709254E+02  0.61090034469E+02  0.70162109946E+02  0.00000000000E+00 0. -1.
        -12    1    5    5    0    0  0.19478538432E+02 -0.84474461085E+01 -0.19595060722E+02  0.28891853695E+02  0.00000000000E+00 0.  1.
          5    1    3    3  501    0 -0.50702510436E+02  0.58011083209E+02  0.29849646332E+02  0.82731518333E+02  0.41800000000E+01 0.  1.
         -5    1    3    3    0  501  0.48961659310E+02 -0.34397889019E+01 -0.22060838229E+02  0.53974338472E+02  0.41800000000E+01 0.  1.
</event>
<event>
11    1  0.1704459E-009  0.2868875E+03  0.7561462E-02  0.1005899E+00
         22   -1    0    0    0    0  0.00000000000E+00  0.00000000000E+00  0.99484802673E+03  0.99484802673E+03  0.00000000000E+00 0.  1.
         22   -1    0    0    0    0 -0.00000000000E+00 -0.00000000000E+00 -0.18878552572E+03  0.18878552572E+03  0.00000000000E+00 0. -1.
         25    2    1    2    0    0 -0.49157861493E+02 -0.11318583331E+03 -0.12993906994E+02  0.17619154816E+03  0.12508833604E+03 0.  0.
         24    2    1    2    0    0  0.30087644770E+03  0.39511539679E+02  0.43800568367E+03  0.53890564698E+03  0.80514091133E+02 0.  0.
        -24    2    1    2    0    0 -0.25171858621E+03  0.73674293629E+02  0.38105072433E+03  0.46853635731E+03  0.74407764574E+02 0.  0.
        -11    1    4    4    0    0  0.24465596226E+03  0.17414841043E+01  0.36401901626E+03  0.43859938080E+03  0.00000000000E+00 0.  1.
         12    1    4    4    0    0  0.56220485437E+02  0.37770055575E+02  0.73986667415E+02  0.10030626619E+03  0.00000000000E+00 0. -1.
         11    1    5    5    0    0 -0.63104942227E+00 -0.64117156521E+01  0.17750517464E+01  0.66827486620E+01  0.00000000000E+00 0. -1.
        -12    1    5    5    0    0 -0.25108753679E+03  0.80086009281E+02  0.37927567258E+03  0.46185360865E+03  0.00000000000E+00 0.  1.
          5    1    3    3  501    0  0.19397266073E+01 -0.12973432877E+02 -0.54504315978E+02  0.56216237513E+02  0.41800000000E+01 0.  1.
         -5    1    3    3    0  501 -0.51097588100E+02 -0.10021240043E+03  0.41510408983E+02  0.11997531064E+03  0.41800000000E+01 0.  1.
</event>
<event>
11    1  0.1704459E-009  0.1375015E+03  0.7561462E-02  0.1110381E+00
         22   -1    0    0    0    0  0.00000000000E+00  0.00000000000E+00  0.10436095531E+03  0.10436095531E+03  0.00000000000E+00 0.  1.
         22   -1    0    0    0    0 -0.00000000000E+00 -0.00000000000E+00 -0.66714294799E+03  0.66714294799E+03  0.00000000000E+00 0.  1.
         25    2    1    2    0    0  0.88035917900E+01 -0.37764702357E+02 -0.36377227615E+03  0.38662831404E+03  0.12509000099E+03 0.  0.
        -24    2    1    2    0    0  0.30843185045E+02  0.75345053328E+02 -0.25065618849E+03  0.27463027150E+03  0.77233943783E+02 0.  0.
         24    2    1    2    0    0 -0.39646776835E+02 -0.37580350971E+02  0.51646471964E+02  0.11024531775E+03  0.80638218778E+02 0.  0.
        -13    1    5    5    0    0 -0.36927205521E+02 -0.59115831412E+02  0.21201733082E+02  0.72854742583E+02  0.00000000000E+00 0.  1.
         14    1    5    5    0    0 -0.27195713141E+01  0.21535480442E+02  0.30444738882E+02  0.37390575170E+02  0.00000000000E+00 0. -1.
         11    1    4    4    0    0 -0.42924487218E+01  0.53638693498E+01 -0.13372176685E+03  0.13389812224E+03  0.00000000000E+00 0. -1.
        -12    1    4    4    0    0  0.35135633767E+02  0.69981183978E+02 -0.11693442164E+03  0.14073214926E+03  0.00000000000E+00 0.  1.
          5    1    3    3  501    0  0.66783836501E+02 -0.22762210104E+02 -0.20847012438E+03  0.22012601888E+03  0.41800000000E+01 0. -1.
         -5    1    3    3    0  501 -0.57980244711E+02 -0.15002492254E+02 -0.15530215177E+03  0.16650229516E+03  0.41800000000E+01 0. -1.
</event>
<event>
11    1  0.1704459E-009  0.2484476E+03  0.7561462E-02  0.1024729E+00
         22   -1    0    0    0    0  0.00000000000E+00  0.00000000000E+00  0.12440456209E+03  0.12440456209E+03  0.00000000000E+00 0. -1.
         22   -1    0    0    0    0 -0.00000000000E+00 -0.00000000000E+00 -0.12687208470E+04  0.12687208470E+04  0.00000000000E+00 0.  1.
         25    2    1    2    0    0 -0.27979093705E+02 -0.33370040099E+02 -0.72006934803E+03  0.73215095423E+03  0.12509502210E+03 0.  0.
         24    2    1    2    0    0  0.22853526795E+03  0.10072926727E+03 -0.14012030198E+03  0.29711647452E+03  0.79181730368E+02 0.  0.
        -24    2    1    2    0    0 -0.20055617425E+03 -0.67359227166E+02 -0.28412663488E+03  0.36385798031E+03  0.83094167518E+02 0.  0.
        -13    1    4    4    0    0  0.11964303019E+03  0.15028225577E+02 -0.43517232304E+02  0.12819536553E+03  0.00000000000E+00 0.  1.
         14    1    4    4    0    0  0.10889223777E+03  0.85701041689E+02 -0.96603069679E+02  0.16892110899E+03  0.00000000000E+00 0. -1.
         13    1    5    5    0    0 -0.17238716139E+03 -0.42251168410E+02 -0.17862973705E+03  0.25181556267E+03  0.00000000000E+00 0. -1.
        -14    1    5    5    0    0 -0.28169012860E+02 -0.25108058757E+02 -0.10549689783E+03  0.11204241764E+03  0.00000000000E+00 0.  1.
          5    1    3    3  501    0 -0.73984085642E+02 -0.14780855169E+02 -0.54231659889E+03  0.54755537112E+03  0.41800000000E+01 0.  1.
         -5    1    3    3    0  501  0.46004991937E+02 -0.18589184930E+02 -0.17775274914E+03  0.18459558312E+03  0.41800000000E+01 0.  1.
</event>
<event>
11    1  0.1934967E-009  0.2658227E+04  0.7561462E-02  0.7840400E-01
         22   -1    0    0    0    0  0.00000000000E+00  0.00000000000E+00  0.13598335574E+04  0.13598335574E+04  0.00000000000E+00 0.  1.
         22   -1    0    0    0    0 -0.00000000000E+00 -0.00000000000E+00 -0.12990878750E+04  0.12990878750E+04  0.00000000000E+00 0.  1.
         25    2    1    2    0    0  0.76792491466E+03 -0.54332164883E+03 -0.87914783345E+03  0.12936212906E+04  0.12509213337E+03 0.  0.
        -24    2    1    2    0    0 -0.54256663191E+03  0.47517420785E+03  0.80002594130E+03  0.10801765225E+04  0.81060071765E+02 0.  0.
         24    2    1    2    0    0 -0.22535828274E+03  0.68147440979E+02  0.13986757453E+03  0.28512361924E+03  0.79385833326E+02 0.  0.
        -11    1    5    5    0    0 -0.19023084449E+03  0.73631720704E+02  0.87803403041E+02  0.22207845928E+03  0.00000000000E+00 0.  1.
         12    1    5    5    0    0 -0.35127438247E+02 -0.54842797248E+01  0.52064171486E+02  0.63045159960E+02  0.00000000000E+00 0. -1.
         11    1    4    4    0    0 -0.12343730368E+03  0.77905643283E+02  0.19759256588E+03  0.24566008892E+03  0.00000000000E+00 0. -1.
        -12    1    4    4    0    0 -0.41912932824E+03  0.39726856456E+03  0.60243337542E+03  0.83451643363E+03  0.00000000000E+00 0.  1.
          5    1    3    3  501    0  0.13697536606E+03 -0.80421236996E+02 -0.21426233535E+03  0.26675015842E+03  0.41800000000E+01 0. -1.
         -5    1    3    3    0  501  0.63094954859E+03 -0.46290041183E+03 -0.66488549810E+03  0.10268711322E+04  0.41800000000E+01 0. -1.
</event>
<event>
11    1  0.1704459E-009  0.2719005E+03  0.7561462E-02  0.1012839E+00
         22   -1    0    0    0    0  0.00000000000E+00  0.00000000000E+00  0.12909931666E+04  0.12909931666E+04  0.00000000000E+00 0.  1.
         22   -1    0    0    0    0 -0.00000000000E+00 -0.00000000000E+00 -0.17941016512E+03  0.17941016512E+03  0.00000000000E+00 0. -1.
         25    2    1    2    0    0 -0.89160924661E+02  0.19391722901E+03  0.50134371966E+02  0.25241609108E+03  0.12508743179E+03 0.  0.
        -24    2    1    2    0    0  0.14515483358E+03 -0.36392800459E+03  0.76175585888E+03  0.85989602163E+03  0.75071041376E+02 0.  0.
         24    2    1    2    0    0 -0.55993908917E+02  0.17001077557E+03  0.29969277066E+03  0.35809121902E+03  0.79840983892E+02 0.  0.
        -13    1    5    5    0    0 -0.68654451120E+02  0.15859295588E+03  0.29217751813E+03  0.33945966096E+03  0.00000000000E+00 0.  1.
         14    1    5    5    0    0  0.12660542203E+02  0.11417819693E+02  0.75152525224E+01  0.18631558064E+02  0.00000000000E+00 0. -1.
         13    1    4    4    0    0  0.15237729042E+03 -0.33445170076E+03  0.71867228369E+03  0.80719677287E+03  0.00000000000E+00 0. -1.
        -14    1    4    4    0    0 -0.72224568396E+01 -0.29476303822E+02  0.43083575186E+02  0.52699248767E+02  0.00000000000E+00 0.  1.
          5    1    3    3  501    0  0.84523191571E+01  0.12673141991E+03  0.40821140702E+02  0.13347708575E+03  0.41800000000E+01 0.  1.
         -5    1    3    3    0  501 -0.97613243818E+02  0.67185809097E+02  0.93132312635E+01  0.11893900533E+03  0.41800000000E+01 0.  1.
</event>
<event>
11    1  0.1704459E-009  0.1303204E+03  0.7561462E-02  0.1118876E+00
         22   -1    0    0    0    0  0.00000000000E+00  0.00000000000E+00  0.18181150734E+03  0.18181150734E+03  0.00000000000E+00 0. -1.
         22   -1    0    0    0    0 -0.00000000000E+00 -0.00000000000E+00 -0.13283227702E+04  0.13283227702E+04  0.00000000000E+00 0.  1.
         25    2    1    2    0    0  0.40092241260E+02 -0.23829029808E+02 -0.87421188208E+03  0.88434808666E+03  0.12509961291E+03 0.  0.
         24    2    1    2    0    0 -0.36447345487E+01  0.22952011474E+02 -0.43265639669E+03  0.44098948771E+03  0.82098061819E+02 0.  0.
        -24    2    1    2    0    0 -0.36447506711E+02  0.87701833382E+00  0.16035701590E+03  0.18479670318E+03  0.84298630186E+02 0.  0.
        -11    1    4    4    0    0  0.22244144300E+02  0.27279676521E+02 -0.38480765703E+03  0.38641417626E+03  0.00000000000E+00 0.  1.
         12    1    4    4    0    0 -0.25888878848E+02 -0.43276650461E+01 -0.47848739655E+02  0.54575311445E+02  0.00000000000E+00 0. -1.
         13    1    5    5    0    0 -0.46222981717E+02  0.14167305977E+02  0.16118354389E+03  0.16827778052E+03  0.00000000000E+00 0. -1.
        -14    1    5    5    0    0  0.97754750058E+01 -0.13290287643E+02 -0.82652798881E+00  0.16518922657E+02  0.00000000000E+00 0.  1.
          5    1    3    3  501    0 -0.10248888868E+02 -0.53315628694E+02 -0.19023330435E+03  0.19787313732E+03  0.41800000000E+01 0. -1.
         -5    1    3    3    0  501  0.50341130127E+02  0.29486598886E+02 -0.68397857772E+03  0.68647494934E+03  0.41800000000E+01 0. -1.
</event>
<event>
11    1  0.1704459E-009  0.1955897E+03  0.7561462E-02  0.1057687E+00
         22   -1    0    0    0    0  0.00000000000E+00  0.00000000000E+00  0.18484467307E+04  0.18484467307E+04  0.00000000000E+00 0.  1.
         22   -1    0    0    0    0 -0.00000000000E+00 -0.00000000000E+00 -0.16896107378E+03  0.16896107378E+03  0.00000000000E+00 0.  1.
         25    2    1    2    0    0  0.67994899096E+02 -0.11183785879E+03  0.29266237763E+02  0.18342774329E+03  0.12513277498E+03 0.  0.
         24    2    1    2    0    0 -0.20748477358E+02  0.17494390393E+03  0.14333054866E+02  0.19428855926E+03  0.80664359911E+02 0.  0.
        -24    2    1    2    0    0 -0.47246421738E+02 -0.63106045139E+02  0.16358863642E+04  0.16396915019E+04  0.79053319602E+02 0.  0.
        -13    1    4    4    0    0  0.37068737361E+01  0.53668164572E+02  0.41111823309E+02  0.67706682220E+02  0.00000000000E+00 0.  1.
         14    1    4    4    0    0 -0.24455351094E+02  0.12127573936E+03 -0.26778768443E+02  0.12658187704E+03  0.00000000000E+00 0. -1.
         13    1    5    5    0    0 -0.20386156961E+02 -0.27780826410E+02  0.18841502054E+03  0.19154004719E+03  0.00000000000E+00 0. -1.
        -14    1    5    5    0    0 -0.26860264777E+02 -0.35325218729E+02  0.14474713437E+04  0.14481514547E+04  0.00000000000E+00 0.  1.
          5    1    3    3  501    0  0.10093794301E+03 -0.77420165539E+02  0.41835918105E+02  0.13397785942E+03  0.41800000000E+01 0.  1.
         -5    1    3    3    0  501 -0.32943043912E+02 -0.34417693255E+02 -0.12569680343E+02  0.49449883874E+02  0.41800000000E+01 0.  1.
</event>
<event>
11    1  0.1704459E-009  0.2014569E+03  0.7561462E-02  0.1053498E+00
         22   -1    0    0    0    0  0.00000000000E+00  0.00000000000E+00  0.15945361425E+04  0.15945361425E+04  0.00000000000E+00 0.  1.
         22   -1    0    0    0    0 -0.00000000000E+00 -0.00000000000E+00 -0.10293206873E+03  0.10293206873E+03  0.00000000000E+00 0.  1.
         25    2    1    2    0    0 -0.13442303789E+03 -0.84992947452E+02  0.17896389024E+03  0.27012679701E+03  0.12508820177E+03 0.  0.
        -24    2    1    2    0    0  0.12865049600E+03  0.90489604419E+02  0.84802459932E+02  0.19685797627E+03  0.82597136640E+02 0.  0.
         24    2    1    2    0    0  0.57725418898E+01 -0.54966569666E+01  0.12278377236E+04  0.12304834379E+04  0.80252601785E+02 0.  0.
        -13    1    5    5    0    0  0.20674765156E+02 -0.34574905618E+02  0.40533630230E+03  0.40733326401E+03  0.00000000000E+00 0.  1.
         14    1    5    5    0    0 -0.14902223266E+02  0.29078248651E+02  0.82250142130E+03  0.82315017393E+03  0.00000000000E+00 0. -1.
         13    1    4    4    0    0  0.25858694176E+02  0.15080737768E+01 -0.13382496119E+02  0.29155403502E+02  0.00000000000E+00 0. -1.
        -14    1    4    4    0    0  0.10279180183E+03  0.88981530642E+02  0.98184956052E+02  0.16770257277E+03  0.00000000000E+00 0.  1.
          5    1    3    3  501    0 -0.40407161382E+00  0.27062965756E+02  0.28573715683E+02  0.39578997174E+02  0.41800000000E+01 0.  1.
         -5    1    3    3    0  501 -0.13401896628E+03 -0.11205591321E+03  0.15039017455E+03  0.23054779984E+03  0.41800000000E+01 0.  1.
</event>
<event>
11    1  0.1704459E-009  0.3775233E+03  0.7561462E-02  0.9718508E-01
         22   -1    0    0    0    0  0.00000000000E+00  0.00000000000E+00  0.62965006796E+03  0.62965006796E+03  0.00000000000E+00 0. -1.
         22   -1    0    0    0    0 -0.00000000000E+00 -0.00000000000E+00 -0.63401476006E+03  0.63401476006E+03  0.00000000000E+00 0.  1.
         25    2    1    2    0    0 -0.38198271537E+03 -0.29845820990E+02 -0.11610921172E+03  0.41944064026E+03  0.12509010264E+03 0.  0.
         24    2    1    2    0    0  0.33007157743E+03  0.94994650890E+02 -0.27060418598E+03  0.44469078984E+03  0.80944692072E+02 0.  0.
        -24    2    1    2    0    0  0.51911137944E+02 -0.65148829901E+02  0.38234870561E+03  0.39953339792E+03  0.80605626929E+02 0.  0.
        -13    1    4    4    0    0  0.27287044071E+03  0.99177447847E+02 -0.19478426372E+03  0.34962172840E+03  0.00000000000E+00 0.  1.
         14    1    4    4    0    0  0.57201136723E+02 -0.41827969562E+01 -0.75819922258E+02  0.95069061445E+02  0.00000000000E+00 0. -1.
         13    1    5    5    0    0  0.65311341539E+02 -0.24362576393E+02  0.27997578275E+03  0.28852304135E+03  0.00000000000E+00 0. -1.
        -14    1    5    5    0    0 -0.13400203595E+02 -0.40786253508E+02  0.10237292286E+03  0.11101035657E+03  0.00000000000E+00 0.  1.
          5    1    3    3  501    0 -0.12675057204E+03  0.28533738058E+02 -0.85988645348E+02  0.15585698973E+03  0.41800000000E+01 0.  1.
         -5    1    3    3    0  501 -0.25523214334E+03 -0.58379559048E+02 -0.30120566371E+02  0.26358365053E+03  0.41800000000E+01 0.  1.
</event>
<event>
11    1  0.1704459E-009  0.2847526E+03  0.7561462E-02  0.1006859E+00
         22   -1    0    0    0    0  0.00000000000E+00  0.00000000000E+00  0.78212624386E+03  0.78212624386E+03  0.00000000000E+00 0.  1.
         22   -1    0    0    0    0 -0.00000000000E+00 -0.00000000000E+00 -0.27482691992E+03  0.27482691992E+03  0.00000000000E+00 0.  1.
         25    2    1    2    0    0 -0.12385338723E+03  0.10928445913E+03  0.86293039603E+01  0.20736619127E+03  0.12507404950E+03 0.  0.
        -24    2    1    2    0    0  0.13535724371E+03 -0.35315109453E+03  0.14622264673E+03  0.41331483386E+03  0.80067536959E+02 0.  0.
         24    2    1    2    0    0 -0.11503856474E+02  0.24386663540E+03  0.35244737325E+03  0.43627213866E+03  0.80690479493E+02 0.  0.
        -11    1    5    5    0    0  0.19212514579E+02  0.18188878845E+03  0.29123590606E+03  0.34390551763E+03  0.00000000000E+00 0.  1.
         12    1    5    5    0    0 -0.30716371053E+02  0.61977846957E+02  0.61211467190E+02  0.92366621025E+02  0.00000000000E+00 0. -1.
         13    1    4    4    0    0 -0.99444647650E+01 -0.12893614183E+02  0.28883449641E+01  0.16537236855E+02  0.00000000000E+00 0. -1.
        -14    1    4    4    0    0  0.14530170847E+03 -0.34025748035E+03  0.14333430176E+03  0.39677759700E+03  0.00000000000E+00 0.  1.
          5    1    3    3  501    0 -0.11936316770E+03  0.57107862764E+02 -0.37345988820E+02  0.13755387698E+03  0.41800000000E+01 0. -1.
         -5    1    3    3    0  501 -0.44902195379E+01  0.52176596367E+02  0.45975292780E+02  0.69812314287E+02  0.41800000000E+01 0. -1.
</event>
<event>
11    1  0.1704459E-009  0.7469175E+03  0.7561462E-02  0.8965885E-01
         22   -1    0    0    0    0  0.00000000000E+00  0.00000000000E+00  0.45664456215E+03  0.45664456215E+03  0.00000000000E+00 0.  1.
         22   -1    0    0    0    0 -0.00000000000E+00 -0.00000000000E+00 -0.19740926045E+04  0.19740926045E+04  0.00000000000E+00 0.  1.
         25    2    1    2    0    0  0.70773208008E+03 -0.22804752177E+03 -0.12697242350E+04  0.14767322143E+04  0.12509208853E+03 0.  0.
         24    2    1    2    0    0 -0.72816191968E+03  0.62580639363E+02 -0.21677127305E+03  0.76662178794E+03  0.81136078519E+02 0.  0.
        -24    2    1    2    0    0  0.20429839600E+02  0.16546688241E+03 -0.30952534304E+02  0.18738316435E+03  0.79735333340E+02 0.  0.
        -11    1    4    4    0    0 -0.25970625440E+03  0.52620823335E+02 -0.52760536135E+02  0.27018505472E+03  0.00000000000E+00 0.  1.
         12    1    4    4    0    0 -0.46845566528E+03  0.99598160288E+01 -0.16401073691E+03  0.49643673322E+03  0.00000000000E+00 0. -1.
         13    1    5    5    0    0 -0.15156810224E-01  0.68921497755E+02 -0.52171963757E+02  0.86441233707E+02  0.00000000000E+00 0. -1.
        -14    1    5    5    0    0  0.20444996410E+02  0.96545384656E+02  0.21219429453E+02  0.10094193065E+03  0.00000000000E+00 0.  1.
          5    1    3    3  501    0  0.59224630650E+03 -0.22457117435E+03 -0.10062759761E+04  0.11890318382E+04  0.41800000000E+01 0. -1.
         -5    1    3    3    0  501  0.11548577358E+03 -0.34763474196E+01 -0.26344825890E+03  0.28770037611E+03  0.41800000000E+01 0. -1.
</event>
<event>
11    1  0.1704459E-009  0.1551626E+03  0.7561462E-02  0.1091717E+00
         22   -1    0    0    0    0  0.00000000000E+00  0.00000000000E+00  0.11898782286E+04  0.11898782286E+04  0.00000000000E+00 0.  1.
         22   -1    0    0    0    0 -0.00000000000E+00 -0.00000000000E+00 -0.41288499524E+02  0.41288499524E+02  0.00000000000E+00 0.  1.
         25    2    1    2    0    0 -0.45642094442E+01 -0.33511064572E+02  0.22722237691E+03  0.26157401016E+03  0.12508849174E+03 0.  0.
         24    2    1    2    0    0  0.46623637893E+02  0.13063327011E+03  0.53167216000E+03  0.55806091968E+03  0.97559671448E+02 0.  0.
        -24    2    1    2    0    0 -0.42059428449E+02 -0.97122205536E+02  0.38969519221E+03  0.41153179832E+03  0.79337001884E+02 0.  0.
        -11    1    4    4    0    0  0.13199156907E+02  0.13516546933E+03  0.42102542930E+03  0.44238708611E+03  0.00000000000E+00 0.  1.
         12    1    4    4    0    0  0.33424480987E+02 -0.45321992223E+01  0.11064673070E+03  0.11567383357E+03  0.00000000000E+00 0. -1.
         11    1    5    5    0    0 -0.25197603184E+02  0.53087431630E+01  0.11568737751E+03  0.11851865370E+03  0.00000000000E+00 0. -1.
        -12    1    5    5    0    0 -0.16861825265E+02 -0.10243094870E+03  0.27400781470E+03  0.29301314462E+03  0.00000000000E+00 0.  1.
          5    1    3    3  501    0  0.35808067034E+02 -0.16214825235E+02  0.21083564787E+03  0.21450939615E+03  0.41800000000E+01 0.  1.
         -5    1    3    3    0  501 -0.40372276478E+02 -0.17296239338E+02  0.16386729032E+02  0.47064614006E+02  0.41800000000E+01 0.  1.
</event>
<event>
11    1  0.1704459E-009  0.2981195E+03  0.7561462E-02  0.1000990E+00
         22   -1    0    0    0    0  0.00000000000E+00  0.00000000000E+00  0.19018363122E+03  0.19018363122E+03  0.00000000000E+00 0. -1.
         22   -1    0    0    0    0 -0.00000000000E+00 -0.00000000000E+00 -0.79743410109E+03  0.79743410109E+03  0.00000000000E+00 0. -1.
         25    2    1    2    0    0 -0.87121925994E+02  0.45336491653E+02 -0.15017052410E+03  0.21873223149E+03  0.12508787040E+03 0.  0.
        -24    2    1    2    0    0 -0.33440492706E+02 -0.30118209949E+03 -0.30821520785E+03  0.43975898077E+03  0.81008784772E+02 0.  0.
         24    2    1    2    0    0  0.12056241870E+03  0.25584560784E+03 -0.14886473792E+03  0.32912652005E+03  0.78557521267E+02 0.  0.
        -11    1    5    5    0    0  0.10583420360E+02  0.70692708304E+00  0.47861196509E+01  0.11636815447E+02  0.00000000000E+00 0.  1.
         12    1    5    5    0    0  0.10997899834E+03  0.25513868076E+03 -0.15365085757E+03  0.31748970460E+03  0.00000000000E+00 0. -1.
         11    1    4    4    0    0 -0.58954299264E+02 -0.17490349023E+03 -0.19047261160E+03  0.26522944042E+03  0.00000000000E+00 0. -1.
        -12    1    4    4    0    0  0.25513806558E+02 -0.12627860926E+03 -0.11774259624E+03  0.17452954034E+03  0.00000000000E+00 0.  1.
          5    1    3    3  501    0 -0.18181425397E+02  0.22970897608E+01  0.21615524540E+02  0.28645141856E+02  0.41800000000E+01 0. -1.
         -5    1    3    3    0  501 -0.68940500598E+02  0.43039401892E+02 -0.17178604865E+03  0.19008708964E+03  0.41800000000E+01 0. -1.
</event>
<event>
11    1  0.1704459E-009  0.1945526E+03  0.7561462E-02  0.1058444E+00
         22   -1    0    0    0    0  0.00000000000E+00  0.00000000000E+00  0.19708879800E+03  0.19708879800E+03  0.00000000000E+00 0. -1.
         22   -1    0    0    0    0 -0.00000000000E+00 -0.00000000000E+00 -0.58423835396E+03  0.58423835396E+03  0.00000000000E+00 0. -1.
         25    2    1    2    0    0 -0.10169285077E+03 -0.16974907481E+02 -0.17887741756E+03  0.24140022264E+03  0.12508938243E+03 0.  0.
         24    2    1    2    0    0  0.21123390684E+03 -0.64483164071E+02 -0.28090963893E+03  0.36634127195E+03  0.80733267276E+02 0.  0.
        -24    2    1    2    0    0 -0.10954105607E+03  0.81458071552E+02  0.72637500534E+02  0.17358565737E+03  0.78874036120E+02 0.  0.
        -11    1    4    4    0    0  0.53494993811E+02 -0.46745439903E+01 -0.23587480842E+02  0.58650958874E+02  0.00000000000E+00 0.  1.
         12    1    4    4    0    0  0.15773891302E+03 -0.59808620081E+02 -0.25732215809E+03  0.30769031308E+03  0.00000000000E+00 0. -1.
         13    1    5    5    0    0 -0.68150233676E+02  0.21160820394E+02  0.70656898864E+02  0.10042226858E+03  0.00000000000E+00 0. -1.
        -14    1    5    5    0    0 -0.41390822393E+02  0.60297251159E+02  0.19806016700E+01  0.73163388786E+02  0.00000000000E+00 0.  1.
          5    1    3    3  501    0  0.22831235180E+02 -0.94962190869E+01 -0.74771453415E+02  0.78864986671E+02  0.41800000000E+01 0. -1.
         -5    1    3    3    0  501 -0.12452408595E+03 -0.74786883943E+01 -0.10410596415E+03  0.16253523597E+03  0.41800000000E+01 0. -1.
</event>
<event>
11    1  0.1704459E-009  0.2609795E+03  0.7561462E-02  0.1018208E+00
         22   -1    0    0    0    0  0.00000000000E+00  0.00000000000E+00  0.30695634920E+03  0.30695634920E+03  0.00000000000E+00 0.  1.
         22   -1    0    0    0    0 -0.00000000000E+00 -0.00000000000E+00 -0.54237418992E+03  0.54237418992E+03  0.00000000000E+00 0. -1.
         25    2    1    2    0    0 -0.10653040696E+03  0.14625341460E+03 -0.36536091272E+03  0.42646724397E+03  0.12508766822E+03 0.  0.
         24    2    1    2    0    0  0.68705779141E+01  0.69218482779E+02 -0.47849790583E+02  0.11588058967E+03  0.79374463173E+02 0.  0.
        -24    2    1    2    0    0  0.99659829042E+02 -0.21547189738E+03  0.17779286259E+03  0.30698270548E+03  0.79169813630E+02 0.  0.
        -13    1    4    4    0    0 -0.20237323848E+01 -0.52191478088E+01  0.16286671058E+02  0.17221807419E+02  0.00000000000E+00 0.  1.
         14    1    4    4    0    0  0.88943102989E+01  0.74437630587E+02 -0.64136461641E+02  0.98658782250E+02  0.00000000000E+00 0. -1.
         11    1    5    5    0    0  0.62446469095E+02 -0.58235783676E+02  0.85812738099E+02  0.12105698668E+03  0.00000000000E+00 0. -1.
        -12    1    5    5    0    0  0.37213359946E+02 -0.15723611371E+03  0.91980124489E+02  0.18592571880E+03  0.00000000000E+00 0.  1.
          5    1    3    3  501    0 -0.57966714818E+02  0.15843427853E+03 -0.29750703065E+03  0.34203722945E+03  0.41800000000E+01 0. -1.
         -5    1    3    3    0  501 -0.48563692138E+02 -0.12180863924E+02 -0.67853882070E+02  0.84430014521E+02  0.41800000000E+01 0. -1.
</event>
<event>
11    1  0.1704459E-009  0.4346413E+03  0.7561462E-02  0.9552737E-01
         22   -1    0    0    0    0  0.00000000000E+00  0.00000000000E+00  0.25903435908E+04  0.25903435908E+04  0.00000000000E+00 0.  1.
         22   -1    0    0    0    0 -0.00000000000E+00 -0.00000000000E+00 -0.16079176389E+03  0.16079176389E+03  0.00000000000E+00 0.  1.
         25    2    1    2    0    0 -0.25401459854E+03 -0.34688333754E+03  0.25461830528E+03  0.51510277211E+03  0.12509563671E+03 0.  0.
        -24    2    1    2    0    0  0.17654984316E+03  0.32640655004E+03  0.13199060684E+04  0.13735030551E+04  0.81532385881E+02 0.  0.
         24    2    1    2    0    0  0.77464755384E+02  0.20476787504E+02  0.85502745323E+03  0.86252952747E+03  0.80406174052E+02 0.  0.
        -11    1    5    5    0    0 -0.14957345445E+02  0.14364948899E+02  0.13992878276E+03  0.14145719559E+03  0.00000000000E+00 0.  1.
         12    1    5    5    0    0  0.92422100829E+02  0.61118386049E+01  0.71509867047E+03  0.72107233188E+03  0.00000000000E+00 0. -1.
         13    1    4    4    0    0  0.70202414717E+02  0.10540268223E+03  0.32474015048E+03  0.34856028142E+03  0.00000000000E+00 0. -1.
        -14    1    4    4    0    0  0.10634742844E+03  0.22100386781E+03  0.99516591791E+03  0.10249427737E+04  0.00000000000E+00 0.  1.
          5    1    3    3  501    0 -0.12550684337E+03 -0.26401460512E+03  0.19227983130E+03  0.34992097019E+03  0.41800000000E+01 0. -1.
         -5    1    3    3    0  501 -0.12850775517E+03 -0.82868732420E+02  0.62338473977E+02  0.16518180193E+03  0.41800000000E+01 0. -1.
</event>
<event>
11    1  0.1704459E-009  0.1458758E+03  0.7561462E-02  0.1101169E+00
         22   -1    0    0    0    0  0.00000000000E+00  0.00000000000E+00  0.15728404663E+03  0.15728404663E+03  0.00000000000E+00 0.  1.
         22   -1    0    0    0    0 -0.00000000000E+00 -0.00000000000E+00 -0.29851679702E+03  0.29851679702E+03  0.00000000000E+00 0. -1.
         25    2    1    2    0    0  0.11850883800E+02  0.39864324413E+02 -0.67236871858E+02  0.14798043846E+03  0.12509118842E+03 0.  0.
         24    2    1    2    0    0  0.83314577939E+02 -0.10286553157E+03 -0.83690767277E+02  0.18184833912E+03  0.92423143383E+02 0.  0.
        -24    2    1    2    0    0 -0.95165461739E+02  0.63001207154E+02  0.96948887429E+01  0.12597206607E+03  0.52434276491E+02 0.  0.
        -11    1    4    4    0    0  0.30070794523E+02 -0.41926313217E+02  0.15464498954E+02  0.53862966416E+02  0.00000000000E+00 0.  1.
         12    1    4    4    0    0  0.53243783415E+02 -0.60939218350E+02 -0.99155266231E+02  0.12798537271E+03  0.00000000000E+00 0. -1.
         13    1    5    5    0    0 -0.17319074768E+02 -0.40978357851E+01 -0.11292805965E+02  0.21077715140E+02  0.00000000000E+00 0. -1.
        -14    1    5    5    0    0 -0.77846386971E+02  0.67099042939E+02  0.20987694708E+02  0.10489435093E+03  0.00000000000E+00 0.  1.
          5    1    3    3  501    0  0.37788426293E+02  0.66672341301E+02 -0.70833460888E+01  0.77076666042E+02  0.41800000000E+01 0.  1.
         -5    1    3    3    0  501 -0.25937542493E+02 -0.26808016888E+02 -0.60153525770E+02  0.70903772414E+02  0.41800000000E+01 0.  1.
</event>
<event>
11    1  0.1704459E-009  0.4598119E+03  0.7561462E-02  0.9488097E-01
         22   -1    0    0    0    0  0.00000000000E+00  0.00000000000E+00  0.23027216235E+03  0.23027216235E+03  0.00000000000E+00 0. -1.
         22   -1    0    0    0    0 -0.00000000000E+00 -0.00000000000E+00 -0.12324223123E+04  0.12324223123E+04  0.00000000000E+00 0. -1.
         25    2    1    2    0    0 -0.11146818032E+03  0.43889530455E+03 -0.47156511551E+03  0.66563895578E+03  0.12508923897E+03 0.  0.
        -24    2    1    2    0    0  0.18204236680E+02 -0.43750211186E+03 -0.50066677041E+03  0.67005073077E+03  0.81001695672E+02 0.  0.
         24    2    1    2    0    0  0.93263943642E+02 -0.13931926916E+01 -0.29918264077E+02  0.12700478814E+03  0.80839405709E+02 0.  0.
        -11    1    5    5    0    0  0.46817379666E+02 -0.23053553606E+02 -0.49704886278E+02  0.72068780291E+02  0.00000000000E+00 0.  1.
         12    1    5    5    0    0  0.46446563976E+02  0.21660360915E+02  0.19786622202E+02  0.54936007848E+02  0.00000000000E+00 0. -1.
         11    1    4    4    0    0  0.49018446919E+02 -0.29493938946E+03 -0.32187813668E+03  0.43931490581E+03  0.00000000000E+00 0. -1.
        -12    1    4    4    0    0 -0.30814210239E+02 -0.14256272239E+03 -0.17878863373E+03  0.23073582496E+03  0.00000000000E+00 0.  1.
          5    1    3    3  501    0 -0.45494962187E+02  0.75600935679E+02 -0.15883632600E+03  0.18174637250E+03  0.41800000000E+01 0.  1.
         -5    1    3    3    0  501 -0.65973218135E+02  0.36329436887E+03 -0.31272878951E+03  0.48389258327E+03  0.41800000000E+01 0.  1.
</event>
<event>
11    1  0.1704459E-009  0.2100595E+03  0.7561462E-02  0.1047630E+00
         22   -1    0    0    0    0  0.00000000000E+00  0.00000000000E+00  0.48934951984E+02  0.48934951984E+02  0.00000000000E+00 0. -1.
         22   -1    0    0    0    0 -0.00000000000E+00 -0.00000000000E+00 -0.12979061462E+04  0.12979061462E+04  0.00000000000E+00 0.  1.
         25    2    1    2    0    0 -0.11832141537E+03  0.86524471242E+02 -0.71390368858E+03  0.73945400730E+03  0.12508921166E+03 0.  0.
         24    2    1    2    0    0  0.14639605644E+03 -0.10273180672E+03 -0.30132009373E+03  0.35963510889E+03  0.80981375706E+02 0.  0.
        -24    2    1    2    0    0 -0.28074641074E+02  0.16207335482E+02 -0.23374741188E+03  0.24775198197E+03  0.75447523579E+02 0.  0.
        -11    1    4    4    0    0 -0.74707175328E+01  0.44530715177E+01 -0.15974862795E+02  0.18188944657E+02  0.00000000000E+00 0.  1.
         12    1    4    4    0    0  0.15386677397E+03 -0.10718487824E+03 -0.28534523093E+03  0.34144616424E+03  0.00000000000E+00 0. -1.
         13    1    5    5    0    0 -0.18171135214E+02  0.59998893326E+01 -0.67232527966E+01  0.20282774838E+02  0.00000000000E+00 0. -1.
        -14    1    5    5    0    0 -0.99035058595E+01  0.10207446150E+02 -0.22702415908E+03  0.22746920713E+03  0.00000000000E+00 0.  1.
          5    1    3    3  501    0 -0.73083823771E+02  0.44066436541E+02 -0.15406050569E+03  0.17616812408E+03  0.41800000000E+01 0.  1.
         -5    1    3    3    0  501 -0.45237591597E+02  0.42458034701E+02 -0.55984318289E+03  0.56328588322E+03  0.41800000000E+01 0.  1.
</event>
<event>
11    1  0.1704459E-009  0.1625461E+03  0.7561462E-02  0.1084707E+00
         22   -1    0    0    0    0  0.00000000000E+00  0.00000000000E+00  0.15424725607E+03  0.15424725607E+03  0.00000000000E+00 0.  1.
         22   -1    0    0    0    0 -0.00000000000E+00 -0.00000000000E+00 -0.36831783972E+03  0.36831783972E+03  0.00000000000E+00 0.  1.
         25    2    1    2    0    0 -0.11896014286E+02 -0.41672248086E+02 -0.20028839981E+03  0.24008384402E+03  0.12508684042E+03 0.  0.
         24    2    1    2    0    0  0.32031639417E+02 -0.74987428980E+02 -0.64760128681E+02  0.13184300611E+03  0.80867568068E+02 0.  0.
        -24    2    1    2    0    0 -0.20135625131E+02  0.11665967707E+03  0.50977944844E+02  0.15063824566E+03  0.77962853603E+02 0.  0.
        -13    1    4    4    0    0  0.19076246785E+02 -0.78462443949E+02 -0.78517516569E+02  0.11262885381E+03  0.00000000000E+00 0.  1.
         14    1    4    4    0    0  0.12955392632E+02  0.34750149689E+01  0.13757387888E+02  0.19214152305E+02  0.00000000000E+00 0. -1.
         11    1    5    5    0    0  0.17273482179E+02 -0.18167531374E+01  0.84837658983E+01  0.19329978334E+02  0.00000000000E+00 0. -1.
        -12    1    5    5    0    0 -0.37409107310E+02  0.11847643020E+03  0.42494178945E+02  0.13130826732E+03  0.00000000000E+00 0.  1.
          5    1    3    3  501    0 -0.37806450269E+02 -0.70272538490E+02 -0.77540244049E+02  0.11134414756E+03  0.41800000000E+01 0. -1.
         -5    1    3    3    0  501  0.25910435984E+02  0.28600290404E+02 -0.12274815576E+03  0.12873969647E+03  0.41800000000E+01 0. -1.
</event>
<event>
11    1  0.1704459E-009  0.2008164E+03  0.7561462E-02  0.1053948E+00
         22   -1    0    0    0    0  0.00000000000E+00  0.00000000000E+00  0.21415172636E+03  0.21415172636E+03  0.00000000000E+00 0. -1.
         22   -1    0    0    0    0 -0.00000000000E+00 -0.00000000000E+00 -0.26517934044E+04  0.26517934044E+04  0.00000000000E+00 0. -1.
         25    2    1    2    0    0  0.63484544509E+02  0.24984964015E+02 -0.17766452291E+04  0.17823492134E+04  0.12508362324E+03 0.  0.
         24    2    1    2    0    0  0.98725424909E+02  0.69907060773E+02 -0.81500208037E+03  0.82764744799E+03  0.78346668619E+02 0.  0.
        -24    2    1    2    0    0 -0.16220996942E+03 -0.94892024787E+02  0.15400563141E+03  0.25594846933E+03  0.80469335144E+02 0.  0.
        -11    1    4    4    0    0  0.80382374866E+02  0.16418486976E+02 -0.36501613307E+03  0.37412253381E+03  0.00000000000E+00 0.  1.
         12    1    4    4    0    0  0.18343050044E+02  0.53488573797E+02 -0.44998594730E+03  0.45352491418E+03  0.00000000000E+00 0. -1.
         13    1    5    5    0    0 -0.94491115476E+02 -0.87966448437E+02  0.13143250791E+03  0.18423129780E+03  0.00000000000E+00 0. -1.
        -14    1    5    5    0    0 -0.67718853943E+02 -0.69255763504E+01  0.22573123500E+02  0.71717171526E+02  0.00000000000E+00 0.  1.
          5    1    3    3  501    0  0.10119655379E+03  0.13769718681E+02 -0.13562077753E+04  0.13600541717E+04  0.41800000000E+01 0.  1.
         -5    1    3    3    0  501 -0.37712009277E+02  0.11215245334E+02 -0.42043745378E+03  0.42229504178E+03  0.41800000000E+01 0.  1.
</event>
<event>
11    1  0.1704459E-009  0.3633513E+03  0.7561462E-02  0.9764544E-01
         22   -1    0    0    0    0  0.00000000000E+00  0.00000000000E+00  0.67549109115E+03  0.67549109115E+03  0.00000000000E+00 0.  1.
         22   -1    0    0    0    0 -0.00000000000E+00 -0.00000000000E+00 -0.53030585623E+03  0.53030585623E+03  0.00000000000E+00 0.  1.
         25    2    1    2    0    0 -0.14034109638E+03 -0.20898057294E+03 -0.10494266864E+03  0.30004872411E+03  0.12509104661E+03 0.  0.
        -24    2    1    2    0    0 -0.22439975653E+03  0.28549840277E+03 -0.10257246865E+03  0.38589220446E+03  0.80790429018E+02 0.  0.
         24    2    1    2    0    0  0.36474085291E+03 -0.76517829834E+02  0.35270037221E+03  0.51985601880E+03  0.83437759232E+02 0.  0.
        -11    1    5    5    0    0  0.90088745496E+02 -0.42901998687E+02  0.57135608272E+02  0.11498278693E+03  0.00000000000E+00 0.  1.
         12    1    5    5    0    0  0.27465210741E+03 -0.33615831147E+02  0.29556476394E+03  0.40487323188E+03  0.00000000000E+00 0. -1.
         11    1    4    4    0    0 -0.11958857393E+03  0.20882074779E+03 -0.83051926042E+02  0.25456856471E+03  0.00000000000E+00 0. -1.
        -12    1    4    4    0    0 -0.10481118261E+03  0.76677654987E+02 -0.19520542609E+02  0.13132363975E+03  0.00000000000E+00 0.  1.
          5    1    3    3  501    0 -0.20467156677E+02 -0.12158482308E+03 -0.97869535953E+01  0.12375391132E+03  0.41800000000E+01 0. -1.
         -5    1    3    3    0  501 -0.11987393970E+03 -0.87395749858E+02 -0.95155715045E+02  0.17629481279E+03  0.41800000000E+01 0. -1.
</event>
<event>
11    1  0.1704459E-009  0.1601885E+03  0.7561462E-02  0.1086900E+00
         22   -1    0    0    0    0  0.00000000000E+00  0.00000000000E+00  0.32863137829E+03  0.32863137829E+03  0.00000000000E+00 0. -1.
         22   -1    0    0    0    0 -0.00000000000E+00 -0.00000000000E+00 -0.68633237298E+03  0.68633237298E+03  0.00000000000E+00 0. -1.
         25    2    1    2    0    0  0.49555475897E+02  0.50702244332E+02 -0.47671846531E+03  0.49793016686E+03  0.12508994017E+03 0.  0.
         24    2    1    2    0    0 -0.86173880301E+02  0.44619220344E+02 -0.16313860730E+03  0.20631490616E+03  0.80838251110E+02 0.  0.
        -24    2    1    2    0    0  0.36618404405E+02 -0.95321464676E+02  0.28215607791E+03  0.31071867825E+03  0.80665702364E+02 0.  0.
        -13    1    4    4    0    0  0.13474812562E+02 -0.45681330210E+01 -0.11379631353E+02  0.18219067556E+02  0.00000000000E+00 0.  1.
         14    1    4    4    0    0 -0.99648692863E+02  0.49187353365E+02 -0.15175897595E+03  0.18809583861E+03  0.00000000000E+00 0. -1.
         13    1    5    5    0    0  0.48064023530E+02 -0.10188000103E+03  0.27086183174E+03  0.29335271749E+03  0.00000000000E+00 0. -1.
        -14    1    5    5    0    0 -0.11445619125E+02  0.65585363509E+01  0.11294246174E+02  0.17365960753E+02  0.00000000000E+00 0.  1.
          5    1    3    3  501    0  0.14723364287E+02 -0.27276126684E+02 -0.29985263320E+03  0.30147941651E+03  0.41800000000E+01 0.  1.
         -5    1    3    3    0  501  0.34832111609E+02  0.77978371016E+02 -0.17686583211E+03  0.19645075035E+03  0.41800000000E+01 0.  1.
</event>
<event>
11    1  0.1704459E-009  0.1333681E+03  0.7561462E-02  0.1115199E+00
         22   -1    0    0    0    0  0.00000000000E+00  0.00000000000E+00  0.19614979326E+03  0.19614979326E+03  0.00000000000E+00 0. -1.
         22   -1    0    0    0    0 -0.00000000000E+00 -0.00000000000E+00 -0.30589018054E+03  0.30589018054E+03  0.00000000000E+00 0. -1.
         25    2    1    2    0    0  0.42094408030E+01  0.36377070549E+02 -0.18119608496E+03  0.22320371020E+03  0.12508742698E+03 0.  0.
        -24    2    1    2    0    0  0.59016726707E+01 -0.58938488078E+02 -0.64669583718E+02  0.11854374244E+03  0.79761448690E+02 0.  0.
         24    2    1    2    0    0 -0.10111113474E+02  0.22561417529E+02  0.13612528140E+03  0.16029252116E+03  0.80946574520E+02 0.  0.
        -11    1    5    5    0    0  0.42324191000E+00 -0.18452171606E+02  0.77535208609E+00  0.18473303482E+02  0.00000000000E+00 0.  1.
         12    1    5    5    0    0 -0.10534355384E+02  0.41013589135E+02  0.13534992932E+03  0.14181921768E+03  0.00000000000E+00 0. -1.
         11    1    4    4    0    0 -0.61306470669E+01 -0.45311796371E+02 -0.81705764337E+02  0.93629993323E+02  0.00000000000E+00 0. -1.
        -12    1    4    4    0    0  0.12032319738E+02 -0.13626691707E+02  0.17036180619E+02  0.24913749120E+02  0.00000000000E+00 0.  1.
          5    1    3    3  501    0  0.35730904815E+02 -0.35092969188E+02 -0.89768967314E+02  0.10287931735E+03  0.41800000000E+01 0.  1.
         -5    1    3    3    0  501 -0.31521464012E+02  0.71470039738E+02 -0.91427117644E+02  0.12032439285E+03  0.41800000000E+01 0.  1.
</event>
<event>
11    1  0.1704459E-009  0.3068633E+03  0.7561462E-02  0.9973277E-01
         22   -1    0    0    0    0  0.00000000000E+00  0.00000000000E+00  0.10946114190E+04  0.10946114190E+04  0.00000000000E+00 0. -1.
         22   -1    0    0    0    0 -0.00000000000E+00 -0.00000000000E+00 -0.11346792193E+03  0.11346792193E+03  0.00000000000E+00 0. -1.
         25    2    1    2    0    0  0.22858106040E+03 -0.10262121750E+03  0.45187241401E+03  0.53161728529E+03  0.12509134273E+03 0.  0.
        -24    2    1    2    0    0 -0.29037763565E+03  0.98444868484E+02  0.36953895432E+03  0.48711949778E+03  0.81950002649E+02 0.  0.
         24    2    1    2    0    0  0.61796575252E+02  0.41763490161E+01  0.15973212876E+03  0.18934255789E+03  0.80622532002E+02 0.  0.
        -11    1    5    5    0    0  0.13110159503E+00  0.33262339591E+02  0.58393986986E+02  0.67203111080E+02  0.00000000000E+00 0.  1.
         12    1    5    5    0    0  0.61665473657E+02 -0.29085990575E+02  0.10133814178E+03  0.12213944681E+03  0.00000000000E+00 0. -1.
         13    1    4    4    0    0 -0.22222503437E+03  0.74807792074E+02  0.33011241841E+03  0.40491280597E+03  0.00000000000E+00 0. -1.
        -14    1    4    4    0    0 -0.68152601281E+02  0.23637076411E+02  0.39426535916E+02  0.82206691802E+02  0.00000000000E+00 0.  1.
          5    1    3    3  501    0  0.19971940924E+03 -0.12749644654E+03  0.41780706606E+03  0.48033676015E+03  0.41800000000E+01 0. -1.
         -5    1    3    3    0  501  0.28861651162E+02  0.24875229042E+02  0.34065347952E+02  0.51280525141E+02  0.41800000000E+01 0. -1.
</event>
<event>
11    1  0.1704459E-009  0.1477182E+04  0.7561462E-02  0.8323399E-01
         22   -1    0    0    0    0  0.00000000000E+00  0.00000000000E+00  0.21289136077E+03  0.21289136077E+03  0.00000000000E+00 0. -1.
         22   -1    0    0    0    0 -0.00000000000E+00 -0.00000000000E+00 -0.25624188125E+04  0.25624188125E+04  0.00000000000E+00 0. -1.
         25    2    1    2    0    0 -0.29078326001E+03 -0.47290941428E+03 -0.19306299503E+04  0.20127541504E+04  0.12509614898E+03 0.  0.
        -24    2    1    2    0    0  0.75693928766E+02  0.34927246510E+03 -0.17610422597E+03  0.40641047777E+03  0.80224387246E+02 0.  0.
         24    2    1    2    0    0  0.21508933124E+03  0.12363694918E+03 -0.24279327550E+03  0.35614554517E+03  0.79633906708E+02 0.  0.
        -11    1    5    5    0    0  0.21627399318E+02  0.19172593237E+02 -0.72487474896E+02  0.78036957588E+02  0.00000000000E+00 0.  1.
         12    1    5    5    0    0  0.19346193192E+03  0.10446435594E+03 -0.17030580061E+03  0.27810858758E+03  0.00000000000E+00 0. -1.
         11    1    4    4    0    0  0.49185730319E+02  0.31229104016E+03 -0.17399956921E+03  0.36086116432E+03  0.00000000000E+00 0. -1.
        -12    1    4    4    0    0  0.26508198447E+02  0.36981424943E+02 -0.21046567582E+01  0.45549313450E+02  0.00000000000E+00 0.  1.
          5    1    3    3  501    0 -0.23797361662E+03 -0.40570961460E+03 -0.17613598375E+04  0.18230846616E+04  0.41800000000E+01 0.  1.
         -5    1    3    3    0  501 -0.52809643383E+02 -0.67199799679E+02 -0.16927011278E+03  0.18966948883E+03  0.41800000000E+01 0.  1.
</event>
<event>
11    1  0.1704459E-009  0.5479055E+03  0.7561462E-02  0.9292418E-01
         22   -1    0    0    0    0  0.00000000000E+00  0.00000000000E+00  0.17646291677E+04  0.17646291677E+04  0.00000000000E+00 0. -1.
         22   -1    0    0    0    0 -0.00000000000E+00 -0.00000000000E+00 -0.49262547711E+03  0.49262547711E+03  0.00000000000E+00 0. -1.
         25    2    1    2    0    0  0.14607931678E+02  0.34448492531E+03 -0.17678741870E+03  0.40716651184E+03  0.12509005367E+03 0.  0.
         24    2    1    2    0    0  0.44841517908E+03 -0.45610496713E+03  0.10060787417E+04  0.11948916842E+04  0.80397689970E+02 0.  0.
        -24    2    1    2    0    0 -0.46302311076E+03  0.11162004182E+03  0.44271236762E+03  0.65519644881E+03  0.80241580652E+02 0.  0.
        -11    1    4    4    0    0  0.43991475466E+03 -0.45513240867E+03  0.10025110955E+04  0.11856217767E+04  0.00000000000E+00 0.  1.
         12    1    4    4    0    0  0.85004244161E+01 -0.97255845745E+00  0.35676462002E+01  0.92699074762E+01  0.00000000000E+00 0. -1.
         13    1    5    5    0    0 -0.17951296315E+03  0.79684178960E+01  0.19003647436E+03  0.26153825955E+03  0.00000000000E+00 0. -1.
        -14    1    5    5    0    0 -0.28351014761E+03  0.10365162393E+03  0.25267589325E+03  0.39365818926E+03  0.00000000000E+00 0.  1.
          5    1    3    3  501    0 -0.46071180572E+02  0.59691844392E+02 -0.33710263922E+02  0.82701416311E+02  0.41800000000E+01 0.  1.
         -5    1    3    3    0  501  0.60679112250E+02  0.28479308091E+03 -0.14307715477E+03  0.32446509553E+03  0.41800000000E+01 0.  1.
</event>
<event>
11    1  0.1704459E-009  0.3689119E+03  0.7561462E-02  0.9746218E-01
         22   -1    0    0    0    0  0.00000000000E+00  0.00000000000E+00  0.11416178374E+04  0.11416178374E+04  0.00000000000E+00 0. -1.
         22   -1    0    0    0    0 -0.00000000000E+00 -0.00000000000E+00 -0.33230826256E+03  0.33230826256E+03  0.00000000000E+00 0.  1.
         25    2    1    2    0    0  0.64388039929E+02  0.42085915903E+02 -0.66427164336E+02  0.16117466901E+03  0.12509061422E+03 0.  0.
        -24    2    1    2    0    0  0.11638017449E+03 -0.35177125139E+03  0.18579326151E+02  0.38011624468E+03  0.82799817597E+02 0.  0.
         24    2    1    2    0    0 -0.18076821442E+03  0.30968533548E+03  0.85715741298E+03  0.93263518622E+03  0.80668492013E+02 0.  0.
        -11    1    5    5    0    0 -0.49541406291E+02  0.57218334544E+02  0.26612806945E+03  0.27668111265E+03  0.00000000000E+00 0.  1.
         12    1    5    5    0    0 -0.13122680812E+03  0.25246700094E+03  0.59102934353E+03  0.65595407358E+03  0.00000000000E+00 0. -1.
         11    1    4    4    0    0  0.11721194847E+03 -0.24724588034E+03  0.28576970339E+02  0.27511054040E+03  0.00000000000E+00 0. -1.
        -12    1    4    4    0    0 -0.83177398568E+00 -0.10452537105E+03 -0.99976441879E+01  0.10500570428E+03  0.00000000000E+00 0.  1.
          5    1    3    3  501    0  0.86444975998E+02  0.17588646529E+02 -0.85449598081E+02  0.12288694224E+03  0.41800000000E+01 0. -1.
         -5    1    3    3    0  501 -0.22056936068E+02  0.24497269374E+02  0.19022433745E+02  0.38287726769E+02  0.41800000000E+01 0. -1.
</event>
<event>
11    1  0.1704459E-009  0.1475574E+03  0.7561462E-02  0.1099401E+00
         22   -1    0    0    0    0  0.00000000000E+00  0.00000000000E+00  0.95334926278E+03  0.95334926278E+03  0.00000000000E+00 0. -1.
         22   -1    0    0    0    0 -0.00000000000E+00 -0.00000000000E+00 -0.49981496520E+02  0.49981496520E+02  0.00000000000E+00 0. -1.
         25    2    1    2    0    0 -0.13436605263E+02 -0.77672167265E+02  0.17294844854E+03  0.22753349728E+03  0.12508724396E+03 0.  0.
         24    2    1    2    0    0  0.52862732751E+02  0.63773730486E+02  0.15407078542E+03  0.19234700649E+03  0.79987541373E+02 0.  0.
        -24    2    1    2    0    0 -0.39426127489E+02  0.13898436779E+02  0.57634853230E+03  0.58345025553E+03  0.80554229655E+02 0.  0.
        -11    1    4    4    0    0  0.19465735425E+02 -0.15786446077E+02  0.58188351109E+02  0.63356222584E+02  0.00000000000E+00 0.  1.
         12    1    4    4    0    0  0.33396997326E+02  0.79560176563E+02  0.95882434306E+02  0.12899078391E+03  0.00000000000E+00 0. -1.
         11    1    5    5    0    0  0.24780515078E+02 -0.91852275060E+00  0.14801442848E+03  0.15007727560E+03  0.00000000000E+00 0. -1.
        -12    1    5    5    0    0 -0.64206642567E+02  0.14816959530E+02  0.42833410381E+03  0.43337297993E+03  0.00000000000E+00 0.  1.
          5    1    3    3  501    0 -0.38320203700E+02  0.20499136887E+02  0.73771516696E+02  0.85722585708E+02  0.41800000000E+01 0. -1.
         -5    1    3    3    0  501  0.24883598437E+02 -0.98171304152E+02  0.99176931847E+02  0.14181091157E+03  0.41800000000E+01 0. -1.
</event>
<event>
11    1  0.1704459E-009  0.1308130E+03  0.7561462E-02  0.1118274E+00
         22   -1    0    0    0    0  0.00000000000E+00  0.00000000000E+00  0.45783311197E+02  0.45783311197E+02  0.00000000000E+00 0. -1.
         22   -1    0    0    0    0 -0.00000000000E+00 -0.00000000000E+00 -0.86406894035E+03  0.86406894035E+03  0.00000000000E+00 0. -1.
         25    2    1    2    0    0 -0.27927193782E+02 -0.20346799220E+02 -0.50227215047E+03  0.51876251742E+03  0.12507324234E+03 0.  0.
        -24    2    1    2    0    0  0.44302224729E+02  0.37374129166E+01 -0.28838226530E+03  0.30333690958E+03  0.82899302790E+02 0.  0.
         24    2    1    2    0    0 -0.16375030948E+02  0.16609386303E+02 -0.27631213391E+02  0.87752824554E+02  0.79956618937E+02 0.  0.
        -13    1    5    5    0    0  0.31936101460E+02  0.30500715751E+00 -0.14654622771E+02  0.35139231273E+02  0.00000000000E+00 0.  1.
         14    1    5    5    0    0 -0.48311132408E+02  0.16304379146E+02 -0.12976590619E+02  0.52613593282E+02  0.00000000000E+00 0. -1.
         13    1    4    4    0    0 -0.80660424428E+01  0.29899248778E+02 -0.59372360820E+02  0.66963447847E+02  0.00000000000E+00 0. -1.
        -14    1    4    4    0    0  0.52368267172E+02 -0.26161835861E+02 -0.22900990448E+03  0.23637346173E+03  0.00000000000E+00 0.  1.
          5    1    3    3  501    0 -0.36637283109E+02  0.35808446148E+02 -0.38461007064E+03  0.38802952744E+03  0.41800000000E+01 0. -1.
         -5    1    3    3    0  501  0.87100893270E+01 -0.56155245368E+02 -0.11766207983E+03  0.13073298998E+03  0.41800000000E+01 0. -1.
</event>
<event>
11    1  0.1704459E-009  0.1451093E+03  0.7561462E-02  0.1101984E+00
         22   -1    0    0    0    0  0.00000000000E+00  0.00000000000E+00  0.15173339403E+03  0.15173339403E+03  0.00000000000E+00 0. -1.
         22   -1    0    0    0    0 -0.00000000000E+00 -0.00000000000E+00 -0.24142140919E+03  0.24142140919E+03  0.00000000000E+00 0. -1.
         25    2    1    2    0    0  0.31772084315E+02  0.16922710323E+02 -0.37305851815E+02  0.13540729810E+03  0.12509023276E+03 0.  0.
         24    2    1    2    0    0 -0.86277633273E+02 -0.72777020468E+02 -0.44123456671E+02  0.14524209258E+03  0.80050367376E+02 0.  0.
        -24    2    1    2    0    0  0.54505548958E+02  0.55854310145E+02 -0.82587066786E+01  0.11250541254E+03  0.80614532101E+02 0.  0.
        -11    1    4    4    0    0 -0.86134118829E+01  0.10592049815E+02 -0.26687238069E+02  0.29976508457E+02  0.00000000000E+00 0.  1.
         12    1    4    4    0    0 -0.77664221390E+02 -0.83369070283E+02 -0.17436218602E+02  0.11526558412E+03  0.00000000000E+00 0. -1.
         11    1    5    5    0    0  0.58729497233E+02  0.22186630102E+02 -0.32605610523E+02  0.70742676216E+02  0.00000000000E+00 0. -1.
        -12    1    5    5    0    0 -0.42239482754E+01  0.33667680043E+02  0.24346903845E+02  0.41762736324E+02  0.00000000000E+00 0.  1.
          5    1    3    3  501    0 -0.22847813766E+01  0.48522004873E+02 -0.64928486253E+02  0.81195972252E+02  0.41800000000E+01 0.  1.
         -5    1    3    3    0  501  0.34056865691E+02 -0.31599294549E+02  0.27622634438E+02  0.54211325846E+02  0.41800000000E+01 0.  1.
</event>
<event>
11    1  0.1704459E-009  0.5724738E+03  0.7561462E-02  0.9244728E-01
         22   -1    0    0    0    0  0.00000000000E+00  0.00000000000E+00  0.82019530038E+03  0.82019530038E+03  0.00000000000E+00 0.  1.
         22   -1    0    0    0    0 -0.00000000000E+00 -0.00000000000E+00 -0.80895829242E+03  0.80895829242E+03  0.00000000000E+00 0.  1.
         25    2    1    2    0    0 -0.53598539394E+03 -0.22843043667E+03 -0.25211991097E+03  0.64704990813E+03  0.12509327394E+03 0.  0.
         24    2    1    2    0    0  0.51069744703E+03  0.15903930095E+03 -0.14460478776E+03  0.55949811712E+03  0.77602943069E+02 0.  0.
        -24    2    1    2    0    0  0.25287946918E+02  0.69391135716E+02  0.40796170668E+03  0.42260556755E+03  0.81903001344E+02 0.  0.
        -13    1    4    4    0    0  0.47075639564E+03  0.16697454129E+03 -0.12892625601E+03  0.51586244384E+03  0.00000000000E+00 0.  1.
         14    1    4    4    0    0  0.39941051385E+02 -0.79352403363E+01 -0.15678531748E+02  0.43635673282E+02  0.00000000000E+00 0. -1.
         13    1    5    5    0    0 -0.17324610007E+01 -0.14222966729E+02  0.18749887337E+02  0.23597721900E+02  0.00000000000E+00 0. -1.
        -14    1    5    5    0    0  0.27020407919E+02  0.83614102445E+02  0.38921181935E+03  0.39900784565E+03  0.00000000000E+00 0.  1.
          5    1    3    3  501    0 -0.36349947878E+03 -0.21115339307E+03 -0.20289279293E+03  0.46679822654E+03  0.41800000000E+01 0. -1.
         -5    1    3    3    0  501 -0.17248591516E+03 -0.17277043602E+02 -0.49227118036E+02  0.18025168159E+03  0.41800000000E+01 0. -1.
</event>
<event>
11    1  0.1704459E-009  0.1708236E+04  0.7561462E-02  0.8198384E-01
         22   -1    0    0    0    0  0.00000000000E+00  0.00000000000E+00  0.66610542627E+03  0.66610542627E+03  0.00000000000E+00 0.  1.
         22   -1    0    0    0    0 -0.00000000000E+00 -0.00000000000E+00 -0.10951977509E+04  0.10951977509E+04  0.00000000000E+00 0.  1.
         25    2    1    2    0    0 -0.29596958526E+03 -0.11219997995E+03 -0.10158410817E+04  0.10713397192E+04  0.12509540285E+03 0.  0.
         24    2    1    2    0    0  0.21667955195E+03  0.75742578789E+02  0.41704364568E+03  0.48280818548E+03  0.80569070292E+02 0.  0.
        -24    2    1    2    0    0  0.79290033307E+02  0.36457401162E+02  0.16970511139E+03  0.20715527247E+03  0.80606641151E+02 0.  0.
        -11    1    4    4    0    0  0.20580469440E+03  0.52953612976E+02  0.39800359118E+03  0.45118346153E+03  0.00000000000E+00 0.  1.
         12    1    4    4    0    0  0.10874857559E+02  0.22788965813E+02  0.19040054497E+02  0.31624723951E+02  0.00000000000E+00 0. -1.
         13    1    5    5    0    0  0.29926654934E+02 -0.21940478823E+02  0.86645634951E+02  0.94257388796E+02  0.00000000000E+00 0. -1.
        -14    1    5    5    0    0  0.49363378373E+02  0.58397879986E+02  0.83059476444E+02  0.11289788368E+03  0.00000000000E+00 0.  1.
          5    1    3    3  501    0 -0.22667678999E+03 -0.34449563369E+02 -0.59179652162E+03  0.63467293541E+03  0.41800000000E+01 0. -1.
         -5    1    3    3    0  501 -0.69292795273E+02 -0.77750416583E+02 -0.42404456006E+03  0.43666678380E+03  0.41800000000E+01 0. -1.
</event>
<event>
11    1  0.1704459E-009  0.1636386E+03  0.7561462E-02  0.1083704E+00
         22   -1    0    0    0    0  0.00000000000E+00  0.00000000000E+00  0.28229960853E+03  0.28229960853E+03  0.00000000000E+00 0.  1.
         22   -1    0    0    0    0 -0.00000000000E+00 -0.00000000000E+00 -0.22638661464E+03  0.22638661464E+03  0.00000000000E+00 0. -1.
         25    2    1    2    0    0  0.98348470529E+02 -0.32620959234E+02 -0.10839139002E+03  0.19527667222E+03  0.12509091352E+03 0.  0.
        -24    2    1    2    0    0 -0.12408242333E+03 -0.38831179727E+02  0.10511264690E+03  0.18784859668E+03  0.85639467751E+02 0.  0.
         24    2    1    2    0    0  0.25733952803E+02  0.71452138961E+02  0.59191737004E+02  0.12556095427E+03  0.80586891113E+02 0.  0.
        -11    1    5    5    0    0 -0.74667414841E+01  0.75903801900E+02  0.48558084012E+02  0.90415855325E+02  0.00000000000E+00 0.  1.
         12    1    5    5    0    0  0.33200694287E+02 -0.44516629387E+01  0.10633652992E+02  0.35145098947E+02  0.00000000000E+00 0. -1.
         13    1    4    4    0    0 -0.10066303529E+03 -0.21015277545E+02  0.29911300035E+02  0.10709516531E+03  0.00000000000E+00 0. -1.
        -14    1    4    4    0    0 -0.23419388042E+02 -0.17815902182E+02  0.75201346862E+02  0.80753431361E+02  0.00000000000E+00 0.  1.
          5    1    3    3  501    0  0.65251852698E+02 -0.12133664566E+02  0.12972172662E+02  0.67755293225E+02  0.41800000000E+01 0.  1.
         -5    1    3    3    0  501  0.33096617831E+02 -0.20487294668E+02 -0.12136356268E+03  0.12752137899E+03  0.41800000000E+01 0.  1.
</event>
<event>
11    1  0.1704459E-009  0.1483005E+04  0.7561462E-02  0.8319964E-01
         22   -1    0    0    0    0  0.00000000000E+00  0.00000000000E+00  0.95093873097E+03  0.95093873097E+03  0.00000000000E+00 0. -1.
         22   -1    0    0    0    0 -0.00000000000E+00 -0.00000000000E+00 -0.27328875678E+04  0.27328875678E+04  0.00000000000E+00 0. -1.
         25    2    1    2    0    0 -0.12786840594E+04 -0.72500991167E+03 -0.11275212566E+04  0.18567780563E+04  0.12509304604E+03 0.  0.
         24    2    1    2    0    0  0.12999392683E+04  0.72274450807E+03 -0.78659354338E+03  0.16844266239E+04  0.79761668931E+02 0.  0.
        -24    2    1    2    0    0 -0.21255208853E+02  0.22654035971E+01  0.13216596316E+03  0.14262161859E+03  0.49154535027E+02 0.  0.
        -11    1    4    4    0    0  0.16066595270E+03  0.11874738570E+03 -0.95756659284E+02  0.22154870292E+03  0.00000000000E+00 0.  1.
         12    1    4    4    0    0  0.11392733156E+04  0.60399712238E+03 -0.69083688409E+03  0.14628779210E+04  0.00000000000E+00 0. -1.
         11    1    5    5    0    0  0.15280008562E+02 -0.33151141889E+00  0.56895714948E+02  0.58912740056E+02  0.00000000000E+00 0. -1.
        -12    1    5    5    0    0 -0.36535217415E+02  0.25969150160E+01  0.75270248216E+02  0.83708878535E+02  0.00000000000E+00 0.  1.
          5    1    3    3  501    0 -0.10691412562E+04 -0.58566770563E+03 -0.87757236618E+03  0.15020720413E+04  0.41800000000E+01 0.  1.
         -5    1    3    3    0  501 -0.20954280324E+03 -0.13934220604E+03 -0.24994889047E+03  0.35470601492E+03  0.41800000000E+01 0. -1.
</event>
<event>
11    1  0.1704459E-009  0.1575096E+03  0.7561462E-02  0.1089443E+00
         22   -1    0    0    0    0  0.00000000000E+00  0.00000000000E+00  0.11534455090E+03  0.11534455090E+03  0.00000000000E+00 0. -1.
         22   -1    0    0    0    0 -0.00000000000E+00 -0.00000000000E+00 -0.39863311201E+03  0.39863311201E+03  0.00000000000E+00 0.  1.
         25    2    1    2    0    0  0.81067933112E+02  0.46836560435E+02 -0.18774887628E+03  0.24426085455E+03  0.12509217140E+03 0.  0.
        -24    2    1    2    0    0  0.19233391524E+02 -0.74946797203E+02 -0.77776365243E+02  0.13642987423E+03  0.81098716578E+02 0.  0.
         24    2    1    2    0    0 -0.10030132464E+03  0.28110236768E+02 -0.17763319588E+02  0.13328693414E+03  0.81236261325E+02 0.  0.
        -13    1    5    5    0    0 -0.64580215685E+02  0.56184945053E+02 -0.19604871392E+02  0.87816304242E+02  0.00000000000E+00 0.  1.
         14    1    5    5    0    0 -0.35721108952E+02 -0.28074708285E+02  0.18415518038E+01  0.45470629895E+02  0.00000000000E+00 0. -1.
         11    1    4    4    0    0 -0.62499900802E+01 -0.48551451869E+02  0.16064917713E+01  0.48978430665E+02  0.00000000000E+00 0. -1.
        -12    1    4    4    0    0  0.25483381604E+02 -0.26395345334E+02 -0.79382857014E+02  0.87451443562E+02  0.00000000000E+00 0.  1.
          5    1    3    3  501    0  0.26249689956E+02  0.83232619676E+02 -0.83148658979E+02  0.12061462221E+03  0.41800000000E+01 0. -1.
         -5    1    3    3    0  501  0.54818243156E+02 -0.36396059241E+02 -0.10460021730E+03  0.12364623234E+03  0.41800000000E+01 0. -1.
</event>
<event>
11    1  0.1704459E-009  0.1510848E+03  0.7561462E-02  0.1095775E+00
         22   -1    0    0    0    0  0.00000000000E+00  0.00000000000E+00  0.18982981940E+04  0.18982981940E+04  0.00000000000E+00 0.  1.
         22   -1    0    0    0    0 -0.00000000000E+00 -0.00000000000E+00 -0.19874618320E+03  0.19874618320E+03  0.00000000000E+00 0. -1.
         25    2    1    2    0    0  0.48545718096E+02 -0.49262055847E+02 -0.10903840486E+03  0.17978136690E+03  0.12509408163E+03 0.  0.
        -24    2    1    2    0    0  0.31656567001E+02  0.21074506592E+02 -0.18543078773E+02  0.86438566027E+02  0.75375771068E+02 0.  0.
         24    2    1    2    0    0 -0.80202285097E+02  0.28187549255E+02  0.18271334945E+04  0.18308244443E+04  0.79211077471E+02 0.  0.
        -13    1    5    5    0    0 -0.95200534616E+02  0.15997085702E+02  0.15705772776E+04  0.15735412398E+04  0.00000000000E+00 0.  1.
         14    1    5    5    0    0  0.14998249519E+02  0.12190463553E+02  0.25655621686E+03  0.25728320446E+03  0.00000000000E+00 0. -1.
         11    1    4    4    0    0  0.18081189319E+02  0.11672130880E+02 -0.48036299715E+02  0.52637003493E+02  0.00000000000E+00 0. -1.
        -12    1    4    4    0    0  0.13575377682E+02  0.94023757126E+01  0.29493220942E+02  0.33801562534E+02  0.00000000000E+00 0.  1.
          5    1    3    3  501    0  0.64991356601E+02 -0.22835802790E+02 -0.28780465301E+01  0.69073192149E+02  0.41800000000E+01 0.  1.
         -5    1    3    3    0  501 -0.16445638504E+02 -0.26426253058E+02 -0.10616035833E+03  0.11070817475E+03  0.41800000000E+01 0.  1.
</event>
<event>
11    1  0.1704459E-009  0.3314414E+03  0.7561462E-02  0.9876979E-01
         22   -1    0    0    0    0  0.00000000000E+00  0.00000000000E+00  0.55984819139E+03  0.55984819139E+03  0.00000000000E+00 0.  1.
         22   -1    0    0    0    0 -0.00000000000E+00 -0.00000000000E+00 -0.45931564916E+03  0.45931564916E+03  0.00000000000E+00 0. -1.
         25    2    1    2    0    0  0.47574082768E+02 -0.15682345020E+03 -0.15890039860E+03  0.26029841886E+03  0.12509613224E+03 0.  0.
        -24    2    1    2    0    0 -0.16175863490E+03 -0.19050745268E+03 -0.65150790705E+02  0.26323839310E+03  0.50900693318E+02 0.  0.
         24    2    1    2    0    0  0.11418455213E+03  0.34733090288E+03  0.32458373153E+03  0.49562702860E+03  0.81330711679E+02 0.  0.
        -13    1    5    5    0    0  0.89860677409E+02  0.26541403880E+03  0.19883331668E+03  0.34359022273E+03  0.00000000000E+00 0.  1.
         14    1    5    5    0    0  0.24323874720E+02  0.81916864083E+02  0.12575041485E+03  0.15203680587E+03  0.00000000000E+00 0. -1.
         11    1    4    4    0    0 -0.12443058463E+02 -0.37753442667E+02 -0.21578806677E+02  0.45230487889E+02  0.00000000000E+00 0. -1.
        -12    1    4    4    0    0 -0.14931557643E+03 -0.15275401002E+03 -0.43571984029E+02  0.21800790521E+03  0.00000000000E+00 0.  1.
          5    1    3    3  501    0  0.41295511957E+02 -0.17847706578E+03 -0.14129213490E+03  0.23138781753E+03  0.41800000000E+01 0. -1.
         -5    1    3    3    0  501  0.62785708108E+01  0.21653615574E+02 -0.17608263698E+02  0.28910601331E+02  0.41800000000E+01 0. -1.
</event>
<event>
11    1  0.1704459E-009  0.3034874E+03  0.7561462E-02  0.9987260E-01
         22   -1    0    0    0    0  0.00000000000E+00  0.00000000000E+00  0.18191449534E+04  0.18191449534E+04  0.00000000000E+00 0. -1.
         22   -1    0    0    0    0 -0.00000000000E+00 -0.00000000000E+00 -0.75964955558E+03  0.75964955558E+03  0.00000000000E+00 0. -1.
         25    2    1    2    0    0  0.26285905959E+03 -0.86874334208E+02 -0.69290741990E+03  0.75657806419E+03  0.12509052523E+03 0.  0.
        -24    2    1    2    0    0 -0.63124312899E+02 -0.14367168905E+03  0.49202738228E+03  0.52280919504E+03  0.81315904952E+02 0.  0.
         24    2    1    2    0    0 -0.19973474669E+03  0.23054602326E+03  0.12603754354E+04  0.12994072497E+04  0.82870528785E+02 0.  0.
        -13    1    5    5    0    0  0.40802062022E+01 -0.32538230018E+01  0.34989629618E+02  0.35376681976E+02  0.00000000000E+00 0.  1.
         14    1    5    5    0    0 -0.20381495290E+03  0.23379984626E+03  0.12253858058E+04  0.12640305678E+04  0.00000000000E+00 0. -1.
         13    1    4    4    0    0 -0.37052112588E+01 -0.10344157294E+03  0.25663955027E+03  0.27672684431E+03  0.00000000000E+00 0. -1.
        -14    1    4    4    0    0 -0.59419101640E+02 -0.40230116108E+02  0.23538783201E+03  0.24608235073E+03  0.00000000000E+00 0.  1.
          5    1    3    3  501    0  0.19205599480E+02  0.28135968535E+02 -0.79648488342E+02  0.86728552807E+02  0.41800000000E+01 0.  1.
         -5    1    3    3    0  501  0.24365346011E+03 -0.11501030274E+03 -0.61325893156E+03  0.66984951138E+03  0.41800000000E+01 0.  1.
</event>
<event>
11    1  0.1704459E-009  0.2754747E+03  0.7561462E-02  0.1011141E+00
         22   -1    0    0    0    0  0.00000000000E+00  0.00000000000E+00  0.52586610136E+03  0.52586610136E+03  0.00000000000E+00 0.  1.
         22   -1    0    0    0    0 -0.00000000000E+00 -0.00000000000E+00 -0.30382890121E+03  0.30382890121E+03  0.00000000000E+00 0.  1.
         25    2    1    2    0    0 -0.36050594638E+02  0.62432230348E+02 -0.27593286536E+02  0.14699004042E+03  0.12508898337E+03 0.  0.
        -24    2    1    2    0    0 -0.23534191498E+03 -0.60936357877E+02 -0.59779744053E+02  0.26279669923E+03  0.79933914386E+02 0.  0.
         24    2    1    2    0    0  0.27139250962E+03 -0.14958724708E+01  0.30941023074E+03  0.41990826292E+03  0.83259392684E+02 0.  0.
        -13    1    5    5    0    0  0.19059735120E+03  0.90957878420E+01  0.26663058846E+03  0.32787490655E+03  0.00000000000E+00 0.  1.
         14    1    5    5    0    0  0.80795158413E+02 -0.10591660313E+02  0.42779642285E+02  0.92033356372E+02  0.00000000000E+00 0. -1.
         13    1    4    4    0    0 -0.34337870859E+02  0.17171419188E+02  0.20942895300E+01  0.38449097008E+02  0.00000000000E+00 0. -1.
        -14    1    4    4    0    0 -0.20100404412E+03 -0.78107777064E+02 -0.61874033583E+02  0.22434760222E+03  0.00000000000E+00 0.  1.
          5    1    3    3  501    0 -0.71282906445E+02 -0.12912507545E+01 -0.15023205397E+02  0.72980060155E+02  0.41800000000E+01 0.  1.
         -5    1    3    3    0  501  0.35232311807E+02  0.63723481102E+02 -0.12570081139E+02  0.74009980266E+02  0.41800000000E+01 0.  1.
</event>
<event>
11    1  0.1704459E-009  0.1357136E+03  0.7561462E-02  0.1112442E+00
         22   -1    0    0    0    0  0.00000000000E+00  0.00000000000E+00  0.32744928087E+02  0.32744928087E+02  0.00000000000E+00 0. -1.
         22   -1    0    0    0    0 -0.00000000000E+00 -0.00000000000E+00 -0.18622748202E+04  0.18622748202E+04  0.00000000000E+00 0.  1.
         25    2    1    2    0    0  0.47084460476E+02  0.10502136872E+02 -0.11451055604E+04  0.11529273331E+04  0.12508976632E+03 0.  0.
         24    2    1    2    0    0 -0.52046240462E+02 -0.24956600229E+02 -0.64344321984E+03  0.65127544073E+03  0.82515934793E+02 0.  0.
        -24    2    1    2    0    0  0.49617799863E+01  0.14454463356E+02 -0.40981111777E+02  0.90816974370E+02  0.79590957650E+02 0.  0.
        -11    1    4    4    0    0  0.11326004860E+02  0.13705471442E+02 -0.26646824743E+03  0.26706075193E+03  0.00000000000E+00 0.  1.
         12    1    4    4    0    0 -0.63372245322E+02 -0.38662071671E+02 -0.37697497242E+03  0.38421468880E+03  0.00000000000E+00 0. -1.
         11    1    5    5    0    0  0.16237941252E+02  0.21371349209E+02  0.16717795283E+02  0.31621037020E+02  0.00000000000E+00 0. -1.
        -12    1    5    5    0    0 -0.11276161266E+02 -0.69168858525E+01 -0.57698907060E+02  0.59195937350E+02  0.00000000000E+00 0.  1.
          5    1    3    3  501    0 -0.25736850011E+02  0.14607291023E+02 -0.78063619279E+03  0.78120810050E+03  0.41800000000E+01 0. -1.
         -5    1    3    3    0  501  0.72821310486E+02 -0.41051541506E+01 -0.36446936766E+03  0.37171923264E+03  0.41800000000E+01 0. -1.
</event>
<event>
11    1  0.1704459E-009  0.8267621E+03  0.7561462E-02  0.8863875E-01
         22   -1    0    0    0    0  0.00000000000E+00  0.00000000000E+00  0.14172722095E+04  0.14172722095E+04  0.00000000000E+00 0. -1.
         22   -1    0    0    0    0 -0.00000000000E+00 -0.00000000000E+00 -0.17447080235E+04  0.17447080235E+04  0.00000000000E+00 0. -1.
         25    2    1    2    0    0  0.78368557605E+03  0.21883280479E+03 -0.14457937167E+04  0.16637361209E+04  0.12509008914E+03 0.  0.
        -24    2    1    2    0    0 -0.80820916866E+03 -0.26747493764E+03  0.83066450946E+03  0.11922127277E+04  0.81380330325E+02 0.  0.
         24    2    1    2    0    0  0.24523592612E+02  0.48642132856E+02  0.28769339322E+03  0.30603138444E+03  0.88995820547E+02 0.  0.
        -11    1    5    5    0    0 -0.31564828474E+02  0.10213777483E+02  0.61985640008E+02  0.70305612964E+02  0.00000000000E+00 0.  1.
         12    1    5    5    0    0  0.56088421086E+02  0.38428355372E+02  0.22570775321E+03  0.23572577147E+03  0.00000000000E+00 0. -1.
         13    1    4    4    0    0 -0.70933425336E+03 -0.22653327447E+03  0.68751952360E+03  0.10134868044E+04  0.00000000000E+00 0. -1.
        -14    1    4    4    0    0 -0.98874915306E+02 -0.40941663176E+02  0.14314498586E+03  0.17872592324E+03  0.00000000000E+00 0.  1.
          5    1    3    3  501    0  0.33723826055E+03  0.14384377922E+03 -0.72754869488E+03  0.81471789781E+03  0.41800000000E+01 0. -1.
         -5    1    3    3    0  501  0.44644731550E+03  0.74989025573E+02 -0.71824502180E+03  0.84901822313E+03  0.41800000000E+01 0. -1.
</event>
<event>
11    1  0.1704459E-009  0.1996174E+03  0.7561462E-02  0.1054795E+00
         22   -1    0    0    0    0  0.00000000000E+00  0.00000000000E+00  0.10270210322E+04  0.10270210322E+04  0.00000000000E+00 0. -1.
         22   -1    0    0    0    0 -0.00000000000E+00 -0.00000000000E+00 -0.44774008327E+03  0.44774008327E+03  0.00000000000E+00 0. -1.
         25    2    1    2    0    0  0.41235624750E+02  0.94956392323E+02 -0.38511156404E+03  0.41794186430E+03  0.12508953587E+03 0.  0.
         24    2    1    2    0    0 -0.14758519723E+03  0.67663167893E+02  0.24486119833E+03  0.30732761334E+03  0.90186255858E+02 0.  0.
        -24    2    1    2    0    0  0.10634957248E+03 -0.16261956022E+03  0.71953131467E+03  0.74949163785E+03  0.79101513864E+02 0.  0.
        -13    1    4    4    0    0 -0.14158989389E+03  0.86199197770E+02  0.22539695178E+03  0.27978882325E+03  0.00000000000E+00 0.  1.
         14    1    4    4    0    0 -0.59953033405E+01 -0.18536029877E+02  0.19464246553E+02  0.27538790090E+02  0.00000000000E+00 0. -1.
         13    1    5    5    0    0  0.57756647555E+02 -0.14273102086E+03  0.58907531251E+03  0.60886591173E+03  0.00000000000E+00 0. -1.
        -14    1    5    5    0    0  0.48592924924E+02 -0.19888539357E+02  0.13045600215E+03  0.14062572612E+03  0.00000000000E+00 0.  1.
          5    1    3    3  501    0  0.77313568783E+02  0.90891745622E+02 -0.33698226529E+03  0.35750974373E+03  0.41800000000E+01 0. -1.
         -5    1    3    3    0  501 -0.36077944033E+02  0.40646467004E+01 -0.48129298750E+02  0.60432120570E+02  0.41800000000E+01 0. -1.
</event>
<event>
11    1  0.1704459E-009  0.1773357E+03  0.7561462E-02  0.1071819E+00
         22   -1    0    0    0    0  0.00000000000E+00  0.00000000000E+00  0.69730831875E+02  0.69730831875E+02  0.00000000000E+00 0.  1.
         22   -1    0    0    0    0 -0.00000000000E+00 -0.00000000000E+00 -0.26319433427E+04  0.26319433427E+04  0.00000000000E+00 0.  1.
         25    2    1    2    0    0  0.16180888932E+02  0.86348913467E+01 -0.21135939305E+04  0.21173718229E+04  0.12509097135E+03 0.  0.
         24    2    1    2    0    0  0.80366594333E+02 -0.13460685955E+03 -0.32218988198E+03  0.36731463473E+03  0.80845066086E+02 0.  0.
        -24    2    1    2    0    0 -0.96547483265E+02  0.12597196821E+03 -0.12642869837E+03  0.21698771691E+03  0.76870672038E+02 0.  0.
        -11    1    4    4    0    0  0.89239640684E+02 -0.13253747068E+03 -0.32039789549E+03  0.35802891788E+03  0.00000000000E+00 0.  1.
         12    1    4    4    0    0 -0.88730463514E+01 -0.20693888738E+01 -0.17919864969E+01  0.92857168528E+01  0.00000000000E+00 0. -1.
         13    1    5    5    0    0 -0.18407119962E+02  0.30372897854E+02 -0.75479975058E+02  0.83417993407E+02  0.00000000000E+00 0. -1.
        -14    1    5    5    0    0 -0.78140363303E+02  0.95599070354E+02 -0.50948723312E+02  0.13356972350E+03  0.00000000000E+00 0.  1.
          5    1    3    3  501    0 -0.25469124746E+02 -0.27469297203E+02 -0.23823022094E+03  0.24119359273E+03  0.41800000000E+01 0. -1.
         -5    1    3    3    0  501  0.41650013678E+02  0.36104188549E+02 -0.18753637095E+04  0.18761782302E+04  0.41800000000E+01 0. -1.
</event>
<event>
11    1  0.1704459E-009  0.2374141E+03  0.7561462E-02  0.1030826E+00
         22   -1    0    0    0    0  0.00000000000E+00  0.00000000000E+00  0.11164614609E+04  0.11164614609E+04  0.00000000000E+00 0.  1.
         22   -1    0    0    0    0 -0.00000000000E+00 -0.00000000000E+00 -0.12644902778E+03  0.12644902778E+03  0.00000000000E+00 0. -1.
         25    2    1    2    0    0 -0.18905156567E+03 -0.17876015485E+03  0.14095621870E+03  0.32126540063E+03  0.12508842716E+03 0.  0.
        -24    2    1    2    0    0  0.65651869754E+02  0.12811858838E+03  0.22382771873E+03  0.27732141080E+03  0.77998567477E+02 0.  0.
         24    2    1    2    0    0  0.12339969591E+03  0.50641566475E+02  0.62522849568E+03  0.64432367724E+03  0.80313610568E+02 0.  0.
        -11    1    5    5    0    0  0.77567056531E+02  0.60392469449E+02  0.51887141466E+03  0.52810173601E+03  0.00000000000E+00 0.  1.
         12    1    5    5    0    0  0.45832639381E+02 -0.97509029744E+01  0.10635708101E+03  0.11622194123E+03  0.00000000000E+00 0. -1.
         13    1    4    4    0    0  0.88785433262E+01  0.10591556139E+02 -0.43173622704E+01  0.14479268283E+02  0.00000000000E+00 0. -1.
        -14    1    4    4    0    0  0.56773326428E+02  0.11752703224E+03  0.22814508100E+03  0.26284214252E+03  0.00000000000E+00 0.  1.
          5    1    3    3  501    0 -0.80692006838E+02 -0.44035679903E+02 -0.88697344527E+01  0.92447204724E+02  0.41800000000E+01 0. -1.
         -5    1    3    3    0  501 -0.10835955883E+03 -0.13472447495E+03  0.14982595315E+03  0.22881819591E+03  0.41800000000E+01 0. -1.
</event>
<event>
11    1  0.1704459E-009  0.9933897E+03  0.7561462E-02  0.8685327E-01
         22   -1    0    0    0    0  0.00000000000E+00  0.00000000000E+00  0.31585727074E+04  0.31585727074E+04  0.00000000000E+00 0. -1.
         22   -1    0    0    0    0 -0.00000000000E+00 -0.00000000000E+00 -0.78106730086E+02  0.78106730086E+02  0.00000000000E+00 0. -1.
         25    2    1    2    0    0 -0.17770886829E+03 -0.41800140957E+03  0.12822548964E+04  0.13660638059E+04  0.12508829719E+03 0.  0.
        -24    2    1    2    0    0  0.10973161873E+03  0.37881539447E+03  0.14330646901E+04  0.14886610565E+04  0.83037364619E+02 0.  0.
         24    2    1    2    0    0  0.67977249558E+02  0.39186015102E+02  0.36514639075E+03  0.38195457504E+03  0.80006002805E+02 0.  0.
        -11    1    5    5    0    0  0.48797037461E+02  0.59964340859E+02  0.31536079920E+03  0.32469879382E+03  0.00000000000E+00 0.  1.
         12    1    5    5    0    0  0.19180212097E+02 -0.20778325757E+02  0.49785591550E+02  0.57255781222E+02  0.00000000000E+00 0. -1.
         11    1    4    4    0    0  0.44928231417E+02  0.25593119837E+03  0.10322677321E+04  0.10644698187E+04  0.00000000000E+00 0. -1.
        -12    1    4    4    0    0  0.64803387311E+02  0.12288419610E+03  0.40079695804E+03  0.42419123780E+03  0.00000000000E+00 0.  1.
          5    1    3    3  501    0 -0.11625691937E+00 -0.43018457853E+02  0.24697349803E+03  0.25072690793E+03  0.41800000000E+01 0. -1.
         -5    1    3    3    0  501 -0.17759261137E+03 -0.37498295172E+03  0.10352813984E+04  0.11153368980E+04  0.41800000000E+01 0. -1.
</event>
<event>
11    1  0.1704459E-009  0.2612767E+04  0.7561462E-02  0.7853769E-01
         22   -1    0    0    0    0  0.00000000000E+00  0.00000000000E+00  0.15452590072E+04  0.15452590072E+04  0.00000000000E+00 0.  1.
         22   -1    0    0    0    0 -0.00000000000E+00 -0.00000000000E+00 -0.11044344602E+04  0.11044344602E+04  0.00000000000E+00 0.  1.
         25    2    1    2    0    0  0.64689510842E+03 -0.53858935688E+03 -0.76658280648E+03  0.11453595100E+04  0.12508969287E+03 0.  0.
         24    2    1    2    0    0 -0.48993828581E+03  0.44753690990E+03  0.10772646927E+04  0.12669019463E+04  0.64903881363E+02 0.  0.
        -24    2    1    2    0    0 -0.15695682261E+03  0.91052446977E+02  0.13014266067E+03  0.23743201108E+03  0.80689872333E+02 0.  0.
        -11    1    4    4    0    0 -0.82799963922E+02  0.71557491543E+02  0.13543657064E+03  0.17412459128E+03  0.00000000000E+00 0.  1.
         12    1    4    4    0    0 -0.40713832189E+03  0.37597941836E+03  0.94182812209E+03  0.10927773551E+04  0.00000000000E+00 0. -1.
         11    1    5    5    0    0 -0.15681102612E+03  0.10233890978E+03  0.12149696433E+03  0.22321393933E+03  0.00000000000E+00 0. -1.
        -12    1    5    5    0    0 -0.14579648200E+00 -0.11286462802E+02  0.86456963362E+01  0.14218071752E+02  0.00000000000E+00 0.  1.
          5    1    3    3  501    0  0.30306276020E+03 -0.20681058985E+03 -0.40239218550E+03  0.54456826940E+03  0.41800000000E+01 0. -1.
         -5    1    3    3    0  501  0.34383234822E+03 -0.33177876704E+03 -0.36419062098E+03  0.60079124057E+03  0.41800000000E+01 0. -1.
</event>
<event>
11    1  0.1704459E-009  0.1345911E+03  0.7561462E-02  0.1113753E+00
         22   -1    0    0    0    0  0.00000000000E+00  0.00000000000E+00  0.82532315563E+03  0.82532315563E+03  0.00000000000E+00 0.  1.
         22   -1    0    0    0    0 -0.00000000000E+00 -0.00000000000E+00 -0.13229054465E+03  0.13229054465E+03  0.00000000000E+00 0.  1.
         25    2    1    2    0    0 -0.30411491843E+02 -0.37836604162E+01 -0.15668287413E+02  0.12973232729E+03  0.12508319868E+03 0.  0.
         24    2    1    2    0    0  0.56800703193E+02  0.34531464984E+02 -0.11131807474E+02  0.10217329514E+03  0.76790124011E+02 0.  0.
        -24    2    1    2    0    0 -0.26389211350E+02 -0.30747804568E+02  0.71983270586E+03  0.72570807785E+03  0.82772410074E+02 0.  0.
        -13    1    4    4    0    0  0.67029866147E+02  0.56060944029E+01 -0.20110137221E+02  0.70205760940E+02  0.00000000000E+00 0.  1.
         14    1    4    4    0    0 -0.10229162954E+02  0.28925370581E+02  0.89783297470E+01  0.31967534203E+02  0.00000000000E+00 0. -1.
         11    1    5    5    0    0 -0.25286250042E+02  0.29256575628E+01  0.62120760272E+02  0.67133767734E+02  0.00000000000E+00 0. -1.
        -12    1    5    5    0    0 -0.11029613075E+01 -0.33673462130E+02  0.65771194559E+03  0.65857431012E+03  0.00000000000E+00 0.  1.
          5    1    3    3  501    0 -0.75973088360E+02  0.33583149211E+01 -0.29075816878E+02  0.81523395177E+02  0.41800000000E+01 0. -1.
         -5    1    3    3    0  501  0.45561596518E+02 -0.71419753374E+01  0.13407529465E+02  0.48208932111E+02  0.41800000000E+01 0. -1.
</event>
<event>
11    1  0.1704459E-009  0.4870531E+03  0.7561462E-02  0.9422926E-01
         22   -1    0    0    0    0  0.00000000000E+00  0.00000000000E+00  0.57380609172E+03  0.57380609172E+03  0.00000000000E+00 0.  1.
         22   -1    0    0    0    0 -0.00000000000E+00 -0.00000000000E+00 -0.74551017946E+03  0.74551017946E+03  0.00000000000E+00 0.  1.
         25    2    1    2    0    0  0.42611065467E+03 -0.13903710268E+03 -0.26156924505E+03  0.53382364810E+03  0.12509041276E+03 0.  0.
         24    2    1    2    0    0 -0.41578023454E+03  0.34183654310E+03 -0.90233988427E+01  0.54621038493E+03  0.92406370147E+02 0.  0.
        -24    2    1    2    0    0 -0.10330420129E+02 -0.20279944041E+03  0.98888556152E+02  0.23928223816E+03  0.79010836892E+02 0.  0.
        -13    1    4    4    0    0 -0.27915575341E+03  0.28096816138E+03  0.38407949326E+01  0.39608811403E+03  0.00000000000E+00 0.  1.
         14    1    4    4    0    0 -0.13662448113E+03  0.60868381714E+02 -0.12864193775E+02  0.15012227089E+03  0.00000000000E+00 0. -1.
         11    1    5    5    0    0 -0.31411307370E+02 -0.75870453587E+02  0.68836636559E+02  0.10715166117E+03  0.00000000000E+00 0. -1.
        -12    1    5    5    0    0  0.21080887242E+02 -0.12692898683E+03  0.30051919593E+02  0.13213057699E+03  0.00000000000E+00 0.  1.
          5    1    3    3  501    0  0.67839123247E+02  0.15360589795E+02 -0.71507398595E+02  0.99844252792E+02  0.41800000000E+01 0.  1.
         -5    1    3    3    0  501  0.35827153142E+03 -0.15439769248E+03 -0.19006184645E+03  0.43397939530E+03  0.41800000000E+01 0.  1.
</event>
<event>
11    1  0.1704459E-009  0.6579603E+03  0.7561462E-02  0.9096658E-01
         22   -1    0    0    0    0  0.00000000000E+00  0.00000000000E+00  0.22503286567E+04  0.22503286567E+04  0.00000000000E+00 0.  1.
         22   -1    0    0    0    0 -0.00000000000E+00 -0.00000000000E+00 -0.53698168844E+03  0.53698168844E+03  0.00000000000E+00 0.  1.
         25    2    1    2    0    0  0.40380762846E+03  0.29379161313E+03  0.32708123500E+03  0.60992075505E+03  0.12508829045E+03 0.  0.
         24    2    1    2    0    0 -0.66453484630E+03 -0.39067342564E+03  0.14579298585E+02  0.77555342887E+03  0.83894443382E+02 0.  0.
        -24    2    1    2    0    0  0.26072721784E+03  0.96881812510E+02  0.13716864347E+04  0.14018361612E+04  0.79096018179E+02 0.  0.
        -13    1    4    4    0    0 -0.64541207031E+03 -0.39355300364E+03  0.11902444647E+02  0.75603067091E+03  0.00000000000E+00 0.  1.
         14    1    4    4    0    0 -0.19122775992E+02  0.28795779989E+01  0.26768539376E+01  0.19522757953E+02  0.00000000000E+00 0. -1.
         13    1    5    5    0    0  0.26813797223E+02  0.24301212702E+02  0.31841578005E+03  0.32046550149E+03  0.00000000000E+00 0. -1.
        -14    1    5    5    0    0  0.23391342062E+03  0.72580599808E+02  0.10532706546E+04  0.10813706597E+04  0.00000000000E+00 0.  1.
          5    1    3    3  501    0  0.13646277269E+03  0.79861186955E+02  0.40189000810E+02  0.16319474776E+03  0.41800000000E+01 0.  1.
         -5    1    3    3    0  501  0.26734485577E+03  0.21393042618E+03  0.28689223419E+03  0.44672600729E+03  0.41800000000E+01 0.  1.
</event>
<event>
11    1  0.1704459E-009  0.2188006E+03  0.7561462E-02  0.1041971E+00
         22   -1    0    0    0    0  0.00000000000E+00  0.00000000000E+00  0.63198044240E+02  0.63198044240E+02  0.00000000000E+00 0.  1.
         22   -1    0    0    0    0 -0.00000000000E+00 -0.00000000000E+00 -0.19821537019E+04  0.19821537019E+04  0.00000000000E+00 0. -1.
         25    2    1    2    0    0 -0.11333018295E+03 -0.10991954452E+02 -0.13581655569E+04  0.13686582050E+04  0.12508816372E+03 0.  0.
        -24    2    1    2    0    0 -0.76596602187E+02  0.20088177141E+02 -0.39373950316E+03  0.40956655679E+03  0.80270752870E+02 0.  0.
         24    2    1    2    0    0  0.18992678514E+03 -0.90962226888E+01 -0.16705059753E+03  0.26712698429E+03  0.85416617947E+02 0.  0.
        -11    1    5    5    0    0  0.17725739563E+03 -0.53295589588E+01 -0.17702200539E+03  0.25057010775E+03  0.00000000000E+00 0.  1.
         12    1    5    5    0    0  0.12669389511E+02 -0.37666637300E+01  0.99714078604E+01  0.16556876546E+02  0.00000000000E+00 0. -1.
         11    1    4    4    0    0  0.17344609366E+01 -0.16202288873E+02 -0.15207046824E+03  0.15294100114E+03  0.00000000000E+00 0. -1.
        -12    1    4    4    0    0 -0.78331063124E+02  0.36290466014E+02 -0.24166903492E+03  0.25662555565E+03  0.00000000000E+00 0.  1.
          5    1    3    3  501    0 -0.39276675915E+02  0.21227279273E+02 -0.12421971347E+03  0.13206537877E+03  0.41800000000E+01 0.  1.
         -5    1    3    3    0  501 -0.74053507035E+02 -0.32219233726E+02 -0.12339458435E+04  0.12365928263E+04  0.41800000000E+01 0.  1.
</event>
<event>
11    1  0.1704459E-009  0.2800578E+03  0.7561462E-02  0.1009003E+00
         22   -1    0    0    0    0  0.00000000000E+00  0.00000000000E+00  0.19054538155E+03  0.19054538155E+03  0.00000000000E+00 0.  1.
         22   -1    0    0    0    0 -0.00000000000E+00 -0.00000000000E+00 -0.85612159456E+03  0.85612159456E+03  0.00000000000E+00 0. -1.
         25    2    1    2    0    0 -0.21113138594E+03 -0.27752510871E+02 -0.19097812376E+03  0.31217679765E+03  0.12504017452E+03 0.  0.
         24    2    1    2    0    0  0.21995846534E+03  0.21825834610E+03 -0.40569029918E+03  0.51603733479E+03  0.75441897767E+02 0.  0.
        -24    2    1    2    0    0 -0.88270793950E+01 -0.19050583522E+03 -0.68907790079E+02  0.21845284367E+03  0.81258665942E+02 0.  0.
        -11    1    4    4    0    0  0.16602649579E+03  0.13142184004E+03 -0.22888740625E+03  0.31181074722E+03  0.00000000000E+00 0.  1.
         12    1    4    4    0    0  0.53931969550E+02  0.86836506057E+02 -0.17680289292E+03  0.20422658757E+03  0.00000000000E+00 0. -1.
         11    1    5    5    0    0 -0.19141134740E+02 -0.54418172990E+02 -0.57579844187E+02  0.81505576786E+02  0.00000000000E+00 0. -1.
        -12    1    5    5    0    0  0.10314055345E+02 -0.13608766223E+03 -0.11327945892E+02  0.13694726689E+03  0.00000000000E+00 0.  1.
          5    1    3    3  501    0 -0.10828086646E+03  0.30526630505E+02 -0.14880938081E+03  0.18659669190E+03  0.41800000000E+01 0. -1.
         -5    1    3    3    0  501 -0.10285051948E+03 -0.58279141376E+02 -0.42168742953E+02  0.12558010575E+03  0.41800000000E+01 0. -1.
</event>
<event>
11    1  0.1704459E-009  0.4389885E+03  0.7561462E-02  0.9541245E-01
         22   -1    0    0    0    0  0.00000000000E+00  0.00000000000E+00  0.10178177343E+04  0.10178177343E+04  0.00000000000E+00 0.  1.
         22   -1    0    0    0    0 -0.00000000000E+00 -0.00000000000E+00 -0.59870960629E+03  0.59870960629E+03  0.00000000000E+00 0.  1.
         25    2    1    2    0    0 -0.63471300106E+02 -0.43461868597E+03 -0.40064008497E+03  0.60752363434E+03  0.12510188037E+03 0.  0.
        -24    2    1    2    0    0  0.54835540954E+02  0.41528268697E+03  0.82110381962E+03  0.92506636703E+03  0.77907985340E+02 0.  0.
         24    2    1    2    0    0  0.86357591518E+01  0.19335999001E+02 -0.13556066510E+01  0.83937339211E+02  0.81210726206E+02 0.  0.
        -11    1    5    5    0    0  0.12844888385E+02  0.42616026707E+02 -0.24528996581E+02  0.50821142876E+02  0.00000000000E+00 0.  1.
         12    1    5    5    0    0 -0.42091292329E+01 -0.23280027706E+02  0.23173389930E+02  0.33116196336E+02  0.00000000000E+00 0. -1.
         13    1    4    4    0    0 -0.16726286954E+02  0.11720309731E+03  0.25994149766E+03  0.28563248573E+03  0.00000000000E+00 0. -1.
        -14    1    4    4    0    0  0.71561827909E+02  0.29807958965E+03  0.56116232196E+03  0.63943388131E+03  0.00000000000E+00 0.  1.
          5    1    3    3  501    0 -0.98113754696E+02 -0.30800487323E+03 -0.25784033598E+03  0.41351229975E+03  0.41800000000E+01 0.  1.
         -5    1    3    3    0  501  0.34642454590E+02 -0.12661381274E+03 -0.14279974899E+03  0.19401133459E+03  0.41800000000E+01 0.  1.
</event>
<event>
11    1  0.1704459E-009  0.1854508E+03  0.7561462E-02  0.1065317E+00
         22   -1    0    0    0    0  0.00000000000E+00  0.00000000000E+00  0.26464492807E+03  0.26464492807E+03  0.00000000000E+00 0. -1.
         22   -1    0    0    0    0 -0.00000000000E+00 -0.00000000000E+00 -0.26633538243E+03  0.26633538243E+03  0.00000000000E+00 0. -1.
         25    2    1    2    0    0  0.86789776658E+02  0.14420280344E+03 -0.10293892595E+03  0.23360348612E+03  0.12508897793E+03 0.  0.
        -24    2    1    2    0    0  0.18971965856E+02 -0.65397201111E+02 -0.11870324226E+02  0.10623324173E+03  0.80671355820E+02 0.  0.
         24    2    1    2    0    0 -0.10576174251E+03 -0.78805602329E+02  0.11311879582E+03  0.19114358265E+03  0.79650097815E+02 0.  0.
        -11    1    5    5    0    0  0.51719834604E+01  0.77230146208E+01  0.21037661202E+02  0.22999512095E+02  0.00000000000E+00 0.  1.
         12    1    5    5    0    0 -0.11093372597E+03 -0.86528616949E+02  0.92081134615E+02  0.16814407055E+03  0.00000000000E+00 0. -1.
         13    1    4    4    0    0  0.49092848732E+02 -0.26557571831E+02 -0.11958393877E+02  0.57082533250E+02  0.00000000000E+00 0. -1.
        -14    1    4    4    0    0 -0.30120882876E+02 -0.38839629280E+02  0.88069650161E-01  0.49150708480E+02  0.00000000000E+00 0.  1.
          5    1    3    3  501    0  0.79901477684E+02  0.76899657926E+02 -0.74947688993E+00  0.11097674369E+03  0.41800000000E+01 0. -1.
         -5    1    3    3    0  501  0.68882989738E+01  0.67303145514E+02 -0.10218944906E+03  0.12262674242E+03  0.41800000000E+01 0. -1.
</event>
<event>
11    1  0.1704459E-009  0.1369777E+03  0.7561462E-02  0.1110981E+00
         22   -1    0    0    0    0  0.00000000000E+00  0.00000000000E+00  0.19770000184E+03  0.19770000184E+03  0.00000000000E+00 0. -1.
         22   -1    0    0    0    0 -0.00000000000E+00 -0.00000000000E+00 -0.78187492139E+03  0.78187492139E+03  0.00000000000E+00 0.  1.
         25    2    1    2    0    0 -0.82089743726E+02 -0.31114014832E+02 -0.42429874412E+03  0.45098131861E+03  0.12509163655E+03 0.  0.
         24    2    1    2    0    0  0.34741370560E+02  0.23824445912E+01 -0.32146579162E+03  0.33977294568E+03  0.10436838873E+03 0.  0.
        -24    2    1    2    0    0  0.47348373166E+02  0.28731570240E+02  0.16158961618E+03  0.18882065893E+03  0.80465306882E+02 0.  0.
        -11    1    4    4    0    0  0.51693567585E+02 -0.38785672590E+02 -0.21090981396E+03  0.22058899101E+03  0.00000000000E+00 0.  1.
         12    1    4    4    0    0 -0.16952197025E+02  0.41168117181E+02 -0.11055597766E+03  0.11918395467E+03  0.00000000000E+00 0. -1.
         11    1    5    5    0    0  0.88293553787E+01  0.32569312204E+02  0.14098801737E+03  0.14497013022E+03  0.00000000000E+00 0. -1.
        -12    1    5    5    0    0  0.38519017788E+02 -0.38377419640E+01  0.20601598810E+02  0.43850528711E+02  0.00000000000E+00 0.  1.
          5    1    3    3  501    0 -0.42189784379E+02 -0.56978339761E+02 -0.37754000840E+03  0.38416199636E+03  0.41800000000E+01 0.  1.
         -5    1    3    3    0  501 -0.39899959347E+02  0.25864324929E+02 -0.46758735722E+02  0.66819322253E+02  0.41800000000E+01 0.  1.
</event>
<event>
11    1  0.1704459E-009  0.3057740E+03  0.7561462E-02  0.9977767E-01
         22   -1    0    0    0    0  0.00000000000E+00  0.00000000000E+00  0.22912364979E+04  0.22912364979E+04  0.00000000000E+00 0. -1.
         22   -1    0    0    0    0 -0.00000000000E+00 -0.00000000000E+00 -0.17718285540E+03  0.17718285540E+03  0.00000000000E+00 0. -1.
         25    2    1    2    0    0 -0.18182931065E+03 -0.21691584262E+03 -0.89294048464E+01  0.30957608023E+03  0.12507291551E+03 0.  0.
         24    2    1    2    0    0  0.27586607521E+01  0.67825418274E+02  0.28102485076E+03  0.29948823973E+03  0.78168672854E+02 0.  0.
        -24    2    1    2    0    0  0.17907064989E+03  0.14909042434E+03  0.18419581966E+04  0.18593550333E+04  0.10048328078E+03 0.  0.
        -11    1    4    4    0    0 -0.24596524870E+02  0.52713485054E+02  0.99199658459E+02  0.11499683813E+03  0.00000000000E+00 0.  1.
         12    1    4    4    0    0  0.27355185622E+02  0.15111933220E+02  0.18182519230E+03  0.18449140159E+03  0.00000000000E+00 0. -1.
         13    1    5    5    0    0  0.89079883803E+02  0.92028783574E+02  0.13459437871E+04  0.13520241125E+04  0.00000000000E+00 0. -1.
        -14    1    5    5    0    0  0.89990766091E+02  0.57061640770E+02  0.49601440946E+03  0.50733092082E+03  0.00000000000E+00 0.  1.
          5    1    3    3  501    0 -0.78510921133E+02 -0.18266039155E+03 -0.21055115430E+02  0.19997393246E+03  0.41800000000E+01 0. -1.
         -5    1    3    3    0  501 -0.10331838951E+03 -0.34255451070E+02  0.12125710583E+02  0.10960214778E+03  0.41800000000E+01 0. -1.
</event>
<event>
11    1  0.1704459E-009  0.5739804E+03  0.7561462E-02  0.9241887E-01
         22   -1    0    0    0    0  0.00000000000E+00  0.00000000000E+00  0.21893142505E+04  0.21893142505E+04  0.00000000000E+00 0.  1.
         22   -1    0    0    0    0 -0.00000000000E+00 -0.00000000000E+00 -0.29983415660E+03  0.29983415660E+03  0.00000000000E+00 0.  1.
         25    2    1    2    0    0 -0.51623581960E+03 -0.22835909514E+03  0.35515312215E+03  0.67854873726E+03  0.12508937163E+03 0.  0.
         24    2    1    2    0    0  0.48503098265E+03  0.27329163201E+03  0.44556901023E+03  0.71755259238E+03  0.80041299964E+02 0.  0.
        -24    2    1    2    0    0  0.31204836954E+02 -0.44932536864E+02  0.10887579615E+04  0.10930470774E+04  0.79783081179E+02 0.  0.
        -13    1    4    4    0    0  0.23982890117E+02  0.72810932576E+00  0.36207570565E+02  0.43436129291E+02  0.00000000000E+00 0.  1.
         14    1    4    4    0    0  0.46104809253E+03  0.27256352268E+03  0.40936143966E+03  0.67411646309E+03  0.00000000000E+00 0. -1.
         11    1    5    5    0    0  0.26344676964E+02 -0.27436044307E+02  0.17399997923E+03  0.17810887486E+03  0.00000000000E+00 0. -1.
        -12    1    5    5    0    0  0.48601599904E+01 -0.17496492557E+02  0.91475798228E+03  0.91493820258E+03  0.00000000000E+00 0.  1.
          5    1    3    3  501    0 -0.15799031675E+03 -0.97237354201E+02  0.18082220377E+03  0.25909493437E+03  0.41800000000E+01 0.  1.
         -5    1    3    3    0  501 -0.35824550285E+03 -0.13112174094E+03  0.17433091838E+03  0.41945380290E+03  0.41800000000E+01 0.  1.
</event>
<event>
11    1  0.1704459E-009  0.2037217E+03  0.7561462E-02  0.1051923E+00
         22   -1    0    0    0    0  0.00000000000E+00  0.00000000000E+00  0.23990550120E+03  0.23990550120E+03  0.00000000000E+00 0. -1.
         22   -1    0    0    0    0 -0.00000000000E+00 -0.00000000000E+00 -0.97380735480E+03  0.97380735480E+03  0.00000000000E+00 0. -1.
         25    2    1    2    0    0  0.88015243563E+02 -0.13003918600E+03 -0.49588088927E+03  0.53497871885E+03  0.12508996878E+03 0.  0.
         24    2    1    2    0    0  0.49576184279E+01  0.18275963484E+03 -0.41274101169E+03  0.45858898287E+03  0.80765403294E+02 0.  0.
        -24    2    1    2    0    0 -0.92972861991E+02 -0.52720448844E+02  0.17472004736E+03  0.22014515428E+03  0.80705608298E+02 0.  0.
        -13    1    4    4    0    0 -0.21076861947E+02  0.16382214194E+02 -0.98685422806E+02  0.10223220493E+03  0.00000000000E+00 0.  1.
         14    1    4    4    0    0  0.26034480375E+02  0.16637742065E+03 -0.31405558888E+03  0.35635677793E+03  0.00000000000E+00 0. -1.
         13    1    5    5    0    0 -0.10784872700E+03 -0.44129283531E+02  0.15630554725E+03  0.19496195958E+03  0.00000000000E+00 0. -1.
        -14    1    5    5    0    0  0.14875865010E+02 -0.85911653126E+01  0.18414500106E+02  0.25183194702E+02  0.00000000000E+00 0.  1.
          5    1    3    3  501    0 -0.26411430588E+02 -0.42428286804E+02 -0.76195061385E+02  0.91218873958E+02  0.41800000000E+01 0.  1.
         -5    1    3    3    0  501  0.11442667415E+03 -0.87610899196E+02 -0.41968582788E+03  0.44375984489E+03  0.41800000000E+01 0.  1.
</event>
<event>
11    1  0.1704459E-009  0.1825874E+03  0.7561462E-02  0.1067569E+00
         22   -1    0    0    0    0  0.00000000000E+00  0.00000000000E+00  0.18791015022E+03  0.18791015022E+03  0.00000000000E+00 0. -1.
         22   -1    0    0    0    0 -0.00000000000E+00 -0.00000000000E+00 -0.34172565742E+03  0.34172565742E+03  0.00000000000E+00 0.  1.
         25    2    1    2    0    0  0.86571502254E+02  0.45004739175E+02 -0.13329444502E+03  0.20720759733E+03  0.12509007861E+03 0.  0.
         24    2    1    2    0    0  0.64335518713E+02 -0.76022693334E+02 -0.65007832096E+02  0.14322293186E+03  0.79801510680E+02 0.  0.
        -24    2    1    2    0    0 -0.15090702097E+03  0.31017954159E+02  0.44486769922E+02  0.17920527845E+03  0.80002604150E+02 0.  0.
        -13    1    4    4    0    0  0.10226082863E+02 -0.44497412814E+02 -0.66401895384E+02  0.80584143778E+02  0.00000000000E+00 0.  1.
         14    1    4    4    0    0  0.54109435850E+02 -0.31525280520E+02  0.13940632880E+01  0.62638788082E+02  0.00000000000E+00 0. -1.
         13    1    5    5    0    0 -0.11285896755E+03  0.35775701059E+02  0.65682202662E+02  0.13539275863E+03  0.00000000000E+00 0. -1.
        -14    1    5    5    0    0 -0.38048053420E+02 -0.47577469000E+01 -0.21195432741E+02  0.43812519828E+02  0.00000000000E+00 0.  1.
          5    1    3    3  501    0  0.63720945270E+02 -0.26494816777E+02 -0.21342077462E+02  0.72355309774E+02  0.41800000000E+01 0.  1.
         -5    1    3    3    0  501  0.22850556984E+02  0.71499555952E+02 -0.11195236756E+03  0.13485228755E+03  0.41800000000E+01 0.  1.
</event>
<event>
11    1  0.1704459E-009  0.4824250E+03  0.7561462E-02  0.9433674E-01
         22   -1    0    0    0    0  0.00000000000E+00  0.00000000000E+00  0.14583936476E+04  0.14583936476E+04  0.00000000000E+00 0.  1.
         22   -1    0    0    0    0 -0.00000000000E+00 -0.00000000000E+00 -0.56367544521E+03  0.56367544521E+03  0.00000000000E+00 0.  1.
         25    2    1    2    0    0 -0.61191525452E+02  0.44430967980E+03 -0.32256023395E+03  0.56643428112E+03  0.12508875230E+03 0.  0.
         24    2    1    2    0    0  0.48392360351E+01 -0.60134422314E+03  0.81871148133E+03  0.10179254638E+04  0.65157250340E+02 0.  0.
        -24    2    1    2    0    0  0.56352289417E+02  0.15703454334E+03  0.39856695506E+03  0.43770934794E+03  0.69988765429E+02 0.  0.
        -11    1    4    4    0    0  0.15085078236E+02 -0.50006529356E+03  0.64102892131E+03  0.81314877813E+03  0.00000000000E+00 0.  1.
         12    1    4    4    0    0 -0.10245842201E+02 -0.10127892958E+03  0.17768256002E+03  0.20477668567E+03  0.00000000000E+00 0. -1.
         13    1    5    5    0    0  0.57403703978E+01  0.11033535231E+02  0.10704882944E+03  0.10776893168E+03  0.00000000000E+00 0. -1.
        -14    1    5    5    0    0  0.50611919019E+02  0.14600100811E+03  0.29151812562E+03  0.32994041626E+03  0.00000000000E+00 0.  1.
          5    1    3    3  501    0 -0.20102871122E+02  0.24193393899E+03 -0.24738823769E+03  0.34663319057E+03  0.41800000000E+01 0.  1.
         -5    1    3    3    0  501 -0.41088654330E+02  0.20237574081E+03 -0.75171996267E+02  0.21980109055E+03  0.41800000000E+01 0.  1.
</event>
<event>
11    1  0.1704459E-009  0.1854434E+04  0.7561462E-02  0.8129415E-01
         22   -1    0    0    0    0  0.00000000000E+00  0.00000000000E+00  0.24954423656E+03  0.24954423656E+03  0.00000000000E+00 0. -1.
         22   -1    0    0    0    0 -0.00000000000E+00 -0.00000000000E+00 -0.34452048700E+04  0.34452048700E+04  0.00000000000E+00 0. -1.
         25    2    1    2    0    0 -0.12576358109E+03  0.20198468687E+03 -0.33512598692E+04  0.33620228404E+04  0.12506229026E+03 0.  0.
        -24    2    1    2    0    0  0.48046221500E+02 -0.87571388374E+02  0.39928218983E+02  0.13562699743E+03  0.82602858899E+02 0.  0.
         24    2    1    2    0    0  0.77717359586E+02 -0.11441329849E+03  0.11567101679E+03  0.19709926871E+03  0.79611222506E+02 0.  0.
        -13    1    5    5    0    0  0.40893220202E+02 -0.68110279271E+02  0.15767845217E+02  0.80993151214E+02  0.00000000000E+00 0.  1.
         14    1    5    5    0    0  0.36824139383E+02 -0.46303019224E+02  0.99903171570E+02  0.11610611750E+03  0.00000000000E+00 0. -1.
         13    1    4    4    0    0  0.39419647241E+02 -0.10380645084E+03  0.36798594358E+02  0.11697787984E+03  0.00000000000E+00 0. -1.
        -14    1    4    4    0    0  0.86265742593E+01  0.16235062465E+02  0.31296246247E+01  0.18649117593E+02  0.00000000000E+00 0.  1.
          5    1    3    3  501    0 -0.99659573733E+02  0.45009305962E+02 -0.14269418530E+04  0.14311318572E+04  0.41800000000E+01 0.  1.
         -5    1    3    3    0  501 -0.26104007353E+02  0.15697538091E+03 -0.19243180162E+04  0.19308909833E+04  0.41800000000E+01 0.  1.
</event>
<event>
11    1  0.1704459E-009  0.7696947E+03  0.7561462E-02  0.8935465E-01
         22   -1    0    0    0    0  0.00000000000E+00  0.00000000000E+00  0.22522877622E+04  0.22522877622E+04  0.00000000000E+00 0. -1.
         22   -1    0    0    0    0 -0.00000000000E+00 -0.00000000000E+00 -0.92318941988E+03  0.92318941988E+03  0.00000000000E+00 0. -1.
         25    2    1    2    0    0 -0.87301846236E+02 -0.46340832755E+03 -0.48305319794E+03  0.68655376147E+03  0.12508710947E+03 0.  0.
        -24    2    1    2    0    0 -0.61904554507E+03 -0.43220787623E+02  0.20236964732E+03  0.65748869763E+03  0.79072688096E+02 0.  0.
         24    2    1    2    0    0  0.70634739131E+03  0.50662911517E+03  0.16097818929E+04  0.18314347230E+04  0.84591395098E+02 0.  0.
        -11    1    5    5    0    0  0.41009357230E+03  0.25800341908E+03  0.95781108837E+03  0.10733799809E+04  0.00000000000E+00 0.  1.
         12    1    5    5    0    0  0.29625381901E+03  0.24862569609E+03  0.65197080457E+03  0.75805474212E+03  0.00000000000E+00 0. -1.
         13    1    4    4    0    0 -0.54678879567E+03 -0.52445979710E+02  0.20010100226E+03  0.58461010850E+03  0.00000000000E+00 0. -1.
        -14    1    4    4    0    0 -0.72256749405E+02  0.92251920871E+01  0.22686450597E+01  0.72878589133E+02  0.00000000000E+00 0.  1.
          5    1    3    3  501    0  0.30138413677E+02 -0.11046430195E+03 -0.93180531852E+02  0.14768469758E+03  0.41800000000E+01 0. -1.
         -5    1    3    3    0  501 -0.11744025991E+03 -0.35294402560E+03 -0.38987266609E+03  0.53886906389E+03  0.41800000000E+01 0. -1.
</event>
<event>
11    1  0.1704459E-009  0.1646635E+03  0.7561462E-02  0.1082771E+00
         22   -1    0    0    0    0  0.00000000000E+00  0.00000000000E+00  0.16260594427E+03  0.16260594427E+03  0.00000000000E+00 0. -1.
         22   -1    0    0    0    0 -0.00000000000E+00 -0.00000000000E+00 -0.39949734362E+03  0.39949734362E+03  0.00000000000E+00 0. -1.
         25    2    1    2    0    0  0.24600990945E+02 -0.93126132912E+02 -0.18994754889E+03  0.24699258623E+03  0.12509029112E+03 0.  0.
        -24    2    1    2    0    0  0.50626315346E+01  0.12209584597E+03 -0.12801221009E+03  0.19427919630E+03  0.80151446292E+02 0.  0.
         24    2    1    2    0    0 -0.29663622479E+02 -0.28969713053E+02  0.81068359636E+02  0.12083150536E+03  0.79429207356E+02 0.  0.
        -11    1    5    5    0    0  0.86146496466E+01  0.70297711275E+01 -0.10476810980E+02  0.15277219608E+02  0.00000000000E+00 0.  1.
         12    1    5    5    0    0 -0.38278272126E+02 -0.35999484181E+02  0.91545170616E+02  0.10555428576E+03  0.00000000000E+00 0. -1.
         13    1    4    4    0    0  0.73176600754E+00  0.79459514724E+02 -0.25963477973E+02  0.83596962565E+02  0.00000000000E+00 0. -1.
        -14    1    4    4    0    0  0.43308655270E+01  0.42636331241E+02 -0.10204873211E+03  0.11068223373E+03  0.00000000000E+00 0.  1.
          5    1    3    3  501    0  0.34126249287E+02 -0.30956624588E+02 -0.17660228349E+03  0.18256164009E+03  0.41800000000E+01 0.  1.
         -5    1    3    3    0  501 -0.95252583418E+01 -0.62169508324E+02 -0.13345265400E+02  0.64430946139E+02  0.41800000000E+01 0.  1.
</event>
<event>
11    1  0.1704459E-009  0.1826877E+03  0.7561462E-02  0.1067489E+00
         22   -1    0    0    0    0  0.00000000000E+00  0.00000000000E+00  0.59241784543E+02  0.59241784543E+02  0.00000000000E+00 0.  1.
         22   -1    0    0    0    0 -0.00000000000E+00 -0.00000000000E+00 -0.11671522147E+04  0.11671522147E+04  0.00000000000E+00 0.  1.
         25    2    1    2    0    0 -0.14174847839E+03  0.59141228444E+02 -0.75482059496E+03  0.78037962582E+03  0.12509162156E+03 0.  0.
        -24    2    1    2    0    0  0.11498712759E+03  0.82688578224E+01 -0.28848630674E+03  0.32059152178E+03  0.79146453743E+02 0.  0.
         24    2    1    2    0    0  0.26761350801E+02 -0.67410086266E+02 -0.64603528446E+02  0.12542285163E+03  0.79353551886E+02 0.  0.
        -11    1    5    5    0    0  0.36196045617E+02 -0.70055420220E+01 -0.50763693501E+02  0.62739014299E+02  0.00000000000E+00 0.  1.
         12    1    5    5    0    0 -0.94346948163E+01 -0.60404544244E+02 -0.13839834946E+02  0.62683837334E+02  0.00000000000E+00 0. -1.
         13    1    4    4    0    0  0.17338646545E+02  0.30863639125E+02 -0.44802256197E+02  0.57100219303E+02  0.00000000000E+00 0. -1.
        -14    1    4    4    0    0  0.97648481049E+02 -0.22594781303E+02 -0.24368405055E+03  0.26349130248E+03  0.00000000000E+00 0.  1.
          5    1    3    3  501    0 -0.10031762110E+03 -0.25595735338E+02 -0.38576606937E+03  0.39943923123E+03  0.41800000000E+01 0. -1.
         -5    1    3    3    0  501 -0.41430857292E+02  0.84736963781E+02 -0.36905452560E+03  0.38094039459E+03  0.41800000000E+01 0. -1.
</event>
<event>
11    1  0.1704459E-009  0.2659356E+03  0.7561462E-02  0.1015737E+00
         22   -1    0    0    0    0  0.00000000000E+00  0.00000000000E+00  0.51996586046E+03  0.51996586046E+03  0.00000000000E+00 0. -1.
         22   -1    0    0    0    0 -0.00000000000E+00 -0.00000000000E+00 -0.30540663074E+03  0.30540663074E+03  0.00000000000E+00 0. -1.
         25    2    1    2    0    0  0.16861038622E+03  0.14733399149E+03 -0.13946297839E+03  0.29194998872E+03  0.12509239059E+03 0.  0.
        -24    2    1    2    0    0 -0.20539068589E+03 -0.17643355766E+03  0.17746498147E+03  0.33360777352E+03  0.80536903255E+02 0.  0.
         24    2    1    2    0    0  0.36780299677E+02  0.29099566166E+02  0.17655722664E+03  0.19981472896E+03  0.80956138955E+02 0.  0.
        -11    1    5    5    0    0 -0.69037038115E+01 -0.22583934652E+02  0.67027054006E+02  0.71065611933E+02  0.00000000000E+00 0.  1.
         12    1    5    5    0    0  0.43684003489E+02  0.51683500818E+02  0.10953017264E+03  0.12874911703E+03  0.00000000000E+00 0. -1.
         13    1    4    4    0    0 -0.20798434855E+03 -0.15197176267E+03  0.15749361957E+03  0.30192241734E+03  0.00000000000E+00 0. -1.
        -14    1    4    4    0    0  0.25936626523E+01 -0.24461794989E+02  0.19971361898E+02  0.31685356177E+02  0.00000000000E+00 0.  1.
          5    1    3    3  501    0 -0.15743303200E+02  0.15546724135E+01 -0.26515647947E+02  0.31157993966E+02  0.41800000000E+01 0. -1.
         -5    1    3    3    0  501  0.18435368942E+03  0.14577931908E+03 -0.11294733044E+03  0.26079199475E+03  0.41800000000E+01 0. -1.
</event>
<event>
11    1  0.1704459E-009  0.5509455E+03  0.7561462E-02  0.9286374E-01
         22   -1    0    0    0    0  0.00000000000E+00  0.00000000000E+00  0.58775145145E+03  0.58775145145E+03  0.00000000000E+00 0. -1.
         22   -1    0    0    0    0 -0.00000000000E+00 -0.00000000000E+00 -0.12242638088E+04  0.12242638088E+04  0.00000000000E+00 0.  1.
         25    2    1    2    0    0 -0.60585833471E+02 -0.77779220949E+02 -0.43776142348E+03  0.46583481683E+03  0.12508701870E+03 0.  0.
         24    2    1    2    0    0 -0.46458449272E+03 -0.12634257581E+03 -0.50291569224E+03  0.70098458729E+03  0.81572058819E+02 0.  0.
        -24    2    1    2    0    0  0.52517032619E+03  0.20412179676E+03  0.30416475833E+03  0.64519585618E+03  0.79321580874E+02 0.  0.
        -13    1    4    4    0    0 -0.35489315407E+03 -0.62173918245E+02 -0.39040542997E+03  0.53125431449E+03  0.00000000000E+00 0.  1.
         14    1    4    4    0    0 -0.10969133866E+03 -0.64168657568E+02 -0.11251026228E+03  0.16973027281E+03  0.00000000000E+00 0. -1.
         13    1    5    5    0    0  0.47465225512E+03  0.16725927768E+03  0.24759477534E+03  0.56086861388E+03  0.00000000000E+00 0. -1.
        -14    1    5    5    0    0  0.50518071073E+02  0.36862519086E+02  0.56569982989E+02  0.84327242299E+02  0.00000000000E+00 0.  1.
          5    1    3    3  501    0 -0.94704350240E+02 -0.36478434991E+02 -0.33224372978E+03  0.34742331320E+03  0.41800000000E+01 0. -1.
         -5    1    3    3    0  501  0.34118516769E+02 -0.41300785959E+02 -0.10551769370E+03  0.11841150363E+03  0.41800000000E+01 0. -1.
</event>
<event>
11    1  0.1704459E-009  0.5786792E+03  0.7561462E-02  0.9233083E-01
         22   -1    0    0    0    0  0.00000000000E+00  0.00000000000E+00  0.75937223014E+03  0.75937223014E+03  0.00000000000E+00 0.  1.
         22   -1    0    0    0    0 -0.00000000000E+00 -0.00000000000E+00 -0.21716373155E+04  0.21716373155E+04  0.00000000000E+00 0. -1.
         25    2    1    2    0    0 -0.10868507069E+03 -0.57333495191E+03 -0.12502714892E+04  0.13854072713E+04  0.12509635960E+03 0.  0.
        -24    2    1    2    0    0 -0.14626551121E+03  0.55243010029E+03 -0.72254212727E+03  0.92465282453E+03  0.79643610884E+02 0.  0.
         24    2    1    2    0    0  0.25495058190E+03  0.20904851618E+02  0.56054853103E+03  0.62094944982E+03  0.76985398372E+02 0.  0.
        -11    1    5    5    0    0  0.24838572916E+03  0.22942632231E+02  0.56110546375E+03  0.61405307284E+03  0.00000000000E+00 0.  1.
         12    1    5    5    0    0  0.65648527446E+01 -0.20377806131E+01 -0.55693271695E+00  0.68963769790E+01  0.00000000000E+00 0. -1.
         13    1    4    4    0    0 -0.26732380288E+02  0.15447813585E+03 -0.14795781119E+03  0.21556815280E+03  0.00000000000E+00 0. -1.
        -14    1    4    4    0    0 -0.11953313092E+03  0.39795196444E+03 -0.57458431608E+03  0.70908467172E+03  0.00000000000E+00 0.  1.
          5    1    3    3  501    0 -0.46439016530E+02 -0.42241909395E+03 -0.79052918560E+03  0.89752344754E+03  0.41800000000E+01 0. -1.
         -5    1    3    3    0  501 -0.62246054159E+02 -0.15091585796E+03 -0.45974230355E+03  0.48788382379E+03  0.41800000000E+01 0. -1.
</event>
<event>
11    1  0.1704459E-009  0.1838739E+03  0.7561462E-02  0.1066552E+00
         22   -1    0    0    0    0  0.00000000000E+00  0.00000000000E+00  0.17676199560E+04  0.17676199560E+04  0.00000000000E+00 0. -1.
         22   -1    0    0    0    0 -0.00000000000E+00 -0.00000000000E+00 -0.19736414570E+03  0.19736414570E+03  0.00000000000E+00 0. -1.
         25    2    1    2    0    0 -0.28796680491E+02 -0.14128478842E+03  0.24689015212E+02  0.19247333487E+03  0.12508316000E+03 0.  0.
        -24    2    1    2    0    0  0.19524900063E+02  0.12883572689E+03 -0.60247442853E+02  0.16458882583E+03  0.80497583641E+02 0.  0.
         24    2    1    2    0    0  0.92717804283E+01  0.12449061539E+02  0.16058142379E+04  0.16079219410E+04  0.80824851205E+02 0.  0.
        -13    1    5    5    0    0  0.16469015281E+01 -0.16005832510E+02  0.70010870035E+02  0.71836069506E+02  0.00000000000E+00 0.  1.
         14    1    5    5    0    0  0.76248789002E+01  0.28454894049E+02  0.15358033679E+04  0.15360858715E+04  0.00000000000E+00 0. -1.
         13    1    4    4    0    0  0.40540265960E+02  0.11986101754E+03 -0.36631996925E+02  0.13172729363E+03  0.00000000000E+00 0. -1.
        -14    1    4    4    0    0 -0.21015365897E+02  0.89747093469E+01 -0.23615445928E+02  0.32861532192E+02  0.00000000000E+00 0.  1.
          5    1    3    3  501    0 -0.70056372640E+02 -0.42805272337E+02  0.23923281070E+02  0.85615316763E+02  0.41800000000E+01 0.  1.
         -5    1    3    3    0  501  0.41259692148E+02 -0.98479516087E+02  0.76573414239E+00  0.10685801811E+03  0.41800000000E+01 0.  1.
</event>
<event>
11    1  0.1704459E-009  0.2809706E+03  0.7561462E-02  0.1008583E+00
         22   -1    0    0    0    0  0.00000000000E+00  0.00000000000E+00  0.48032574587E+03  0.48032574587E+03  0.00000000000E+00 0.  1.
         22   -1    0    0    0    0 -0.00000000000E+00 -0.00000000000E+00 -0.43344047680E+03  0.43344047680E+03  0.00000000000E+00 0.  1.
         25    2    1    2    0    0 -0.37836087817E+02 -0.23669106976E+03 -0.24783411868E+03  0.36677389130E+03  0.12508838840E+03 0.  0.
        -24    2    1    2    0    0  0.78470488389E+02  0.31221645051E+03  0.26727710399E+03  0.42605122302E+03  0.80286143281E+02 0.  0.
         24    2    1    2    0    0 -0.40634400573E+02 -0.75525380745E+02  0.27442283767E+02  0.12094110835E+03  0.80736826197E+02 0.  0.
        -13    1    5    5    0    0 -0.21217131297E+02 -0.90130793023E+02  0.15554662709E+02  0.93891820961E+02  0.00000000000E+00 0.  1.
         14    1    5    5    0    0 -0.19417269275E+02  0.14605412278E+02  0.11887621058E+02  0.27049287391E+02  0.00000000000E+00 0. -1.
         13    1    4    4    0    0 -0.14045154091E+02  0.89511465650E+02  0.70749420310E+02  0.11495672799E+03  0.00000000000E+00 0. -1.
        -14    1    4    4    0    0  0.92515642480E+02  0.22270498486E+03  0.19652768368E+03  0.31109449503E+03  0.00000000000E+00 0.  1.
          5    1    3    3  501    0  0.33890768784E+02 -0.15420114214E+02 -0.28973849477E+02  0.47363704296E+02  0.41800000000E+01 0. -1.
         -5    1    3    3    0  501 -0.71726856600E+02 -0.22127095555E+03 -0.21886026920E+03  0.31941018701E+03  0.41800000000E+01 0. -1.
</event>
<event>
11    1  0.1704459E-009  0.3299733E+03  0.7561462E-02  0.9882475E-01
         22   -1    0    0    0    0  0.00000000000E+00  0.00000000000E+00  0.14720343582E+03  0.14720343582E+03  0.00000000000E+00 0. -1.
         22   -1    0    0    0    0 -0.00000000000E+00 -0.00000000000E+00 -0.16576155930E+04  0.16576155930E+04  0.00000000000E+00 0. -1.
         25    2    1    2    0    0 -0.32609398535E+03  0.46249757087E+02 -0.11698071053E+04  0.12217084524E+04  0.12508617755E+03 0.  0.
         24    2    1    2    0    0  0.21590898539E+03 -0.16741870017E+03 -0.25120895615E+03  0.37955998953E+03  0.79461530718E+02 0.  0.
        -24    2    1    2    0    0  0.11018499996E+03  0.12116894309E+03 -0.89396095756E+02  0.20355058689E+03  0.81354363756E+02 0.  0.
        -13    1    4    4    0    0  0.74469500098E+01  0.24993219972E+01 -0.30963550934E+02  0.31944407356E+02  0.00000000000E+00 0.  1.
         14    1    4    4    0    0  0.20846203538E+03 -0.16991802217E+03 -0.22024540522E+03  0.34761558218E+03  0.00000000000E+00 0. -1.
         11    1    5    5    0    0  0.63951296454E+02  0.10597882420E+03 -0.31128192379E+02  0.12763323963E+03  0.00000000000E+00 0. -1.
        -12    1    5    5    0    0  0.46233703502E+02  0.15190118887E+02 -0.58267903377E+02  0.75917347261E+02  0.00000000000E+00 0.  1.
          5    1    3    3  501    0 -0.55644314339E+02 -0.33591475872E+02 -0.14802041013E+03  0.16171639120E+03  0.41800000000E+01 0.  1.
         -5    1    3    3    0  501 -0.27044967101E+03  0.79841232958E+02 -0.10217866952E+04  0.10599920612E+04  0.41800000000E+01 0.  1.
</event>
<event>
11    1  0.1704459E-009  0.5313234E+03  0.7561462E-02  0.9326129E-01
         22   -1    0    0    0    0  0.00000000000E+00  0.00000000000E+00  0.38586586981E+02  0.38586586981E+02  0.00000000000E+00 0. -1.
         22   -1    0    0    0    0 -0.00000000000E+00 -0.00000000000E+00 -0.18290331983E+04  0.18290331983E+04  0.00000000000E+00 0.  1.
         25    2    1    2    0    0  0.79865490989E+01 -0.20838360821E+03 -0.93683429767E+03  0.96788030781E+03  0.12508507433E+03 0.  0.
         24    2    1    2    0    0  0.38457094258E+02  0.14180697131E+03 -0.54805824151E+03  0.57308190581E+03  0.80416848113E+02 0.  0.
        -24    2    1    2    0    0 -0.46443643357E+02  0.66576636895E+02 -0.30555407213E+03  0.32665757166E+03  0.82173094975E+02 0.  0.
        -11    1    4    4    0    0 -0.15233281707E+02  0.10944005948E+02 -0.13896274517E+03  0.14022292495E+03  0.00000000000E+00 0.  1.
         12    1    4    4    0    0  0.53690375965E+02  0.13086296537E+03 -0.40909549634E+03  0.43285898085E+03  0.00000000000E+00 0. -1.
         13    1    5    5    0    0 -0.63034753412E+02  0.38381220659E+02 -0.14384095153E+03  0.16166854231E+03  0.00000000000E+00 0. -1.
        -14    1    5    5    0    0  0.16591110055E+02  0.28195416236E+02 -0.16171312060E+03  0.16498902934E+03  0.00000000000E+00 0.  1.
          5    1    3    3  501    0 -0.43556098727E+02 -0.25437988196E+02 -0.25850514163E+03  0.26341337405E+03  0.41800000000E+01 0.  1.
         -5    1    3    3    0  501  0.51542647826E+02 -0.18294562001E+03 -0.67832915604E+03  0.70446693376E+03  0.41800000000E+01 0.  1.
</event>
<event>
11    1  0.1704459E-009  0.2034024E+03  0.7561462E-02  0.1052143E+00
         22   -1    0    0    0    0  0.00000000000E+00  0.00000000000E+00  0.16508399840E+03  0.16508399840E+03  0.00000000000E+00 0.  1.
         22   -1    0    0    0    0 -0.00000000000E+00 -0.00000000000E+00 -0.55428820440E+03  0.55428820440E+03  0.00000000000E+00 0. -1.
         25    2    1    2    0    0 -0.13909469023E+03  0.99969845806E+02 -0.40481350806E+03  0.45701654015E+03  0.12509531863E+03 0.  0.
         24    2    1    2    0    0  0.13565983828E+03 -0.23014551663E+02  0.10184792976E+02  0.15264263241E+03  0.65289983236E+02 0.  0.
        -24    2    1    2    0    0  0.34348519530E+01 -0.76955294143E+02  0.54245090781E+01  0.10971303024E+03  0.77933357433E+02 0.  0.
        -11    1    4    4    0    0  0.48014930983E+02  0.22982850974E+02  0.60478466931E+01  0.53574448068E+02  0.00000000000E+00 0.  1.
         12    1    4    4    0    0  0.87644907294E+02 -0.45997402637E+02  0.41369462827E+01  0.99068184340E+02  0.00000000000E+00 0. -1.
         11    1    5    5    0    0  0.23691753447E+02 -0.53102050651E+02 -0.27470967678E+02  0.64310038330E+02  0.00000000000E+00 0. -1.
        -12    1    5    5    0    0 -0.20256901494E+02 -0.23853243492E+02  0.32895476756E+02  0.45402991909E+02  0.00000000000E+00 0.  1.
          5    1    3    3  501    0 -0.60540726306E+02  0.40033771391E+02 -0.48893998412E+02  0.87612658184E+02  0.41800000000E+01 0. -1.
         -5    1    3    3    0  501 -0.78553963924E+02  0.59936074415E+02 -0.35591950965E+03  0.36940388197E+03  0.41800000000E+01 0. -1.
</event>
<event>
11    1  0.1704459E-009  0.1927451E+03  0.7561462E-02  0.1059776E+00
         22   -1    0    0    0    0  0.00000000000E+00  0.00000000000E+00  0.10254722696E+04  0.10254722696E+04  0.00000000000E+00 0.  1.
         22   -1    0    0    0    0 -0.00000000000E+00 -0.00000000000E+00 -0.62021192341E+03  0.62021192341E+03  0.00000000000E+00 0.  1.
         25    2    1    2    0    0 -0.11788340818E+03 -0.60481509537E+02 -0.22062590650E+03  0.28614141956E+03  0.12508641194E+03 0.  0.
        -24    2    1    2    0    0  0.91183765826E+02  0.13743762072E+03 -0.33943585117E+03  0.38743786202E+03  0.87680220852E+02 0.  0.
         24    2    1    2    0    0  0.26699642350E+02 -0.76956111187E+02  0.96532210383E+03  0.97210491139E+03  0.80660279183E+02 0.  0.
        -13    1    5    5    0    0  0.27626805693E+02 -0.73270806971E+02  0.44956474810E+03  0.45633355594E+03  0.00000000000E+00 0.  1.
         14    1    5    5    0    0 -0.92716334296E+00 -0.36853042162E+01  0.51575735573E+03  0.51577135544E+03  0.00000000000E+00 0. -1.
         13    1    4    4    0    0  0.75933534772E+02  0.13328063645E+03 -0.22744565697E+03  0.27433766899E+03  0.00000000000E+00 0. -1.
        -14    1    4    4    0    0  0.15250231054E+02  0.41569842725E+01 -0.11199019421E+03  0.11310019303E+03  0.00000000000E+00 0.  1.
          5    1    3    3  501    0 -0.11540761381E+03 -0.26950502896E+01 -0.10201230442E+03  0.15411087980E+03  0.41800000000E+01 0.  1.
         -5    1    3    3    0  501 -0.24757943678E+01 -0.57786459247E+02 -0.11861360209E+03  0.13203053976E+03  0.41800000000E+01 0.  1.
</event>
<event>
11    1  0.1704459E-009  0.1306944E+04  0.7561462E-02  0.8431779E-01
         22   -1    0    0    0    0  0.00000000000E+00  0.00000000000E+00  0.99918183869E+03  0.99918183869E+03  0.00000000000E+00 0.  1.
         22   -1    0    0    0    0 -0.00000000000E+00 -0.00000000000E+00 -0.34253091450E+04  0.34253091450E+04  0.00000000000E+00 0.  1.
         25    2    1    2    0    0  0.13571309333E+04 -0.26528923156E+03 -0.20902505336E+04  0.25093778502E+04  0.12508858936E+03 0.  0.
        -24    2    1    2    0    0 -0.11902716386E+04 -0.86667160085E+02 -0.68810970196E+03  0.13799034346E+04  0.79879637964E+02 0.  0.
         24    2    1    2    0    0 -0.16685929477E+03  0.35195639164E+03  0.35223292928E+03  0.53520969890E+03  0.10327661624E+03 0.  0.
        -13    1    5    5    0    0 -0.93563456630E+01  0.59926015358E+02  0.10563819853E+03  0.12181172977E+03  0.00000000000E+00 0.  1.
         14    1    5    5    0    0 -0.15750294911E+03  0.29203037628E+03  0.24659473075E+03  0.41339796913E+03  0.00000000000E+00 0. -1.
         11    1    4    4    0    0 -0.80066061818E+03 -0.78445481722E+02 -0.49965126507E+03  0.94702824973E+03  0.00000000000E+00 0. -1.
        -12    1    4    4    0    0 -0.38961102040E+03 -0.82216783630E+01 -0.18845843689E+03  0.43287518483E+03  0.00000000000E+00 0.  1.
          5    1    3    3  501    0  0.15548986186E+03 -0.29336100204E+02 -0.31769242403E+03  0.35494175946E+03  0.41800000000E+01 0. -1.
         -5    1    3    3    0  501  0.12016410715E+04 -0.23595313135E+03 -0.17725581095E+04  0.21544360907E+04  0.41800000000E+01 0. -1.
</event>
<event>
11    1  0.1704459E-009  0.2685205E+03  0.7561462E-02  0.1014471E+00
         22   -1    0    0    0    0  0.00000000000E+00  0.00000000000E+00  0.15888473977E+04  0.15888473977E+04  0.00000000000E+00 0.  1.
         22   -1    0    0    0    0 -0.00000000000E+00 -0.00000000000E+00 -0.71738560939E+03  0.71738560939E+03  0.00000000000E+00 0. -1.
         25    2    1    2    0    0  0.18074224767E+03  0.21691206545E+03 -0.61340514054E+03  0.68675477604E+03  0.12509057416E+03 0.  0.
         24    2    1    2    0    0  0.21604679618E+02 -0.93286917408E+02  0.73036944825E+01  0.12108369893E+03  0.73747590147E+02 0.  0.
        -24    2    1    2    0    0 -0.20234692729E+03 -0.12362514804E+03  0.14775632344E+04  0.14983945321E+04  0.75931588104E+02 0.  0.
        -11    1    4    4    0    0  0.47999506669E+02 -0.67948568087E+02  0.12506516922E+02  0.84127127082E+02  0.00000000000E+00 0.  1.
         12    1    4    4    0    0 -0.26394827051E+02 -0.25338349321E+02 -0.52028224399E+01  0.36956571847E+02  0.00000000000E+00 0. -1.
         13    1    5    5    0    0 -0.17920569250E+03 -0.78691011090E+02  0.10751359778E+04  0.10928057130E+04  0.00000000000E+00 0. -1.
        -14    1    5    5    0    0 -0.23141234791E+02 -0.44934136954E+02  0.40242725652E+03  0.40558881913E+03  0.00000000000E+00 0.  1.
          5    1    3    3  501    0  0.40224530286E+02  0.12913508317E+03 -0.35338511461E+03  0.37840770893E+03  0.41800000000E+01 0.  1.
         -5    1    3    3    0  501  0.14051771739E+03  0.87776982278E+02 -0.26002002593E+03  0.30834706712E+03  0.41800000000E+01 0.  1.
</event>
<event>
11    1  0.1704459E-009  0.2984545E+03  0.7561462E-02  0.1000847E+00
         22   -1    0    0    0    0  0.00000000000E+00  0.00000000000E+00  0.47251954389E+03  0.47251954389E+03  0.00000000000E+00 0. -1.
         22   -1    0    0    0    0 -0.00000000000E+00 -0.00000000000E+00 -0.34332801508E+03  0.34332801508E+03  0.00000000000E+00 0. -1.
         25    2    1    2    0    0 -0.16862575642E+02 -0.28105045907E+03 -0.12432983341E+03  0.33223882477E+03  0.12510404552E+03 0.  0.
        -24    2    1    2    0    0 -0.86473108448E+02  0.24736611635E+03  0.14678560580E+03  0.31099502980E+03  0.80649243570E+02 0.  0.
         24    2    1    2    0    0  0.10333568409E+03  0.33684342728E+02  0.10673575642E+03  0.17261370440E+03  0.81179250406E+02 0.  0.
        -13    1    5    5    0    0 -0.98043940689E+01  0.18599048559E+02  0.11532089875E+02  0.23979988474E+02  0.00000000000E+00 0.  1.
         14    1    5    5    0    0  0.11314007816E+03  0.15085294169E+02  0.95203666548E+02  0.14863371593E+03  0.00000000000E+00 0. -1.
         11    1    4    4    0    0 -0.80742867824E+02  0.14967808293E+03  0.60431523318E+02  0.18048520223E+03  0.00000000000E+00 0. -1.
        -12    1    4    4    0    0 -0.57302406236E+01  0.97688033420E+02  0.86354082481E+02  0.13050982757E+03  0.00000000000E+00 0.  1.
          5    1    3    3  501    0  0.30064817500E+02 -0.20521809536E+03 -0.12642457733E+03  0.24293827625E+03  0.41800000000E+01 0.  1.
         -5    1    3    3    0  501 -0.46927393141E+02 -0.75832363719E+02  0.20947439242E+01  0.89300548522E+02  0.41800000000E+01 0.  1.
</event>
<event>
11    1  0.1704459E-009  0.1780447E+04  0.7561462E-02  0.8163463E-01
         22   -1    0    0    0    0  0.00000000000E+00  0.00000000000E+00  0.58217794197E+03  0.58217794197E+03  0.00000000000E+00 0.  1.
         22   -1    0    0    0    0 -0.00000000000E+00 -0.00000000000E+00 -0.13612636404E+04  0.13612636404E+04  0.00000000000E+00 0. -1.
         25    2    1    2    0    0 -0.37570247125E+02 -0.20500410761E+03 -0.13149133801E+04  0.13371918265E+04  0.12508627446E+03 0.  0.
        -24    2    1    2    0    0  0.41919140462E+02  0.16926954698E+03  0.39670166432E+03  0.44036893975E+03  0.78378560501E+02 0.  0.
         24    2    1    2    0    0 -0.43488933371E+01  0.35734560630E+02  0.13912601733E+03  0.16588081616E+03  0.82852427690E+02 0.  0.
        -13    1    5    5    0    0  0.39127972011E+01  0.60120064451E+02  0.71378099977E+02  0.93405381471E+02  0.00000000000E+00 0.  1.
         14    1    5    5    0    0 -0.82616905381E+01 -0.24385503821E+02  0.67747917355E+02  0.72475434687E+02  0.00000000000E+00 0. -1.
         13    1    4    4    0    0  0.41781189479E+02  0.36825548201E+02  0.15586983650E+03  0.16552097971E+03  0.00000000000E+00 0. -1.
        -14    1    4    4    0    0  0.13795098240E+00  0.13244399878E+03  0.24083182783E+03  0.27484796004E+03  0.00000000000E+00 0.  1.
          5    1    3    3  501    0 -0.28804017140E+02 -0.21831784764E+03 -0.11114800599E+04  0.11330921189E+04  0.41800000000E+01 0.  1.
         -5    1    3    3    0  501 -0.87662299851E+01  0.13313740035E+02 -0.20343332027E+03  0.20409970764E+03  0.41800000000E+01 0.  1.
</event>
<event>
11    1  0.1704459E-009  0.5388213E+03  0.7561462E-02  0.9310727E-01
         22   -1    0    0    0    0  0.00000000000E+00  0.00000000000E+00  0.68030607990E+03  0.68030607990E+03  0.00000000000E+00 0.  1.
         22   -1    0    0    0    0 -0.00000000000E+00 -0.00000000000E+00 -0.83371114634E+03  0.83371114634E+03  0.00000000000E+00 0.  1.
         25    2    1    2    0    0  0.73068304322E+02 -0.57327597960E+03 -0.40143248591E+03  0.71468901356E+03  0.12509204402E+03 0.  0.
         24    2    1    2    0    0  0.18964610738E+03  0.21558364239E+03  0.34265776618E+02  0.30000677096E+03  0.79924753747E+02 0.  0.
        -24    2    1    2    0    0 -0.26271441170E+03  0.35769233720E+03  0.21376164285E+03  0.49932144173E+03  0.81640627217E+02 0.  0.
        -11    1    4    4    0    0  0.89531557368E+02  0.62725255177E+02  0.42023293305E+02  0.11711667081E+03  0.00000000000E+00 0.  1.
         12    1    4    4    0    0  0.10011455001E+03  0.15285838722E+03 -0.77575166872E+01  0.18289010015E+03  0.00000000000E+00 0. -1.
         11    1    5    5    0    0 -0.20365160963E+03  0.21544524234E+03  0.15436157623E+03  0.33424261663E+03  0.00000000000E+00 0. -1.
        -12    1    5    5    0    0 -0.59062802073E+02  0.14224709486E+03  0.59400066617E+02  0.16507882511E+03  0.00000000000E+00 0.  1.
          5    1    3    3  501    0  0.14831356629E+02 -0.57897530480E+00 -0.75517628308E+01  0.17169911873E+02  0.41800000000E+01 0. -1.
         -5    1    3    3    0  501  0.58236947692E+02 -0.57269700429E+03 -0.39388072307E+03  0.69751910168E+03  0.41800000000E+01 0. -1.
</event>
<event>
11    1  0.1704459E-009  0.1521869E+03  0.7561462E-02  0.1094665E+00
         22   -1    0    0    0    0  0.00000000000E+00  0.00000000000E+00  0.32591708356E+03  0.32591708356E+03  0.00000000000E+00 0.  1.
         22   -1    0    0    0    0 -0.00000000000E+00 -0.00000000000E+00 -0.67120287226E+03  0.67120287226E+03  0.00000000000E+00 0. -1.
         25    2    1    2    0    0 -0.87116020218E+02  0.11899066944E+03 -0.41225953459E+03  0.45536737459E+03  0.12511411425E+03 0.  0.
         24    2    1    2    0    0  0.35814136872E+02 -0.51426533866E+02 -0.21302321569E+03  0.23591694655E+03  0.79690491661E+02 0.  0.
        -24    2    1    2    0    0  0.51301883345E+02 -0.67564135572E+02  0.27999696158E+03  0.30583563469E+03  0.89108592742E+02 0.  0.
        -11    1    4    4    0    0  0.52494420988E+02 -0.18298976296E+02 -0.17128226890E+03  0.18007812862E+03  0.00000000000E+00 0.  1.
         12    1    4    4    0    0 -0.16680284115E+02 -0.33127557570E+02 -0.41740946789E+02  0.55838817928E+02  0.00000000000E+00 0. -1.
         11    1    5    5    0    0  0.34846041261E+02  0.59169828887E+01  0.16235516675E+03  0.16615792924E+03  0.00000000000E+00 0. -1.
        -12    1    5    5    0    0  0.16455842085E+02 -0.73481118460E+02  0.11764179483E+03  0.13967770545E+03  0.00000000000E+00 0.  1.
          5    1    3    3  501    0 -0.59666490274E+01 -0.26044044481E+02 -0.63045995186E+02  0.68601480032E+02  0.41800000000E+01 0. -1.
         -5    1    3    3    0  501 -0.81149371190E+02  0.14503471392E+03 -0.34921353940E+03  0.38676589455E+03  0.41800000000E+01 0. -1.
</event>
<event>
11    1  0.1704459E-009  0.2320900E+03  0.7561462E-02  0.1033898E+00
         22   -1    0    0    0    0  0.00000000000E+00  0.00000000000E+00  0.10675349210E+03  0.10675349210E+03  0.00000000000E+00 0. -1.
         22   -1    0    0    0    0 -0.00000000000E+00 -0.00000000000E+00 -0.13481444351E+04  0.13481444351E+04  0.00000000000E+00 0. -1.
         25    2    1    2    0    0  0.42459295241E+02  0.70347193873E+02 -0.42719067851E+03  0.45264939601E+03  0.12509228777E+03 0.  0.
        -24    2    1    2    0    0 -0.12842019045E+03 -0.23927154105E+03 -0.70225744190E+03  0.75723569859E+03  0.80608764049E+02 0.  0.
         24    2    1    2    0    0  0.85960895212E+02  0.16892434718E+03 -0.11194282261E+03  0.24501283264E+03  0.10758894947E+03 0.  0.
        -11    1    5    5    0    0 -0.18326062973E+02  0.76168595443E+02 -0.42337324207E+02  0.89050258489E+02  0.00000000000E+00 0.  1.
         12    1    5    5    0    0  0.10428695819E+03  0.92755751732E+02 -0.69605498402E+02  0.15596257415E+03  0.00000000000E+00 0. -1.
         13    1    4    4    0    0 -0.10120174255E+03 -0.11479793984E+03 -0.32954299141E+03  0.36334411083E+03  0.00000000000E+00 0. -1.
        -14    1    4    4    0    0 -0.27218447904E+02 -0.12447360121E+03 -0.37271445049E+03  0.39389158776E+03  0.00000000000E+00 0.  1.
          5    1    3    3  501    0  0.81871590398E+02  0.19702925318E+02 -0.21550778855E+03  0.23141357330E+03  0.41800000000E+01 0.  1.
         -5    1    3    3    0  501 -0.39412295158E+02  0.50644268555E+02 -0.21168288996E+03  0.22123582271E+03  0.41800000000E+01 0.  1.
</event>
<event>
11    1  0.1704459E-009  0.1718552E+03  0.7561462E-02  0.1076428E+00
         22   -1    0    0    0    0  0.00000000000E+00  0.00000000000E+00  0.40698545374E+02  0.40698545374E+02  0.00000000000E+00 0. -1.
         22   -1    0    0    0    0 -0.00000000000E+00 -0.00000000000E+00 -0.15016009246E+04  0.15016009246E+04  0.00000000000E+00 0. -1.
         25    2    1    2    0    0  0.17453303316E+02 -0.10731393691E+02 -0.60184013699E+03  0.61504339747E+03  0.12508816762E+03 0.  0.
        -24    2    1    2    0    0  0.64403282338E+02  0.13768919524E+03 -0.50945324594E+03  0.53771325348E+03  0.80540895847E+02 0.  0.
         24    2    1    2    0    0 -0.81856585654E+02 -0.12695780155E+03 -0.34960899631E+03  0.38954281903E+03  0.81843592132E+02 0.  0.
        -11    1    5    5    0    0 -0.33702665781E+02 -0.18260032941E+02 -0.30430317763E+02  0.48941829991E+02  0.00000000000E+00 0.  1.
         12    1    5    5    0    0 -0.48153919873E+02 -0.10869776861E+03 -0.31917867854E+03  0.34060098904E+03  0.00000000000E+00 0. -1.
         11    1    4    4    0    0  0.69476439371E+02  0.12529573634E+03 -0.50269609333E+03  0.52271345824E+03  0.00000000000E+00 0. -1.
        -12    1    4    4    0    0 -0.50731570331E+01  0.12393458903E+02 -0.67571526100E+01  0.14999795241E+02  0.00000000000E+00 0.  1.
          5    1    3    3  501    0 -0.37093686160E+02 -0.83672788771E+01 -0.47931204855E+03  0.48083621452E+03  0.41800000000E+01 0. -1.
         -5    1    3    3    0  501  0.54546989476E+02 -0.23641148141E+01 -0.12252808844E+03  0.13420718295E+03  0.41800000000E+01 0. -1.
</event>
<event>
11    1  0.1704459E-009  0.4885420E+03  0.7561462E-02  0.9419495E-01
         22   -1    0    0    0    0  0.00000000000E+00  0.00000000000E+00  0.91174839357E+03  0.91174839357E+03  0.00000000000E+00 0.  1.
         22   -1    0    0    0    0 -0.00000000000E+00 -0.00000000000E+00 -0.23568900962E+03  0.23568900962E+03  0.00000000000E+00 0.  1.
         25    2    1    2    0    0  0.20262394858E+03  0.12660496238E+03  0.94910370161E+02  0.28590506199E+03  0.12509374512E+03 0.  0.
        -24    2    1    2    0    0 -0.34181768223E+03 -0.25251927188E+03  0.38147601640E+03  0.57695281880E+03  0.82129735655E+02 0.  0.
         24    2    1    2    0    0  0.13919373365E+03  0.12591430950E+03  0.19967299739E+03  0.28457952240E+03  0.76726070283E+02 0.  0.
        -11    1    5    5    0    0  0.13392630978E+03  0.13423203895E+03  0.17506104098E+03  0.25807143352E+03  0.00000000000E+00 0.  1.
         12    1    5    5    0    0  0.52674238663E+01 -0.83177294560E+01  0.24611956415E+02  0.26508088880E+02  0.00000000000E+00 0. -1.
         13    1    4    4    0    0 -0.48728180999E+02 -0.68699357345E+01  0.30555934241E+02  0.57924923460E+02  0.00000000000E+00 0. -1.
        -14    1    4    4    0    0 -0.29308950123E+03 -0.24564933614E+03  0.35092008216E+03  0.51902789534E+03  0.00000000000E+00 0.  1.
          5    1    3    3  501    0  0.19057064189E+02  0.73157255625E+02  0.89598541867E+01  0.76242423447E+02  0.41800000000E+01 0.  1.
         -5    1    3    3    0  501  0.18356688440E+03  0.53447706757E+02  0.85950515975E+02  0.20966263854E+03  0.41800000000E+01 0.  1.
</event>
<event>
11    1  0.1704459E-009  0.5300356E+03  0.7561462E-02  0.9328802E-01
         22   -1    0    0    0    0  0.00000000000E+00  0.00000000000E+00  0.13093259052E+04  0.13093259052E+04  0.00000000000E+00 0.  1.
         22   -1    0    0    0    0 -0.00000000000E+00 -0.00000000000E+00 -0.15938680750E+04  0.15938680750E+04  0.00000000000E+00 0.  1.
         25    2    1    2    0    0 -0.16365655461E+03  0.49376990079E+03 -0.14511128634E+04  0.15465994211E+04  0.12509613991E+03 0.  0.
        -24    2    1    2    0    0  0.22809617225E+02 -0.46030506667E+03  0.56799804712E+03  0.73579870628E+03  0.79855629703E+02 0.  0.
         24    2    1    2    0    0  0.14084693739E+03 -0.33464834112E+02  0.59857264650E+03  0.62079585289E+03  0.78361488828E+02 0.  0.
        -13    1    5    5    0    0  0.11547783015E+03 -0.46494721737E+02  0.36842749231E+03  0.38889035151E+03  0.00000000000E+00 0.  1.
         14    1    5    5    0    0  0.25369107236E+02  0.13029887625E+02  0.23014515419E+03  0.23190550138E+03  0.00000000000E+00 0. -1.
         11    1    4    4    0    0  0.42487119912E+02 -0.16242955656E+03  0.17840638355E+03  0.24498439521E+03  0.00000000000E+00 0. -1.
        -12    1    4    4    0    0 -0.19677502687E+02 -0.29787551011E+03  0.38959166357E+03  0.49081431107E+03  0.00000000000E+00 0.  1.
          5    1    3    3  501    0 -0.18241621439E+03  0.41975196936E+03 -0.12722554477E+04  0.13520794309E+04  0.41800000000E+01 0.  1.
         -5    1    3    3    0  501  0.18759659776E+02  0.74017931428E+02 -0.17885741573E+03  0.19451999016E+03  0.41800000000E+01 0.  1.
</event>
<event>
11    1  0.1704459E-009  0.5830929E+03  0.7561462E-02  0.9224894E-01
         22   -1    0    0    0    0  0.00000000000E+00  0.00000000000E+00  0.79080098137E+03  0.79080098137E+03  0.00000000000E+00 0. -1.
         22   -1    0    0    0    0 -0.00000000000E+00 -0.00000000000E+00 -0.57109627200E+03  0.57109627200E+03  0.00000000000E+00 0. -1.
         25    2    1    2    0    0 -0.52806785702E+03  0.20098930899E+03 -0.14147420778E+03  0.59574765278E+03  0.12509176787E+03 0.  0.
        -24    2    1    2    0    0  0.52775134745E+03 -0.24094307371E+03  0.32322986828E+03  0.66880343600E+03  0.79028088417E+02 0.  0.
         24    2    1    2    0    0  0.31650956735E+00  0.39953764723E+02  0.37949048874E+02  0.97346164586E+02  0.80248002812E+02 0.  0.
        -11    1    5    5    0    0 -0.16188223342E+02  0.90312697449E+01 -0.21466176050E+02  0.28362283448E+02  0.00000000000E+00 0.  1.
         12    1    5    5    0    0  0.16504732910E+02  0.30922494978E+02  0.59415224924E+02  0.68983881138E+02  0.00000000000E+00 0. -1.
         13    1    4    4    0    0  0.30828581967E+03 -0.18147046243E+03  0.18557513609E+03  0.40300100059E+03  0.00000000000E+00 0. -1.
        -14    1    4    4    0    0  0.21946552778E+03 -0.59472611281E+02  0.13765473219E+03  0.26580243542E+03  0.00000000000E+00 0.  1.
          5    1    3    3  501    0 -0.19354418019E+03  0.20060853843E+02 -0.16162944345E+02  0.19529593112E+03  0.41800000000E+01 0.  1.
         -5    1    3    3    0  501 -0.33452367682E+03  0.18092845514E+03 -0.12531126344E+03  0.40045172166E+03  0.41800000000E+01 0.  1.
</event>
<event>
11    1  0.1704459E-009  0.5517364E+03  0.7561462E-02  0.9284809E-01
         22   -1    0    0    0    0  0.00000000000E+00  0.00000000000E+00  0.47430463161E+03  0.47430463161E+03  0.00000000000E+00 0.  1.
         22   -1    0    0    0    0 -0.00000000000E+00 -0.00000000000E+00 -0.18676304095E+04  0.18676304095E+04  0.00000000000E+00 0.  1.
         25    2    1    2    0    0 -0.55161419931E+02 -0.54280659441E+03 -0.15948605049E+04  0.16902394041E+04  0.12508969543E+03 0.  0.
        -24    2    1    2    0    0  0.10857499569E+02  0.48649598365E+03  0.10008235128E+03  0.50326810321E+03  0.80411934834E+02 0.  0.
         24    2    1    2    0    0  0.44303920363E+02  0.56310610757E+02  0.10145237571E+03  0.14842753382E+03  0.81267619727E+02 0.  0.
        -11    1    5    5    0    0  0.21829165768E+02  0.23357372668E+02  0.10366076422E+03  0.10847872314E+03  0.00000000000E+00 0.  1.
         12    1    5    5    0    0  0.22474754595E+02  0.32953238089E+02 -0.22083885143E+01  0.39948810677E+02  0.00000000000E+00 0. -1.
         11    1    4    4    0    0  0.19928100411E+02  0.14774745934E+03  0.64824363806E+02  0.16256887485E+03  0.00000000000E+00 0. -1.
        -12    1    4    4    0    0 -0.90706008426E+01  0.33874852432E+03  0.35257987478E+02  0.34069922837E+03  0.00000000000E+00 0.  1.
          5    1    3    3  501    0 -0.35203494406E+02 -0.45516340792E+02 -0.11041425023E+03  0.12457849875E+03  0.41800000000E+01 0. -1.
         -5    1    3    3    0  501 -0.19957925525E+02 -0.49729025362E+03 -0.14844462547E+04  0.15656609053E+04  0.41800000000E+01 0. -1.
</event>
<event>
11    1  0.1704459E-009  0.4508755E+03  0.7561462E-02  0.9510531E-01
         22   -1    0    0    0    0  0.00000000000E+00  0.00000000000E+00  0.11157789248E+04  0.11157789248E+04  0.00000000000E+00 0. -1.
         22   -1    0    0    0    0 -0.00000000000E+00 -0.00000000000E+00 -0.17001083334E+03  0.17001083334E+03  0.00000000000E+00 0. -1.
         25    2    1    2    0    0  0.51435342166E+02 -0.14104005065E+03  0.14584180263E+03  0.24383404744E+03  0.12508925207E+03 0.  0.
         24    2    1    2    0    0  0.17249338258E+03 -0.16976567906E+03  0.19586557238E+03  0.32189793238E+03  0.81734959487E+02 0.  0.
        -24    2    1    2    0    0 -0.22392872475E+03  0.31080572971E+03  0.60406071648E+03  0.72005777836E+03  0.82762186939E+02 0.  0.
        -11    1    4    4    0    0  0.29094764119E+01 -0.17485387430E+02 -0.46530606933E+01  0.18326341708E+02  0.00000000000E+00 0.  1.
         12    1    4    4    0    0  0.16958390617E+03 -0.15228029163E+03  0.20051863307E+03  0.30357159067E+03  0.00000000000E+00 0. -1.
         13    1    5    5    0    0 -0.15539306671E+03  0.22946971987E+03  0.36402067429E+03  0.45750891666E+03  0.00000000000E+00 0. -1.
        -14    1    5    5    0    0 -0.68535658038E+02  0.81336009845E+02  0.24004004219E+03  0.26254886169E+03  0.00000000000E+00 0.  1.
          5    1    3    3  501    0 -0.27968414589E+02 -0.19833093063E+01  0.17916864233E+01  0.28405074734E+02  0.41800000000E+01 0. -1.
         -5    1    3    3    0  501  0.79403756755E+02 -0.13905674134E+03  0.14405011621E+03  0.21542897270E+03  0.41800000000E+01 0. -1.
</event>
<event>
11    1  0.1704459E-009  0.1367545E+03  0.7561462E-02  0.1111238E+00
         22   -1    0    0    0    0  0.00000000000E+00  0.00000000000E+00  0.71114967668E+02  0.71114967668E+02  0.00000000000E+00 0.  1.
         22   -1    0    0    0    0 -0.00000000000E+00 -0.00000000000E+00 -0.49060775376E+03  0.49060775376E+03  0.00000000000E+00 0.  1.
         25    2    1    2    0    0  0.61263254435E+02  0.13453807022E+01 -0.27024468365E+03  0.30403165055E+03  0.12509220239E+03 0.  0.
         24    2    1    2    0    0 -0.48747686843E+02 -0.11274028709E+02 -0.13616363286E+03  0.16871146374E+03  0.86136997795E+02 0.  0.
        -24    2    1    2    0    0 -0.12515567592E+02  0.99286480066E+01 -0.13084469583E+02  0.88979607140E+02  0.86550272438E+02 0.  0.
        -11    1    4    4    0    0 -0.71247054973E+02 -0.21227070493E+02 -0.93386223620E+02  0.11936380576E+03  0.00000000000E+00 0.  1.
         12    1    4    4    0    0  0.22499368130E+02  0.99530417840E+01 -0.42777409237E+02  0.49347657979E+02  0.00000000000E+00 0. -1.
         13    1    5    5    0    0  0.13804388655E+02 -0.27556156728E+02  0.15997083691E+02  0.34724769350E+02  0.00000000000E+00 0. -1.
        -14    1    5    5    0    0 -0.26319956247E+02  0.37484804735E+02 -0.29081553273E+02  0.54254837790E+02  0.00000000000E+00 0.  1.
          5    1    3    3  501    0  0.74199462360E+02  0.40600177097E+02 -0.23417057024E+03  0.24901257591E+03  0.41800000000E+01 0.  1.
         -5    1    3    3    0  501 -0.12936207925E+02 -0.39254796395E+02 -0.36074113415E+02  0.55019074639E+02  0.41800000000E+01 0.  1.
</event>
<event>
11    1  0.1704459E-009  0.1472256E+03  0.7561462E-02  0.1099748E+00
         22   -1    0    0    0    0  0.00000000000E+00  0.00000000000E+00  0.74699882272E+02  0.74699882272E+02  0.00000000000E+00 0. -1.
         22   -1    0    0    0    0 -0.00000000000E+00 -0.00000000000E+00 -0.11014013246E+04  0.11014013246E+04  0.00000000000E+00 0. -1.
         25    2    1    2    0    0 -0.17696573486E+02  0.16980488935E+02 -0.79542964959E+03  0.80557939339E+03  0.12509326876E+03 0.  0.
        -24    2    1    2    0    0 -0.59868861069E+02  0.74627780749E+01 -0.23764625116E+03  0.25785698511E+03  0.79840531656E+02 0.  0.
         24    2    1    2    0    0  0.77565434555E+02 -0.24443267010E+02  0.63744584024E+01  0.11266482840E+03  0.77710101646E+02 0.  0.
        -11    1    5    5    0    0 -0.15597786649E+02 -0.76382552189E+01  0.46626135431E+01  0.17982598705E+02  0.00000000000E+00 0.  1.
         12    1    5    5    0    0  0.93163221204E+02 -0.16805011791E+02  0.17118448593E+01  0.94682229691E+02  0.00000000000E+00 0. -1.
         13    1    4    4    0    0 -0.31035255276E+02  0.42443120105E+02 -0.15381996830E+03  0.16255826083E+03  0.00000000000E+00 0. -1.
        -14    1    4    4    0    0 -0.28833605793E+02 -0.34980342030E+02 -0.83826282858E+02  0.95298724280E+02  0.00000000000E+00 0.  1.
          5    1    3    3  501    0 -0.16354014370E+02 -0.53778495845E+02 -0.32925888939E+03  0.33404860281E+03  0.41800000000E+01 0.  1.
         -5    1    3    3    0  501 -0.13425591157E+01  0.70758984780E+02 -0.46617076020E+03  0.47153079057E+03  0.41800000000E+01 0.  1.
</event>
<event>
11    1  0.1704459E-009  0.1627281E+03  0.7561462E-02  0.1084539E+00
         22   -1    0    0    0    0  0.00000000000E+00  0.00000000000E+00  0.90676780388E+02  0.90676780388E+02  0.00000000000E+00 0.  1.
         22   -1    0    0    0    0 -0.00000000000E+00 -0.00000000000E+00 -0.97908591135E+03  0.97908591135E+03  0.00000000000E+00 0.  1.
         25    2    1    2    0    0  0.21790486371E+01 -0.23882788138E+02 -0.65823192520E+03  0.67044363455E+03  0.12510101495E+03 0.  0.
         24    2    1    2    0    0  0.40933230958E+02 -0.12237448902E+03 -0.13353239198E+03  0.20232107092E+03  0.80323539949E+02 0.  0.
        -24    2    1    2    0    0 -0.43112279595E+02  0.14625727716E+03 -0.96644813789E+02  0.19699798627E+03  0.78855099955E+02 0.  0.
        -13    1    4    4    0    0  0.46105400784E+02 -0.13210190757E+03 -0.11666197630E+03  0.18217200300E+03  0.00000000000E+00 0.  1.
         14    1    4    4    0    0 -0.51721698262E+01  0.97274185526E+01 -0.16870415681E+02  0.20149067910E+02  0.00000000000E+00 0. -1.
         11    1    5    5    0    0  0.19719493091E+02  0.70467038001E+02 -0.39098221631E+02  0.82964647815E+02  0.00000000000E+00 0. -1.
        -12    1    5    5    0    0 -0.62831772686E+02  0.75790239157E+02 -0.57546592158E+02  0.11403333846E+03  0.00000000000E+00 0.  1.
          5    1    3    3  501    0  0.46265808590E+02 -0.12066614270E+01 -0.54229332930E+03  0.54428072580E+03  0.41800000000E+01 0. -1.
         -5    1    3    3    0  501 -0.44086759953E+02 -0.22676126711E+02 -0.11593859590E+03  0.12616290875E+03  0.41800000000E+01 0. -1.
</event>
<event>
11    1  0.1704459E-009  0.1386126E+03  0.7561462E-02  0.1109118E+00
         22   -1    0    0    0    0  0.00000000000E+00  0.00000000000E+00  0.11217404731E+03  0.11217404731E+03  0.00000000000E+00 0. -1.
         22   -1    0    0    0    0 -0.00000000000E+00 -0.00000000000E+00 -0.49280022362E+03  0.49280022362E+03  0.00000000000E+00 0. -1.
         25    2    1    2    0    0 -0.33129620288E+02 -0.51418760140E+02 -0.32481385045E+03  0.35340282168E+03  0.12509219118E+03 0.  0.
        -24    2    1    2    0    0 -0.55365445199E+00  0.63837829176E+02 -0.10549853775E+03  0.14940427664E+03  0.84357106669E+02 0.  0.
         24    2    1    2    0    0  0.33683274740E+02 -0.12419069036E+02  0.49686211891E+02  0.10216717259E+03  0.81735030620E+02 0.  0.
        -13    1    5    5    0    0  0.17785464925E+02 -0.15822784716E+02 -0.19701404515E+02  0.30900301271E+02  0.00000000000E+00 0.  1.
         14    1    5    5    0    0  0.15897809815E+02  0.34037156802E+01  0.69387616406E+02  0.71266871321E+02  0.00000000000E+00 0. -1.
         13    1    4    4    0    0  0.92363179374E+01  0.70740223323E+02 -0.11416301196E+03  0.13462051130E+03  0.00000000000E+00 0. -1.
        -14    1    4    4    0    0 -0.97899723894E+01 -0.69023941470E+01  0.86644742079E+01  0.14783765341E+02  0.00000000000E+00 0.  1.
          5    1    3    3  501    0  0.47183246465E+02 -0.29795136688E+02 -0.13248333170E+03  0.14381694787E+03  0.41800000000E+01 0.  1.
         -5    1    3    3    0  501 -0.80312866752E+02 -0.21623623452E+02 -0.19233051876E+03  0.20958587381E+03  0.41800000000E+01 0.  1.
</event>
<event>
11    1  0.1704459E-009  0.3157674E+03  0.7561462E-02  0.9937304E-01
         22   -1    0    0    0    0  0.00000000000E+00  0.00000000000E+00  0.35624172813E+04  0.35624172813E+04  0.00000000000E+00 0.  1.
         22   -1    0    0    0    0 -0.00000000000E+00 -0.00000000000E+00 -0.53684462500E+02  0.53684462500E+02  0.00000000000E+00 0.  1.
         25    2    1    2    0    0  0.28897523775E+03 -0.79090450605E+02  0.58916413201E+03  0.67269901562E+03  0.12509038233E+03 0.  0.
        -24    2    1    2    0    0 -0.24578104274E+03  0.91156984905E+02  0.18545332073E+04  0.18745644448E+04  0.77333846755E+02 0.  0.
         24    2    1    2    0    0 -0.43194195006E+02 -0.12066534300E+02  0.10650354795E+04  0.10688382834E+04  0.78124027908E+02 0.  0.
        -11    1    5    5    0    0 -0.28196020659E+02 -0.18959677400E+02  0.15619567984E+03  0.15984860134E+03  0.00000000000E+00 0.  1.
         12    1    5    5    0    0 -0.14998174347E+02  0.68931431000E+01  0.90883979964E+03  0.90898968205E+03  0.00000000000E+00 0. -1.
         11    1    4    4    0    0 -0.37792926977E+02 -0.45769326262E+01  0.15154772876E+03  0.15625609663E+03  0.00000000000E+00 0. -1.
        -12    1    4    4    0    0 -0.20798811577E+03  0.95733917531E+02  0.17029854786E+04  0.17183083482E+04  0.00000000000E+00 0.  1.
          5    1    3    3  501    0  0.30127573037E+03 -0.73011007329E+02  0.56859094984E+03  0.64761934309E+03  0.41800000000E+01 0.  1.
         -5    1    3    3    0  501 -0.12300492624E+02 -0.60794432760E+01  0.20573182176E+02  0.25079672529E+02  0.41800000000E+01 0.  1.
</event>
<event>
11    1  0.1704459E-009  0.1532223E+03  0.7561462E-02  0.1093631E+00
         22   -1    0    0    0    0  0.00000000000E+00  0.00000000000E+00  0.24355065462E+04  0.24355065462E+04  0.00000000000E+00 0. -1.
         22   -1    0    0    0    0 -0.00000000000E+00 -0.00000000000E+00 -0.35688537236E+03  0.35688537236E+03  0.00000000000E+00 0. -1.
         25    2    1    2    0    0  0.60156059592E+02  0.36119961150E+02 -0.32043220523E+03  0.35106643953E+03  0.12508974266E+03 0.  0.
         24    2    1    2    0    0  0.25354172503E+02 -0.12987741549E+02  0.66212504659E+02  0.10532754203E+03  0.76800259398E+02 0.  0.
        -24    2    1    2    0    0 -0.85510232095E+02 -0.23132219601E+02  0.23328408744E+04  0.23359979370E+04  0.83022388381E+02 0.  0.
        -13    1    4    4    0    0  0.21545066006E+02 -0.41151481978E+02  0.60606822450E+02  0.76359814469E+02  0.00000000000E+00 0.  1.
         14    1    4    4    0    0  0.38091064973E+01  0.28163740428E+02  0.56056822089E+01  0.28967727564E+02  0.00000000000E+00 0. -1.
         11    1    5    5    0    0 -0.10080608202E+03 -0.13572577543E+02  0.20986348981E+04  0.21010984071E+04  0.00000000000E+00 0. -1.
        -12    1    5    5    0    0  0.15295849924E+02 -0.95596420580E+01  0.23420597632E+03  0.23489952986E+03  0.00000000000E+00 0.  1.
          5    1    3    3  501    0  0.66747134478E+02  0.70261699741E+02 -0.16209746361E+03  0.18890459634E+03  0.41800000000E+01 0. -1.
         -5    1    3    3    0  501 -0.65910748862E+01 -0.34141738591E+02 -0.15833474162E+03  0.16216184319E+03  0.41800000000E+01 0. -1.
</event>
<event>
11    1  0.1704459E-009  0.1407477E+03  0.7561462E-02  0.1106726E+00
         22   -1    0    0    0    0  0.00000000000E+00  0.00000000000E+00  0.26206767451E+03  0.26206767451E+03  0.00000000000E+00 0. -1.
         22   -1    0    0    0    0 -0.00000000000E+00 -0.00000000000E+00 -0.13196316973E+03  0.13196316973E+03  0.00000000000E+00 0. -1.
         25    2    1    2    0    0  0.39349908503E+02  0.51943288407E+02 -0.24200261263E+02  0.14310737632E+03  0.12509015949E+03 0.  0.
         24    2    1    2    0    0 -0.54263903019E+02 -0.36584457567E+02  0.12477526819E+03  0.16299479874E+03  0.81947807531E+02 0.  0.
        -24    2    1    2    0    0  0.14913994516E+02 -0.15358830840E+02  0.29529497847E+02  0.87928669183E+02  0.80007116583E+02 0.  0.
        -11    1    4    4    0    0  0.16867942460E+02 -0.28719339537E+02  0.40035050950E+02  0.52078145616E+02  0.00000000000E+00 0.  1.
         12    1    4    4    0    0 -0.71131845480E+02 -0.78651180298E+01  0.84740217240E+02  0.11091665313E+03  0.00000000000E+00 0. -1.
         13    1    5    5    0    0  0.17941480971E+02 -0.44372627596E+02  0.33594074931E+02  0.58475539242E+02  0.00000000000E+00 0. -1.
        -14    1    5    5    0    0 -0.30274864550E+01  0.29013796755E+02 -0.40645770844E+01  0.29453129940E+02  0.00000000000E+00 0.  1.
          5    1    3    3  501    0 -0.15196648852E+02 -0.79770648723E+01 -0.53887970577E+02  0.56709412563E+02  0.41800000000E+01 0.  1.
         -5    1    3    3    0  501  0.54546557355E+02  0.59920353279E+02  0.29687709314E+02  0.86397963753E+02  0.41800000000E+01 0.  1.
</event>
<event>
11    1  0.1704459E-009  0.1442788E+03  0.7561462E-02  0.1102872E+00
         22   -1    0    0    0    0  0.00000000000E+00  0.00000000000E+00  0.28979381800E+04  0.28979381800E+04  0.00000000000E+00 0.  1.
         22   -1    0    0    0    0 -0.00000000000E+00 -0.00000000000E+00 -0.42087984211E+02  0.42087984211E+02  0.00000000000E+00 0.  1.
         25    2    1    2    0    0  0.12036561420E+03 -0.35549120775E+02  0.21432437743E+03  0.27809170131E+03  0.12509370291E+03 0.  0.
         24    2    1    2    0    0 -0.57192473414E+02  0.55083088118E+01  0.23673265868E+03  0.25477493982E+03  0.74609636047E+02 0.  0.
        -24    2    1    2    0    0 -0.63173140783E+02  0.30040811964E+02  0.24047931597E+04  0.24071595231E+04  0.80582458569E+02 0.  0.
        -11    1    4    4    0    0 -0.41275337447E+02  0.19453852844E+02  0.53464838531E+02  0.70289364992E+02  0.00000000000E+00 0.  1.
         12    1    4    4    0    0 -0.15917135967E+02 -0.13945544032E+02  0.18326782015E+03  0.18448557482E+03  0.00000000000E+00 0. -1.
         13    1    5    5    0    0  0.17011809139E+02 -0.69185982812E+01  0.38662058955E+03  0.38705651902E+03  0.00000000000E+00 0. -1.
        -14    1    5    5    0    0 -0.80184949922E+02  0.36959410245E+02  0.20181725701E+04  0.20201030040E+04  0.00000000000E+00 0.  1.
          5    1    3    3  501    0  0.68199635457E+02  0.24302097838E+02  0.17492145948E+03  0.18935884353E+03  0.41800000000E+01 0. -1.
         -5    1    3    3    0  501  0.52165978741E+02 -0.59851218614E+02  0.39402917949E+02  0.88732857783E+02  0.41800000000E+01 0. -1.
</event>
<event>
11    1  0.1704459E-009  0.2537831E+03  0.7561462E-02  0.1021903E+00
         22   -1    0    0    0    0  0.00000000000E+00  0.00000000000E+00  0.12232002129E+04  0.12232002129E+04  0.00000000000E+00 0.  1.
         22   -1    0    0    0    0 -0.00000000000E+00 -0.00000000000E+00 -0.29653384618E+03  0.29653384618E+03  0.00000000000E+00 0.  1.
         25    2    1    2    0    0 -0.18096711526E+03 -0.12634779076E+03 -0.20510737391E+03  0.32623470267E+03  0.12508870995E+03 0.  0.
         24    2    1    2    0    0  0.17547370348E+03  0.13754343565E+03  0.10494668853E+04  0.10753941741E+04  0.73366675622E+02 0.  0.
        -24    2    1    2    0    0  0.54934117732E+01 -0.11195644884E+02  0.82306855277E+02  0.11810518224E+03  0.83778849414E+02 0.  0.
        -11    1    4    4    0    0  0.14606256155E+03  0.10908225226E+03  0.95796120215E+03  0.97515274417E+03  0.00000000000E+00 0.  1.
         12    1    4    4    0    0  0.29411141935E+02  0.28461183389E+02  0.91505683173E+02  0.10024142997E+03  0.00000000000E+00 0. -1.
         13    1    5    5    0    0 -0.18711779299E+02  0.16188013660E+02 -0.33584906680E+01  0.24969219658E+02  0.00000000000E+00 0. -1.
        -14    1    5    5    0    0  0.24205191072E+02 -0.27383658545E+02  0.85665345945E+02  0.93135962582E+02  0.00000000000E+00 0.  1.
          5    1    3    3  501    0 -0.17023528083E+03 -0.61129424572E+02 -0.11490431792E+03  0.21432996073E+03  0.41800000000E+01 0.  1.
         -5    1    3    3    0  501 -0.10731834424E+02 -0.65218366190E+02 -0.90203055988E+02  0.11190474194E+03  0.41800000000E+01 0.  1.
</event>
<event>
11    1  0.1704459E-009  0.2071420E+03  0.7561462E-02  0.1049585E+00
         22   -1    0    0    0    0  0.00000000000E+00  0.00000000000E+00  0.57829495314E+03  0.57829495314E+03  0.00000000000E+00 0. -1.
         22   -1    0    0    0    0 -0.00000000000E+00 -0.00000000000E+00 -0.31561120024E+03  0.31561120024E+03  0.00000000000E+00 0.  1.
         25    2    1    2    0    0 -0.13549364876E+03 -0.10434017100E+03 -0.22526746039E+03  0.30925468141E+03  0.12509048375E+03 0.  0.
         24    2    1    2    0    0  0.11688616228E+03  0.82460263823E+02  0.11341907890E+03  0.20173670062E+03  0.85858831078E+02 0.  0.
        -24    2    1    2    0    0  0.18607486476E+02  0.21879907172E+02  0.37453213440E+03  0.38291477135E+03  0.74326533158E+02 0.  0.
        -11    1    4    4    0    0  0.32088645453E+02  0.75018032017E+02  0.51711714704E+02  0.96599625943E+02  0.00000000000E+00 0.  1.
         12    1    4    4    0    0  0.84797516830E+02  0.74422318055E+01  0.61707364197E+02  0.10513707467E+03  0.00000000000E+00 0. -1.
         11    1    5    5    0    0  0.25446653661E+02  0.10661921385E+02  0.36645499498E+03  0.36749213882E+03  0.00000000000E+00 0. -1.
        -12    1    5    5    0    0 -0.68391671852E+01  0.11217985787E+02  0.80771394153E+01  0.15422632526E+02  0.00000000000E+00 0.  1.
          5    1    3    3  501    0 -0.12387738862E+03 -0.22926746724E+02 -0.16281512524E+03  0.20590648492E+03  0.41800000000E+01 0.  1.
         -5    1    3    3    0  501 -0.11616260140E+02 -0.81413424271E+02 -0.62452335156E+02  0.10334819649E+03  0.41800000000E+01 0.  1.
</event>
<event>
11    1  0.1704459E-009  0.3667181E+03  0.7561462E-02  0.9753407E-01
         22   -1    0    0    0    0  0.00000000000E+00  0.00000000000E+00  0.12570814785E+04  0.12570814785E+04  0.00000000000E+00 0. -1.
         22   -1    0    0    0    0 -0.00000000000E+00 -0.00000000000E+00 -0.23892305678E+03  0.23892305678E+03  0.00000000000E+00 0.  1.
         25    2    1    2    0    0 -0.19869485014E+03 -0.12173304148E+03  0.24904039885E+03  0.36327368062E+03  0.12509224562E+03 0.  0.
        -24    2    1    2    0    0  0.17811381980E+03  0.37399227009E+03  0.13186968353E+03  0.44248555251E+03  0.82517270035E+02 0.  0.
         24    2    1    2    0    0  0.20581030339E+02 -0.25225922861E+03  0.63724833935E+03  0.69024530216E+03  0.79339989471E+02 0.  0.
        -13    1    5    5    0    0  0.53584959066E+01 -0.17442960866E+02  0.12758699199E+03  0.12888526249E+03  0.00000000000E+00 0.  1.
         14    1    5    5    0    0  0.15222534432E+02 -0.23481626775E+03  0.50966134736E+03  0.56136003967E+03  0.00000000000E+00 0. -1.
         13    1    4    4    0    0  0.13425099896E+03  0.33952007426E+03  0.12670135967E+03  0.38645885433E+03  0.00000000000E+00 0. -1.
        -14    1    4    4    0    0  0.43862820841E+02  0.34472195830E+02  0.51683238618E+01  0.56026698181E+02  0.00000000000E+00 0.  1.
          5    1    3    3  501    0 -0.85743191581E+02 -0.46301480688E+02  0.24091699777E+02  0.10046693195E+03  0.41800000000E+01 0. -1.
         -5    1    3    3    0  501 -0.11295165856E+03 -0.75431560791E+02  0.22494869908E+03  0.26280674868E+03  0.41800000000E+01 0. -1.
</event>
<event>
11    1  0.1704459E-009  0.3207058E+03  0.7561462E-02  0.9917899E-01
         22   -1    0    0    0    0  0.00000000000E+00  0.00000000000E+00  0.54311025520E+03  0.54311025520E+03  0.00000000000E+00 0. -1.
         22   -1    0    0    0    0 -0.00000000000E+00 -0.00000000000E+00 -0.45921802579E+03  0.45921802579E+03  0.00000000000E+00 0.  1.
         25    2    1    2    0    0  0.30049829932E+03  0.27927476227E+02 -0.32300143004E+03  0.45940982102E+03  0.12509311738E+03 0.  0.
         24    2    1    2    0    0 -0.25916160542E+03  0.24093243766E+01  0.34527394718E+03  0.43872813661E+03  0.78088006043E+02 0.  0.
        -24    2    1    2    0    0 -0.41336693900E+02 -0.30336800603E+02  0.61619712280E+02  0.10419032337E+03  0.66555171161E+02 0.  0.
        -13    1    4    4    0    0 -0.10709331810E+02  0.14623205964E+02  0.84293036197E+01  0.19989524756E+02  0.00000000000E+00 0.  1.
         14    1    4    4    0    0 -0.24845227361E+03 -0.12213881587E+02  0.33684464356E+03  0.41873861186E+03  0.00000000000E+00 0. -1.
         13    1    5    5    0    0 -0.58679313401E+02 -0.27540449745E+02  0.56241977811E+02  0.85818985437E+02  0.00000000000E+00 0. -1.
        -14    1    5    5    0    0  0.17342619501E+02 -0.27963508586E+01  0.53777344690E+01  0.18371337929E+02  0.00000000000E+00 0.  1.
          5    1    3    3  501    0  0.24132376901E+03  0.73031871429E+02 -0.25009891956E+03  0.35515877815E+03  0.41800000000E+01 0.  1.
         -5    1    3    3    0  501  0.59174530308E+02 -0.45104395202E+02 -0.72902510481E+02  0.10425104286E+03  0.41800000000E+01 0.  1.
</event>
<event>
11    1  0.1704459E-009  0.1606745E+03  0.7561462E-02  0.1086445E+00
         22   -1    0    0    0    0  0.00000000000E+00  0.00000000000E+00  0.18512194065E+04  0.18512194065E+04  0.00000000000E+00 0.  1.
         22   -1    0    0    0    0 -0.00000000000E+00 -0.00000000000E+00 -0.86865213908E+02  0.86865213908E+02  0.00000000000E+00 0. -1.
         25    2    1    2    0    0  0.89755408934E+02  0.74254627706E+01  0.81706998981E+02  0.17445831529E+03  0.12509396133E+03 0.  0.
        -24    2    1    2    0    0 -0.11150931770E+03  0.11257560689E+02  0.84485568671E+02  0.16325782664E+03  0.83392122162E+02 0.  0.
         24    2    1    2    0    0  0.21753908764E+02 -0.18683023460E+02  0.15981616250E+04  0.16003684785E+04  0.78970877978E+02 0.  0.
        -13    1    5    5    0    0 -0.10886421160E+02  0.19085622490E+02  0.96216260909E+03  0.96241345662E+03  0.00000000000E+00 0.  1.
         14    1    5    5    0    0  0.32640329924E+02 -0.37768645950E+02  0.63599901586E+03  0.63795502187E+03  0.00000000000E+00 0. -1.
         11    1    4    4    0    0 -0.10580005641E+03  0.37897032385E+02  0.70026811013E+02  0.13241446771E+03  0.00000000000E+00 0. -1.
        -12    1    4    4    0    0 -0.57092612918E+01 -0.26639471696E+02  0.14458757658E+02  0.30843358924E+02  0.00000000000E+00 0.  1.
          5    1    3    3  501    0  0.75479738299E+01 -0.51719091930E+02  0.22352367179E+02  0.56999448221E+02  0.41800000000E+01 0.  1.
         -5    1    3    3    0  501  0.82207435104E+02  0.59144554700E+02  0.59354631802E+02  0.11745886707E+03  0.41800000000E+01 0.  1.
</event>
<event>
11    1  0.1704459E-009  0.2230014E+03  0.7561462E-02  0.1039353E+00
         22   -1    0    0    0    0  0.00000000000E+00  0.00000000000E+00  0.12944195301E+03  0.12944195301E+03  0.00000000000E+00 0. -1.
         22   -1    0    0    0    0 -0.00000000000E+00 -0.00000000000E+00 -0.19179692204E+04  0.19179692204E+04  0.00000000000E+00 0.  1.
         25    2    1    2    0    0  0.12868523072E+03  0.13206869078E+03 -0.17221474383E+04  0.17365025109E+04  0.12508854159E+03 0.  0.
        -24    2    1    2    0    0 -0.15068166384E+03 -0.11485735242E+03 -0.12006411565E+02  0.20621931180E+03  0.80529965978E+02 0.  0.
         24    2    1    2    0    0  0.21996433117E+02 -0.17211338356E+02 -0.54373417457E+02  0.10468935070E+03  0.84990107581E+02 0.  0.
        -11    1    5    5    0    0 -0.20970820518E+02  0.19758617810E+02 -0.33738052751E+02  0.44367042885E+02  0.00000000000E+00 0.  1.
         12    1    5    5    0    0  0.42967253635E+02 -0.36969956166E+02 -0.20635364707E+02  0.60322307817E+02  0.00000000000E+00 0. -1.
         13    1    4    4    0    0 -0.14096942031E+03 -0.69303714008E+02 -0.21898305866E+02  0.15860302027E+03  0.00000000000E+00 0. -1.
        -14    1    4    4    0    0 -0.97122435285E+01 -0.45553638414E+02  0.98918943007E+01  0.47616291540E+02  0.00000000000E+00 0.  1.
          5    1    3    3  501    0  0.22292408201E+02  0.50573113670E+02 -0.10298238520E+04  0.10313143216E+04  0.41800000000E+01 0.  1.
         -5    1    3    3    0  501  0.10639282252E+03  0.81495577107E+02 -0.69232358634E+03  0.70518818933E+03  0.41800000000E+01 0.  1.
</event>
<event>
11    1  0.1704459E-009  0.2002328E+03  0.7561462E-02  0.1054359E+00
         22   -1    0    0    0    0  0.00000000000E+00  0.00000000000E+00  0.11767462231E+03  0.11767462231E+03  0.00000000000E+00 0. -1.
         22   -1    0    0    0    0 -0.00000000000E+00 -0.00000000000E+00 -0.53460121921E+03  0.53460121921E+03  0.00000000000E+00 0.  1.
         25    2    1    2    0    0 -0.10899557693E+02 -0.14211550843E+03 -0.81231802428E+02  0.20630828382E+03  0.12509550013E+03 0.  0.
         24    2    1    2    0    0  0.25657641927E+02  0.15983295589E+03 -0.31040137581E+03  0.35921645510E+03  0.80514341134E+02 0.  0.
        -24    2    1    2    0    0 -0.14758084234E+02 -0.17717447465E+02 -0.25293418660E+02  0.86751102611E+02  0.79713786648E+02 0.  0.
        -11    1    4    4    0    0  0.40496164138E+01  0.71717994086E+02 -0.21880263720E+03  0.23029212777E+03  0.00000000000E+00 0.  1.
         12    1    4    4    0    0  0.21608025513E+02  0.88114961806E+02 -0.91598738614E+02  0.12892432733E+03  0.00000000000E+00 0. -1.
         13    1    5    5    0    0  0.14127024505E+01  0.11602082136E+02 -0.45947033165E+02  0.47410272038E+02  0.00000000000E+00 0. -1.
        -14    1    5    5    0    0 -0.16170786684E+02 -0.29319529601E+02  0.20653614505E+02  0.39340830572E+02  0.00000000000E+00 0.  1.
          5    1    3    3  501    0 -0.26344915719E+02  0.15258136207E+02 -0.67371533191E+01  0.31459925931E+02  0.41800000000E+01 0.  1.
         -5    1    3    3    0  501  0.15445358026E+02 -0.15737364463E+03 -0.74494649109E+02  0.17484835789E+03  0.41800000000E+01 0.  1.
</event>
<event>
11    1  0.1704459E-009  0.2319586E+03  0.7561462E-02  0.1033975E+00
         22   -1    0    0    0    0  0.00000000000E+00  0.00000000000E+00  0.41770763041E+03  0.41770763041E+03  0.00000000000E+00 0. -1.
         22   -1    0    0    0    0 -0.00000000000E+00 -0.00000000000E+00 -0.16296281759E+04  0.16296281759E+04  0.00000000000E+00 0.  1.
         25    2    1    2    0    0  0.18884540696E+03  0.35583629180E+02 -0.10600953663E+04  0.10846096889E+04  0.12508880511E+03 0.  0.
         24    2    1    2    0    0 -0.19429932567E+03 -0.52559922986E+02 -0.53120860794E+03  0.57419529687E+03  0.83683214222E+02 0.  0.
        -24    2    1    2    0    0  0.54539187096E+01  0.16976293806E+02  0.37938342879E+03  0.38853082052E+03  0.81893056319E+02 0.  0.
        -11    1    4    4    0    0 -0.13926795970E+03 -0.50770981164E+02 -0.46515179780E+03  0.48820021725E+03  0.00000000000E+00 0.  1.
         12    1    4    4    0    0 -0.55031365969E+02 -0.17889418227E+01 -0.66056810136E+02  0.85995079619E+02  0.00000000000E+00 0. -1.
         11    1    5    5    0    0 -0.12153621658E+02  0.40994368933E+02  0.31124958695E+03  0.31417280943E+03  0.00000000000E+00 0. -1.
        -12    1    5    5    0    0  0.17607540368E+02 -0.24018075127E+02  0.68133841836E+02  0.74358011094E+02  0.00000000000E+00 0.  1.
          5    1    3    3  501    0  0.61091088492E+02  0.63387599095E+02 -0.59411415382E+03  0.60061569159E+03  0.41800000000E+01 0. -1.
         -5    1    3    3    0  501  0.12775431846E+03 -0.27803969914E+02 -0.46598121252E+03  0.48399399733E+03  0.41800000000E+01 0. -1.
</event>
<event>
11    1  0.1704459E-009  0.1841413E+03  0.7561462E-02  0.1066341E+00
         22   -1    0    0    0    0  0.00000000000E+00  0.00000000000E+00  0.12205292354E+04  0.12205292354E+04  0.00000000000E+00 0.  1.
         22   -1    0    0    0    0 -0.00000000000E+00 -0.00000000000E+00 -0.43816510829E+02  0.43816510829E+02  0.00000000000E+00 0. -1.
         25    2    1    2    0    0 -0.74298768929E+02 -0.80353057141E+02  0.35037731955E+03  0.38780028846E+03  0.12509147380E+03 0.  0.
         24    2    1    2    0    0  0.12851270121E+03  0.10939251440E+03  0.45698258079E+03  0.49379293558E+03  0.80722657951E+02 0.  0.
        -24    2    1    2    0    0 -0.54213932277E+02 -0.29039457254E+02  0.36935282425E+03  0.38275252221E+03  0.79344463857E+02 0.  0.
        -11    1    4    4    0    0  0.12531201621E+03  0.11965702859E+03  0.44576577459E+03  0.47825519515E+03  0.00000000000E+00 0.  1.
         12    1    4    4    0    0  0.32006849991E+01 -0.10264514197E+02  0.11216806197E+02  0.15537740422E+02  0.00000000000E+00 0. -1.
         13    1    5    5    0    0 -0.34385362081E+02  0.21860089890E+02  0.10124470117E+03  0.10913618176E+03  0.00000000000E+00 0. -1.
        -14    1    5    5    0    0 -0.19828570196E+02 -0.50899547144E+02  0.26810812308E+03  0.27361634045E+03  0.00000000000E+00 0.  1.
          5    1    3    3  501    0 -0.48131050246E+02 -0.94766252119E+02  0.14291082226E+03  0.17815222721E+03  0.41800000000E+01 0.  1.
         -5    1    3    3    0  501 -0.26167718683E+02  0.14413194977E+02  0.20746649729E+03  0.20964806125E+03  0.41800000000E+01 0.  1.
</event>
<event>
11    1  0.1704459E-009  0.1384895E+03  0.7561462E-02  0.1109257E+00
         22   -1    0    0    0    0  0.00000000000E+00  0.00000000000E+00  0.70438281828E+02  0.70438281828E+02  0.00000000000E+00 0. -1.
         22   -1    0    0    0    0 -0.00000000000E+00 -0.00000000000E+00 -0.21251136065E+04  0.21251136065E+04  0.00000000000E+00 0.  1.
         25    2    1    2    0    0 -0.13430624503E+01  0.42835297948E+02 -0.14306318334E+04  0.14367294696E+04  0.12508980532E+03 0.  0.
         24    2    1    2    0    0  0.34059221585E+02  0.75278704841E+01 -0.65125275129E+03  0.65706335374E+03  0.79908731350E+02 0.  0.
        -24    2    1    2    0    0 -0.32716159135E+02 -0.50363168432E+02  0.27209260058E+02  0.10175906500E+03  0.77509790820E+02 0.  0.
        -13    1    4    4    0    0  0.94746101910E+01  0.24511252330E+02 -0.56805544942E+03  0.56866296112E+03  0.00000000000E+00 0.  1.
         14    1    4    4    0    0  0.24584611394E+02 -0.16983381846E+02 -0.83197301872E+02  0.88400392618E+02  0.00000000000E+00 0. -1.
         13    1    5    5    0    0 -0.23532769349E+02 -0.62931423078E+02 -0.35545502888E+01  0.67281424418E+02  0.00000000000E+00 0. -1.
        -14    1    5    5    0    0 -0.91833897858E+01  0.12568254646E+02  0.30763810347E+02  0.34477640578E+02  0.00000000000E+00 0.  1.
          5    1    3    3  501    0  0.22568545086E+02 -0.23277440929E+00 -0.47915969053E+02  0.53130084712E+02  0.41800000000E+01 0.  1.
         -5    1    3    3    0  501 -0.23911607536E+02  0.43068072358E+02 -0.13827158644E+04  0.13835993849E+04  0.41800000000E+01 0.  1.
</event>
<event>
11    1  0.1704459E-009  0.1333993E+03  0.7561462E-02  0.1115162E+00
         22   -1    0    0    0    0  0.00000000000E+00  0.00000000000E+00  0.86423371557E+02  0.86423371557E+02  0.00000000000E+00 0.  1.
         22   -1    0    0    0    0 -0.00000000000E+00 -0.00000000000E+00 -0.35990072964E+03  0.35990072964E+03  0.00000000000E+00 0. -1.
         25    2    1    2    0    0  0.42808548913E+02 -0.17905426340E+02 -0.14769328788E+03  0.19903209176E+03  0.12508912867E+03 0.  0.
         24    2    1    2    0    0  0.38817557256E+01  0.30484116639E+02 -0.12970237678E+03  0.15521831383E+03  0.79534074522E+02 0.  0.
        -24    2    1    2    0    0 -0.46690304638E+02 -0.12578690299E+02  0.39183065840E+01  0.92073695609E+02  0.78256017658E+02 0.  0.
        -11    1    4    4    0    0 -0.22271983472E+02  0.33431627692E+01 -0.26308376211E+01  0.22674639835E+02  0.00000000000E+00 0.  1.
         12    1    4    4    0    0  0.26153739197E+02  0.27140953870E+02 -0.12707153916E+03  0.13254367399E+03  0.00000000000E+00 0. -1.
         11    1    5    5    0    0 -0.66932571073E+02 -0.16974404962E+02  0.11526019866E+02  0.70006775588E+02  0.00000000000E+00 0. -1.
        -12    1    5    5    0    0  0.20242266435E+02  0.43957146636E+01 -0.76077132823E+01  0.22066920021E+02  0.00000000000E+00 0.  1.
          5    1    3    3  501    0 -0.32384705988E+02 -0.37719785507E+02 -0.87045605396E+02  0.10032926402E+03  0.41800000000E+01 0.  1.
         -5    1    3    3    0  501  0.75193254901E+02  0.19814359167E+02 -0.60647682487E+02  0.98702827735E+02  0.41800000000E+01 0.  1.
</event>
<event>
11    1  0.1704459E-009  0.1278160E+03  0.7561462E-02  0.1121982E+00
         22   -1    0    0    0    0  0.00000000000E+00  0.00000000000E+00  0.11009397464E+03  0.11009397464E+03  0.00000000000E+00 0.  1.
         22   -1    0    0    0    0 -0.00000000000E+00 -0.00000000000E+00 -0.84347869204E+03  0.84347869204E+03  0.00000000000E+00 0. -1.
         25    2    1    2    0    0 -0.10926974053E+02  0.30589775772E+02 -0.54594353249E+03  0.56103233887E+03  0.12509121252E+03 0.  0.
        -24    2    1    2    0    0  0.11443560291E+02 -0.44865998577E+01 -0.26532777245E+03  0.27706421881E+03  0.78833177416E+02 0.  0.
         24    2    1    2    0    0 -0.51658623772E+00 -0.26103175914E+02  0.77886587543E+02  0.11547610900E+03  0.81158909406E+02 0.  0.
        -11    1    5    5    0    0 -0.73893588724E+01 -0.41130061244E+02  0.87064850923E+02  0.96574183034E+02  0.00000000000E+00 0.  1.
         12    1    5    5    0    0  0.68727726347E+01  0.15026885330E+02 -0.91782633805E+01  0.18901925963E+02  0.00000000000E+00 0. -1.
         11    1    4    4    0    0  0.35586921151E+02  0.85870594503E+01 -0.22690945406E+03  0.22984357048E+03  0.00000000000E+00 0. -1.
        -12    1    4    4    0    0 -0.24143360861E+02 -0.13073659308E+02 -0.38418318394E+02  0.47220648339E+02  0.00000000000E+00 0.  1.
          5    1    3    3  501    0 -0.29386897480E+02  0.74515869313E+02 -0.37763849781E+03  0.38606283420E+03  0.41800000000E+01 0.  1.
         -5    1    3    3    0  501  0.18459923427E+02 -0.43926093542E+02 -0.16830503468E+03  0.17496950467E+03  0.41800000000E+01 0.  1.
</event>
<event>
11    1  0.1704459E-009  0.2769384E+03  0.7561462E-02  0.1010453E+00
         22   -1    0    0    0    0  0.00000000000E+00  0.00000000000E+00  0.62402656533E+03  0.62402656533E+03  0.00000000000E+00 0. -1.
         22   -1    0    0    0    0 -0.00000000000E+00 -0.00000000000E+00 -0.10218338898E+04  0.10218338898E+04  0.00000000000E+00 0. -1.
         25    2    1    2    0    0 -0.86718673994E+02 -0.23607349155E+03 -0.90925900841E+03  0.95165694700E+03  0.12509267991E+03 0.  0.
         24    2    1    2    0    0  0.17057677598E+03  0.45305433975E+02  0.83127331526E+02  0.21100855536E+03  0.80407949468E+02 0.  0.
        -24    2    1    2    0    0 -0.83858101982E+02  0.19076805757E+03  0.42832435242E+03  0.48319495277E+03  0.81184841249E+02 0.  0.
        -11    1    4    4    0    0  0.24390222736E+02  0.21385103256E+02  0.49381843147E+02  0.59082755851E+02  0.00000000000E+00 0.  1.
         12    1    4    4    0    0  0.14618655324E+03  0.23920330719E+02  0.33745488380E+02  0.15192579951E+03  0.00000000000E+00 0. -1.
         13    1    5    5    0    0 -0.95905257889E+02  0.12926238795E+03  0.31052711618E+03  0.34976230974E+03  0.00000000000E+00 0. -1.
        -14    1    5    5    0    0  0.12047155907E+02  0.61505669622E+02  0.11779723624E+03  0.13343264303E+03  0.00000000000E+00 0.  1.
          5    1    3    3  501    0 -0.54671169564E+02 -0.86725043094E+02 -0.18591204364E+03  0.21234625086E+03  0.41800000000E+01 0. -1.
         -5    1    3    3    0  501 -0.32047504430E+02 -0.14934844845E+03 -0.72334696476E+03  0.73931069614E+03  0.41800000000E+01 0. -1.
</event>
<event>
11    1  0.1704459E-009  0.6980516E+03  0.7561462E-02  0.9035181E-01
         22   -1    0    0    0    0  0.00000000000E+00  0.00000000000E+00  0.10242935358E+04  0.10242935358E+04  0.00000000000E+00 0.  1.
         22   -1    0    0    0    0 -0.00000000000E+00 -0.00000000000E+00 -0.91483805075E+03  0.91483805075E+03  0.00000000000E+00 0.  1.
         25    2    1    2    0    0 -0.12878064632E+03 -0.15261719609E+03 -0.37922104625E+03  0.44646614598E+03  0.12508778592E+03 0.  0.
         24    2    1    2    0    0 -0.20837087346E+03 -0.55962564600E+03  0.10187212397E+03  0.61116211741E+03  0.80882133707E+02 0.  0.
        -24    2    1    2    0    0  0.33715151978E+03  0.71224284209E+03  0.38680440729E+03  0.88150332312E+03  0.80432865048E+02 0.  0.
        -13    1    4    4    0    0 -0.57348086565E+02 -0.24447635724E+03  0.17908347388E+02  0.25175027545E+03  0.00000000000E+00 0.  1.
         14    1    4    4    0    0 -0.15102278690E+03 -0.31514928875E+03  0.83963776582E+02  0.35941184196E+03  0.00000000000E+00 0. -1.
         13    1    5    5    0    0  0.61578284155E+01  0.45448923666E+02  0.91750997877E+01  0.46772919187E+02  0.00000000000E+00 0. -1.
        -14    1    5    5    0    0  0.33099369136E+03  0.66679391842E+03  0.37762930750E+03  0.83473040393E+03  0.00000000000E+00 0.  1.
          5    1    3    3  501    0  0.27300700893E-01 -0.22002583751E+02  0.28899165259E+01  0.22581816901E+02  0.41800000000E+01 0. -1.
         -5    1    3    3    0  501 -0.12880794702E+03 -0.13061461234E+03 -0.38211096277E+03  0.42388432908E+03  0.41800000000E+01 0. -1.
</event>
<event>
11    1  0.1704459E-009  0.1479603E+03  0.7561462E-02  0.1098981E+00
         22   -1    0    0    0    0  0.00000000000E+00  0.00000000000E+00  0.36872811421E+03  0.36872811421E+03  0.00000000000E+00 0.  1.
         22   -1    0    0    0    0 -0.00000000000E+00 -0.00000000000E+00 -0.10389987176E+03  0.10389987176E+03  0.00000000000E+00 0. -1.
         25    2    1    2    0    0 -0.76914664513E+02  0.38569435608E+02  0.29645128893E+02  0.15469159858E+03  0.12508872861E+03 0.  0.
        -24    2    1    2    0    0  0.57452668183E+02 -0.43632837135E+02  0.67463067930E+02  0.13150217536E+03  0.86815453883E+02 0.  0.
         24    2    1    2    0    0  0.19461996330E+02  0.50634015272E+01  0.16772004562E+03  0.18643421203E+03  0.78887859493E+02 0.  0.
        -11    1    5    5    0    0  0.34526774866E+02  0.12618310100E+02  0.16538389439E+03  0.16942004739E+03  0.00000000000E+00 0.  1.
         12    1    5    5    0    0 -0.15064778535E+02 -0.75549085729E+01  0.23361512285E+01  0.17014164641E+02  0.00000000000E+00 0. -1.
         13    1    4    4    0    0 -0.15597492475E+02 -0.31286742730E+02  0.65002150770E+01  0.35558330082E+02  0.00000000000E+00 0. -1.
        -14    1    4    4    0    0  0.73050160659E+02 -0.12346094405E+02  0.60962852853E+02  0.95943845281E+02  0.00000000000E+00 0.  1.
          5    1    3    3  501    0 -0.36200872527E+02 -0.30983285635E+01 -0.46225499861E+02  0.58943804161E+02  0.41800000000E+01 0.  1.
         -5    1    3    3    0  501 -0.40713791987E+02  0.41667764171E+02  0.75870628754E+02  0.95747794421E+02  0.41800000000E+01 0.  1.
</event>
<event>
11    1  0.1704459E-009  0.2449503E+03  0.7561462E-02  0.1026624E+00
         22   -1    0    0    0    0  0.00000000000E+00  0.00000000000E+00  0.11416190193E+04  0.11416190193E+04  0.00000000000E+00 0. -1.
         22   -1    0    0    0    0 -0.00000000000E+00 -0.00000000000E+00 -0.92324354864E+02  0.92324354864E+02  0.00000000000E+00 0. -1.
         25    2    1    2    0    0  0.84437189674E+01 -0.23599398727E+03  0.23598256300E+03  0.35651080219E+03  0.12509086147E+03 0.  0.
        -24    2    1    2    0    0  0.70215365436E+02  0.16263192631E+03  0.51146715250E+03  0.54727648240E+03  0.80830434296E+02 0.  0.
         24    2    1    2    0    0 -0.78659084403E+02  0.73362060967E+02  0.30184494899E+03  0.33015608961E+03  0.79519976931E+02 0.  0.
        -11    1    5    5    0    0 -0.56647479428E+02  0.89066716053E+02  0.22110494691E+03  0.24500860063E+03  0.00000000000E+00 0.  1.
         12    1    5    5    0    0 -0.22011604975E+02 -0.15704655086E+02  0.80740002073E+02  0.85147488980E+02  0.00000000000E+00 0. -1.
         13    1    4    4    0    0  0.67900425942E+02  0.11996808198E+03  0.28228857241E+03  0.31414908347E+03  0.00000000000E+00 0. -1.
        -14    1    4    4    0    0  0.23149394940E+01  0.42663844326E+02  0.22917858009E+03  0.23312739893E+03  0.00000000000E+00 0.  1.
          5    1    3    3  501    0 -0.43929807603E+01 -0.46002402661E+02 -0.78950207200E+01  0.47067218769E+02  0.41800000000E+01 0.  1.
         -5    1    3    3    0  501  0.12836699728E+02 -0.18999158461E+03  0.24387758372E+03  0.30944358342E+03  0.41800000000E+01 0.  1.
</event>
<event>
11    1  0.1704459E-009  0.3076709E+03  0.7561462E-02  0.9969960E-01
         22   -1    0    0    0    0  0.00000000000E+00  0.00000000000E+00  0.37948172920E+03  0.37948172920E+03  0.00000000000E+00 0. -1.
         22   -1    0    0    0    0 -0.00000000000E+00 -0.00000000000E+00 -0.89930072838E+03  0.89930072838E+03  0.00000000000E+00 0. -1.
         25    2    1    2    0    0 -0.19838870212E+03  0.23226144960E+03 -0.56864885614E+03  0.65750470665E+03  0.12508980604E+03 0.  0.
        -24    2    1    2    0    0  0.18466254827E+03 -0.16611716764E+03 -0.21410551819E+03  0.33834207837E+03  0.83300774054E+02 0.  0.
         24    2    1    2    0    0  0.13726153841E+02 -0.66144281964E+02  0.26293537516E+03  0.28293567256E+03  0.79712671287E+02 0.  0.
        -11    1    5    5    0    0 -0.15767954180E+01  0.10323274380E+02  0.20475331751E+01  0.10641835829E+02  0.00000000000E+00 0.  1.
         12    1    5    5    0    0  0.15302949259E+02 -0.76467556344E+02  0.26088784198E+03  0.27229383673E+03  0.00000000000E+00 0. -1.
         13    1    4    4    0    0  0.18605912966E+03 -0.15334151364E+03 -0.21785990015E+03  0.32495315913E+03  0.00000000000E+00 0. -1.
        -14    1    4    4    0    0 -0.13965813866E+01 -0.12775654000E+02  0.37543819545E+01  0.13388919246E+02  0.00000000000E+00 0.  1.
          5    1    3    3  501    0 -0.12353750546E+03  0.17127559342E+03 -0.48757513546E+03  0.53136035727E+03  0.41800000000E+01 0. -1.
         -5    1    3    3    0  501 -0.74851196657E+02  0.60985856184E+02 -0.81073720681E+02  0.12614434938E+03  0.41800000000E+01 0. -1.
</event>
<event>
11    1  0.1704459E-009  0.1780255E+03  0.7561462E-02  0.1071251E+00
         22   -1    0    0    0    0  0.00000000000E+00  0.00000000000E+00  0.15395239641E+03  0.15395239641E+03  0.00000000000E+00 0.  1.
         22   -1    0    0    0    0 -0.00000000000E+00 -0.00000000000E+00 -0.39958143959E+03  0.39958143959E+03  0.00000000000E+00 0. -1.
         25    2    1    2    0    0 -0.11328615886E+03  0.19294547445E+02 -0.20389053915E+03  0.26537796865E+03  0.12509228969E+03 0.  0.
         24    2    1    2    0    0  0.15117965703E+03 -0.61749251684E+02 -0.25344102103E+01  0.18049117560E+03  0.76826964360E+02 0.  0.
        -24    2    1    2    0    0 -0.37893498172E+02  0.42454704239E+02 -0.39204093829E+02  0.10766469175E+03  0.82561527122E+02 0.  0.
        -11    1    4    4    0    0  0.10116647957E+03 -0.51521749585E+01  0.16422205844E+02  0.10262012639E+03  0.00000000000E+00 0.  1.
         12    1    4    4    0    0  0.50013177457E+02 -0.56597076726E+02 -0.18956616054E+02  0.77871049212E+02  0.00000000000E+00 0. -1.
         11    1    5    5    0    0 -0.37727700544E+02  0.33788928917E+02 -0.63873937428E+02  0.81516568796E+02  0.00000000000E+00 0. -1.
        -12    1    5    5    0    0 -0.16579762836E+00  0.86657753221E+01  0.24669843599E+02  0.26148122953E+02  0.00000000000E+00 0.  1.
          5    1    3    3  501    0  0.22889294587E+02 -0.12620337008E+02 -0.55092864078E+02  0.61121917389E+02  0.41800000000E+01 0. -1.
         -5    1    3    3    0  501 -0.13617545344E+03  0.31914884454E+02 -0.14879767507E+03  0.20425605126E+03  0.41800000000E+01 0. -1.
</event>
<event>
11    1  0.1704459E-009  0.2421391E+03  0.7561462E-02  0.1028172E+00
         22   -1    0    0    0    0  0.00000000000E+00  0.00000000000E+00  0.63265765536E+03  0.63265765536E+03  0.00000000000E+00 0.  1.
         22   -1    0    0    0    0 -0.00000000000E+00 -0.00000000000E+00 -0.16600874190E+04  0.16600874190E+04  0.00000000000E+00 0.  1.
         25    2    1    2    0    0  0.24472867257E+03 -0.78292320812E+02 -0.10484292428E+04  0.10866800063E+04  0.12509095985E+03 0.  0.
         24    2    1    2    0    0 -0.87052271041E+02  0.17125829547E+03 -0.55689773419E+03  0.59459873658E+03  0.80654011294E+02 0.  0.
        -24    2    1    2    0    0 -0.15767640153E+03 -0.92965974656E+02  0.57789721334E+03  0.61146633150E+03  0.80133422055E+02 0.  0.
        -13    1    4    4    0    0 -0.71868725251E+02  0.99414973251E+02 -0.24277640459E+03  0.27200888441E+03  0.00000000000E+00 0.  1.
         14    1    4    4    0    0 -0.15183545790E+02  0.71843322217E+02 -0.31412132960E+03  0.32258985217E+03  0.00000000000E+00 0. -1.
         11    1    5    5    0    0 -0.28301252058E+02 -0.32411611438E+02  0.57482649919E+02  0.71803401492E+02  0.00000000000E+00 0. -1.
        -12    1    5    5    0    0 -0.12937514947E+03 -0.60554363217E+02  0.52041456342E+03  0.53966293001E+03  0.00000000000E+00 0.  1.
          5    1    3    3  501    0  0.14949620251E+03 -0.11764009748E+02 -0.38596279003E+03  0.41409208417E+03  0.41800000000E+01 0. -1.
         -5    1    3    3    0  501  0.95232470065E+02 -0.66528311064E+02 -0.66246645279E+03  0.67258792214E+03  0.41800000000E+01 0. -1.
</event>
<event>
11    1  0.1704459E-009  0.2455811E+03  0.7561462E-02  0.1026280E+00
         22   -1    0    0    0    0  0.00000000000E+00  0.00000000000E+00  0.14664265702E+04  0.14664265702E+04  0.00000000000E+00 0.  1.
         22   -1    0    0    0    0 -0.00000000000E+00 -0.00000000000E+00 -0.56912455483E+02  0.56912455483E+02  0.00000000000E+00 0.  1.
         25    2    1    2    0    0  0.49888819489E+02 -0.22238103392E+03  0.54816884968E+03  0.60669535005E+03  0.12509173217E+03 0.  0.
         24    2    1    2    0    0 -0.79903479443E+02  0.18111679237E+03  0.51197270412E+03  0.55474729328E+03  0.80253667414E+02 0.  0.
        -24    2    1    2    0    0  0.30014659953E+02  0.41264241548E+02  0.34937256091E+03  0.36189638234E+03  0.79398915563E+02 0.  0.
        -11    1    4    4    0    0 -0.75322397122E+02  0.17683692885E+03  0.51350003612E+03  0.54829467444E+03  0.00000000000E+00 0.  1.
         12    1    4    4    0    0 -0.45810823206E+01  0.42798635202E+01 -0.15273320012E+01  0.64526188499E+01  0.00000000000E+00 0. -1.
         13    1    5    5    0    0 -0.10851600405E+02  0.58582170592E+01  0.50035924343E+01  0.13308338578E+02  0.00000000000E+00 0. -1.
        -14    1    5    5    0    0  0.40866260358E+02  0.35406024489E+02  0.34436896848E+03  0.34858804377E+03  0.00000000000E+00 0.  1.
          5    1    3    3  501    0  0.31247865859E+02 -0.22579997014E+03  0.42768670315E+03  0.48466013256E+03  0.41800000000E+01 0. -1.
         -5    1    3    3    0  501  0.18640953630E+02  0.34189362220E+01  0.12048214653E+03  0.12203521750E+03  0.41800000000E+01 0. -1.
</event>
<event>
11    1  0.1704459E-009  0.2112268E+03  0.7561462E-02  0.1046857E+00
         22   -1    0    0    0    0  0.00000000000E+00  0.00000000000E+00  0.23491764092E+04  0.23491764092E+04  0.00000000000E+00 0. -1.
         22   -1    0    0    0    0 -0.00000000000E+00 -0.00000000000E+00 -0.43461186176E+03  0.43461186176E+03  0.00000000000E+00 0.  1.
         25    2    1    2    0    0 -0.13419393927E+03  0.10373207152E+03 -0.37159266721E+03  0.42719832315E+03  0.12509572726E+03 0.  0.
         24    2    1    2    0    0 -0.12550095187E+03 -0.92849439488E+02  0.26720160249E+03  0.31956153468E+03  0.79695487583E+02 0.  0.
        -24    2    1    2    0    0  0.25969489114E+03 -0.10882632027E+02  0.20189556122E+04  0.20370284131E+04  0.75783401061E+02 0.  0.
        -11    1    4    4    0    0 -0.46284865154E+02 -0.63835781406E+02  0.18792013771E+03  0.20379223215E+03  0.00000000000E+00 0.  1.
         12    1    4    4    0    0 -0.79216086712E+02 -0.29013658082E+02  0.79281464780E+02  0.11576930252E+03  0.00000000000E+00 0. -1.
         13    1    5    5    0    0  0.20219262927E+03 -0.25895841571E+02  0.13320768923E+04  0.13475835043E+04  0.00000000000E+00 0. -1.
        -14    1    5    5    0    0  0.57502261861E+02  0.15013209544E+02  0.68687871982E+03  0.68944490884E+03  0.00000000000E+00 0.  1.
          5    1    3    3  501    0  0.38408870383E+00  0.22123288853E+02 -0.16962481037E+03  0.17111293384E+03  0.41800000000E+01 0.  1.
         -5    1    3    3    0  501 -0.13457802797E+03  0.81608782662E+02 -0.20196785684E+03  0.25608538931E+03  0.41800000000E+01 0.  1.
</event>
<event>
11    1  0.1704459E-009  0.1463895E+03  0.7561462E-02  0.1100626E+00
         22   -1    0    0    0    0  0.00000000000E+00  0.00000000000E+00  0.34962112276E+03  0.34962112276E+03  0.00000000000E+00 0.  1.
         22   -1    0    0    0    0 -0.00000000000E+00 -0.00000000000E+00 -0.11402459890E+03  0.11402459890E+03  0.00000000000E+00 0.  1.
         25    2    1    2    0    0  0.62246321991E+02  0.27781559615E+02  0.19360629889E+02  0.14377081865E+03  0.12509514239E+03 0.  0.
         24    2    1    2    0    0 -0.74462092094E+02 -0.40075281680E+02  0.44941071554E+02  0.12963111170E+03  0.87372157163E+02 0.  0.
        -24    2    1    2    0    0  0.12215770103E+02  0.12293722065E+02  0.17129482241E+03  0.19024379132E+03  0.80934685439E+02 0.  0.
        -13    1    4    4    0    0 -0.20097177843E+02 -0.45119917981E+02 -0.11909290304E+02  0.50808805845E+02  0.00000000000E+00 0.  1.
         14    1    4    4    0    0 -0.54364914251E+02  0.50446363014E+01  0.56850361857E+02  0.78822305855E+02  0.00000000000E+00 0. -1.
         13    1    5    5    0    0  0.46873113351E+02  0.71490293368E+01  0.90180705794E+02  0.10188600038E+03  0.00000000000E+00 0. -1.
        -14    1    5    5    0    0 -0.34657343248E+02  0.51446927283E+01  0.81114116619E+02  0.88357790937E+02  0.00000000000E+00 0.  1.
          5    1    3    3  501    0  0.11852828944E+02  0.11324397688E+02 -0.52052947137E+02  0.54733109199E+02  0.41800000000E+01 0.  1.
         -5    1    3    3    0  501  0.50393493047E+02  0.16457161927E+02  0.71413577026E+02  0.89037709448E+02  0.41800000000E+01 0.  1.
</event>
<event>
11    1  0.1704459E-009  0.1965526E+03  0.7561462E-02  0.1056989E+00
         22   -1    0    0    0    0  0.00000000000E+00  0.00000000000E+00  0.81984402927E+03  0.81984402927E+03  0.00000000000E+00 0. -1.
         22   -1    0    0    0    0 -0.00000000000E+00 -0.00000000000E+00 -0.10942735133E+03  0.10942735133E+03  0.00000000000E+00 0.  1.
         25    2    1    2    0    0 -0.10905837821E+03  0.31209375313E+02  0.13474766510E+03  0.21603743418E+03  0.12508990667E+03 0.  0.
         24    2    1    2    0    0  0.86897222040E+02 -0.19722118699E+03  0.26483347827E+03  0.35117393169E+03  0.82091627381E+02 0.  0.
        -24    2    1    2    0    0  0.22161156173E+02  0.16601181168E+03  0.31083553457E+03  0.36206001473E+03  0.80110462823E+02 0.  0.
        -13    1    4    4    0    0  0.75126434253E+02 -0.74205368348E+02  0.10256813024E+03  0.14720950769E+03  0.00000000000E+00 0.  1.
         14    1    4    4    0    0  0.11770787787E+02 -0.12301581865E+03  0.16226534803E+03  0.20396442399E+03  0.00000000000E+00 0. -1.
         11    1    5    5    0    0  0.11965426934E+02  0.15787790906E+03  0.31103596603E+03  0.34901572712E+03  0.00000000000E+00 0. -1.
        -12    1    5    5    0    0  0.10195729239E+02  0.81339026171E+01 -0.20043145929E+00  0.13044287611E+02  0.00000000000E+00 0.  1.
          5    1    3    3  501    0 -0.13658671003E+03  0.17315698518E+02  0.10938139060E+03  0.17589065860E+03  0.41800000000E+01 0.  1.
         -5    1    3    3    0  501  0.27528331818E+02  0.13893676795E+02  0.25366274502E+02  0.40146775582E+02  0.41800000000E+01 0.  1.
</event>
<event>
11    1  0.1704459E-009  0.1375769E+03  0.7561462E-02  0.1110295E+00
         22   -1    0    0    0    0  0.00000000000E+00  0.00000000000E+00  0.17558937728E+02  0.17558937728E+02  0.00000000000E+00 0. -1.
         22   -1    0    0    0    0 -0.00000000000E+00 -0.00000000000E+00 -0.18198461258E+04  0.18198461258E+04  0.00000000000E+00 0. -1.
         25    2    1    2    0    0  0.64491965107E+01 -0.18058933386E+02 -0.85195163233E+03  0.86129917616E+03  0.12508784839E+03 0.  0.
         24    2    1    2    0    0  0.31933287615E+02 -0.41915104191E+02 -0.64990162623E+03  0.65739720740E+03  0.83799485073E+02 0.  0.
        -24    2    1    2    0    0 -0.38382484126E+02  0.59974037577E+02 -0.30043392954E+03  0.31870868000E+03  0.79022632303E+02 0.  0.
        -13    1    4    4    0    0  0.30861799704E+02 -0.54982426478E+01 -0.74280540195E+02  0.80624313981E+02  0.00000000000E+00 0.  1.
         14    1    4    4    0    0  0.10714879119E+01 -0.36416861543E+02 -0.57562108603E+03  0.57677289341E+03  0.00000000000E+00 0. -1.
         11    1    5    5    0    0  0.74508757874E+01 -0.65008918651E+01 -0.27428242116E+01  0.10261590018E+02  0.00000000000E+00 0. -1.
        -12    1    5    5    0    0 -0.45833359914E+02  0.66474929442E+02 -0.29769110533E+03  0.30844708998E+03  0.00000000000E+00 0.  1.
          5    1    3    3  501    0 -0.15118672905E+01 -0.60439124517E+02 -0.71716651057E+03  0.71972248110E+03  0.41800000000E+01 0. -1.
         -5    1    3    3    0  501  0.79610638011E+01  0.42380191131E+02 -0.13478512176E+03  0.14157669506E+03  0.41800000000E+01 0. -1.
</event>
<event>
11    1  0.1704459E-009  0.5330215E+03  0.7561462E-02  0.9322617E-01
         22   -1    0    0    0    0  0.00000000000E+00  0.00000000000E+00  0.22158823861E+04  0.22158823861E+04  0.00000000000E+00 0. -1.
         22   -1    0    0    0    0 -0.00000000000E+00 -0.00000000000E+00 -0.14371568748E+04  0.14371568748E+04  0.00000000000E+00 0.  1.
         25    2    1    2    0    0  0.44215868993E+03 -0.28550727291E+03 -0.13027093608E+04  0.14105736243E+04  0.12509021091E+03 0.  0.
        -24    2    1    2    0    0 -0.67422854486E+02  0.35232683895E+03  0.54229150609E+03  0.65500206697E+03  0.79168095942E+02 0.  0.
         24    2    1    2    0    0 -0.37473583545E+03 -0.66819566039E+02  0.15391433661E+04  0.15874635696E+04  0.78654197060E+02 0.  0.
        -11    1    5    5    0    0 -0.16331540343E+03 -0.60453109940E+02  0.79455699968E+03  0.81341706721E+03  0.00000000000E+00 0.  1.
         12    1    5    5    0    0 -0.21142043202E+03 -0.63664560983E+01  0.74458636641E+03  0.77404650241E+03  0.00000000000E+00 0. -1.
         11    1    4    4    0    0 -0.20624703903E+02  0.47725910744E+02  0.13195118448E+03  0.14182473710E+03  0.00000000000E+00 0. -1.
        -12    1    4    4    0    0 -0.46798150583E+02  0.30460092820E+03  0.41034032160E+03  0.51317732987E+03  0.00000000000E+00 0.  1.
          5    1    3    3  501    0  0.20861856038E+03 -0.15461438112E+03 -0.48515761912E+03  0.55029328396E+03  0.41800000000E+01 0.  1.
         -5    1    3    3    0  501  0.23354012955E+03 -0.13089289178E+03 -0.81755174169E+03  0.86028034034E+03  0.41800000000E+01 0.  1.
</event>
<event>
11    1  0.1704459E-009  0.2044409E+03  0.7561462E-02  0.1051427E+00
         22   -1    0    0    0    0  0.00000000000E+00  0.00000000000E+00  0.34232338359E+03  0.34232338359E+03  0.00000000000E+00 0. -1.
         22   -1    0    0    0    0 -0.00000000000E+00 -0.00000000000E+00 -0.79163131811E+03  0.79163131811E+03  0.00000000000E+00 0.  1.
         25    2    1    2    0    0  0.13730761709E+03  0.95191249179E+02 -0.51020013085E+03  0.55123887015E+03  0.12508142476E+03 0.  0.
         24    2    1    2    0    0 -0.14408427101E+03 -0.59709941607E+02 -0.22390173934E+03  0.28445680261E+03  0.80362487442E+02 0.  0.
        -24    2    1    2    0    0  0.67766539286E+01 -0.35481307572E+02  0.28479393567E+03  0.29825902894E+03  0.80907455301E+02 0.  0.
        -11    1    4    4    0    0 -0.13716087264E+03 -0.76658261486E+02 -0.20168305482E+03  0.25566706600E+03  0.00000000000E+00 0.  1.
         12    1    4    4    0    0 -0.69233983755E+01  0.16948319879E+02 -0.22218684525E+02  0.28789736605E+02  0.00000000000E+00 0. -1.
         13    1    5    5    0    0  0.14430279541E+02 -0.41012508409E+02  0.28549821770E+03  0.28878970051E+03  0.00000000000E+00 0. -1.
        -14    1    5    5    0    0 -0.76536256121E+01  0.55312008371E+01 -0.70428202482E+00  0.94693284282E+01  0.00000000000E+00 0.  1.
          5    1    3    3  501    0  0.15725495824E+03  0.87828728381E+02 -0.39680843493E+03  0.43579515125E+03  0.41800000000E+01 0. -1.
         -5    1    3    3    0  501 -0.19947341151E+02  0.73625207981E+01 -0.11339169592E+03  0.11544371891E+03  0.41800000000E+01 0. -1.
</event>
<event>
11    1  0.1704459E-009  0.1966805E+03  0.7561462E-02  0.1056896E+00
         22   -1    0    0    0    0  0.00000000000E+00  0.00000000000E+00  0.65434423436E+03  0.65434423436E+03  0.00000000000E+00 0. -1.
         22   -1    0    0    0    0 -0.00000000000E+00 -0.00000000000E+00 -0.24332349531E+03  0.24332349531E+03  0.00000000000E+00 0. -1.
         25    2    1    2    0    0 -0.97063723311E+02 -0.99381843432E+02 -0.36260006783E+02  0.19042895721E+03  0.12510108899E+03 0.  0.
         24    2    1    2    0    0  0.18551945253E+01  0.19374590702E+03 -0.21804765893E+02  0.21149312555E+03  0.81932753555E+02 0.  0.
        -24    2    1    2    0    0  0.95208528785E+02 -0.94364063587E+02  0.46908551173E+03  0.49574564690E+03  0.88052760673E+02 0.  0.
        -13    1    4    4    0    0 -0.12013051660E+02  0.19393022815E+03 -0.27988791980E+02  0.19630746109E+03  0.00000000000E+00 0.  1.
         14    1    4    4    0    0  0.13868246185E+02 -0.18432113291E+00  0.61840260871E+01  0.15185664463E+02  0.00000000000E+00 0. -1.
         11    1    5    5    0    0  0.93460116883E+02 -0.10524255675E+03  0.46119229422E+03  0.48219199646E+03  0.00000000000E+00 0. -1.
        -12    1    5    5    0    0  0.17484119026E+01  0.10878493167E+02  0.78932175028E+01  0.13553650442E+02  0.00000000000E+00 0.  1.
          5    1    3    3  501    0  0.25009254496E+02 -0.45311104804E+02  0.35349367585E+00  0.51924525869E+02  0.41800000000E+01 0. -1.
         -5    1    3    3    0  501 -0.12207297781E+03 -0.54070738628E+02 -0.36613500459E+02  0.13850443135E+03  0.41800000000E+01 0. -1.
</event>
<event>
11    1  0.1704459E-009  0.3109357E+03  0.7561462E-02  0.9956663E-01
         22   -1    0    0    0    0  0.00000000000E+00  0.00000000000E+00  0.87781751910E+03  0.87781751910E+03  0.00000000000E+00 0. -1.
         22   -1    0    0    0    0 -0.00000000000E+00 -0.00000000000E+00 -0.17426068911E+03  0.17426068911E+03  0.00000000000E+00 0.  1.
         25    2    1    2    0    0  0.11967903606E+03 -0.23401404417E+03  0.12269371993E+03  0.31589013325E+03  0.12508869987E+03 0.  0.
         24    2    1    2    0    0 -0.15631886028E+03  0.29634679394E+03  0.44760067636E+03  0.56462404439E+03  0.78720630515E+02 0.  0.
        -24    2    1    2    0    0  0.36639824221E+02 -0.62332749770E+02  0.13326243369E+03  0.17156403057E+03  0.80296275997E+02 0.  0.
        -13    1    4    4    0    0 -0.96701984441E+02  0.18605851706E+03  0.21460789358E+03  0.30004265289E+03  0.00000000000E+00 0.  1.
         14    1    4    4    0    0 -0.59616875837E+02  0.11028827688E+03  0.23299278277E+03  0.26458139150E+03  0.00000000000E+00 0. -1.
         13    1    5    5    0    0  0.40863455946E+02 -0.64454499113E+02  0.14223897904E+03  0.16141911797E+03  0.00000000000E+00 0. -1.
        -14    1    5    5    0    0 -0.42236317251E+01  0.21217493434E+01 -0.89765453492E+01  0.10144912599E+02  0.00000000000E+00 0.  1.
          5    1    3    3  501    0  0.58458975949E+02 -0.14331232722E+02  0.88983369578E+01  0.60987612685E+02  0.41800000000E+01 0.  1.
         -5    1    3    3    0  501  0.61220060108E+02 -0.21968281145E+03  0.11379538297E+03  0.25490252057E+03  0.41800000000E+01 0.  1.
</event>
<event>
11    1  0.1704459E-009  0.1306736E+03  0.7561462E-02  0.1118444E+00
         22   -1    0    0    0    0  0.00000000000E+00  0.00000000000E+00  0.19717753262E+03  0.19717753262E+03  0.00000000000E+00 0. -1.
         22   -1    0    0    0    0 -0.00000000000E+00 -0.00000000000E+00 -0.17830117449E+04  0.17830117449E+04  0.00000000000E+00 0.  1.
         25    2    1    2    0    0 -0.88403624056E+01  0.58702450043E+02 -0.12595744665E+04  0.12671620528E+04  0.12509077377E+03 0.  0.
         24    2    1    2    0    0 -0.50176780217E+01 -0.23720657268E+02 -0.50604943582E+03  0.51300219924E+03  0.80606316504E+02 0.  0.
        -24    2    1    2    0    0  0.13858040427E+02 -0.34981792775E+02  0.17978969011E+03  0.20002502545E+03  0.79182744492E+02 0.  0.
        -13    1    4    4    0    0  0.19276959716E+02 -0.27726726584E+02 -0.45575038684E+03  0.45699976766E+03  0.00000000000E+00 0.  1.
         14    1    4    4    0    0 -0.24294637737E+02  0.40060693165E+01 -0.50299048984E+02  0.56002431580E+02  0.00000000000E+00 0. -1.
         13    1    5    5    0    0  0.24462329610E+02 -0.47426514421E+02  0.65103495275E+02  0.84179242911E+02  0.00000000000E+00 0. -1.
        -14    1    5    5    0    0 -0.10604289183E+02  0.12444721645E+02  0.11468619483E+03  0.11584578253E+03  0.00000000000E+00 0.  1.
          5    1    3    3  501    0 -0.41167284952E+02  0.60390048415E+02 -0.38029490648E+03  0.38727689267E+03  0.41800000000E+01 0.  1.
         -5    1    3    3    0  501  0.32326922547E+02 -0.16875983716E+01 -0.87927956005E+03  0.87988516014E+03  0.41800000000E+01 0.  1.
</event>
<event>
11    1  0.1704459E-009  0.1515807E+03  0.7561462E-02  0.1095274E+00
         22   -1    0    0    0    0  0.00000000000E+00  0.00000000000E+00  0.50150230498E+03  0.50150230498E+03  0.00000000000E+00 0. -1.
         22   -1    0    0    0    0 -0.00000000000E+00 -0.00000000000E+00 -0.14532244144E+03  0.14532244144E+03  0.00000000000E+00 0. -1.
         25    2    1    2    0    0  0.23398792469E+02 -0.83397286687E+02 -0.47474361628E+02  0.15938708919E+03  0.12509123980E+03 0.  0.
         24    2    1    2    0    0  0.53547646599E+02  0.91115780482E+02  0.10905168610E+03  0.17185389868E+03  0.80449091606E+02 0.  0.
        -24    2    1    2    0    0 -0.76946439069E+02 -0.77184937952E+01  0.29460253906E+03  0.31558375855E+03  0.82596144009E+02 0.  0.
        -13    1    4    4    0    0 -0.57036123128E+01  0.50309824822E+02  0.79116880462E+02  0.93931307033E+02  0.00000000000E+00 0.  1.
         14    1    4    4    0    0  0.59251258912E+02  0.40805955660E+02  0.29934805642E+02  0.77922591646E+02  0.00000000000E+00 0. -1.
         13    1    5    5    0    0 -0.65120808552E+02  0.31375717077E+02  0.18544527539E+03  0.19903543779E+03  0.00000000000E+00 0. -1.
        -14    1    5    5    0    0 -0.11825630517E+02 -0.39094210872E+02  0.10915726367E+03  0.11654832076E+03  0.00000000000E+00 0.  1.
          5    1    3    3  501    0 -0.16373195536E+02 -0.99775473644E+02 -0.55525370710E+02  0.11542861805E+03  0.41800000000E+01 0.  1.
         -5    1    3    3    0  501  0.39771988005E+02  0.16378186957E+02  0.80510090822E+01  0.43958471142E+02  0.41800000000E+01 0.  1.
</event>
<event>
11    1  0.1704459E-009  0.2304364E+03  0.7561462E-02  0.1034870E+00
         22   -1    0    0    0    0  0.00000000000E+00  0.00000000000E+00  0.66007496305E+03  0.66007496305E+03  0.00000000000E+00 0. -1.
         22   -1    0    0    0    0 -0.00000000000E+00 -0.00000000000E+00 -0.16368412860E+03  0.16368412860E+03  0.00000000000E+00 0.  1.
         25    2    1    2    0    0  0.13553511834E+02  0.28581338421E+02  0.24330455886E+02  0.13130321841E+03  0.12509186021E+03 0.  0.
        -24    2    1    2    0    0 -0.78228551491E+02  0.18429695981E+03  0.72055902336E+02  0.22770880771E+03  0.81081270254E+02 0.  0.
         24    2    1    2    0    0  0.64675039657E+02 -0.21287829823E+03  0.40000447623E+03  0.46474706553E+03  0.80537092721E+02 0.  0.
        -11    1    5    5    0    0  0.79210146825E+01 -0.52135157706E+02  0.39226735481E+02  0.65723313361E+02  0.00000000000E+00 0.  1.
         12    1    5    5    0    0  0.56754024974E+02 -0.16074314052E+03  0.36077774075E+03  0.39902375217E+03  0.00000000000E+00 0. -1.
         13    1    4    4    0    0 -0.62347219016E+02  0.11434950618E+03  0.84018183391E+02  0.15499045268E+03  0.00000000000E+00 0. -1.
        -14    1    4    4    0    0 -0.15881332474E+02  0.69947453628E+02 -0.11962281055E+02  0.72718355030E+02  0.00000000000E+00 0.  1.
          5    1    3    3  501    0 -0.38055695483E+02 -0.23987985923E+02  0.34464340388E+02  0.56823609404E+02  0.41800000000E+01 0.  1.
         -5    1    3    3    0  501  0.51609207317E+02  0.52569324344E+02 -0.10133884502E+02  0.74479609002E+02  0.41800000000E+01 0.  1.
</event>
<event>
11    1  0.1704459E-009  0.1406461E+03  0.7561462E-02  0.1106839E+00
         22   -1    0    0    0    0  0.00000000000E+00  0.00000000000E+00  0.48267101581E+02  0.48267101581E+02  0.00000000000E+00 0. -1.
         22   -1    0    0    0    0 -0.00000000000E+00 -0.00000000000E+00 -0.90735699941E+03  0.90735699941E+03  0.00000000000E+00 0. -1.
         25    2    1    2    0    0 -0.31086620668E+02 -0.77300634063E+01 -0.40866512911E+03  0.42857739171E+03  0.12508101801E+03 0.  0.
         24    2    1    2    0    0  0.12314789892E+03  0.14660938778E+02 -0.28067074222E+03  0.31730879957E+03  0.80798889944E+02 0.  0.
        -24    2    1    2    0    0 -0.92061278250E+02 -0.69308753717E+01 -0.16975402650E+03  0.20973790971E+03  0.81549035983E+02 0.  0.
        -13    1    4    4    0    0  0.35031310429E+02 -0.32410325465E+02 -0.10177679662E+03  0.11241057885E+03  0.00000000000E+00 0.  1.
         14    1    4    4    0    0  0.88116588490E+02  0.47071264243E+02 -0.17889394560E+03  0.20489822073E+03  0.00000000000E+00 0. -1.
         13    1    5    5    0    0 -0.10494825721E+03  0.34998274017E+01 -0.13330715784E+03  0.16969733002E+03  0.00000000000E+00 0. -1.
        -14    1    5    5    0    0  0.12886978959E+02 -0.10430702773E+02 -0.36446868662E+02  0.40040579695E+02  0.00000000000E+00 0.  1.
          5    1    3    3  501    0 -0.13653859837E+02  0.15855239145E+02 -0.39564084568E+03  0.39621580946E+03  0.41800000000E+01 0. -1.
         -5    1    3    3    0  501 -0.17432760831E+02 -0.23585302552E+02 -0.13024283431E+02  0.32361582247E+02  0.41800000000E+01 0. -1.
</event>
<event>
11    1  0.1704459E-009  0.1550178E+03  0.7561462E-02  0.1091859E+00
         22   -1    0    0    0    0  0.00000000000E+00  0.00000000000E+00  0.70016178658E+03  0.70016178658E+03  0.00000000000E+00 0.  1.
         22   -1    0    0    0    0 -0.00000000000E+00 -0.00000000000E+00 -0.54721734282E+03  0.54721734282E+03  0.00000000000E+00 0. -1.
         25    2    1    2    0    0  0.34709559910E+02 -0.15455387234E+03 -0.35584578204E+03  0.40910345436E+03  0.12509101796E+03 0.  0.
         24    2    1    2    0    0 -0.26881021607E+02  0.64301773570E+02 -0.14093086586E+03  0.17725975467E+03  0.81866991310E+02 0.  0.
        -24    2    1    2    0    0 -0.78285383027E+01  0.90252098769E+02  0.64972109166E+03  0.66101592037E+03  0.81226982473E+02 0.  0.
        -11    1    4    4    0    0 -0.12418409684E+02  0.11801179810E+02 -0.11619110358E+03  0.11744725325E+03  0.00000000000E+00 0.  1.
         12    1    4    4    0    0 -0.14462611923E+02  0.52500593760E+02 -0.24739762283E+02  0.59812501425E+02  0.00000000000E+00 0. -1.
         13    1    5    5    0    0  0.15182513363E+02  0.24906222802E+01  0.22442133834E+02  0.27209580709E+02  0.00000000000E+00 0. -1.
        -14    1    5    5    0    0 -0.23011051665E+02  0.87761476489E+02  0.62727895783E+03  0.63380633966E+03  0.00000000000E+00 0.  1.
          5    1    3    3  501    0 -0.19417365047E+02 -0.14010715776E+03 -0.21417622799E+03  0.25670212067E+03  0.41800000000E+01 0. -1.
         -5    1    3    3    0  501  0.54126924957E+02 -0.14446714579E+02 -0.14166955404E+03  0.15240133369E+03  0.41800000000E+01 0. -1.
</event>
<event>
11    1  0.1704459E-009  0.1791130E+03  0.7561462E-02  0.1070363E+00
         22   -1    0    0    0    0  0.00000000000E+00  0.00000000000E+00  0.10527554954E+03  0.10527554954E+03  0.00000000000E+00 0.  1.
         22   -1    0    0    0    0 -0.00000000000E+00 -0.00000000000E+00 -0.24079865390E+04  0.24079865390E+04  0.00000000000E+00 0. -1.
         25    2    1    2    0    0 -0.12222045080E+03 -0.10241645226E+03 -0.15024364215E+04  0.15160440987E+04  0.12509012786E+03 0.  0.
         24    2    1    2    0    0  0.11457233650E+03  0.59546496522E+01 -0.85032193632E+03  0.86173509110E+03  0.79860463974E+02 0.  0.
        -24    2    1    2    0    0  0.76481142984E+01  0.96461802608E+02  0.50047368433E+02  0.13548289872E+03  0.80545041716E+02 0.  0.
        -13    1    4    4    0    0  0.68145769888E+02 -0.32899023153E+02 -0.56625207844E+03  0.57128592493E+03  0.00000000000E+00 0.  1.
         14    1    4    4    0    0  0.46426566614E+02  0.38853672805E+02 -0.28406985787E+03  0.29044916617E+03  0.00000000000E+00 0. -1.
         13    1    5    5    0    0 -0.34344421365E+02  0.49234951284E+02  0.38290713148E+02  0.71202516951E+02  0.00000000000E+00 0. -1.
        -14    1    5    5    0    0  0.41992535663E+02  0.47226851324E+02  0.11756655285E+02  0.64280381773E+02  0.00000000000E+00 0.  1.
          5    1    3    3  501    0 -0.20619455688E+02  0.25836722985E+02 -0.41796865654E+03  0.41929460819E+03  0.41800000000E+01 0.  1.
         -5    1    3    3    0  501 -0.10160099511E+03 -0.12825317524E+03 -0.10844677650E+04  0.10967494905E+04  0.41800000000E+01 0.  1.
</event>
<event>
11    1  0.1704459E-009  0.1475001E+03  0.7561462E-02  0.1099461E+00
         22   -1    0    0    0    0  0.00000000000E+00  0.00000000000E+00  0.36025255945E+03  0.36025255945E+03  0.00000000000E+00 0. -1.
         22   -1    0    0    0    0 -0.00000000000E+00 -0.00000000000E+00 -0.45917320175E+03  0.45917320175E+03  0.00000000000E+00 0.  1.
         25    2    1    2    0    0  0.78469030114E+02  0.51567745088E+02 -0.24203891095E+03  0.28817856482E+03  0.12508968699E+03 0.  0.
        -24    2    1    2    0    0 -0.67434172494E+02 -0.18826166236E+02 -0.17362282976E+03  0.20192461291E+03  0.75676086918E+02 0.  0.
         24    2    1    2    0    0 -0.11034857621E+02 -0.32741578852E+02  0.31674109840E+03  0.32932258347E+03  0.83274614958E+02 0.  0.
        -13    1    5    5    0    0  0.72468796842E+01 -0.35559369781E+02  0.49165465683E+02  0.61108338713E+02  0.00000000000E+00 0.  1.
         14    1    5    5    0    0 -0.18281737305E+02  0.28177909285E+01  0.26757563272E+03  0.26821424476E+03  0.00000000000E+00 0. -1.
         11    1    4    4    0    0 -0.11181250433E+02 -0.35306311639E+02 -0.33117416919E+02  0.49682182985E+02  0.00000000000E+00 0. -1.
        -12    1    4    4    0    0 -0.56252922060E+02  0.16480145403E+02 -0.14050541284E+03  0.15224242992E+03  0.00000000000E+00 0.  1.
          5    1    3    3  501    0  0.12170879641E+01  0.75261082123E+02 -0.12217788140E+03  0.14356398883E+03  0.41800000000E+01 0.  1.
         -5    1    3    3    0  501  0.77251942150E+02 -0.23693337035E+02 -0.11986102955E+03  0.14461457600E+03  0.41800000000E+01 0.  1.
</event>
<event>
11    1  0.1704459E-009  0.2149074E+03  0.7561462E-02  0.1044455E+00
         22   -1    0    0    0    0  0.00000000000E+00  0.00000000000E+00  0.77543307928E+03  0.77543307928E+03  0.00000000000E+00 0.  1.
         22   -1    0    0    0    0 -0.00000000000E+00 -0.00000000000E+00 -0.13675058567E+03  0.13675058567E+03  0.00000000000E+00 0. -1.
         25    2    1    2    0    0 -0.11520077513E+03 -0.11922456552E+03  0.10051012754E+03  0.23073274561E+03  0.12509835548E+03 0.  0.
         24    2    1    2    0    0  0.14192345354E+03 -0.77622557259E+02  0.13638477488E+03  0.22572593083E+03  0.78637529025E+02 0.  0.
        -24    2    1    2    0    0 -0.26722678407E+02  0.19684712278E+03  0.40178759119E+03  0.45572498851E+03  0.82396028016E+02 0.  0.
        -11    1    4    4    0    0  0.47676701731E+02 -0.61531483129E+02  0.91419568491E+02  0.12006968313E+03  0.00000000000E+00 0.  1.
         12    1    4    4    0    0  0.94246751804E+02 -0.16091074130E+02  0.44965206388E+02  0.10565624770E+03  0.00000000000E+00 0. -1.
         11    1    5    5    0    0  0.10578771919E+02  0.10040053543E+03  0.12775008900E+03  0.16282586763E+03  0.00000000000E+00 0. -1.
        -12    1    5    5    0    0 -0.37301450326E+02  0.96446587353E+02  0.27403750219E+03  0.29289912088E+03  0.00000000000E+00 0.  1.
          5    1    3    3  501    0 -0.12115243617E+03 -0.13540558689E+03  0.68666879036E+02  0.19428123540E+03  0.41800000000E+01 0. -1.
         -5    1    3    3    0  501  0.59516610400E+01  0.16181021365E+02  0.31843248507E+02  0.36451510216E+02  0.41800000000E+01 0. -1.
</event>
<event>
11    1  0.1704459E-009  0.4452163E+03  0.7561462E-02  0.9525026E-01
         22   -1    0    0    0    0  0.00000000000E+00  0.00000000000E+00  0.28453481851E+04  0.28453481851E+04  0.00000000000E+00 0.  1.
         22   -1    0    0    0    0 -0.00000000000E+00 -0.00000000000E+00 -0.25967715092E+03  0.25967715092E+03  0.00000000000E+00 0.  1.
         25    2    1    2    0    0 -0.72349299254E+02 -0.40569974319E+02 -0.63988546179E+02  0.16316428594E+03  0.12509079201E+03 0.  0.
        -24    2    1    2    0    0  0.10044452486E+03 -0.40141363056E+03  0.22830022252E+03  0.47902248857E+03  0.78227537228E+02 0.  0.
         24    2    1    2    0    0 -0.28095225610E+02  0.44198360488E+03  0.24213593578E+04  0.24628385615E+04  0.80335493894E+02 0.  0.
        -13    1    5    5    0    0  0.26097188113E+02  0.18878136762E+03  0.96476925474E+03  0.98341201074E+03  0.00000000000E+00 0.  1.
         14    1    5    5    0    0 -0.54192413723E+02  0.25320223726E+03  0.14565901031E+04  0.14794265507E+04  0.00000000000E+00 0. -1.
         13    1    4    4    0    0  0.69016827861E+02 -0.12992796189E+03  0.66837799700E+02  0.16159173642E+03  0.00000000000E+00 0. -1.
        -14    1    4    4    0    0  0.31427697002E+02 -0.27148566867E+03  0.16146242282E+03  0.31743075216E+03  0.00000000000E+00 0.  1.
          5    1    3    3  501    0 -0.88936754242E+01  0.23598768183E+02 -0.68088528859E+02  0.72729082797E+02  0.41800000000E+01 0.  1.
         -5    1    3    3    0  501 -0.63455623830E+02 -0.64168742502E+02  0.40999826796E+01  0.90435203145E+02  0.41800000000E+01 0.  1.
</event>
<event>
11    1  0.1704459E-009  0.2359894E+03  0.7561462E-02  0.1031639E+00
         22   -1    0    0    0    0  0.00000000000E+00  0.00000000000E+00  0.49155509991E+03  0.49155509991E+03  0.00000000000E+00 0. -1.
         22   -1    0    0    0    0 -0.00000000000E+00 -0.00000000000E+00 -0.32124544942E+03  0.32124544942E+03  0.00000000000E+00 0.  1.
         25    2    1    2    0    0  0.12429571353E+03 -0.17415480019E+03 -0.15355715494E+03  0.29154787078E+03  0.12506415271E+03 0.  0.
        -24    2    1    2    0    0  0.19542924671E+02  0.20329382656E+03  0.90021726572E+02  0.23370454911E+03  0.69308002430E+02 0.  0.
         24    2    1    2    0    0 -0.14383863820E+03 -0.29139026366E+02  0.23384507885E+03  0.28754812944E+03  0.80385130107E+02 0.  0.
        -11    1    5    5    0    0 -0.12621011728E+02  0.11776701494E+02  0.11623835471E+01  0.17301207201E+02  0.00000000000E+00 0.  1.
         12    1    5    5    0    0 -0.13121762647E+03 -0.40915727860E+02  0.23268269531E+03  0.27024692224E+03  0.00000000000E+00 0. -1.
         13    1    4    4    0    0 -0.13799083663E+02  0.10132660086E+03  0.71645087412E+02  0.12486197700E+03  0.00000000000E+00 0. -1.
        -14    1    4    4    0    0  0.33342008334E+02  0.10196722570E+03  0.18376639161E+02  0.10884257211E+03  0.00000000000E+00 0.  1.
          5    1    3    3  501    0  0.10093211250E+03 -0.52414353631E+02 -0.11467831941E+03  0.16156467789E+03  0.41800000000E+01 0.  1.
         -5    1    3    3    0  501  0.23363601030E+02 -0.12174044656E+03 -0.38878835526E+02  0.12998319289E+03  0.41800000000E+01 0.  1.
</event>
<event>
11    1  0.1704459E-009  0.1380160E+03  0.7561462E-02  0.1109794E+00
         22   -1    0    0    0    0  0.00000000000E+00  0.00000000000E+00  0.30407590768E+03  0.30407590768E+03  0.00000000000E+00 0. -1.
         22   -1    0    0    0    0 -0.00000000000E+00 -0.00000000000E+00 -0.60233853516E+03  0.60233853516E+03  0.00000000000E+00 0.  1.
         25    2    1    2    0    0 -0.69567495068E+01  0.12695416280E+02 -0.32497370571E+03  0.34851862871E+03  0.12509098766E+03 0.  0.
        -24    2    1    2    0    0  0.34050640411E+02  0.40477729165E+02 -0.24738702049E+03  0.26548901703E+03  0.80536870974E+02 0.  0.
         24    2    1    2    0    0 -0.27093890904E+02 -0.53173145445E+02  0.27409809873E+03  0.29240679710E+03  0.82525783519E+02 0.  0.
        -13    1    5    5    0    0 -0.69129009890E+01 -0.64773474454E+02  0.11982096224E+03  0.13638348208E+03  0.00000000000E+00 0.  1.
         14    1    5    5    0    0 -0.20180989915E+02  0.11600329009E+02  0.15427713649E+03  0.15602331502E+03  0.00000000000E+00 0. -1.
         11    1    4    4    0    0  0.32095126152E+02  0.24929034850E+02 -0.38388417219E+02  0.55903707192E+02  0.00000000000E+00 0. -1.
        -12    1    4    4    0    0  0.19555142590E+01  0.15548694314E+02 -0.20899860327E+03  0.20958530983E+03  0.00000000000E+00 0.  1.
          5    1    3    3  501    0  0.51134816561E+02  0.26174352000E+02 -0.96758724651E+02  0.11260368273E+03  0.41800000000E+01 0.  1.
         -5    1    3    3    0  501 -0.58091566068E+02 -0.13478935720E+02 -0.22821498106E+03  0.23591494598E+03  0.41800000000E+01 0.  1.
</event>
<event>
11    1  0.1704459E-009  0.4352015E+03  0.7561462E-02  0.9551248E-01
         22   -1    0    0    0    0  0.00000000000E+00  0.00000000000E+00  0.59856547780E+03  0.59856547780E+03  0.00000000000E+00 0. -1.
         22   -1    0    0    0    0 -0.00000000000E+00 -0.00000000000E+00 -0.10069887320E+04  0.10069887320E+04  0.00000000000E+00 0.  1.
         25    2    1    2    0    0 -0.16166460546E+03  0.41214527085E+03 -0.81015669848E+03  0.93166530704E+03  0.12508876576E+03 0.  0.
         24    2    1    2    0    0  0.11358663758E+03 -0.16876245338E+03  0.39126215354E+02  0.22709105154E+03  0.93041899456E+02 0.  0.
        -24    2    1    2    0    0  0.48077967881E+02 -0.24338281748E+03  0.36260722897E+03  0.44679785118E+03  0.81225799355E+02 0.  0.
        -13    1    4    4    0    0  0.48739172744E+01 -0.38511943504E+01  0.28625838649E+02  0.29292070700E+02  0.00000000000E+00 0.  1.
         14    1    4    4    0    0  0.10871272030E+03 -0.16491125903E+03  0.10500376705E+02  0.19779898084E+03  0.00000000000E+00 0. -1.
         13    1    5    5    0    0  0.78887459916E+01 -0.19035312841E+03  0.23185272003E+03  0.30008703670E+03  0.00000000000E+00 0. -1.
        -14    1    5    5    0    0  0.40189221889E+02 -0.53029689068E+02  0.13075450894E+03  0.14671081448E+03  0.00000000000E+00 0.  1.
          5    1    3    3  501    0 -0.14027293915E+03  0.35456781931E+03 -0.58552820647E+03  0.69875288115E+03  0.41800000000E+01 0. -1.
         -5    1    3    3    0  501 -0.21391666312E+02  0.57577451543E+02 -0.22462849201E+03  0.23291242589E+03  0.41800000000E+01 0. -1.
</event>
<event>
11    1  0.1704459E-009  0.2709187E+03  0.7561462E-02  0.1013310E+00
         22   -1    0    0    0    0  0.00000000000E+00  0.00000000000E+00  0.13353329977E+03  0.13353329977E+03  0.00000000000E+00 0. -1.
         22   -1    0    0    0    0 -0.00000000000E+00 -0.00000000000E+00 -0.35641033081E+03  0.35641033081E+03  0.00000000000E+00 0.  1.
         25    2    1    2    0    0 -0.22336854560E+02 -0.62261298167E+00 -0.70883349493E+02  0.14550023343E+03  0.12508615420E+03 0.  0.
         24    2    1    2    0    0  0.13733557378E+03 -0.40845721170E+02 -0.70743577509E+02  0.17923229242E+03  0.81179604109E+02 0.  0.
        -24    2    1    2    0    0 -0.11499871922E+03  0.41468334152E+02 -0.81250104033E+02  0.16521110473E+03  0.75820851769E+02 0.  0.
        -11    1    4    4    0    0  0.12465201081E+03 -0.47453917235E+02 -0.85699871073E+02  0.15853853148E+03  0.00000000000E+00 0.  1.
         12    1    4    4    0    0  0.12683562965E+02  0.66081960649E+01  0.14956293563E+02  0.20693760941E+02  0.00000000000E+00 0. -1.
         13    1    5    5    0    0 -0.10272541241E+03  0.12053641525E+02 -0.35298005248E+02  0.10928746407E+03  0.00000000000E+00 0. -1.
        -14    1    5    5    0    0 -0.12273306811E+02  0.29414692627E+02 -0.45952098784E+02  0.55923640664E+02  0.00000000000E+00 0.  1.
          5    1    3    3  501    0 -0.45837374785E+02 -0.15540307217E+02 -0.96117913071E+02  0.10769722229E+03  0.41800000000E+01 0.  1.
         -5    1    3    3    0  501  0.23500520225E+02  0.14917694236E+02  0.25234563578E+02  0.37803011139E+02  0.41800000000E+01 0.  1.
</event>
<event>
11    1  0.3439133E-009  0.1655340E+03  0.7561462E-02  0.1081985E+00
         22   -1    0    0    0    0  0.00000000000E+00  0.00000000000E+00  0.56468855888E+03  0.56468855888E+03  0.00000000000E+00 0.  1.
         22   -1    0    0    0    0 -0.00000000000E+00 -0.00000000000E+00 -0.87797068895E+03  0.87797068895E+03  0.00000000000E+00 0.  1.
         25    2    1    2    0    0 -0.87768368785E+02  0.70205266446E+02 -0.80532804733E+03  0.82269829574E+03  0.12508859256E+03 0.  0.
        -24    2    1    2    0    0  0.21003048895E+01 -0.38244732495E+01 -0.37534049480E+02  0.73437412241E+02  0.62969919565E+02 0.  0.
         24    2    1    2    0    0  0.85668063895E+02 -0.66380793197E+02  0.52957996675E+03  0.54652353985E+03  0.80545710944E+02 0.  0.
        -11    1    5    5    0    0  0.99393328173E+02 -0.56446713023E+02  0.49486832003E+03  0.50789754800E+03  0.00000000000E+00 0.  1.
         12    1    5    5    0    0 -0.13725264277E+02 -0.99340801740E+01  0.34711646721E+02  0.38625991851E+02  0.00000000000E+00 0. -1.
         11    1    4    4    0    0 -0.11616880829E+02 -0.26800096438E+02 -0.24482223271E+01  0.29311958001E+02  0.00000000000E+00 0. -1.
        -12    1    4    4    0    0  0.13717185719E+02  0.22975623188E+02 -0.35085827153E+02  0.44125454241E+02  0.00000000000E+00 0.  1.
          5    1    3    3  501    0  0.99822141322E+01 -0.26196053223E+02 -0.92011825182E+02  0.96278378553E+02  0.41800000000E+01 0. -1.
         -5    1    3    3    0  501 -0.97750582917E+02  0.96401319670E+02 -0.71331622215E+03  0.72641991718E+03  0.41800000000E+01 0. -1.
</event>
<event>
11    1  0.1704459E-009  0.7556455E+03  0.7561462E-02  0.8954095E-01
         22   -1    0    0    0    0  0.00000000000E+00  0.00000000000E+00  0.97932200710E+03  0.97932200710E+03  0.00000000000E+00 0.  1.
         22   -1    0    0    0    0 -0.00000000000E+00 -0.00000000000E+00 -0.10722210325E+04  0.10722210325E+04  0.00000000000E+00 0.  1.
         25    2    1    2    0    0 -0.47382778097E+03 -0.80758556972E+03 -0.55953527526E+02  0.94630104802E+03  0.12509059841E+03 0.  0.
        -24    2    1    2    0    0  0.49509095787E+03  0.42809787033E+03 -0.19215981616E+03  0.68690976018E+03  0.80850358878E+02 0.  0.
         24    2    1    2    0    0 -0.21263176902E+02  0.37948769938E+03  0.15521431829E+03  0.41833223141E+03  0.80295295971E+02 0.  0.
        -13    1    5    5    0    0 -0.38836956777E+02  0.30302878542E+03  0.14823206978E+03  0.33956958125E+03  0.00000000000E+00 0.  1.
         14    1    5    5    0    0  0.17573779875E+02  0.76458913970E+02  0.69822485045E+01  0.78762650150E+02  0.00000000000E+00 0. -1.
         13    1    4    4    0    0  0.73302311832E+02  0.10507400433E+03 -0.41989767474E+02  0.13482179304E+03  0.00000000000E+00 0. -1.
        -14    1    4    4    0    0  0.42178864604E+03  0.32302386600E+03 -0.15017004869E+03  0.55208796713E+03  0.00000000000E+00 0.  1.
          5    1    3    3  501    0 -0.36993888734E+03 -0.64490509105E+03 -0.94352790405E+02  0.74945131816E+03  0.41800000000E+01 0.  1.
         -5    1    3    3    0  501 -0.10388889362E+03 -0.16268047867E+03  0.38399262879E+02  0.19684972986E+03  0.41800000000E+01 0.  1.
</event>
<event>
11    1  0.1704459E-009  0.2153030E+03  0.7561462E-02  0.1044200E+00
         22   -1    0    0    0    0  0.00000000000E+00  0.00000000000E+00  0.39930582535E+03  0.39930582535E+03  0.00000000000E+00 0. -1.
         22   -1    0    0    0    0 -0.00000000000E+00 -0.00000000000E+00 -0.11115990178E+04  0.11115990178E+04  0.00000000000E+00 0. -1.
         25    2    1    2    0    0  0.83810670395E+02  0.15187099539E+03 -0.10207572815E+04  0.10429198899E+04  0.12508973325E+03 0.  0.
        -24    2    1    2    0    0  0.33863607595E+02  0.42026534988E+02  0.32721026234E+02  0.10205111784E+03  0.80192216162E+02 0.  0.
         24    2    1    2    0    0 -0.11767427799E+03 -0.19389753038E+03  0.27574306283E+03  0.36593383535E+03  0.80186327780E+02 0.  0.
        -11    1    5    5    0    0 -0.10063927034E+03 -0.89394016218E+02  0.14973221187E+03  0.20134370649E+03  0.00000000000E+00 0.  1.
         12    1    5    5    0    0 -0.17035007651E+02 -0.10450351416E+03  0.12601085096E+03  0.16459012886E+03  0.00000000000E+00 0. -1.
         13    1    4    4    0    0  0.60236872249E+02  0.24715292675E+02  0.21516383393E+02  0.68573181526E+02  0.00000000000E+00 0. -1.
        -14    1    4    4    0    0 -0.26373264654E+02  0.17311242313E+02  0.11204642840E+02  0.33477936318E+02  0.00000000000E+00 0.  1.
          5    1    3    3  501    0  0.54591489445E+02  0.99784826022E+02 -0.90935060181E+03  0.91644597857E+03  0.41800000000E+01 0.  1.
         -5    1    3    3    0  501  0.29219180951E+02  0.52086169372E+02 -0.11140667968E+03  0.12647391135E+03  0.41800000000E+01 0.  1.
</event>
<event>
11    1  0.1704459E-009  0.3455602E+03  0.7561462E-02  0.9825627E-01
         22   -1    0    0    0    0  0.00000000000E+00  0.00000000000E+00  0.12303662669E+03  0.12303662669E+03  0.00000000000E+00 0.  1.
         22   -1    0    0    0    0 -0.00000000000E+00 -0.00000000000E+00 -0.34166241682E+04  0.34166241682E+04  0.00000000000E+00 0.  1.
         25    2    1    2    0    0 -0.30535196245E+02 -0.17063942818E+03 -0.19858845003E+04  0.19973570879E+04  0.12509146795E+03 0.  0.
        -24    2    1    2    0    0  0.12114021679E+03 -0.19320665693E+03 -0.10565563098E+04  0.10838693253E+04  0.80359902942E+02 0.  0.
         24    2    1    2    0    0 -0.90605020548E+02  0.36384608511E+03 -0.25114673133E+03  0.45843438170E+03  0.80586340413E+02 0.  0.
        -13    1    5    5    0    0 -0.31646643133E+02  0.27220285718E+03 -0.16885044433E+03  0.32187944642E+03  0.00000000000E+00 0.  1.
         14    1    5    5    0    0 -0.58958377415E+02  0.91643227937E+02 -0.82296287001E+02  0.13655493528E+03  0.00000000000E+00 0. -1.
         13    1    4    4    0    0  0.83700821251E+02 -0.12371212436E+03 -0.50287168851E+03  0.52458598180E+03  0.00000000000E+00 0. -1.
        -14    1    4    4    0    0  0.37439395543E+02 -0.69494532572E+02 -0.55368462131E+03  0.55928334346E+03  0.00000000000E+00 0.  1.
          5    1    3    3  501    0  0.33233650061E+02 -0.42118239461E+02 -0.95667299748E+03  0.95818532554E+03  0.41800000000E+01 0.  1.
         -5    1    3    3    0  501 -0.63768846306E+02 -0.12852118872E+03 -0.10292115029E+04  0.10391717624E+04  0.41800000000E+01 0.  1.
</event>
<event>
11    1  0.1704459E-009  0.2162980E+03  0.7561462E-02  0.1043562E+00
         22   -1    0    0    0    0  0.00000000000E+00  0.00000000000E+00  0.29674135677E+04  0.29674135677E+04  0.00000000000E+00 0. -1.
         22   -1    0    0    0    0 -0.00000000000E+00 -0.00000000000E+00 -0.29019871431E+02  0.29019871431E+02  0.00000000000E+00 0. -1.
         25    2    1    2    0    0 -0.15757669110E+02  0.21235764706E+03  0.92443001773E+03  0.95685031239E+03  0.12509032032E+03 0.  0.
         24    2    1    2    0    0 -0.66214902954E+02 -0.13929827863E+03  0.86152947138E+03  0.87885963025E+03  0.79829792851E+02 0.  0.
        -24    2    1    2    0    0  0.81972572064E+02 -0.73059368432E+02  0.11524342072E+04  0.11607234965E+04  0.84363852405E+02 0.  0.
        -11    1    4    4    0    0  0.61352144206E+01 -0.64979226581E+02  0.23913415427E+03  0.24788119025E+03  0.00000000000E+00 0.  1.
         12    1    4    4    0    0 -0.72350117375E+02 -0.74319052048E+02  0.62239531711E+03  0.63097843999E+03  0.00000000000E+00 0. -1.
         11    1    5    5    0    0  0.61699722222E+02 -0.86022435783E+02  0.10575641360E+04  0.10628492917E+04  0.00000000000E+00 0. -1.
        -12    1    5    5    0    0  0.20272849842E+02  0.12963067351E+02  0.94870071151E+02  0.97874204753E+02  0.00000000000E+00 0.  1.
          5    1    3    3  501    0  0.13089926533E+02  0.97852650382E+02  0.65823082588E+03  0.66560632502E+03  0.41800000000E+01 0.  1.
         -5    1    3    3    0  501 -0.28847595642E+02  0.11450499668E+03  0.26619919185E+03  0.29124398737E+03  0.41800000000E+01 0.  1.
</event>
<event>
11    1  0.1704459E-009  0.4373425E+03  0.7561462E-02  0.9545579E-01
         22   -1    0    0    0    0  0.00000000000E+00  0.00000000000E+00  0.43801019732E+03  0.43801019732E+03  0.00000000000E+00 0.  1.
         22   -1    0    0    0    0 -0.00000000000E+00 -0.00000000000E+00 -0.24134633578E+04  0.24134633578E+04  0.00000000000E+00 0.  1.
         25    2    1    2    0    0  0.26314399078E+02 -0.42802949814E+03 -0.12424657518E+04  0.13203297147E+04  0.12509081605E+03 0.  0.
        -24    2    1    2    0    0 -0.31194406966E+02  0.40820655915E+03 -0.10872935960E+04  0.11646098399E+04  0.80641362600E+02 0.  0.
         24    2    1    2    0    0  0.48800078878E+01  0.19822938995E+02  0.35430618734E+03  0.36653400049E+03  0.91638069266E+02 0.  0.
        -11    1    5    5    0    0 -0.18595364817E+02  0.42044653742E+02  0.29868154886E+03  0.30219895455E+03  0.00000000000E+00 0.  1.
         12    1    5    5    0    0  0.23475372705E+02 -0.22221714747E+02  0.55624638478E+02  0.64335045937E+02  0.00000000000E+00 0. -1.
         13    1    4    4    0    0 -0.51197693603E+02  0.15435826235E+03 -0.42483993023E+03  0.45490289437E+03  0.00000000000E+00 0. -1.
        -14    1    4    4    0    0  0.20003286637E+02  0.25384829680E+03 -0.66245366580E+03  0.70970694558E+03  0.00000000000E+00 0.  1.
          5    1    3    3  501    0  0.41245475644E+02 -0.33946713454E+03 -0.82099616969E+03  0.88937692108E+03  0.41800000000E+01 0.  1.
         -5    1    3    3    0  501 -0.14931076566E+02 -0.88562363597E+02 -0.42146958210E+03  0.43095279362E+03  0.41800000000E+01 0.  1.
</event>
<event>
11    1  0.1704459E-009  0.1319039E+03  0.7561462E-02  0.1116952E+00
         22   -1    0    0    0    0  0.00000000000E+00  0.00000000000E+00  0.13500340636E+04  0.13500340636E+04  0.00000000000E+00 0. -1.
         22   -1    0    0    0    0 -0.00000000000E+00 -0.00000000000E+00 -0.19766222001E+02  0.19766222001E+02  0.00000000000E+00 0.  1.
         25    2    1    2    0    0  0.50423252628E+02 -0.19668084416E+02  0.40633323986E+03  0.42858277770E+03  0.12508859891E+03 0.  0.
        -24    2    1    2    0    0 -0.20972769641E+02  0.25060354274E+02  0.39209258791E+03  0.40228959679E+03  0.83859667117E+02 0.  0.
         24    2    1    2    0    0 -0.29450482986E+02 -0.53922698577E+01  0.53184201379E+03  0.53892791107E+03  0.81798277348E+02 0.  0.
        -13    1    5    5    0    0 -0.25988330970E+02  0.14303466762E+02  0.62736367438E+02  0.69396212485E+02  0.00000000000E+00 0.  1.
         14    1    5    5    0    0 -0.34621520165E+01 -0.19695736620E+02  0.46910564635E+03  0.46953169858E+03  0.00000000000E+00 0. -1.
         13    1    4    4    0    0 -0.39620634677E+02  0.28471508102E+02  0.36989421874E+03  0.37309804947E+03  0.00000000000E+00 0. -1.
        -14    1    4    4    0    0  0.18647865035E+02 -0.34111538283E+01  0.22198369173E+02  0.29191547317E+02  0.00000000000E+00 0.  1.
          5    1    3    3  501    0 -0.12182563139E+02 -0.56084284763E+02  0.24535005330E+03  0.25200790245E+03  0.41800000000E+01 0.  1.
         -5    1    3    3    0  501  0.62605815767E+02  0.36416200346E+02  0.16098318656E+03  0.17657487526E+03  0.41800000000E+01 0.  1.
</event>
<event>
11    1  0.1704459E-009  0.1881901E+03  0.7561462E-02  0.1063204E+00
         22   -1    0    0    0    0  0.00000000000E+00  0.00000000000E+00  0.73222114191E+02  0.73222114191E+02  0.00000000000E+00 0.  1.
         22   -1    0    0    0    0 -0.00000000000E+00 -0.00000000000E+00 -0.16146550104E+04  0.16146550104E+04  0.00000000000E+00 0. -1.
         25    2    1    2    0    0  0.12837163495E+03 -0.25449732573E+02 -0.10254321987E+04  0.10412903625E+04  0.12508980525E+03 0.  0.
         24    2    1    2    0    0  0.80291857576E+02  0.95357830076E+02 -0.26515174058E+03  0.30329940801E+03  0.78391244530E+02 0.  0.
        -24    2    1    2    0    0 -0.20866349252E+03 -0.69908097503E+02 -0.25084895694E+03  0.34328735408E+03  0.80581716693E+02 0.  0.
        -13    1    4    4    0    0  0.29438223457E+02 -0.86839976743E+01 -0.68912564892E+02  0.75438467746E+02  0.00000000000E+00 0.  1.
         14    1    4    4    0    0  0.50853634118E+02  0.10404182775E+03 -0.19623917569E+03  0.22786094027E+03  0.00000000000E+00 0. -1.
         11    1    5    5    0    0 -0.55099916595E+02 -0.32532734593E+02 -0.12802974486E+03  0.14312929539E+03  0.00000000000E+00 0. -1.
        -12    1    5    5    0    0 -0.15356357593E+03 -0.37375362910E+02 -0.12281921209E+03  0.20015805870E+03  0.00000000000E+00 0.  1.
          5    1    3    3  501    0  0.11901662556E+03 -0.81894789951E+01 -0.45169575966E+03  0.46720290711E+03  0.41800000000E+01 0.  1.
         -5    1    3    3    0  501  0.93550093909E+01 -0.17260253578E+02 -0.57373643907E+03  0.57408745542E+03  0.41800000000E+01 0.  1.
</event>
<event>
11    1  0.1704459E-009  0.3018078E+03  0.7561462E-02  0.9994290E-01
         22   -1    0    0    0    0  0.00000000000E+00  0.00000000000E+00  0.43751618134E+03  0.43751618134E+03  0.00000000000E+00 0. -1.
         22   -1    0    0    0    0 -0.00000000000E+00 -0.00000000000E+00 -0.14870136425E+04  0.14870136425E+04  0.00000000000E+00 0.  1.
         25    2    1    2    0    0  0.18852721011E+03 -0.17573043511E+03 -0.12039571588E+04  0.12375718576E+04  0.12509023841E+03 0.  0.
        -24    2    1    2    0    0  0.74244720868E+02  0.31918105451E+03  0.16873795395E+03  0.37728293877E+03  0.80505246094E+02 0.  0.
         24    2    1    2    0    0 -0.26277193097E+03 -0.14345061940E+03 -0.14278256325E+02  0.30967502747E+03  0.77894711775E+02 0.  0.
        -13    1    5    5    0    0 -0.15582565303E+03 -0.99733024767E+02 -0.44429227817E+02  0.19026893245E+03  0.00000000000E+00 0.  1.
         14    1    5    5    0    0 -0.10694627794E+03 -0.43717594632E+02  0.30150971492E+02  0.11940609502E+03  0.00000000000E+00 0. -1.
         11    1    4    4    0    0  0.62228130553E+02  0.31499708588E+03  0.14941631710E+03  0.35414790718E+03  0.00000000000E+00 0. -1.
        -12    1    4    4    0    0  0.12016590315E+02  0.41839686340E+01  0.19321636844E+02  0.23135031590E+02  0.00000000000E+00 0.  1.
          5    1    3    3  501    0  0.43843664868E+02 -0.37516423938E+01 -0.80397331763E+02  0.91747180471E+02  0.41800000000E+01 0.  1.
         -5    1    3    3    0  501  0.14468354524E+03 -0.17197879272E+03 -0.11235598270E+04  0.11458246771E+04  0.41800000000E+01 0.  1.
</event>
<event>
11    1  0.1704459E-009  0.2656953E+03  0.7561462E-02  0.1015855E+00
         22   -1    0    0    0    0  0.00000000000E+00  0.00000000000E+00  0.11549720762E+03  0.11549720762E+03  0.00000000000E+00 0. -1.
         22   -1    0    0    0    0 -0.00000000000E+00 -0.00000000000E+00 -0.13449041652E+04  0.13449041652E+04  0.00000000000E+00 0. -1.
         25    2    1    2    0    0 -0.15809681397E+03  0.21086238657E+03 -0.61275035733E+03  0.67865163923E+03  0.12508996106E+03 0.  0.
         24    2    1    2    0    0 -0.42579925430E+02 -0.24105882762E+03 -0.37953119312E+03  0.45942119577E+03  0.84270399021E+02 0.  0.
        -24    2    1    2    0    0  0.20067673940E+03  0.30196441058E+02 -0.23712540712E+03  0.32232853781E+03  0.80524833429E+02 0.  0.
        -13    1    4    4    0    0  0.13914103652E+02 -0.43580761427E+01 -0.13448510247E+02  0.19835764064E+02  0.00000000000E+00 0.  1.
         14    1    4    4    0    0 -0.56494029082E+02 -0.23670075148E+03 -0.36608268287E+03  0.43958543171E+03  0.00000000000E+00 0. -1.
         13    1    5    5    0    0  0.10005203046E+03  0.50751524979E+02 -0.15209243170E+03  0.18899268205E+03  0.00000000000E+00 0. -1.
        -14    1    5    5    0    0  0.10062470894E+03 -0.20555083922E+02 -0.85032975415E+02  0.13333585576E+03  0.00000000000E+00 0.  1.
          5    1    3    3  501    0 -0.10775600942E+03  0.18454293978E+03 -0.35248543827E+03  0.41222677107E+03  0.41800000000E+01 0. -1.
         -5    1    3    3    0  501 -0.50340804548E+02  0.26319446788E+02 -0.26026491906E+03  0.26642486816E+03  0.41800000000E+01 0. -1.
</event>
<event>
11    1  0.1704459E-009  0.1841939E+03  0.7561462E-02  0.1066300E+00
         22   -1    0    0    0    0  0.00000000000E+00  0.00000000000E+00  0.10857232116E+03  0.10857232116E+03  0.00000000000E+00 0. -1.
         22   -1    0    0    0    0 -0.00000000000E+00 -0.00000000000E+00 -0.11102634459E+04  0.11102634459E+04  0.00000000000E+00 0. -1.
         25    2    1    2    0    0 -0.13408512977E+03  0.12356609084E+02 -0.83508152220E+03  0.85506595886E+03  0.12508052396E+03 0.  0.
        -24    2    1    2    0    0  0.12808497645E+03 -0.68540935817E+02 -0.20125154322E+03  0.25977251353E+03  0.76654771943E+02 0.  0.
         24    2    1    2    0    0  0.60001533226E+01  0.56184326733E+02  0.34641940664E+02  0.10399729469E+03  0.80141704750E+02 0.  0.
        -13    1    5    5    0    0  0.20132393406E+02  0.24916791959E+02 -0.21230022562E+02  0.38430113762E+02  0.00000000000E+00 0.  1.
         14    1    5    5    0    0 -0.14132240083E+02  0.31267534774E+02  0.55871963226E+02  0.65567180932E+02  0.00000000000E+00 0. -1.
         13    1    4    4    0    0  0.46827487727E+02 -0.39024266871E+02 -0.14321101087E+03  0.15564414749E+03  0.00000000000E+00 0. -1.
        -14    1    4    4    0    0  0.81257488723E+02 -0.29516668946E+02 -0.58040532345E+02  0.10412836604E+03  0.00000000000E+00 0.  1.
          5    1    3    3  501    0 -0.22632695042E+02 -0.44674904356E+02 -0.37049711524E+03  0.37388991798E+03  0.41800000000E+01 0. -1.
         -5    1    3    3    0  501 -0.11145243473E+03  0.57031513440E+02 -0.46458440696E+03  0.48117604089E+03  0.41800000000E+01 0. -1.
</event>
<event>
11    1  0.1704459E-009  0.1617662E+03  0.7561462E-02  0.1085428E+00
         22   -1    0    0    0    0  0.00000000000E+00  0.00000000000E+00  0.68799601121E+03  0.68799601121E+03  0.00000000000E+00 0.  1.
         22   -1    0    0    0    0 -0.00000000000E+00 -0.00000000000E+00 -0.94929370616E+02  0.94929370616E+02  0.00000000000E+00 0.  1.
         25    2    1    2    0    0  0.80234728412E+02 -0.62183409624E+02  0.35853512504E+02  0.16503454690E+03  0.12508612727E+03 0.  0.
        -24    2    1    2    0    0 -0.12519418805E+03  0.42432371826E+01  0.38750893950E+03  0.41493681759E+03  0.79484555866E+02 0.  0.
         24    2    1    2    0    0  0.44959459634E+02  0.57940172441E+02  0.16970418859E+03  0.20295401734E+03  0.83740103502E+02 0.  0.
        -13    1    5    5    0    0  0.24531490493E+02 -0.19374572547E+02  0.44156581418E+02  0.54101495078E+02  0.00000000000E+00 0.  1.
         14    1    5    5    0    0  0.20427969141E+02  0.77314744988E+02  0.12554760717E+03  0.14885252226E+03  0.00000000000E+00 0. -1.
         13    1    4    4    0    0  0.91502514911E+01 -0.18176918942E+01  0.79462073889E+01  0.12254522351E+02  0.00000000000E+00 0. -1.
        -14    1    4    4    0    0 -0.13434443954E+03  0.60609290768E+01  0.37956273211E+03  0.40268229524E+03  0.00000000000E+00 0.  1.
          5    1    3    3  501    0 -0.20121801053E+02  0.77264198012E+01 -0.20741694491E+02  0.30203886023E+02  0.41800000000E+01 0. -1.
         -5    1    3    3    0  501  0.10035652946E+03 -0.69909829425E+02  0.56595206995E+02  0.13483066087E+03  0.41800000000E+01 0. -1.
</event>
<event>
11    1  0.1704459E-009  0.1842391E+03  0.7561462E-02  0.1066265E+00
         22   -1    0    0    0    0  0.00000000000E+00  0.00000000000E+00  0.38569401025E+03  0.38569401025E+03  0.00000000000E+00 0.  1.
         22   -1    0    0    0    0 -0.00000000000E+00 -0.00000000000E+00 -0.26826678207E+03  0.26826678207E+03  0.00000000000E+00 0.  1.
         25    2    1    2    0    0  0.10928799369E+03 -0.89040000661E+02 -0.17057985909E+03  0.25420043375E+03  0.12509350465E+03 0.  0.
         24    2    1    2    0    0 -0.12778625484E+03  0.21307310983E+02  0.99081893899E+02  0.18283472818E+03  0.82631638644E+02 0.  0.
        -24    2    1    2    0    0  0.18498261143E+02  0.67732689678E+02  0.18892519337E+03  0.21692563039E+03  0.80212826368E+02 0.  0.
        -13    1    4    4    0    0 -0.27456340572E+02  0.19820081583E+02 -0.93193294157E+01  0.35121733617E+02  0.00000000000E+00 0.  1.
         14    1    4    4    0    0 -0.10032991426E+03  0.14872294004E+01  0.10840122332E+03  0.14771299457E+03  0.00000000000E+00 0. -1.
         13    1    5    5    0    0 -0.38576223295E+01  0.78114461003E+01 -0.67773247710E+01  0.11037756623E+02  0.00000000000E+00 0. -1.
        -14    1    5    5    0    0  0.22355883472E+02  0.59921243577E+02  0.19570251814E+03  0.20588787376E+03  0.00000000000E+00 0.  1.
          5    1    3    3  501    0 -0.10579780391E+02  0.16081886100E+02  0.12786452313E+01  0.19739963203E+02  0.41800000000E+01 0. -1.
         -5    1    3    3    0  501  0.11986777408E+03 -0.10512188676E+03 -0.17185850433E+03  0.23446047055E+03  0.41800000000E+01 0. -1.
</event>
<event>
11    1  0.1704459E-009  0.1395530E+03  0.7561462E-02  0.1108059E+00
         22   -1    0    0    0    0  0.00000000000E+00  0.00000000000E+00  0.57404439891E+03  0.57404439891E+03  0.00000000000E+00 0. -1.
         22   -1    0    0    0    0 -0.00000000000E+00 -0.00000000000E+00 -0.16732852552E+03  0.16732852552E+03  0.00000000000E+00 0. -1.
         25    2    1    2    0    0 -0.68163237810E+01  0.11384801091E+03 -0.46319550030E+02  0.17547820768E+03  0.12505706217E+03 0.  0.
         24    2    1    2    0    0  0.23826311937E+01 -0.54499210366E+02 -0.61063060032E+01  0.96454154049E+02  0.79311260224E+02 0.  0.
        -24    2    1    2    0    0  0.44336925873E+01 -0.59348800540E+02  0.45914172943E+03  0.46944056270E+03  0.77597528634E+02 0.  0.
        -13    1    4    4    0    0  0.15390523777E+02  0.15894092707E+02  0.79361992046E+01  0.23504758304E+02  0.00000000000E+00 0.  1.
         14    1    4    4    0    0 -0.13007892583E+02 -0.70393303074E+02 -0.14042505208E+02  0.72949395745E+02  0.00000000000E+00 0. -1.
         13    1    5    5    0    0  0.36927604185E+01 -0.60082990916E+02  0.46225458416E+03  0.46615759444E+03  0.00000000000E+00 0. -1.
        -14    1    5    5    0    0  0.74093216887E+00  0.73419037652E+00 -0.31128547339E+01  0.32829682579E+01  0.00000000000E+00 0.  1.
          5    1    3    3  501    0 -0.56283460366E+02  0.91564619776E+02 -0.59539605004E+01  0.10772571444E+03  0.41800000000E+01 0.  1.
         -5    1    3    3    0  501  0.49467136585E+02  0.22283391130E+02 -0.40365589529E+02  0.67752493240E+02  0.41800000000E+01 0.  1.
</event>
<event>
11    1  0.1704459E-009  0.2805292E+03  0.7561462E-02  0.1008786E+00
         22   -1    0    0    0    0  0.00000000000E+00  0.00000000000E+00  0.15881282283E+04  0.15881282283E+04  0.00000000000E+00 0.  1.
         22   -1    0    0    0    0 -0.00000000000E+00 -0.00000000000E+00 -0.37365113876E+03  0.37365113876E+03  0.00000000000E+00 0.  1.
         25    2    1    2    0    0  0.63239720071E+02  0.24540197382E+03 -0.29689457540E+03  0.40989653783E+03  0.12508953544E+03 0.  0.
        -24    2    1    2    0    0 -0.11394843402E+03 -0.19090724050E+03  0.89257720756E+03  0.92330250278E+03  0.79772301492E+02 0.  0.
         24    2    1    2    0    0  0.50708713945E+02 -0.54494733320E+02  0.61879445741E+03  0.62858032647E+03  0.81643105520E+02 0.  0.
        -11    1    5    5    0    0  0.66311419338E+02 -0.14956750975E+02  0.38213784162E+03  0.38813688144E+03  0.00000000000E+00 0.  1.
         12    1    5    5    0    0 -0.15602705393E+02 -0.39537982345E+02  0.23665661579E+03  0.24044344503E+03  0.00000000000E+00 0. -1.
         11    1    4    4    0    0 -0.90052025913E+02 -0.75012130043E+02  0.40936380907E+03  0.42581089136E+03  0.00000000000E+00 0. -1.
        -12    1    4    4    0    0 -0.23896408104E+02 -0.11589511046E+03  0.48321339849E+03  0.49749161142E+03  0.00000000000E+00 0.  1.
          5    1    3    3  501    0  0.65343918697E+02  0.25926962257E+03 -0.27516492084E+03  0.38369749928E+03  0.41800000000E+01 0.  1.
         -5    1    3    3    0  501 -0.21041986254E+01 -0.13867648745E+02 -0.21729654561E+02  0.26199038549E+02  0.41800000000E+01 0.  1.
</event>
<event>
11    1  0.1832325E-009  0.1931495E+03  0.7561462E-02  0.1059477E+00
         22   -1    0    0    0    0  0.00000000000E+00  0.00000000000E+00  0.15963754816E+04  0.15963754816E+04  0.00000000000E+00 0.  1.
         22   -1    0    0    0    0 -0.00000000000E+00 -0.00000000000E+00 -0.43849744664E+03  0.43849744664E+03  0.00000000000E+00 0.  1.
         25    2    1    2    0    0  0.13819628563E+03  0.49200964042E+02 -0.39319999284E+03  0.43791906428E+03  0.12509166346E+03 0.  0.
         24    2    1    2    0    0  0.45594591897E+01  0.74921942466E+02  0.18637219819E+03  0.21689179035E+03  0.81690674716E+02 0.  0.
        -24    2    1    2    0    0 -0.14275574482E+03 -0.12412290651E+03  0.13647058296E+04  0.13800620736E+04  0.79772345157E+02 0.  0.
        -13    1    4    4    0    0 -0.87489076933E+01  0.84968093791E+02  0.11301504401E+03  0.14166340572E+03  0.00000000000E+00 0.  1.
         14    1    4    4    0    0  0.13308366883E+02 -0.10046151325E+02  0.73357154176E+02  0.75228384632E+02  0.00000000000E+00 0. -1.
         11    1    5    5    0    0 -0.41903215563E+02 -0.41577864085E+02  0.71383682231E+03  0.71627341647E+03  0.00000000000E+00 0. -1.
        -12    1    5    5    0    0 -0.10085252926E+03 -0.82545042423E+02  0.65086900728E+03  0.66378865712E+03  0.00000000000E+00 0.  1.
          5    1    3    3  501    0  0.12530534936E+03  0.66529405905E+02 -0.39081712258E+03  0.41579212129E+03  0.41800000000E+01 0.  1.
         -5    1    3    3    0  501  0.12890936272E+02 -0.17328441864E+02 -0.23828702634E+01  0.22126942990E+02  0.41800000000E+01 0.  1.
</event>
<event>
11    1  0.1704459E-009  0.1644004E+03  0.7561462E-02  0.1083010E+00
         22   -1    0    0    0    0  0.00000000000E+00  0.00000000000E+00  0.29018245858E+03  0.29018245858E+03  0.00000000000E+00 0.  1.
         22   -1    0    0    0    0 -0.00000000000E+00 -0.00000000000E+00 -0.33879221638E+03  0.33879221638E+03  0.00000000000E+00 0. -1.
         25    2    1    2    0    0  0.21139678773E+02  0.42446438518E+02 -0.69008248391E+02  0.15053100825E+03  0.12509540334E+03 0.  0.
         24    2    1    2    0    0  0.97326305859E+02 -0.11742998063E+03 -0.15986692973E+03  0.23657399230E+03  0.84543529919E+02 0.  0.
        -24    2    1    2    0    0 -0.11846598463E+03  0.74983542109E+02  0.18026542032E+03  0.24186967441E+03  0.79678080640E+02 0.  0.
        -13    1    4    4    0    0  0.20310800964E+01 -0.44417237155E+01  0.10165184610E+02  0.11277640448E+02  0.00000000000E+00 0.  1.
         14    1    4    4    0    0  0.95295225763E+02 -0.11298825691E+03 -0.17003211433E+03  0.22529635185E+03  0.00000000000E+00 0. -1.
         11    1    5    5    0    0 -0.83988132343E+02  0.25036428159E+02  0.15076787406E+03  0.17438973868E+03  0.00000000000E+00 0. -1.
        -12    1    5    5    0    0 -0.34477852289E+02  0.49947113950E+02  0.29497546259E+02  0.67479935727E+02  0.00000000000E+00 0.  1.
          5    1    3    3  501    0 -0.32044913546E+02  0.59031425079E+02 -0.79425473478E+01  0.67765345785E+02  0.41800000000E+01 0.  1.
         -5    1    3    3    0  501  0.53184592319E+02 -0.16584986561E+02 -0.61065701043E+02  0.82765662465E+02  0.41800000000E+01 0.  1.
</event>
<event>
11    1  0.1704459E-009  0.3537864E+03  0.7561462E-02  0.9796906E-01
         22   -1    0    0    0    0  0.00000000000E+00  0.00000000000E+00  0.47536492386E+03  0.47536492386E+03  0.00000000000E+00 0. -1.
         22   -1    0    0    0    0 -0.00000000000E+00 -0.00000000000E+00 -0.10343842053E+04  0.10343842053E+04  0.00000000000E+00 0. -1.
         25    2    1    2    0    0  0.15347499825E+02 -0.16814084376E+03 -0.69466256070E+03  0.72574784798E+03  0.12508787520E+03 0.  0.
        -24    2    1    2    0    0 -0.28496680302E+03  0.32001272509E+03  0.76246438791E+00  0.43644650930E+03  0.82889993852E+02 0.  0.
         24    2    1    2    0    0  0.26961930320E+03 -0.15187188133E+03  0.13488081492E+03  0.34755477184E+03  0.82715465305E+02 0.  0.
        -13    1    5    5    0    0  0.89015622699E+02 -0.23992136897E+02  0.81743507576E+01  0.92553896340E+02  0.00000000000E+00 0.  1.
         14    1    5    5    0    0  0.18060368050E+03 -0.12787974443E+03  0.12670646416E+03  0.25500087550E+03  0.00000000000E+00 0. -1.
         13    1    4    4    0    0 -0.36265577791E+02  0.89621240580E+02 -0.10452165749E+02  0.97244057219E+02  0.00000000000E+00 0. -1.
        -14    1    4    4    0    0 -0.24870122523E+03  0.23039148451E+03  0.11214630137E+02  0.33920245208E+03  0.00000000000E+00 0.  1.
          5    1    3    3  501    0 -0.31815067586E+02 -0.14968670459E+02 -0.26114888935E+03  0.26353837373E+03  0.41800000000E+01 0. -1.
         -5    1    3    3    0  501  0.47162567411E+02 -0.15317217330E+03 -0.43351367135E+03  0.46220947425E+03  0.41800000000E+01 0. -1.
</event>
<event>
11    1  0.1704459E-009  0.2073721E+03  0.7561462E-02  0.1049429E+00
         22   -1    0    0    0    0  0.00000000000E+00  0.00000000000E+00  0.14838418394E+03  0.14838418394E+03  0.00000000000E+00 0.  1.
         22   -1    0    0    0    0 -0.00000000000E+00 -0.00000000000E+00 -0.12278733231E+04  0.12278733231E+04  0.00000000000E+00 0. -1.
         25    2    1    2    0    0  0.15077492875E+03  0.65031068244E+02 -0.10218853061E+04  0.10425253042E+04  0.12508921694E+03 0.  0.
        -24    2    1    2    0    0 -0.13425632556E+03 -0.13339437293E+03  0.13233870154E+01  0.20642917723E+03  0.82416225203E+02 0.  0.
         24    2    1    2    0    0 -0.16518603190E+02  0.68363304683E+02 -0.58927220095E+02  0.12730302559E+03  0.88245324960E+02 0.  0.
        -11    1    5    5    0    0 -0.23703948861E+02  0.82010449489E+02 -0.23314213970E+02  0.88493748875E+02  0.00000000000E+00 0.  1.
         12    1    5    5    0    0  0.71853456708E+01 -0.13647144805E+02 -0.35613006125E+02  0.38809276713E+02  0.00000000000E+00 0. -1.
         11    1    4    4    0    0 -0.47857416051E+02 -0.34598222897E+01  0.13704499726E+02  0.49901061653E+02  0.00000000000E+00 0. -1.
        -12    1    4    4    0    0 -0.86398909506E+02 -0.12993455064E+03 -0.12381112711E+02  0.15652811557E+03  0.00000000000E+00 0.  1.
          5    1    3    3  501    0  0.83168282907E+02  0.84092041611E+02 -0.82496095194E+03  0.83340655107E+03  0.41800000000E+01 0. -1.
         -5    1    3    3    0  501  0.67606645840E+02 -0.19060973367E+02 -0.19692435414E+03  0.20911875315E+03  0.41800000000E+01 0. -1.
</event>
<event>
11    1  0.1704459E-009  0.1703625E+03  0.7561462E-02  0.1077717E+00
         22   -1    0    0    0    0  0.00000000000E+00  0.00000000000E+00  0.59089906321E+03  0.59089906321E+03  0.00000000000E+00 0. -1.
         22   -1    0    0    0    0 -0.00000000000E+00 -0.00000000000E+00 -0.13889355410E+03  0.13889355410E+03  0.00000000000E+00 0.  1.
         25    2    1    2    0    0 -0.76815123939E+02  0.55327015367E+01 -0.13018608154E+02  0.14747842362E+03  0.12509687135E+03 0.  0.
         24    2    1    2    0    0  0.94355956393E+02 -0.14362124566E+03  0.24699206945E+03  0.31130822465E+03  0.79860000316E+02 0.  0.
        -24    2    1    2    0    0 -0.17540832453E+02  0.13808854412E+03  0.21803204781E+03  0.27100596903E+03  0.80809247981E+02 0.  0.
        -11    1    4    4    0    0  0.58093968613E+02 -0.14125156502E+03  0.19098382066E+03  0.24454392972E+03  0.00000000000E+00 0.  1.
         12    1    4    4    0    0  0.36261987780E+02 -0.23696806346E+01  0.56008248799E+02  0.66764294931E+02  0.00000000000E+00 0. -1.
         11    1    5    5    0    0 -0.16075805302E+02  0.95191892644E+02  0.20426669698E+03  0.22593098821E+03  0.00000000000E+00 0. -1.
        -12    1    5    5    0    0 -0.14650271512E+01  0.42896651476E+02  0.13765350834E+02  0.45074980820E+02  0.00000000000E+00 0.  1.
          5    1    3    3  501    0  0.14202916174E+02  0.37369897311E+01 -0.47612930615E+02  0.50001514796E+02  0.41800000000E+01 0. -1.
         -5    1    3    3    0  501 -0.91018040113E+02  0.17957118056E+01  0.34594322461E+02  0.97476908822E+02  0.41800000000E+01 0. -1.
</event>
<event>
11    1  0.1704459E-009  0.1989382E+03  0.7561462E-02  0.1055277E+00
         22   -1    0    0    0    0  0.00000000000E+00  0.00000000000E+00  0.60718337891E+03  0.60718337891E+03  0.00000000000E+00 0. -1.
         22   -1    0    0    0    0 -0.00000000000E+00 -0.00000000000E+00 -0.22664559386E+03  0.22664559386E+03  0.00000000000E+00 0. -1.
         25    2    1    2    0    0 -0.31325368819E+02 -0.48811350490E+02 -0.79780721824E+02  0.15929136554E+03  0.12507977012E+03 0.  0.
        -24    2    1    2    0    0 -0.14119955429E+03 -0.34001209114E+02 -0.50395536064E+01  0.16472343684E+03  0.77556541894E+02 0.  0.
         24    2    1    2    0    0  0.17252492311E+03  0.82812559603E+02  0.46535806048E+03  0.50981417038E+03  0.82034107223E+02 0.  0.
        -13    1    5    5    0    0  0.40869289961E+01  0.29581366873E+02  0.46923200009E+02  0.55619663373E+02  0.00000000000E+00 0.  1.
         14    1    5    5    0    0  0.16843799412E+03  0.53231192731E+02  0.41843486047E+03  0.45419450701E+03  0.00000000000E+00 0. -1.
         13    1    4    4    0    0 -0.10193878686E+03  0.83104505022E+00 -0.30474793801E+02  0.10639981184E+03  0.00000000000E+00 0. -1.
        -14    1    4    4    0    0 -0.39260767435E+02 -0.34832254164E+02  0.25435240195E+02  0.58323625003E+02  0.00000000000E+00 0.  1.
          5    1    3    3  501    0  0.67063400464E+01  0.29887690234E+02 -0.63019528488E+02  0.70193891438E+02  0.41800000000E+01 0.  1.
         -5    1    3    3    0  501 -0.38031708865E+02 -0.78699040724E+02 -0.16761193337E+02  0.89097474106E+02  0.41800000000E+01 0.  1.
</event>
<event>
11    1  0.1704459E-009  0.4108543E+03  0.7561462E-02  0.9618264E-01
         22   -1    0    0    0    0  0.00000000000E+00  0.00000000000E+00  0.47739512027E+03  0.47739512027E+03  0.00000000000E+00 0.  1.
         22   -1    0    0    0    0 -0.00000000000E+00 -0.00000000000E+00 -0.16298410865E+04  0.16298410865E+04  0.00000000000E+00 0.  1.
         25    2    1    2    0    0  0.36382119220E+03 -0.87159420707E+02 -0.82656087440E+03  0.91586709937E+03  0.12508812936E+03 0.  0.
        -24    2    1    2    0    0 -0.40584389488E+03  0.81392011830E+02 -0.69472571693E+03  0.81091416120E+03  0.60033561226E+02 0.  0.
         24    2    1    2    0    0  0.42022702681E+02  0.57674088772E+01  0.36884062505E+03  0.38045494624E+03  0.83086634831E+02 0.  0.
        -13    1    5    5    0    0 -0.10101472900E+01 -0.34393387402E+02  0.13963801209E+03  0.14381481118E+03  0.00000000000E+00 0.  1.
         14    1    5    5    0    0  0.43032849971E+02  0.40160796280E+02  0.22920261297E+03  0.23664013507E+03  0.00000000000E+00 0. -1.
         13    1    4    4    0    0 -0.78817074719E+01  0.97214289501E+01 -0.34494516317E+02  0.36694674674E+02  0.00000000000E+00 0. -1.
        -14    1    4    4    0    0 -0.39796218741E+03  0.71670582880E+02 -0.66023120061E+03  0.77421948653E+03  0.00000000000E+00 0.  1.
          5    1    3    3  501    0  0.25064687455E+03 -0.16784783323E+02 -0.63097395670E+03  0.67915476226E+03  0.41800000000E+01 0.  1.
         -5    1    3    3    0  501  0.11317431765E+03 -0.70374637384E+02 -0.19558691770E+03  0.23671233711E+03  0.41800000000E+01 0.  1.
</event>
<event>
11    1  0.1839827E-009  0.5630021E+03  0.7561462E-02  0.9262808E-01
         22   -1    0    0    0    0  0.00000000000E+00  0.00000000000E+00  0.79107454750E+03  0.79107454750E+03  0.00000000000E+00 0.  1.
         22   -1    0    0    0    0 -0.00000000000E+00 -0.00000000000E+00 -0.14460597216E+04  0.14460597216E+04  0.00000000000E+00 0.  1.
         25    2    1    2    0    0 -0.51616036646E+03 -0.22597789192E+03 -0.12123570498E+04  0.13427375580E+04  0.12508797668E+03 0.  0.
        -24    2    1    2    0    0  0.18910670989E+03 -0.63049487547E+02  0.49275756628E+02  0.21982804309E+03  0.78483646291E+02 0.  0.
         24    2    1    2    0    0  0.32705365658E+03  0.28902737947E+03  0.50809611909E+03  0.67456866800E+03  0.79876787945E+02 0.  0.
        -11    1    5    5    0    0  0.65055808889E+02  0.84980487926E+02  0.16831508048E+03  0.19945903819E+03  0.00000000000E+00 0.  1.
         12    1    5    5    0    0  0.26199784769E+03  0.20404689155E+03  0.33978103860E+03  0.47510962981E+03  0.00000000000E+00 0. -1.
         11    1    4    4    0    0  0.16068033055E+03 -0.75534973188E+02  0.59319473396E+02  0.18719642284E+03  0.00000000000E+00 0. -1.
        -12    1    4    4    0    0  0.28426379340E+02  0.12485485641E+02 -0.10043716768E+02  0.32631620257E+02  0.00000000000E+00 0.  1.
          5    1    3    3  501    0 -0.72055880009E+02  0.42955970428E+01 -0.10352384204E+03  0.12627414727E+03  0.41800000000E+01 0.  1.
         -5    1    3    3    0  501 -0.44410448645E+03 -0.23027348897E+03 -0.11088332078E+04  0.12164634107E+04  0.41800000000E+01 0.  1.
</event>
<event>
11    1  0.1704459E-009  0.1692541E+03  0.7561462E-02  0.1078683E+00
         22   -1    0    0    0    0  0.00000000000E+00  0.00000000000E+00  0.37071112820E+03  0.37071112820E+03  0.00000000000E+00 0.  1.
         22   -1    0    0    0    0 -0.00000000000E+00 -0.00000000000E+00 -0.17902145847E+03  0.17902145847E+03  0.00000000000E+00 0.  1.
         25    2    1    2    0    0  0.52941672902E+02 -0.15936760571E+02 -0.20036169861E+00  0.13676129087E+03  0.12508720745E+03 0.  0.
         24    2    1    2    0    0 -0.83218506279E+02  0.15250191521E+03  0.46128309457E+02  0.19586348747E+03  0.77798013201E+02 0.  0.
        -24    2    1    2    0    0  0.30276833377E+02 -0.13656515464E+03  0.14576172197E+03  0.21710780833E+03  0.79514732869E+02 0.  0.
        -11    1    4    4    0    0 -0.79192099816E+02  0.11025482990E+03  0.63675628984E+02  0.14994032785E+03  0.00000000000E+00 0.  1.
         12    1    4    4    0    0 -0.40264064628E+01  0.42247085314E+02 -0.17547319527E+02  0.45923159615E+02  0.00000000000E+00 0. -1.
         11    1    5    5    0    0  0.16851184261E+02  0.55905903298E+01  0.20933662538E+02  0.27448776630E+02  0.00000000000E+00 0. -1.
        -12    1    5    5    0    0  0.13425649116E+02 -0.14215574497E+03  0.12482805943E+03  0.18965903170E+03  0.00000000000E+00 0.  1.
          5    1    3    3  501    0 -0.18484041729E+02  0.35955838869E+02  0.21173053120E+02  0.45828514332E+02  0.41800000000E+01 0. -1.
         -5    1    3    3    0  501  0.71425714631E+02 -0.51892599440E+02 -0.21373414818E+02  0.90932776534E+02  0.41800000000E+01 0. -1.
</event>
<event>
11    1  0.1704459E-009  0.2599800E+03  0.7561462E-02  0.1018713E+00
         22   -1    0    0    0    0  0.00000000000E+00  0.00000000000E+00  0.19896710985E+04  0.19896710985E+04  0.00000000000E+00 0.  1.
         22   -1    0    0    0    0 -0.00000000000E+00 -0.00000000000E+00 -0.90010388612E+02  0.90010388612E+02  0.00000000000E+00 0.  1.
         25    2    1    2    0    0  0.26050110480E+02 -0.24856879053E+03  0.26259210723E+03  0.38349373638E+03  0.12509108353E+03 0.  0.
        -24    2    1    2    0    0  0.11426710689E+03  0.18551712213E+03  0.59053261833E+03  0.63522470076E+03  0.85487266973E+02 0.  0.
         24    2    1    2    0    0 -0.14031721737E+03  0.63051668393E+02  0.10465359844E+04  0.10609630500E+04  0.82101111790E+02 0.  0.
        -13    1    5    5    0    0 -0.11335338995E+03  0.89248858685E+01  0.70672330871E+03  0.71581176274E+03  0.00000000000E+00 0.  1.
         14    1    5    5    0    0 -0.26963827423E+02  0.54126782525E+02  0.33981267564E+03  0.34515128727E+03  0.00000000000E+00 0. -1.
         11    1    4    4    0    0  0.56518157705E+02  0.98794013237E+02  0.19110347862E+03  0.22242998616E+03  0.00000000000E+00 0. -1.
        -12    1    4    4    0    0  0.57748949187E+02  0.86723108898E+02  0.39942913971E+03  0.41279471460E+03  0.00000000000E+00 0.  1.
          5    1    3    3  501    0  0.20565664986E+02 -0.24767735681E+03  0.27411734366E+03  0.37003352571E+03  0.41800000000E+01 0. -1.
         -5    1    3    3    0  501  0.54844454943E+01 -0.89143371844E+00 -0.11525236429E+02  0.13460210667E+02  0.41800000000E+01 0. -1.
</event>
<event>
11    1  0.1704459E-009  0.3715662E+03  0.7561462E-02  0.9737591E-01
         22   -1    0    0    0    0  0.00000000000E+00  0.00000000000E+00  0.18619818441E+04  0.18619818441E+04  0.00000000000E+00 0.  1.
         22   -1    0    0    0    0 -0.00000000000E+00 -0.00000000000E+00 -0.80178119756E+03  0.80178119756E+03  0.00000000000E+00 0.  1.
         25    2    1    2    0    0 -0.15200006890E+03 -0.30324050058E+03 -0.34199660076E+03  0.49766279859E+03  0.12509102299E+03 0.  0.
        -24    2    1    2    0    0  0.64741205926E+02  0.36538519248E+03 -0.28431869140E+03  0.47430237715E+03  0.80173961232E+02 0.  0.
         24    2    1    2    0    0  0.87258862974E+02 -0.62144691902E+02  0.16865159387E+04  0.16917978659E+04  0.79799346410E+02 0.  0.
        -13    1    5    5    0    0  0.27001044872E+02  0.12258063899E+01  0.90522729439E+03  0.90563072691E+03  0.00000000000E+00 0.  1.
         14    1    5    5    0    0  0.60257818103E+02 -0.63370498292E+02  0.78128864429E+03  0.78616713897E+03  0.00000000000E+00 0. -1.
         13    1    4    4    0    0  0.24485416904E+02  0.16531178205E+03 -0.17811693115E+03  0.24423996824E+03  0.00000000000E+00 0. -1.
        -14    1    4    4    0    0  0.40255789022E+02  0.20007341043E+03 -0.10620176026E+03  0.23006240891E+03  0.00000000000E+00 0.  1.
          5    1    3    3  501    0 -0.19705468297E+02 -0.12842899262E+03 -0.19248632155E+03  0.23227304624E+03  0.41800000000E+01 0. -1.
         -5    1    3    3    0  501 -0.13229460060E+03 -0.17481150796E+03 -0.14951027922E+03  0.26538975236E+03  0.41800000000E+01 0. -1.
</event>
<event>
11    1  0.1704459E-009  0.1439794E+03  0.7561462E-02  0.1103194E+00
         22   -1    0    0    0    0  0.00000000000E+00  0.00000000000E+00  0.63569363038E+02  0.63569363038E+02  0.00000000000E+00 0.  1.
         22   -1    0    0    0    0 -0.00000000000E+00 -0.00000000000E+00 -0.84181557425E+03  0.84181557425E+03  0.00000000000E+00 0. -1.
         25    2    1    2    0    0  0.98037495881E+00 -0.63396912213E+02 -0.58766934091E+03  0.60417136571E+03  0.12509058830E+03 0.  0.
        -24    2    1    2    0    0  0.19118792403E+02  0.93411807233E+02 -0.16122893316E+03  0.20848053089E+03  0.91531791844E+02 0.  0.
         24    2    1    2    0    0 -0.20099167362E+02 -0.30014895020E+02 -0.29347937135E+02  0.92733040685E+02  0.80207511923E+02 0.  0.
        -13    1    5    5    0    0  0.56708641501E+01  0.24352300313E+02  0.16375699002E+01  0.25057431351E+02  0.00000000000E+00 0.  1.
         14    1    5    5    0    0 -0.25770031512E+02 -0.54367195333E+02 -0.30985507035E+02  0.67675609334E+02  0.00000000000E+00 0. -1.
         11    1    4    4    0    0 -0.32142270532E+02  0.44743070922E+02 -0.39754556058E+02  0.67937417362E+02  0.00000000000E+00 0. -1.
        -12    1    4    4    0    0  0.51261062935E+02  0.48668736311E+02 -0.12147437710E+03  0.14054311353E+03  0.00000000000E+00 0.  1.
          5    1    3    3  501    0 -0.43015083898E+02  0.45855320936E+01 -0.90048079351E+02  0.99987266900E+02  0.41800000000E+01 0. -1.
         -5    1    3    3    0  501  0.43995458857E+02 -0.67982444306E+02 -0.49762126156E+03  0.50418409881E+03  0.41800000000E+01 0. -1.
</event>
<event>
11    1  0.1704459E-009  0.6787131E+03  0.7561462E-02  0.9064276E-01
         22   -1    0    0    0    0  0.00000000000E+00  0.00000000000E+00  0.11044884390E+04  0.11044884390E+04  0.00000000000E+00 0. -1.
         22   -1    0    0    0    0 -0.00000000000E+00 -0.00000000000E+00 -0.77033325756E+03  0.77033325756E+03  0.00000000000E+00 0. -1.
         25    2    1    2    0    0  0.61356499907E+03  0.19370179516E+03 -0.30330365257E+03  0.72223535252E+03  0.12509358592E+03 0.  0.
        -24    2    1    2    0    0 -0.75405616127E+03 -0.10986225540E+03  0.58416803941E+03  0.96352395592E+03  0.80347407248E+02 0.  0.
         24    2    1    2    0    0  0.14049116221E+03 -0.83839539760E+02  0.53290794640E+02  0.18906238816E+03  0.78344385483E+02 0.  0.
        -11    1    5    5    0    0  0.13376872895E+03 -0.86557879515E+02  0.67555120104E+02  0.17306078009E+03  0.00000000000E+00 0.  1.
         12    1    5    5    0    0  0.67224332515E+01  0.27183397546E+01 -0.14264325464E+02  0.16001608069E+02  0.00000000000E+00 0. -1.
         11    1    4    4    0    0 -0.52779891220E+03 -0.98568646074E+02  0.44744740639E+03  0.69892535452E+03  0.00000000000E+00 0. -1.
        -12    1    4    4    0    0 -0.22625724907E+03 -0.11293609324E+02  0.13672063302E+03  0.26459860140E+03  0.00000000000E+00 0.  1.
          5    1    3    3  501    0  0.52844354791E+03  0.20369302711E+03 -0.23767429239E+03  0.61420678463E+03  0.41800000000E+01 0.  1.
         -5    1    3    3    0  501  0.85121451159E+02 -0.99912319537E+01 -0.65629360176E+02  0.10802856789E+03  0.41800000000E+01 0.  1.
</event>
<event>
11    1  0.1704459E-009  0.1468844E+03  0.7561462E-02  0.1100105E+00
         22   -1    0    0    0    0  0.00000000000E+00  0.00000000000E+00  0.67369431441E+03  0.67369431441E+03  0.00000000000E+00 0.  1.
         22   -1    0    0    0    0 -0.00000000000E+00 -0.00000000000E+00 -0.60517210652E+02  0.60517210652E+02  0.00000000000E+00 0. -1.
         25    2    1    2    0    0 -0.29765678317E+01  0.71306809281E+02  0.14938886631E+03  0.20750412390E+03  0.12508959610E+03 0.  0.
         24    2    1    2    0    0 -0.80314226280E+02 -0.69775849257E+02  0.24873217839E+03  0.28229981393E+03  0.80662533414E+02 0.  0.
        -24    2    1    2    0    0  0.83290794112E+02 -0.15309600240E+01  0.21505605906E+03  0.24440758723E+03  0.80908960778E+02 0.  0.
        -11    1    4    4    0    0 -0.57391739805E+02 -0.81615842493E+02  0.22908853167E+03  0.24987299351E+03  0.00000000000E+00 0.  1.
         12    1    4    4    0    0 -0.22922486476E+02  0.11839993236E+02  0.19643646716E+02  0.32426820417E+02  0.00000000000E+00 0. -1.
         11    1    5    5    0    0  0.33633548120E+02  0.39380976823E+02  0.96204274644E+02  0.10925813175E+03  0.00000000000E+00 0. -1.
        -12    1    5    5    0    0  0.49657245992E+02 -0.40911936847E+02  0.11885178441E+03  0.13514945547E+03  0.00000000000E+00 0.  1.
          5    1    3    3  501    0  0.17624369200E+01  0.10590479648E+03  0.92838740511E+02  0.14090931921E+03  0.41800000000E+01 0.  1.
         -5    1    3    3    0  501 -0.47390047517E+01 -0.34597987196E+02  0.56550125798E+02  0.66594804691E+02  0.41800000000E+01 0.  1.
</event>
<event>
11    1  0.1704459E-009  0.1955159E+03  0.7561462E-02  0.1057741E+00
         22   -1    0    0    0    0  0.00000000000E+00  0.00000000000E+00  0.22122803511E+04  0.22122803511E+04  0.00000000000E+00 0. -1.
         22   -1    0    0    0    0 -0.00000000000E+00 -0.00000000000E+00 -0.40084226657E+02  0.40084226657E+02  0.00000000000E+00 0. -1.
         25    2    1    2    0    0  0.15530740246E+03  0.30855581004E+01  0.28966396323E+03  0.35168640619E+03  0.12509279265E+03 0.  0.
        -24    2    1    2    0    0 -0.12547786894E+03 -0.33180903084E+02  0.14862252562E+04  0.14939730463E+04  0.79020776842E+02 0.  0.
         24    2    1    2    0    0 -0.29829533522E+02  0.30095344984E+02  0.39630690503E+03  0.40670512522E+03  0.80959033155E+02 0.  0.
        -13    1    5    5    0    0  0.80666181931E+01 -0.52033290956E+01  0.27030230232E+03  0.27047269659E+03  0.00000000000E+00 0.  1.
         14    1    5    5    0    0 -0.37896151715E+02  0.35298674080E+02  0.12600460270E+03  0.13623242863E+03  0.00000000000E+00 0. -1.
         11    1    4    4    0    0 -0.65895457152E+02  0.23203459459E+02  0.66263617358E+03  0.66630871999E+03  0.00000000000E+00 0. -1.
        -12    1    4    4    0    0 -0.59582411787E+02 -0.56384362544E+02  0.82358908258E+03  0.82766432633E+03  0.00000000000E+00 0.  1.
          5    1    3    3  501    0  0.13340242571E+03  0.27438818879E+02  0.12890628562E+03  0.18757238294E+03  0.41800000000E+01 0. -1.
         -5    1    3    3    0  501  0.21904976747E+02 -0.24353260779E+02  0.16075767761E+03  0.16411402325E+03  0.41800000000E+01 0. -1.
</event>
<event>
11    1  0.1704459E-009  0.1600923E+03  0.7561462E-02  0.1086991E+00
         22   -1    0    0    0    0  0.00000000000E+00  0.00000000000E+00  0.24835149823E+04  0.24835149823E+04  0.00000000000E+00 0. -1.
         22   -1    0    0    0    0 -0.00000000000E+00 -0.00000000000E+00 -0.49184515616E+03  0.49184515616E+03  0.00000000000E+00 0. -1.
         25    2    1    2    0    0  0.57122820366E+02  0.34002423950E+02 -0.38724992957E+03  0.41234681820E+03  0.12509280190E+03 0.  0.
         24    2    1    2    0    0 -0.43070930655E+02  0.65160378837E+02 -0.55407906269E+02  0.12529184151E+03  0.80790033004E+02 0.  0.
        -24    2    1    2    0    0 -0.14051889710E+02 -0.99162802788E+02  0.24343276620E+04  0.24377214788E+04  0.80648155853E+02 0.  0.
        -13    1    4    4    0    0 -0.66063548009E+02  0.36877231348E+02 -0.33316184118E+02  0.82669768910E+02  0.00000000000E+00 0.  1.
         14    1    4    4    0    0  0.22992617354E+02  0.28283147489E+02 -0.22091722151E+02  0.42622072595E+02  0.00000000000E+00 0. -1.
         11    1    5    5    0    0 -0.17479898796E+01 -0.95484380500E+02  0.23792750130E+04  0.23811908597E+04  0.00000000000E+00 0. -1.
        -12    1    5    5    0    0 -0.12303899831E+02 -0.36784222883E+01  0.55052648969E+02  0.56530619138E+02  0.00000000000E+00 0.  1.
          5    1    3    3  501    0  0.30603536542E+02  0.72554216466E+02 -0.14006230853E+03  0.16073460563E+03  0.41800000000E+01 0.  1.
         -5    1    3    3    0  501  0.26519283823E+02 -0.38551792515E+02 -0.24718762104E+03  0.25161221257E+03  0.41800000000E+01 0.  1.
</event>
<event>
11    1  0.1704459E-009  0.3264117E+03  0.7561462E-02  0.9895940E-01
         22   -1    0    0    0    0  0.00000000000E+00  0.00000000000E+00  0.15410175165E+04  0.15410175165E+04  0.00000000000E+00 0.  1.
         22   -1    0    0    0    0 -0.00000000000E+00 -0.00000000000E+00 -0.19477782170E+03  0.19477782170E+03  0.00000000000E+00 0. -1.
         25    2    1    2    0    0  0.23712376839E+03 -0.32017578358E+02  0.24241387416E+03  0.36285690694E+03  0.12509133333E+03 0.  0.
         24    2    1    2    0    0 -0.36051532559E+03 -0.11259300482E+03  0.17942431224E+03  0.42639940608E+03  0.83515776731E+02 0.  0.
        -24    2    1    2    0    0  0.12339155720E+03  0.14461058318E+03  0.92440150844E+03  0.94653902521E+03  0.72665537123E+02 0.  0.
        -11    1    4    4    0    0 -0.14142702597E+03 -0.46652457428E+02  0.11658621238E+03  0.18913064367E+03  0.00000000000E+00 0.  1.
         12    1    4    4    0    0 -0.21908829962E+03 -0.65940547395E+02  0.62838099864E+02  0.23726876241E+03  0.00000000000E+00 0. -1.
         13    1    5    5    0    0  0.40422719912E+02  0.81617251363E+01  0.13548456434E+03  0.14162159869E+03  0.00000000000E+00 0. -1.
        -14    1    5    5    0    0  0.82968837288E+02  0.13644885805E+03  0.78891694410E+03  0.80491742652E+03  0.00000000000E+00 0.  1.
          5    1    3    3  501    0  0.21769616498E+03 -0.34520228484E+01  0.15086437128E+03  0.26491709577E+03  0.41800000000E+01 0. -1.
         -5    1    3    3    0  501  0.19427603407E+02 -0.28565555510E+02  0.91549502880E+02  0.97939811176E+02  0.41800000000E+01 0. -1.
</event>
<event>
11    1  0.1704459E-009  0.1493228E+03  0.7561462E-02  0.1097573E+00
         22   -1    0    0    0    0  0.00000000000E+00  0.00000000000E+00  0.24626295636E+03  0.24626295636E+03  0.00000000000E+00 0. -1.
         22   -1    0    0    0    0 -0.00000000000E+00 -0.00000000000E+00 -0.14009287845E+03  0.14009287845E+03  0.00000000000E+00 0.  1.
         25    2    1    2    0    0 -0.57722070809E+02 -0.34780552533E+02 -0.86510992884E+01  0.14234461800E+03  0.12508247064E+03 0.  0.
        -24    2    1    2    0    0 -0.28171644569E+02  0.16650059404E+02  0.12936164680E+02  0.87113638775E+02  0.79690499234E+02 0.  0.
         24    2    1    2    0    0  0.85893715378E+02  0.18130493128E+02  0.10188501252E+03  0.15689757804E+03  0.80807481686E+02 0.  0.
        -11    1    5    5    0    0  0.97188693179E+02  0.39757165246E+01  0.98579164622E+02  0.13848935014E+03  0.00000000000E+00 0.  1.
         12    1    5    5    0    0 -0.11294977801E+02  0.14154776604E+02  0.33058478974E+01  0.18408227904E+02  0.00000000000E+00 0. -1.
         13    1    4    4    0    0 -0.11141531929E+02  0.26780606399E+01  0.45987828716E+02  0.47393946159E+02  0.00000000000E+00 0. -1.
        -14    1    4    4    0    0 -0.17030112640E+02  0.13971998765E+02 -0.33051664036E+02  0.39719692617E+02  0.00000000000E+00 0.  1.
          5    1    3    3  501    0  0.17569397429E+02  0.81464958528E+01  0.38713876320E+02  0.43488915144E+02  0.41800000000E+01 0. -1.
         -5    1    3    3    0  501 -0.75291468238E+02 -0.42927048386E+02 -0.47364975608E+02  0.98855702855E+02  0.41800000000E+01 0. -1.
</event>
<event>
11    1  0.1704459E-009  0.1663515E+03  0.7561462E-02  0.1081251E+00
         22   -1    0    0    0    0  0.00000000000E+00  0.00000000000E+00  0.58869007634E+03  0.58869007634E+03  0.00000000000E+00 0.  1.
         22   -1    0    0    0    0 -0.00000000000E+00 -0.00000000000E+00 -0.94588028987E+03  0.94588028987E+03  0.00000000000E+00 0.  1.
         25    2    1    2    0    0  0.22473163768E+02 -0.10071232106E+03 -0.33356357817E+03  0.37089091370E+03  0.12508954584E+03 0.  0.
         24    2    1    2    0    0 -0.40808184964E+02  0.10517855898E+03 -0.58251412558E+03  0.59863796167E+03  0.79478710495E+02 0.  0.
        -24    2    1    2    0    0  0.18335021196E+02 -0.44662379174E+01  0.55888749023E+03  0.56504149084E+03  0.80997156463E+02 0.  0.
        -11    1    4    4    0    0 -0.88422248103E+01  0.81000737820E+02 -0.50338791649E+03  0.50993989737E+03  0.00000000000E+00 0.  1.
         12    1    4    4    0    0 -0.31965960154E+02  0.24177821160E+02 -0.79126209097E+02  0.88698064300E+02  0.00000000000E+00 0. -1.
         11    1    5    5    0    0 -0.57243407469E+01  0.35238789749E+02  0.28802754141E+03  0.29023164023E+03  0.00000000000E+00 0. -1.
        -12    1    5    5    0    0  0.24059361943E+02 -0.39705027666E+02  0.27085994881E+03  0.27480985061E+03  0.00000000000E+00 0.  1.
          5    1    3    3  501    0 -0.10470734620E+02 -0.10905120039E+03 -0.31132308174E+03  0.33006262166E+03  0.41800000000E+01 0. -1.
         -5    1    3    3    0  501  0.32943898388E+02  0.83388793288E+01 -0.22240496425E+02  0.40828292037E+02  0.41800000000E+01 0. -1.
</event>
<event>
11    1  0.1704459E-009  0.8022770E+03  0.7561462E-02  0.8893823E-01
         22   -1    0    0    0    0  0.00000000000E+00  0.00000000000E+00  0.99509762124E+02  0.99509762124E+02  0.00000000000E+00 0. -1.
         22   -1    0    0    0    0 -0.00000000000E+00 -0.00000000000E+00 -0.16170484245E+04  0.16170484245E+04  0.00000000000E+00 0. -1.
         25    2    1    2    0    0 -0.12488486684E+03 -0.29747448241E+03 -0.11100706500E+04  0.11627515753E+04  0.12508828941E+03 0.  0.
        -24    2    1    2    0    0  0.11281464280E+03  0.22808721618E+03 -0.26871284711E+03  0.37799130994E+03  0.76940979805E+02 0.  0.
         24    2    1    2    0    0  0.12070224040E+02  0.69387266228E+02 -0.13875516525E+03  0.17581530140E+03  0.81839729352E+02 0.  0.
        -13    1    5    5    0    0  0.45172167828E+02  0.46650404601E+02 -0.65254564454E+02  0.92059454581E+02  0.00000000000E+00 0.  1.
         14    1    5    5    0    0 -0.33101943788E+02  0.22736861626E+02 -0.73500600799E+02  0.83755846823E+02  0.00000000000E+00 0. -1.
         11    1    4    4    0    0  0.71492686916E+02  0.13875779745E+03 -0.10898857817E+03  0.19037710158E+03  0.00000000000E+00 0. -1.
        -12    1    4    4    0    0  0.41321955883E+02  0.89329418731E+02 -0.15972426894E+03  0.18761420836E+03  0.00000000000E+00 0.  1.
          5    1    3    3  501    0 -0.48033442956E+02 -0.23758980697E+03 -0.88189820871E+03  0.91461360746E+03  0.41800000000E+01 0. -1.
         -5    1    3    3    0  501 -0.76851423884E+02 -0.59884675437E+02 -0.22817244129E+03  0.24813796781E+03  0.41800000000E+01 0. -1.
</event>
<event>
11    1  0.1704459E-009  0.9982748E+03  0.7561462E-02  0.8680657E-01
         22   -1    0    0    0    0  0.00000000000E+00  0.00000000000E+00  0.15956464333E+04  0.15956464333E+04  0.00000000000E+00 0. -1.
         22   -1    0    0    0    0 -0.00000000000E+00 -0.00000000000E+00 -0.15613617374E+03  0.15613617374E+03  0.00000000000E+00 0. -1.
         25    2    1    2    0    0 -0.17479065379E+03  0.35344389993E+03  0.26591541659E+03  0.49176513412E+03  0.12509026862E+03 0.  0.
         24    2    1    2    0    0  0.15634253711E+03 -0.19690643994E+03  0.86404472873E+03  0.90338228511E+03  0.79442588157E+02 0.  0.
        -24    2    1    2    0    0  0.18448116683E+02 -0.15653746000E+03  0.30955011423E+03  0.35663518780E+03  0.80765553070E+02 0.  0.
        -13    1    4    4    0    0  0.31504169598E+02 -0.51899236384E+02  0.34264158055E+03  0.34797887316E+03  0.00000000000E+00 0.  1.
         14    1    4    4    0    0  0.12483836751E+03 -0.14500720355E+03  0.52140314817E+03  0.55540341195E+03  0.00000000000E+00 0. -1.
         11    1    5    5    0    0  0.10212223277E+02 -0.16415559721E+03  0.29891394454E+03  0.34117575506E+03  0.00000000000E+00 0. -1.
        -12    1    5    5    0    0  0.82358934052E+01  0.76181372163E+01  0.10636169692E+02  0.15459432737E+02  0.00000000000E+00 0.  1.
          5    1    3    3  501    0 -0.13011355818E+03  0.17319461602E+03  0.85819350800E+02  0.23304151221E+03  0.41800000000E+01 0.  1.
         -5    1    3    3    0  501 -0.44677095618E+02  0.18024928391E+03  0.18009606579E+03  0.25872362191E+03  0.41800000000E+01 0.  1.
</event>
<event>
11    1  0.1704459E-009  0.2264010E+03  0.7561462E-02  0.1037280E+00
         22   -1    0    0    0    0  0.00000000000E+00  0.00000000000E+00  0.91798120068E+03  0.91798120068E+03  0.00000000000E+00 0.  1.
         22   -1    0    0    0    0 -0.00000000000E+00 -0.00000000000E+00 -0.10475771236E+04  0.10475771236E+04  0.00000000000E+00 0. -1.
         25    2    1    2    0    0  0.10242980823E+03 -0.19934225967E+03 -0.70049720439E+03  0.74603812891E+03  0.12508938532E+03 0.  0.
         24    2    1    2    0    0 -0.91690087216E+02  0.12297947116E+03 -0.29728949912E+03  0.34433008746E+03  0.81554524240E+02 0.  0.
        -24    2    1    2    0    0 -0.10739721014E+02  0.76362788519E+02  0.86819078057E+03  0.87519010793E+03  0.79094098888E+02 0.  0.
        -11    1    4    4    0    0 -0.28200616184E+02  0.96633994604E+02 -0.13774706394E+03  0.17060966353E+03  0.00000000000E+00 0.  1.
         12    1    4    4    0    0 -0.63489471032E+02  0.26345476551E+02 -0.15954243518E+03  0.17372042393E+03  0.00000000000E+00 0. -1.
         13    1    5    5    0    0  0.31559249284E+02  0.38458665987E+02  0.52265527852E+03  0.52501770958E+03  0.00000000000E+00 0. -1.
        -14    1    5    5    0    0 -0.42298970298E+02  0.37904122532E+02  0.34553550204E+03  0.35017239835E+03  0.00000000000E+00 0.  1.
          5    1    3    3  501    0  0.21511936674E+01 -0.23017620128E+02 -0.86163553033E+01  0.25023038370E+02  0.41800000000E+01 0. -1.
         -5    1    3    3    0  501  0.10027861456E+03 -0.17632463955E+03 -0.69188084909E+03  0.72101509054E+03  0.41800000000E+01 0. -1.
</event>
<event>
11    1  0.1704459E-009  0.1734875E+03  0.7561462E-02  0.1075036E+00
         22   -1    0    0    0    0  0.00000000000E+00  0.00000000000E+00  0.77450272798E+03  0.77450272798E+03  0.00000000000E+00 0.  1.
         22   -1    0    0    0    0 -0.00000000000E+00 -0.00000000000E+00 -0.10183745506E+03  0.10183745506E+03  0.00000000000E+00 0. -1.
         25    2    1    2    0    0 -0.54401428095E+02 -0.49690796202E+02  0.36087326997E+02  0.14959805310E+03  0.12509433126E+03 0.  0.
         24    2    1    2    0    0 -0.68463402816E+02  0.14613984366E+03  0.25745549508E+03  0.30906204670E+03  0.56497126804E+02 0.  0.
        -24    2    1    2    0    0  0.12286483091E+03 -0.96449047456E+02  0.37912245084E+03  0.41768008325E+03  0.79527566153E+02 0.  0.
        -13    1    4    4    0    0 -0.57137259875E+02  0.12729802398E+03  0.24915060511E+03  0.28556168756E+03  0.00000000000E+00 0.  1.
         14    1    4    4    0    0 -0.11326142941E+02  0.18841819674E+02  0.83048899731E+01  0.23500359146E+02  0.00000000000E+00 0. -1.
         11    1    5    5    0    0  0.20627780072E+02 -0.63824758768E+02  0.12583071631E+03  0.14259198543E+03  0.00000000000E+00 0. -1.
        -12    1    5    5    0    0  0.10223705084E+03 -0.32624288688E+02  0.25329173453E+03  0.27508809781E+03  0.00000000000E+00 0.  1.
          5    1    3    3  501    0 -0.73470197225E+02 -0.70266175851E+02 -0.24151232362E+01  0.10177676832E+03  0.41800000000E+01 0.  1.
         -5    1    3    3    0  501  0.19068769130E+02  0.20575379649E+02  0.38502450233E+02  0.47821284778E+02  0.41800000000E+01 0.  1.
</event>
<event>
11    1  0.1704459E-009  0.2895328E+03  0.7561462E-02  0.1004721E+00
         22   -1    0    0    0    0  0.00000000000E+00  0.00000000000E+00  0.10670968399E+03  0.10670968399E+03  0.00000000000E+00 0. -1.
         22   -1    0    0    0    0 -0.00000000000E+00 -0.00000000000E+00 -0.12934459430E+04  0.12934459430E+04  0.00000000000E+00 0. -1.
         25    2    1    2    0    0 -0.17836768390E+03 -0.22647417421E+03 -0.74507965697E+03  0.80863797550E+03  0.12508436330E+03 0.  0.
         24    2    1    2    0    0  0.20454030429E+03  0.11706953757E+03 -0.33190901792E+03  0.41653061252E+03  0.88273111926E+02 0.  0.
        -24    2    1    2    0    0 -0.26172620391E+02  0.10940463664E+03 -0.10974758411E+03  0.17498703896E+03  0.76951614721E+02 0.  0.
        -11    1    4    4    0    0  0.16397967398E+03  0.12913292942E+03 -0.26441245254E+03  0.33686583679E+03  0.00000000000E+00 0.  1.
         12    1    4    4    0    0  0.40560630313E+02 -0.12063391859E+02 -0.67496565376E+02  0.79664775730E+02  0.00000000000E+00 0. -1.
         13    1    5    5    0    0 -0.44821400601E+01  0.11395464699E+03 -0.89517410404E+02  0.14497971553E+03  0.00000000000E+00 0. -1.
        -14    1    5    5    0    0 -0.21690480331E+02 -0.45500103459E+01 -0.20230173706E+02  0.30007323428E+02  0.00000000000E+00 0.  1.
          5    1    3    3  501    0 -0.15525563191E+03 -0.11096397815E+03 -0.53079398024E+03  0.56407183722E+03  0.41800000000E+01 0.  1.
         -5    1    3    3    0  501 -0.23112051989E+02 -0.11551019605E+03 -0.21428567673E+03  0.24456613828E+03  0.41800000000E+01 0.  1.
</event>
<event>
11    1  0.1720476E-009  0.4903100E+03  0.7561462E-02  0.9415438E-01
         22   -1    0    0    0    0  0.00000000000E+00  0.00000000000E+00  0.21707456763E+04  0.21707456763E+04  0.00000000000E+00 0. -1.
         22   -1    0    0    0    0 -0.00000000000E+00 -0.00000000000E+00 -0.55407597932E+03  0.55407597932E+03  0.00000000000E+00 0. -1.
         25    2    1    2    0    0  0.32057994377E+03  0.34786758949E+03 -0.38336988111E+03  0.62161352819E+03  0.12509017754E+03 0.  0.
        -24    2    1    2    0    0  0.11882176831E+02  0.13526883230E+02  0.63504629762E+02  0.10382973146E+03  0.80147441867E+02 0.  0.
         24    2    1    2    0    0 -0.33246212060E+03 -0.36139447272E+03  0.19365349483E+04  0.19993783960E+04  0.78799350442E+02 0.  0.
        -11    1    5    5    0    0 -0.28682742200E+02 -0.61723119058E+02  0.34383291123E+03  0.35050465614E+03  0.00000000000E+00 0.  1.
         12    1    5    5    0    0 -0.30377937840E+03 -0.29967135366E+03  0.15927020371E+04  0.16488737398E+04  0.00000000000E+00 0. -1.
         13    1    4    4    0    0  0.13731757818E+02 -0.29524022454E+02  0.48066586663E+02  0.58057091109E+02  0.00000000000E+00 0. -1.
        -14    1    4    4    0    0 -0.18495809869E+01  0.43050905684E+02  0.15438043099E+02  0.45772640352E+02  0.00000000000E+00 0.  1.
          5    1    3    3  501    0  0.14429568477E+03  0.18154626246E+03 -0.11142600829E+03  0.25731987444E+03  0.41800000000E+01 0.  1.
         -5    1    3    3    0  501  0.17628425900E+03  0.16632132703E+03 -0.27194387283E+03  0.36429365375E+03  0.41800000000E+01 0.  1.
</event>
<event>
11    1  0.1704459E-009  0.1310900E+03  0.7561462E-02  0.1117937E+00
         22   -1    0    0    0    0  0.00000000000E+00  0.00000000000E+00  0.77356173481E+03  0.77356173481E+03  0.00000000000E+00 0.  1.
         22   -1    0    0    0    0 -0.00000000000E+00 -0.00000000000E+00 -0.19115017381E+03  0.19115017381E+03  0.00000000000E+00 0. -1.
         25    2    1    2    0    0 -0.72100599874E+01  0.26883584040E+02 -0.89793737986E+02  0.15648335812E+03  0.12509761761E+03 0.  0.
        -24    2    1    2    0    0 -0.53295838283E+02 -0.56237126794E+02  0.10138780932E+01  0.12879621871E+03  0.10288040240E+03 0.  0.
         24    2    1    2    0    0  0.60505898270E+02  0.29353542754E+02  0.67119142089E+03  0.67943233179E+03  0.81288226717E+02 0.  0.
        -11    1    5    5    0    0  0.21013272641E+02 -0.31613926467E+01  0.50725434635E+03  0.50769924554E+03  0.00000000000E+00 0.  1.
         12    1    5    5    0    0  0.39492625630E+02  0.32514935400E+02  0.16393707455E+03  0.17173308625E+03  0.00000000000E+00 0. -1.
         11    1    4    4    0    0 -0.47104696349E+02 -0.57171146881E+02 -0.42117251518E+02  0.85212999767E+02  0.00000000000E+00 0. -1.
        -12    1    4    4    0    0 -0.61911419336E+01  0.93402008688E+00  0.43131129611E+02  0.43583218944E+02  0.00000000000E+00 0.  1.
          5    1    3    3  501    0  0.17623076228E+01 -0.43285283766E+02 -0.70818711372E+02  0.83123304790E+02  0.41800000000E+01 0. -1.
         -5    1    3    3    0  501 -0.89723676102E+01  0.70168867806E+02 -0.18975026614E+02  0.73360053331E+02  0.41800000000E+01 0. -1.
</event>
<event>
11    1  0.1704459E-009  0.1308048E+03  0.7561462E-02  0.1118284E+00
         22   -1    0    0    0    0  0.00000000000E+00  0.00000000000E+00  0.10437059463E+03  0.10437059463E+03  0.00000000000E+00 0.  1.
         22   -1    0    0    0    0 -0.00000000000E+00 -0.00000000000E+00 -0.62887595022E+03  0.62887595022E+03  0.00000000000E+00 0.  1.
         25    2    1    2    0    0 -0.21136037298E+02  0.49130137748E+02 -0.34020424669E+03  0.36639797538E+03  0.12509214359E+03 0.  0.
         24    2    1    2    0    0  0.12786378928E+02 -0.26910558139E+02 -0.24741913190E+03  0.26193501379E+03  0.80660120231E+02 0.  0.
        -24    2    1    2    0    0  0.83496583696E+01 -0.22219579608E+02  0.63118022996E+02  0.10491355568E+03  0.80371281095E+02 0.  0.
        -11    1    4    4    0    0  0.29974104694E+01 -0.50288046586E+02 -0.21479300528E+03  0.22062163814E+03  0.00000000000E+00 0.  1.
         12    1    4    4    0    0  0.97889684590E+01  0.23377488447E+02 -0.32626126616E+02  0.41313375649E+02  0.00000000000E+00 0. -1.
         13    1    5    5    0    0 -0.22330823314E+02 -0.23800955561E+02 -0.22214557771E+01  0.32712169314E+02  0.00000000000E+00 0. -1.
        -14    1    5    5    0    0  0.30680481684E+02  0.15813759526E+01  0.65339478773E+02  0.72201386362E+02  0.00000000000E+00 0.  1.
          5    1    3    3  501    0  0.15329059980E+02  0.81417845980E+02 -0.16761090083E+03  0.18701532611E+03  0.41800000000E+01 0. -1.
         -5    1    3    3    0  501 -0.36465097278E+02 -0.32287708233E+02 -0.17259334586E+03  0.17938264927E+03  0.41800000000E+01 0. -1.
</event>
<event>
11    1  0.1704459E-009  0.4538279E+03  0.7561462E-02  0.9503058E-01
         22   -1    0    0    0    0  0.00000000000E+00  0.00000000000E+00  0.12177062991E+04  0.12177062991E+04  0.00000000000E+00 0.  1.
         22   -1    0    0    0    0 -0.00000000000E+00 -0.00000000000E+00 -0.40380937028E+03  0.40380937028E+03  0.00000000000E+00 0.  1.
         25    2    1    2    0    0 -0.35887288934E+03 -0.14875777571E+03  0.17362626088E+03  0.44352079198E+03  0.12508392348E+03 0.  0.
         24    2    1    2    0    0  0.22203549484E+03  0.52487719246E+03  0.42313012558E+03  0.71549889650E+03  0.90020773111E+02 0.  0.
        -24    2    1    2    0    0  0.13683739451E+03 -0.37611941674E+03  0.21714054241E+03  0.46249598093E+03  0.81007586274E+02 0.  0.
        -11    1    4    4    0    0  0.11098467183E+03  0.34957354225E+03  0.30283957426E+03  0.47563753695E+03  0.00000000000E+00 0.  1.
         12    1    4    4    0    0  0.11105082301E+03  0.17530365021E+03  0.12029055132E+03  0.23986135955E+03  0.00000000000E+00 0. -1.
         11    1    5    5    0    0  0.50756733800E+02 -0.21818113360E+03  0.86242454968E+02  0.24003544348E+03  0.00000000000E+00 0. -1.
        -12    1    5    5    0    0  0.86080660707E+02 -0.15793828314E+03  0.13089808744E+03  0.22246053746E+03  0.00000000000E+00 0.  1.
          5    1    3    3  501    0 -0.29669956681E+03 -0.10883270638E+03  0.18854637099E+03  0.36802499554E+03  0.41800000000E+01 0. -1.
         -5    1    3    3    0  501 -0.62173322529E+02 -0.39925069333E+02 -0.14920110111E+02  0.75495796448E+02  0.41800000000E+01 0. -1.
</event>
<event>
11    1  0.1704459E-009  0.5411236E+03  0.7561462E-02  0.9306050E-01
         22   -1    0    0    0    0  0.00000000000E+00  0.00000000000E+00  0.11717783578E+04  0.11717783578E+04  0.00000000000E+00 0. -1.
         22   -1    0    0    0    0 -0.00000000000E+00 -0.00000000000E+00 -0.69849803017E+03  0.69849803017E+03  0.00000000000E+00 0.  1.
         25    2    1    2    0    0  0.15795537147E+03  0.48078572050E+03 -0.49147831779E+02  0.52361173118E+03  0.12509567236E+03 0.  0.
         24    2    1    2    0    0 -0.23524967045E+03 -0.49090208702E+03 -0.22214002003E+03  0.59368966939E+03  0.82425533410E+02 0.  0.
        -24    2    1    2    0    0  0.77294298982E+02  0.10116366515E+02  0.74456817942E+03  0.75297498738E+03  0.80701972043E+02 0.  0.
        -11    1    4    4    0    0 -0.93073517948E+01 -0.88432325704E+02 -0.39858431394E+02  0.97445356893E+02  0.00000000000E+00 0.  1.
         12    1    4    4    0    0 -0.22594231865E+03 -0.40246976131E+03 -0.18228158864E+03  0.49624431250E+03  0.00000000000E+00 0. -1.
         11    1    5    5    0    0  0.53872931653E+02  0.59572170734E+01  0.70296339828E+03  0.70504987095E+03  0.00000000000E+00 0. -1.
        -12    1    5    5    0    0  0.23421367329E+02  0.41591494412E+01  0.41604781136E+02  0.47925116431E+02  0.00000000000E+00 0.  1.
          5    1    3    3  501    0  0.31330039845E+02  0.28345536743E+03 -0.47272559907E+02  0.28910324114E+03  0.41800000000E+01 0. -1.
         -5    1    3    3    0  501  0.12662533162E+03  0.19733035308E+03 -0.18752718724E+01  0.23450849003E+03  0.41800000000E+01 0. -1.
</event>
<event>
11    1  0.1704459E-009  0.1275819E+04  0.7561462E-02  0.8453452E-01
         22   -1    0    0    0    0  0.00000000000E+00  0.00000000000E+00  0.23881724627E+04  0.23881724627E+04  0.00000000000E+00 0. -1.
         22   -1    0    0    0    0 -0.00000000000E+00 -0.00000000000E+00 -0.17039320238E+03  0.17039320238E+03  0.00000000000E+00 0. -1.
         25    2    1    2    0    0 -0.48119716345E+03  0.12487743459E+03  0.38242935614E+03  0.63956644032E+03  0.12509170780E+03 0.  0.
         24    2    1    2    0    0  0.43867922099E+03 -0.63269308141E+02  0.14040032785E+04  0.14743930722E+04  0.78531910600E+02 0.  0.
        -24    2    1    2    0    0  0.42517942466E+02 -0.61608126444E+02  0.43134662571E+03  0.44460615260E+03  0.77533107398E+02 0.  0.
        -13    1    4    4    0    0  0.97374569534E+02 -0.39153275533E+02  0.26214624264E+03  0.28237464175E+03  0.00000000000E+00 0.  1.
         14    1    4    4    0    0  0.34130465145E+03 -0.24116032609E+02  0.11418570358E+04  0.11920184304E+04  0.00000000000E+00 0. -1.
         13    1    5    5    0    0  0.15911087652E+02 -0.75284292357E+02  0.28308462137E+03  0.29335608097E+03  0.00000000000E+00 0. -1.
        -14    1    5    5    0    0  0.26606854814E+02  0.13676165912E+02  0.14826200434E+03  0.15125007163E+03  0.00000000000E+00 0.  1.
          5    1    3    3  501    0 -0.46430838663E+03  0.90186524126E+02  0.36252126451E+03  0.59594884566E+03  0.41800000000E+01 0. -1.
         -5    1    3    3    0  501 -0.16888776824E+02  0.34690910459E+02  0.19908091636E+02  0.43617594657E+02  0.41800000000E+01 0. -1.
</event>
<event>
11    1  0.1704459E-009  0.3160397E+03  0.7561462E-02  0.9936224E-01
         22   -1    0    0    0    0  0.00000000000E+00  0.00000000000E+00  0.11772025565E+03  0.11772025565E+03  0.00000000000E+00 0.  1.
         22   -1    0    0    0    0 -0.00000000000E+00 -0.00000000000E+00 -0.35491271050E+04  0.35491271050E+04  0.00000000000E+00 0. -1.
         25    2    1    2    0    0 -0.28512637796E+03  0.11483934362E+03 -0.31804332961E+04  0.31977005809E+04  0.12509167797E+03 0.  0.
         24    2    1    2    0    0  0.17106383737E+03  0.31864433504E+02 -0.15698321543E+03  0.24648188244E+03  0.76363668501E+02 0.  0.
        -24    2    1    2    0    0  0.11406254058E+03 -0.14670377713E+03 -0.93990337816E+02  0.22266489731E+03  0.78823927217E+02 0.  0.
        -11    1    4    4    0    0  0.45754342177E+02 -0.13054356876E+02 -0.10838257757E+02  0.48799015284E+02  0.00000000000E+00 0.  1.
         12    1    4    4    0    0  0.12530949520E+03  0.44918790379E+02 -0.14614495767E+03  0.19768286716E+03  0.00000000000E+00 0. -1.
         11    1    5    5    0    0 -0.79186830581E+01 -0.27175071674E+02 -0.27293995316E+02  0.39321142432E+02  0.00000000000E+00 0. -1.
        -12    1    5    5    0    0  0.12198122364E+03 -0.11952870545E+03 -0.66696342500E+02  0.18334375487E+03  0.00000000000E+00 0.  1.
          5    1    3    3  501    0 -0.25055255816E+03  0.48216591300E+02 -0.23211742788E+04  0.23351592941E+04  0.41800000000E+01 0.  1.
         -5    1    3    3    0  501 -0.34573819792E+02  0.66622752323E+02 -0.85925901735E+03  0.86254128680E+03  0.41800000000E+01 0.  1.
</event>
<event>
11    1  0.1704459E-009  0.1944495E+03  0.7561462E-02  0.1058520E+00
         22   -1    0    0    0    0  0.00000000000E+00  0.00000000000E+00  0.11663299167E+03  0.11663299167E+03  0.00000000000E+00 0. -1.
         22   -1    0    0    0    0 -0.00000000000E+00 -0.00000000000E+00 -0.18189033983E+04  0.18189033983E+04  0.00000000000E+00 0. -1.
         25    2    1    2    0    0  0.63121990110E+02  0.13368628293E+03 -0.15104093550E+04  0.15227744419E+04  0.12509665583E+03 0.  0.
         24    2    1    2    0    0 -0.16808209596E+01 -0.16689428136E+03 -0.23411359549E+03  0.29892586775E+03  0.81798364970E+02 0.  0.
        -24    2    1    2    0    0 -0.61441169150E+02  0.33207998429E+02  0.42252543901E+02  0.11383608029E+03  0.79344736957E+02 0.  0.
        -11    1    4    4    0    0  0.30275981125E+02 -0.35690884754E+02 -0.89929054908E+02  0.10137903730E+03  0.00000000000E+00 0.  1.
         12    1    4    4    0    0 -0.31956802084E+02 -0.13120339660E+03 -0.14418454058E+03  0.19754683045E+03  0.00000000000E+00 0. -1.
         11    1    5    5    0    0 -0.53327453744E+02 -0.88092695985E+01  0.45869123157E+02  0.70890034651E+02  0.00000000000E+00 0. -1.
        -12    1    5    5    0    0 -0.81137154061E+01  0.42017268028E+02 -0.36165792560E+01  0.42946045635E+02  0.00000000000E+00 0.  1.
          5    1    3    3  501    0  0.68758114108E+02  0.62825832447E+02 -0.42854921253E+03  0.43857344133E+03  0.41800000000E+01 0.  1.
         -5    1    3    3    0  501 -0.56361239986E+01  0.70860450481E+02 -0.10818601425E+04  0.10842010006E+04  0.41800000000E+01 0.  1.
</event>
<event>
11    1  0.1704459E-009  0.1120112E+04  0.7561462E-02  0.8572476E-01
         22   -1    0    0    0    0  0.00000000000E+00  0.00000000000E+00  0.12281217160E+03  0.12281217160E+03  0.00000000000E+00 0.  1.
         22   -1    0    0    0    0 -0.00000000000E+00 -0.00000000000E+00 -0.25540054407E+04  0.25540054407E+04  0.00000000000E+00 0. -1.
         25    2    1    2    0    0  0.19547865216E+03  0.32472718029E+03 -0.20896148111E+04  0.21273925091E+04  0.12509669892E+03 0.  0.
         24    2    1    2    0    0 -0.17092601008E+03 -0.24249099409E+03 -0.25359319400E+03  0.39853121879E+03  0.80622832796E+02 0.  0.
        -24    2    1    2    0    0 -0.24552642078E+02 -0.82236186202E+02 -0.87985264029E+02  0.15089388441E+03  0.87532480326E+02 0.  0.
        -11    1    4    4    0    0 -0.12415304296E+03 -0.21546886012E+03 -0.23282539445E+03  0.34065887932E+03  0.00000000000E+00 0.  1.
         12    1    4    4    0    0 -0.46772967119E+02 -0.27022133966E+02 -0.20767799552E+02  0.57872339467E+02  0.00000000000E+00 0. -1.
         13    1    5    5    0    0  0.10192122467E+02 -0.83747782732E+01 -0.64673125441E+02  0.66004768205E+02  0.00000000000E+00 0. -1.
        -14    1    5    5    0    0 -0.34744764545E+02 -0.73861407929E+02 -0.23312138588E+02  0.84889116205E+02  0.00000000000E+00 0.  1.
          5    1    3    3  501    0  0.11856210458E+03  0.86969557121E+02 -0.88264367994E+03  0.89481730798E+03  0.41800000000E+01 0.  1.
         -5    1    3    3    0  501  0.76916547584E+02  0.23775762317E+03 -0.12069711312E+04  0.12325752012E+04  0.41800000000E+01 0.  1.
</event>
<event>
11    1  0.1704459E-009  0.2015340E+03  0.7561462E-02  0.1053444E+00
         22   -1    0    0    0    0  0.00000000000E+00  0.00000000000E+00  0.35507232895E+03  0.35507232895E+03  0.00000000000E+00 0.  1.
         22   -1    0    0    0    0 -0.00000000000E+00 -0.00000000000E+00 -0.47397178361E+03  0.47397178361E+03  0.00000000000E+00 0.  1.
         25    2    1    2    0    0 -0.13107643956E+03  0.53392242911E+02 -0.23851046558E+03  0.30424764810E+03  0.12509046555E+03 0.  0.
        -24    2    1    2    0    0  0.21278577128E+03  0.10489063757E+03 -0.60765040351E+02  0.25886511433E+03  0.83898313322E+02 0.  0.
         24    2    1    2    0    0 -0.81709331721E+02 -0.15828288048E+03  0.18037605126E+03  0.26593135014E+03  0.80337276351E+02 0.  0.
        -13    1    5    5    0    0 -0.90196620546E+02 -0.15682793907E+03  0.15204980529E+03  0.23632514915E+03  0.00000000000E+00 0.  1.
         14    1    5    5    0    0  0.84872888251E+01 -0.14549414138E+01  0.28326245970E+02  0.29606200987E+02  0.00000000000E+00 0. -1.
         13    1    4    4    0    0  0.51784192555E+02  0.10672589081E+01 -0.41412778713E+02  0.66315608124E+02  0.00000000000E+00 0. -1.
        -14    1    4    4    0    0  0.16100157872E+03  0.10382337867E+03 -0.19352261638E+02  0.19254950620E+03  0.00000000000E+00 0.  1.
          5    1    3    3  501    0 -0.93232903801E+02  0.37120197452E+02 -0.51814629596E+02  0.11301553721E+03  0.41800000000E+01 0. -1.
         -5    1    3    3    0  501 -0.37843535756E+02  0.16272045459E+02 -0.18669583598E+03  0.19123211089E+03  0.41800000000E+01 0. -1.
</event>
<event>
11    1  0.1704459E-009  0.1825585E+03  0.7561462E-02  0.1067592E+00
         22   -1    0    0    0    0  0.00000000000E+00  0.00000000000E+00  0.55963014621E+02  0.55963014621E+02  0.00000000000E+00 0. -1.
         22   -1    0    0    0    0 -0.00000000000E+00 -0.00000000000E+00 -0.96263176848E+03  0.96263176848E+03  0.00000000000E+00 0. -1.
         25    2    1    2    0    0 -0.14005612610E+03 -0.39149915284E+02 -0.29138468453E+03  0.34885651026E+03  0.12508955211E+03 0.  0.
        -24    2    1    2    0    0  0.12262814429E+03  0.38418985813E+02 -0.53746413450E+03  0.55812781514E+03  0.78264180275E+02 0.  0.
         24    2    1    2    0    0  0.17427981816E+02  0.73092947082E+00 -0.77819934827E+02  0.11161045770E+03  0.78081260259E+02 0.  0.
        -11    1    5    5    0    0 -0.22312206516E+02  0.15434950735E+02 -0.59602910551E+02  0.65487244635E+02  0.00000000000E+00 0.  1.
         12    1    5    5    0    0  0.39740188332E+02 -0.14704021264E+02 -0.18217024276E+02  0.46123213065E+02  0.00000000000E+00 0. -1.
         11    1    4    4    0    0  0.98775321960E+02  0.57952583830E+02 -0.35319775153E+03  0.37130003755E+03  0.00000000000E+00 0. -1.
        -12    1    4    4    0    0  0.23852822328E+02 -0.19533598016E+02 -0.18426638297E+03  0.18682777758E+03  0.00000000000E+00 0.  1.
          5    1    3    3  501    0 -0.13280954866E+03  0.15649476736E+02 -0.17830606701E+03  0.22292108081E+03  0.41800000000E+01 0. -1.
         -5    1    3    3    0  501 -0.72465774443E+01 -0.54799392020E+02 -0.11307861752E+03  0.12593542945E+03  0.41800000000E+01 0. -1.
</event>
<event>
11    1  0.1704459E-009  0.1499689E+03  0.7561462E-02  0.1096911E+00
         22   -1    0    0    0    0  0.00000000000E+00  0.00000000000E+00  0.40635970381E+02  0.40635970381E+02  0.00000000000E+00 0.  1.
         22   -1    0    0    0    0 -0.00000000000E+00 -0.00000000000E+00 -0.92459574843E+03  0.92459574843E+03  0.00000000000E+00 0.  1.
         25    2    1    2    0    0 -0.42306389683E+01  0.94069342711E+02 -0.49863390682E+03  0.52263712238E+03  0.12508736591E+03 0.  0.
         24    2    1    2    0    0  0.54550270738E+02 -0.31998958756E+02 -0.21054140576E+03  0.23493647053E+03  0.82872168112E+02 0.  0.
        -24    2    1    2    0    0 -0.50319631770E+02 -0.62070383956E+02 -0.17478446547E+03  0.20765812590E+03  0.78660599915E+02 0.  0.
        -11    1    4    4    0    0  0.52965954986E+02 -0.56016409280E+02 -0.13280642960E+03  0.15356034071E+03  0.00000000000E+00 0.  1.
         12    1    4    4    0    0  0.15843157523E+01  0.24017450524E+02 -0.77734976158E+02  0.81376129820E+02  0.00000000000E+00 0. -1.
         11    1    5    5    0    0  0.14845888179E+02 -0.40644758132E+02 -0.60845601519E+02  0.74663136712E+02  0.00000000000E+00 0. -1.
        -12    1    5    5    0    0 -0.65165519949E+02 -0.21425625823E+02 -0.11393886395E+03  0.13299498919E+03  0.00000000000E+00 0.  1.
          5    1    3    3  501    0  0.25274775998E+02  0.71014494697E+02 -0.46807817344E+03  0.47412711545E+03  0.41800000000E+01 0. -1.
         -5    1    3    3    0  501 -0.29505414966E+02  0.23054848014E+02 -0.30555733387E+02  0.48510006928E+02  0.41800000000E+01 0. -1.
</event>
<event>
11    1  0.1704459E-009  0.2262419E+03  0.7561462E-02  0.1037376E+00
         22   -1    0    0    0    0  0.00000000000E+00  0.00000000000E+00  0.20255754609E+04  0.20255754609E+04  0.00000000000E+00 0. -1.
         22   -1    0    0    0    0 -0.00000000000E+00 -0.00000000000E+00 -0.15481367961E+03  0.15481367961E+03  0.00000000000E+00 0.  1.
         25    2    1    2    0    0 -0.18768788532E+03 -0.72827149213E+02 -0.88123023033E+01  0.23718583789E+03  0.12509567964E+03 0.  0.
        -24    2    1    2    0    0  0.16558472221E+03 -0.32271531901E+01  0.25848523201E+03  0.31770435207E+03  0.81809079032E+02 0.  0.
         24    2    1    2    0    0  0.22103163118E+02  0.76054302403E+02  0.16210888516E+04  0.16254989506E+04  0.89693738705E+02 0.  0.
        -13    1    5    5    0    0 -0.17146328898E+02  0.48077927752E+01  0.68373858819E+02  0.70654766547E+02  0.00000000000E+00 0.  1.
         14    1    5    5    0    0  0.39249492016E+02  0.71246509627E+02  0.15527149928E+04  0.15548441840E+04  0.00000000000E+00 0. -1.
         13    1    4    4    0    0  0.14527156152E+03 -0.27791002664E+02  0.17986386612E+03  0.23286729429E+03  0.00000000000E+00 0. -1.
        -14    1    4    4    0    0  0.20313160684E+02  0.24563849474E+02  0.78621365888E+02  0.84837057775E+02  0.00000000000E+00 0.  1.
          5    1    3    3  501    0 -0.74041670545E+02 -0.92850095401E+02 -0.22377293946E+02  0.12091949751E+03  0.41800000000E+01 0. -1.
         -5    1    3    3    0  501 -0.11364621478E+03  0.20022946189E+02  0.13564991643E+02  0.11626634038E+03  0.41800000000E+01 0. -1.
</event>
<event>
11    1  0.1704459E-009  0.2807142E+03  0.7561462E-02  0.1008701E+00
         22   -1    0    0    0    0  0.00000000000E+00  0.00000000000E+00  0.66206130325E+03  0.66206130325E+03  0.00000000000E+00 0.  1.
         22   -1    0    0    0    0 -0.00000000000E+00 -0.00000000000E+00 -0.19659938425E+03  0.19659938425E+03  0.00000000000E+00 0. -1.
         25    2    1    2    0    0  0.16797737907E+03  0.14873488561E+03  0.65742811150E+02  0.26515998112E+03  0.12509689163E+03 0.  0.
         24    2    1    2    0    0 -0.24287679872E+03 -0.19438097528E+03  0.29550694471E+03  0.43600471286E+03  0.77476785923E+02 0.  0.
        -24    2    1    2    0    0  0.74899419657E+02  0.45646089672E+02  0.10421216315E+03  0.15749599352E+03  0.79065317689E+02 0.  0.
        -11    1    4    4    0    0 -0.96114668791E+02 -0.48816419678E+02  0.14321959009E+03  0.17925658530E+03  0.00000000000E+00 0.  1.
         12    1    4    4    0    0 -0.14676212993E+03 -0.14556455560E+03  0.15228735461E+03  0.25674812756E+03  0.00000000000E+00 0. -1.
         13    1    5    5    0    0 -0.97281457290E+01  0.30628198690E+02  0.27916305697E+02  0.42568104235E+02  0.00000000000E+00 0. -1.
        -14    1    5    5    0    0  0.84627565386E+02  0.15017890982E+02  0.76295857450E+02  0.11492788929E+03  0.00000000000E+00 0.  1.
          5    1    3    3  501    0  0.18755913493E+02  0.62046702533E+02 -0.25649130935E+02  0.69835004861E+02  0.41800000000E+01 0.  1.
         -5    1    3    3    0  501  0.14922146557E+03  0.86688183075E+02  0.91391942084E+02  0.19532497626E+03  0.41800000000E+01 0.  1.
</event>
<event>
11    1  0.1704459E-009  0.1842020E+03  0.7561462E-02  0.1066294E+00
         22   -1    0    0    0    0  0.00000000000E+00  0.00000000000E+00  0.48418922648E+03  0.48418922648E+03  0.00000000000E+00 0.  1.
         22   -1    0    0    0    0 -0.00000000000E+00 -0.00000000000E+00 -0.13926374976E+03  0.13926374976E+03  0.00000000000E+00 0.  1.
         25    2    1    2    0    0  0.49284169926E+01  0.16581539704E+03  0.30207971427E+02  0.20995039302E+03  0.12509041051E+03 0.  0.
        -24    2    1    2    0    0 -0.41021848275E+02 -0.41432120786E+02  0.58960315473E+02  0.11588693161E+03  0.80957083999E+02 0.  0.
         24    2    1    2    0    0  0.36093431283E+02 -0.12438327625E+03  0.25575718982E+03  0.29761565160E+03  0.79933727189E+02 0.  0.
        -13    1    5    5    0    0  0.59953274733E+00 -0.93596040460E+02  0.21832381928E+03  0.23754129808E+03  0.00000000000E+00 0.  1.
         14    1    5    5    0    0  0.35493898535E+02 -0.30787235794E+02  0.37433370534E+02  0.60074353518E+02  0.00000000000E+00 0. -1.
         13    1    4    4    0    0 -0.55835520320E+02 -0.50362830477E+02  0.27649075953E+02  0.80115488042E+02  0.00000000000E+00 0. -1.
        -14    1    4    4    0    0  0.14813672044E+02  0.89307096919E+01  0.31311239519E+02  0.35771443573E+02  0.00000000000E+00 0.  1.
          5    1    3    3  501    0 -0.25505581755E+02  0.16740796413E+03  0.45785424918E+02  0.17547005069E+03  0.41800000000E+01 0. -1.
         -5    1    3    3    0  501  0.30433998747E+02 -0.15925670908E+01 -0.15577453491E+02  0.34480342326E+02  0.41800000000E+01 0. -1.
</event>
<event>
11    1  0.1704459E-009  0.2156896E+03  0.7561462E-02  0.1043952E+00
         22   -1    0    0    0    0  0.00000000000E+00  0.00000000000E+00  0.45326963719E+03  0.45326963719E+03  0.00000000000E+00 0.  1.
         22   -1    0    0    0    0 -0.00000000000E+00 -0.00000000000E+00 -0.17863919027E+03  0.17863919027E+03  0.00000000000E+00 0. -1.
         25    2    1    2    0    0 -0.18134033288E+03  0.43674010448E+02 -0.20402698650E+02  0.22551064994E+03  0.12508815933E+03 0.  0.
         24    2    1    2    0    0  0.15474234636E+03 -0.31634123382E+02  0.12276427734E+03  0.21551040807E+03  0.80173291534E+02 0.  0.
        -24    2    1    2    0    0  0.26597986524E+02 -0.12039887066E+02  0.17226886823E+03  0.19088776945E+03  0.76871098576E+02 0.  0.
        -13    1    4    4    0    0  0.26989778982E+02 -0.40423786222E+02  0.26943004685E+02  0.55573880227E+02  0.00000000000E+00 0.  1.
         14    1    4    4    0    0  0.12775256738E+03  0.87896628401E+01  0.95821272657E+02  0.15993652784E+03  0.00000000000E+00 0. -1.
         11    1    5    5    0    0 -0.98872596460E+01 -0.36722028571E+02  0.74107327013E+02  0.83295625351E+02  0.00000000000E+00 0. -1.
        -12    1    5    5    0    0  0.36485246170E+02  0.24682141506E+02  0.98161541216E+02  0.10759214410E+03  0.00000000000E+00 0.  1.
          5    1    3    3  501    0 -0.94248667727E+01  0.30602364669E+02 -0.40592437838E+02  0.51870523871E+02  0.41800000000E+01 0. -1.
         -5    1    3    3    0  501 -0.17191546611E+03  0.13071645778E+02  0.20189739188E+02  0.17364012607E+03  0.41800000000E+01 0. -1.
</event>
<event>
11    1  0.1704459E-009  0.4215199E+03  0.7561462E-02  0.9588313E-01
         22   -1    0    0    0    0  0.00000000000E+00  0.00000000000E+00  0.22191347820E+03  0.22191347820E+03  0.00000000000E+00 0. -1.
         22   -1    0    0    0    0 -0.00000000000E+00 -0.00000000000E+00 -0.89021945928E+03  0.89021945928E+03  0.00000000000E+00 0. -1.
         25    2    1    2    0    0 -0.73058487415E+02  0.52305384270E+02 -0.20191752824E+03  0.25395389028E+03  0.12509394217E+03 0.  0.
         24    2    1    2    0    0 -0.76865497108E+02  0.24183997659E+03 -0.44420990425E+03  0.51751203233E+03  0.78111366985E+02 0.  0.
        -24    2    1    2    0    0  0.14992398452E+03 -0.29414536086E+03 -0.22178548589E+02  0.34066701487E+03  0.81015014354E+02 0.  0.
        -13    1    4    4    0    0 -0.39695297006E+02  0.17381294348E+03 -0.23919044419E+03  0.29832654008E+03  0.00000000000E+00 0.  1.
         14    1    4    4    0    0 -0.37170200102E+02  0.68027033110E+02 -0.20501946006E+03  0.21918549225E+03  0.00000000000E+00 0. -1.
         13    1    5    5    0    0  0.13789352729E+03 -0.21058214811E+03  0.56426096090E+01  0.25177629955E+03  0.00000000000E+00 0. -1.
        -14    1    5    5    0    0  0.12030457230E+02 -0.83563212750E+02 -0.27821158198E+02  0.88890715318E+02  0.00000000000E+00 0.  1.
          5    1    3    3  501    0 -0.86145090864E+02 -0.12294012558E+02 -0.10144671935E+03  0.13371996370E+03  0.41800000000E+01 0.  1.
         -5    1    3    3    0  501  0.13086603450E+02  0.64599396828E+02 -0.10047080889E+03  0.12023392658E+03  0.41800000000E+01 0.  1.
</event>
<event>
11    1  0.1704459E-009  0.2112857E+03  0.7561462E-02  0.1046818E+00
         22   -1    0    0    0    0  0.00000000000E+00  0.00000000000E+00  0.41159615087E+03  0.41159615087E+03  0.00000000000E+00 0.  1.
         22   -1    0    0    0    0 -0.00000000000E+00 -0.00000000000E+00 -0.21862733406E+03  0.21862733406E+03  0.00000000000E+00 0.  1.
         25    2    1    2    0    0  0.17127265981E+03  0.83673247483E+02  0.32239887502E+02  0.23026210356E+03  0.12508273121E+03 0.  0.
        -24    2    1    2    0    0 -0.10867137071E+03  0.82556589221E+02  0.23124954903E+02  0.15932944849E+03  0.78905338105E+02 0.  0.
         24    2    1    2    0    0 -0.62601289108E+02 -0.16622983670E+03  0.13760397441E+03  0.24063193288E+03  0.86125451177E+02 0.  0.
        -13    1    5    5    0    0 -0.22161685305E+02 -0.14514439085E+03  0.80153884535E+02  0.16728024300E+03  0.00000000000E+00 0.  1.
         14    1    5    5    0    0 -0.40439603803E+02 -0.21085445855E+02  0.57450089872E+02  0.73351689885E+02  0.00000000000E+00 0. -1.
         13    1    4    4    0    0  0.46939388559E+01  0.25252703968E+02 -0.10782179217E+02  0.27856552341E+02  0.00000000000E+00 0. -1.
        -14    1    4    4    0    0 -0.11336530956E+03  0.57303885254E+02  0.33907134121E+02  0.13147289615E+03  0.00000000000E+00 0.  1.
          5    1    3    3  501    0  0.67392627500E+02  0.99873803986E+02  0.12098464149E+01  0.12056317469E+03  0.41800000000E+01 0. -1.
         -5    1    3    3    0  501  0.10388003231E+03 -0.16200556503E+02  0.31030041087E+02  0.10969892887E+03  0.41800000000E+01 0. -1.
</event>
<event>
11    1  0.1704459E-009  0.1271009E+03  0.7561462E-02  0.1122883E+00
         22   -1    0    0    0    0  0.00000000000E+00  0.00000000000E+00  0.52542048289E+03  0.52542048289E+03  0.00000000000E+00 0.  1.
         22   -1    0    0    0    0 -0.00000000000E+00 -0.00000000000E+00 -0.72058110666E+02  0.72058110666E+02  0.00000000000E+00 0. -1.
         25    2    1    2    0    0  0.14184759483E+02 -0.33071649878E+01  0.96994231689E+02  0.15895744601E+03  0.12508974346E+03 0.  0.
         24    2    1    2    0    0 -0.27923979160E+02 -0.94473149918E+02  0.15432821460E+03  0.19967535688E+03  0.79675125706E+02 0.  0.
        -24    2    1    2    0    0  0.13739219676E+02  0.97780314906E+02  0.20203992595E+03  0.23884579067E+03  0.80482444702E+02 0.  0.
        -13    1    4    4    0    0 -0.55889915990E+02 -0.55863315708E+02  0.95383890811E+02  0.12386476245E+03  0.00000000000E+00 0.  1.
         14    1    4    4    0    0  0.27965936831E+02 -0.38609834210E+02  0.58944323784E+02  0.75810594424E+02  0.00000000000E+00 0. -1.
         11    1    5    5    0    0 -0.30357357999E+02  0.46426067453E+02  0.61284002325E+02  0.82660013700E+02  0.00000000000E+00 0. -1.
        -12    1    5    5    0    0  0.44096577676E+02  0.51354247453E+02  0.14075592362E+03  0.15618577697E+03  0.00000000000E+00 0.  1.
          5    1    3    3  501    0 -0.47086226627E+02  0.26804599312E+02  0.25545036671E+02  0.60046819905E+02  0.41800000000E+01 0. -1.
         -5    1    3    3    0  501  0.61270986110E+02 -0.30111764300E+02  0.71449195018E+02  0.98910626107E+02  0.41800000000E+01 0. -1.
</event>
<event>
11    1  0.1704459E-009  0.3375836E+03  0.7561462E-02  0.9854308E-01
         22   -1    0    0    0    0  0.00000000000E+00  0.00000000000E+00  0.14680786340E+03  0.14680786340E+03  0.00000000000E+00 0. -1.
         22   -1    0    0    0    0 -0.00000000000E+00 -0.00000000000E+00 -0.14541372023E+04  0.14541372023E+04  0.00000000000E+00 0.  1.
         25    2    1    2    0    0 -0.23732749017E+03 -0.10371995474E+03 -0.40627596855E+03  0.49778456815E+03  0.12508855691E+03 0.  0.
         24    2    1    2    0    0  0.30829017571E+03  0.18012160220E+03 -0.90032291182E+03  0.97181706513E+03  0.79752357321E+02 0.  0.
        -24    2    1    2    0    0 -0.70962685543E+02 -0.76401647462E+02 -0.73045856981E+00  0.13134343246E+03  0.79860185359E+02 0.  0.
        -13    1    4    4    0    0  0.72001474773E+02  0.70262746351E+02 -0.18624127692E+03  0.21167635466E+03  0.00000000000E+00 0.  1.
         14    1    4    4    0    0  0.23628870094E+03  0.10985885585E+03 -0.71408163490E+03  0.76014071047E+03  0.00000000000E+00 0. -1.
         11    1    5    5    0    0 -0.69594777206E+02 -0.72217757372E+02  0.26519172612E+02  0.10374056107E+03  0.00000000000E+00 0. -1.
        -12    1    5    5    0    0 -0.13679083368E+01 -0.41838900894E+01 -0.27249631182E+02  0.27602871391E+02  0.00000000000E+00 0.  1.
          5    1    3    3  501    0 -0.10365006710E+03 -0.63706737938E+02 -0.29543311805E+03  0.31953103841E+03  0.41800000000E+01 0.  1.
         -5    1    3    3    0  501 -0.13367742307E+03 -0.40013216804E+02 -0.11084285050E+03  0.17825352974E+03  0.41800000000E+01 0.  1.
</event>
<event>
11    1  0.2220940E-009  0.2194556E+03  0.7561462E-02  0.1041559E+00
         22   -1    0    0    0    0  0.00000000000E+00  0.00000000000E+00  0.24863694151E+04  0.24863694151E+04  0.00000000000E+00 0.  1.
         22   -1    0    0    0    0 -0.00000000000E+00 -0.00000000000E+00 -0.53636540056E+03  0.53636540056E+03  0.00000000000E+00 0.  1.
         25    2    1    2    0    0  0.61796030753E+02 -0.16949995577E+03 -0.49938909792E+03  0.54551461162E+03  0.12509091073E+03 0.  0.
        -24    2    1    2    0    0  0.58227276071E+02  0.31476839417E+02  0.27828037434E+03  0.29694546893E+03  0.79720998965E+02 0.  0.
         24    2    1    2    0    0 -0.12002330682E+03  0.13802311635E+03  0.21711127381E+04  0.21802747351E+04  0.80071368888E+02 0.  0.
        -11    1    5    5    0    0 -0.50292002531E+02  0.24916881940E+02  0.36602962054E+03  0.37030773640E+03  0.00000000000E+00 0.  1.
         12    1    5    5    0    0 -0.69731304293E+02  0.11310623441E+03  0.18050831175E+04  0.18099669987E+04  0.00000000000E+00 0. -1.
         11    1    4    4    0    0  0.70374190253E+01 -0.17901701163E+02  0.15479859538E+02  0.24690529002E+02  0.00000000000E+00 0. -1.
        -12    1    4    4    0    0  0.51189857046E+02  0.49378540580E+02  0.26280051481E+03  0.27225493993E+03  0.00000000000E+00 0.  1.
          5    1    3    3  501    0 -0.57139016944E+01 -0.50555222525E+02 -0.29607846941E+03  0.30044701970E+03  0.41800000000E+01 0.  1.
         -5    1    3    3    0  501  0.67509932448E+02 -0.11894473324E+03 -0.20331062851E+03  0.24506759192E+03  0.41800000000E+01 0.  1.
</event>
<event>
11    1  0.1704459E-009  0.1481952E+03  0.7561462E-02  0.1098737E+00
         22   -1    0    0    0    0  0.00000000000E+00  0.00000000000E+00  0.14451970748E+03  0.14451970748E+03  0.00000000000E+00 0.  1.
         22   -1    0    0    0    0 -0.00000000000E+00 -0.00000000000E+00 -0.94453709202E+03  0.94453709202E+03  0.00000000000E+00 0.  1.
         25    2    1    2    0    0 -0.10785492535E+03 -0.47589924410E+02 -0.70262009564E+03  0.72333933305E+03  0.12508919264E+03 0.  0.
        -24    2    1    2    0    0  0.42361336074E+02  0.49411027129E+01 -0.19643175192E+03  0.21622199152E+03  0.79671947169E+02 0.  0.
         24    2    1    2    0    0  0.65493589277E+02  0.42648821698E+02  0.99034463014E+02  0.14949547493E+03  0.80204363536E+02 0.  0.
        -13    1    5    5    0    0  0.70560026985E+01  0.52284499568E+02  0.47079701189E+02  0.70710355205E+02  0.00000000000E+00 0.  1.
         14    1    5    5    0    0  0.58437586579E+02 -0.96356778703E+01  0.51954761824E+02  0.78785119721E+02  0.00000000000E+00 0. -1.
         13    1    4    4    0    0  0.16289781693E+02  0.14907451252E+02 -0.48372013694E+01  0.22605035004E+02  0.00000000000E+00 0. -1.
        -14    1    4    4    0    0  0.26071554381E+02 -0.99663485391E+01 -0.19159455055E+03  0.19361695652E+03  0.00000000000E+00 0.  1.
          5    1    3    3  501    0 -0.12755831864E+03 -0.10339132493E+02 -0.56618013283E+03  0.58047862797E+03  0.41800000000E+01 0.  1.
         -5    1    3    3    0  501  0.19703393290E+02 -0.37250791917E+02 -0.13643996280E+03  0.14286070508E+03  0.41800000000E+01 0.  1.
</event>
<event>
11    1  0.1704459E-009  0.2556750E+03  0.7561462E-02  0.1020919E+00
         22   -1    0    0    0    0  0.00000000000E+00  0.00000000000E+00  0.82828110988E+02  0.82828110988E+02  0.00000000000E+00 0.  1.
         22   -1    0    0    0    0 -0.00000000000E+00 -0.00000000000E+00 -0.19761823974E+04  0.19761823974E+04  0.00000000000E+00 0.  1.
         25    2    1    2    0    0 -0.24127153676E+03 -0.39464763213E+02 -0.15929378780E+04  0.16164366952E+04  0.12508830729E+03 0.  0.
         24    2    1    2    0    0  0.11255645605E+03  0.28614749052E+02 -0.23641792198E+03  0.27561874185E+03  0.81144915836E+02 0.  0.
        -24    2    1    2    0    0  0.12871508071E+03  0.10850014161E+02 -0.63998486455E+02  0.16695507130E+03  0.84219325307E+02 0.  0.
        -11    1    4    4    0    0  0.67049016663E+02  0.53671806682E+02 -0.11480840905E+03  0.14337783740E+03  0.00000000000E+00 0.  1.
         12    1    4    4    0    0  0.45507439388E+02 -0.25057057631E+02 -0.12160951293E+03  0.13224090445E+03  0.00000000000E+00 0. -1.
         13    1    5    5    0    0  0.12580761477E+03  0.33181670483E+02 -0.62614744465E+02  0.14439247007E+03  0.00000000000E+00 0. -1.
        -14    1    5    5    0    0  0.29074659429E+01 -0.22331656322E+02 -0.13837419908E+01  0.22562601228E+02  0.00000000000E+00 0.  1.
          5    1    3    3  501    0 -0.20904018243E+03 -0.58701251057E+02 -0.10519528616E+04  0.10741349683E+04  0.41800000000E+01 0. -1.
         -5    1    3    3    0  501 -0.32231354325E+02  0.19236487844E+02 -0.54098501637E+03  0.54230172690E+03  0.41800000000E+01 0. -1.
</event>
<event>
11    1  0.1704459E-009  0.1896402E+03  0.7561462E-02  0.1062101E+00
         22   -1    0    0    0    0  0.00000000000E+00  0.00000000000E+00  0.34022081179E+03  0.34022081179E+03  0.00000000000E+00 0.  1.
         22   -1    0    0    0    0 -0.00000000000E+00 -0.00000000000E+00 -0.18344695831E+03  0.18344695831E+03  0.00000000000E+00 0.  1.
         25    2    1    2    0    0 -0.12763128677E+03  0.88869831070E+02  0.28483297190E+02  0.20162372357E+03  0.12511289083E+03 0.  0.
         24    2    1    2    0    0  0.14603066065E+03  0.12551780296E+02  0.82444221006E+02  0.18955977622E+03  0.87483473552E+02 0.  0.
        -24    2    1    2    0    0 -0.18399373886E+02 -0.10142161137E+03  0.45846335279E+02  0.13248427031E+03  0.69464488837E+02 0.  0.
        -13    1    4    4    0    0  0.91175802235E+02  0.36749046096E+02  0.84413182940E+02  0.12957277784E+03  0.00000000000E+00 0.  1.
         14    1    4    4    0    0  0.54854858416E+02 -0.24197265801E+02 -0.19689619341E+01  0.59986998385E+02  0.00000000000E+00 0. -1.
         13    1    5    5    0    0  0.49114834157E+01 -0.89540946113E+02  0.54486336268E+02  0.10493076069E+03  0.00000000000E+00 0. -1.
        -14    1    5    5    0    0 -0.23310857301E+02 -0.11880665253E+02 -0.86400009884E+01  0.27553509614E+02  0.00000000000E+00 0.  1.
          5    1    3    3  501    0 -0.12332174622E+03  0.54459457203E+02 -0.25558128287E+02  0.13727627578E+03  0.41800000000E+01 0.  1.
         -5    1    3    3    0  501 -0.43095405419E+01  0.34410373867E+02  0.54041425477E+02  0.64347447789E+02  0.41800000000E+01 0.  1.
</event>
<event>
11    1  0.1704459E-009  0.1566089E+03  0.7561462E-02  0.1090311E+00
         22   -1    0    0    0    0  0.00000000000E+00  0.00000000000E+00  0.52564067146E+03  0.52564067146E+03  0.00000000000E+00 0. -1.
         22   -1    0    0    0    0 -0.00000000000E+00 -0.00000000000E+00 -0.86942704159E+02  0.86942704159E+02  0.00000000000E+00 0.  1.
         25    2    1    2    0    0  0.88976343343E+02  0.43715161043E+02  0.47413365747E+02  0.16650425940E+03  0.12509131132E+03 0.  0.
         24    2    1    2    0    0 -0.53474139210E+02 -0.73566337030E+02  0.21934325489E+03  0.25061031010E+03  0.80140966770E+02 0.  0.
        -24    2    1    2    0    0 -0.35502204133E+02  0.29851175986E+02  0.17194134666E+03  0.19546880611E+03  0.80577467476E+02 0.  0.
        -13    1    4    4    0    0  0.14740006247E+02 -0.28745215223E+02  0.28631533440E+02  0.43166189194E+02  0.00000000000E+00 0.  1.
         14    1    4    4    0    0 -0.68214145457E+02 -0.44821121806E+02  0.19071172145E+03  0.20744412091E+03  0.00000000000E+00 0. -1.
         11    1    5    5    0    0  0.19045135406E+02 -0.68340344421E+01  0.14612087968E+02  0.24958652291E+02  0.00000000000E+00 0. -1.
        -12    1    5    5    0    0 -0.54547339539E+02  0.36685210428E+02  0.15732925869E+03  0.17051015382E+03  0.00000000000E+00 0.  1.
          5    1    3    3  501    0  0.34874716603E+02  0.63956030216E+02 -0.21897957626E+02  0.76181445296E+02  0.41800000000E+01 0. -1.
         -5    1    3    3    0  501  0.54101626740E+02 -0.20240869173E+02  0.69311323373E+02  0.90322814109E+02  0.41800000000E+01 0. -1.
</event>
<event>
11    1  0.1704459E-009  0.4649247E+03  0.7561462E-02  0.9475505E-01
         22   -1    0    0    0    0  0.00000000000E+00  0.00000000000E+00  0.73128097230E+03  0.73128097230E+03  0.00000000000E+00 0. -1.
         22   -1    0    0    0    0 -0.00000000000E+00 -0.00000000000E+00 -0.14363397955E+04  0.14363397955E+04  0.00000000000E+00 0. -1.
         25    2    1    2    0    0 -0.41792096573E+03  0.15457416482E+03 -0.12653242591E+04  0.13473098193E+04  0.12508861878E+03 0.  0.
        -24    2    1    2    0    0  0.42683463766E+03 -0.22815521537E+03  0.49857541544E+03  0.69945348479E+03  0.80094458547E+02 0.  0.
         24    2    1    2    0    0 -0.89136719281E+01  0.73581050557E+02  0.61690020436E+02  0.12085746371E+03  0.72850829543E+02 0.  0.
        -11    1    5    5    0    0  0.25309565365E+02  0.77846414548E+01  0.37509412457E+01  0.26744051708E+02  0.00000000000E+00 0.  1.
         12    1    5    5    0    0 -0.34223237293E+02  0.65796409103E+02  0.57939079191E+02  0.94113412004E+02  0.00000000000E+00 0. -1.
         11    1    4    4    0    0  0.27920086318E+03 -0.11306959120E+03  0.27516696296E+03  0.40798861744E+03  0.00000000000E+00 0. -1.
        -12    1    4    4    0    0  0.14763377448E+03 -0.11508562417E+03  0.22340845248E+03  0.29146486735E+03  0.00000000000E+00 0.  1.
          5    1    3    3  501    0 -0.97836882965E+02  0.78992433345E+02 -0.24721136232E+03  0.27738563455E+03  0.41800000000E+01 0.  1.
         -5    1    3    3    0  501 -0.32008408277E+03  0.75581731470E+02 -0.10181128968E+04  0.10699241848E+04  0.41800000000E+01 0.  1.
</event>
<event>
11    1  0.1704459E-009  0.1599520E+03  0.7561462E-02  0.1087122E+00
         22   -1    0    0    0    0  0.00000000000E+00  0.00000000000E+00  0.17849116918E+03  0.17849116918E+03  0.00000000000E+00 0. -1.
         22   -1    0    0    0    0 -0.00000000000E+00 -0.00000000000E+00 -0.67990802913E+03  0.67990802913E+03  0.00000000000E+00 0. -1.
         25    2    1    2    0    0 -0.65948652941E+02 -0.78894363055E+02 -0.58333703265E+03  0.60539492986E+03  0.12508949631E+03 0.  0.
        -24    2    1    2    0    0  0.74666849203E+02 -0.17178396874E+02  0.17121588103E+02  0.11213009091E+03  0.80061056817E+02 0.  0.
         24    2    1    2    0    0 -0.87181962619E+01  0.96072759929E+02  0.64798584597E+02  0.14087417755E+03  0.79628482266E+02 0.  0.
        -13    1    5    5    0    0  0.37159861897E+01 -0.13912685620E+02  0.75422504430E+01  0.16255980938E+02  0.00000000000E+00 0.  1.
         14    1    5    5    0    0 -0.12434182452E+02  0.10998544555E+03  0.57256334154E+02  0.12461819661E+03  0.00000000000E+00 0. -1.
         11    1    4    4    0    0  0.73552043024E+02 -0.34883041663E+01 -0.16805451448E+02  0.75528104024E+02  0.00000000000E+00 0. -1.
        -12    1    4    4    0    0  0.11148061788E+01 -0.13690092708E+02  0.33927039551E+02  0.36601986884E+02  0.00000000000E+00 0.  1.
          5    1    3    3  501    0 -0.63646118297E+02 -0.11039009956E+03 -0.41774506769E+03  0.43676677579E+03  0.41800000000E+01 0.  1.
         -5    1    3    3    0  501 -0.23025346442E+01  0.31495736508E+02 -0.16559196496E+03  0.16862815407E+03  0.41800000000E+01 0.  1.
</event>
<event>
11    1  0.1704459E-009  0.4588311E+03  0.7561462E-02  0.9490533E-01
         22   -1    0    0    0    0  0.00000000000E+00  0.00000000000E+00  0.19211990330E+03  0.19211990330E+03  0.00000000000E+00 0. -1.
         22   -1    0    0    0    0 -0.00000000000E+00 -0.00000000000E+00 -0.12624657412E+04  0.12624657412E+04  0.00000000000E+00 0. -1.
         25    2    1    2    0    0 -0.13148205625E+03  0.56488305534E+02 -0.61287628459E+03  0.64167271243E+03  0.12509224549E+03 0.  0.
        -24    2    1    2    0    0 -0.21567605547E+03  0.69126083383E+02 -0.34244343106E+03  0.41812055333E+03  0.79137332139E+02 0.  0.
         24    2    1    2    0    0  0.34715811172E+03 -0.12561438892E+03 -0.11502612226E+03  0.39479237875E+03  0.79575651312E+02 0.  0.
        -13    1    5    5    0    0  0.30090580462E+02  0.81980046941E+01  0.21041184086E+01  0.31258240958E+02  0.00000000000E+00 0.  1.
         14    1    5    5    0    0  0.31706753126E+03 -0.13381239361E+03 -0.11713024067E+03  0.36353413780E+03  0.00000000000E+00 0. -1.
         13    1    4    4    0    0 -0.70392133412E+02  0.62789494700E+02 -0.12727459772E+03  0.15841842165E+03  0.00000000000E+00 0. -1.
        -14    1    4    4    0    0 -0.14528392206E+03  0.63365886833E+01 -0.21516883333E+03  0.25970213169E+03  0.00000000000E+00 0.  1.
          5    1    3    3  501    0 -0.14589593030E+03  0.18014394968E+02 -0.43975626805E+03  0.46369514619E+03  0.41800000000E+01 0.  1.
         -5    1    3    3    0  501  0.14413874048E+02  0.38473910566E+02 -0.17312001654E+03  0.17797756624E+03  0.41800000000E+01 0.  1.
</event>
<event>
11    1  0.1704459E-009  0.5440448E+03  0.7561462E-02  0.9300152E-01
         22   -1    0    0    0    0  0.00000000000E+00  0.00000000000E+00  0.13229806280E+04  0.13229806280E+04  0.00000000000E+00 0. -1.
         22   -1    0    0    0    0 -0.00000000000E+00 -0.00000000000E+00 -0.54269890943E+03  0.54269890943E+03  0.00000000000E+00 0. -1.
         25    2    1    2    0    0  0.26020557508E+03  0.13304580544E+03 -0.98650734823E+02  0.33284698061E+03  0.12508803849E+03 0.  0.
        -24    2    1    2    0    0 -0.16650705735E+03 -0.63426291501E+03  0.22133996184E+03  0.69681141403E+03  0.80874733463E+02 0.  0.
         24    2    1    2    0    0 -0.93698517730E+02  0.50121710957E+03  0.65759249158E+03  0.83602114281E+03  0.80656451081E+02 0.  0.
        -11    1    5    5    0    0 -0.58465200440E+02  0.18968310373E+03  0.20406896783E+03  0.28467877184E+03  0.00000000000E+00 0.  1.
         12    1    5    5    0    0 -0.35233317290E+02  0.31153400584E+03  0.45352352375E+03  0.55134237098E+03  0.00000000000E+00 0. -1.
         11    1    4    4    0    0 -0.12884645038E+03 -0.35617831383E+03  0.10520276427E+03  0.39310561002E+03  0.00000000000E+00 0. -1.
        -12    1    4    4    0    0 -0.37660606968E+02 -0.27808460118E+03  0.11613719758E+03  0.30370580401E+03  0.00000000000E+00 0.  1.
          5    1    3    3  501    0  0.34713255397E+01  0.42483998713E+02 -0.29267059290E+02  0.51874593079E+02  0.41800000000E+01 0. -1.
         -5    1    3    3    0  501  0.25673424954E+03  0.90561806727E+02 -0.69383675533E+02  0.28097238753E+03  0.41800000000E+01 0. -1.
</event>
<event>
11    1  0.1704459E-009  0.3220230E+03  0.7561462E-02  0.9912786E-01
         22   -1    0    0    0    0  0.00000000000E+00  0.00000000000E+00  0.23515835220E+04  0.23515835220E+04  0.00000000000E+00 0. -1.
         22   -1    0    0    0    0 -0.00000000000E+00 -0.00000000000E+00 -0.86926458086E+02  0.86926458086E+02  0.00000000000E+00 0.  1.
         25    2    1    2    0    0 -0.11295218453E+03 -0.18496249607E+02  0.99123625750E+02  0.19640071619E+03  0.12508973139E+03 0.  0.
         24    2    1    2    0    0 -0.11630533305E+03 -0.43244576793E+02  0.14942509915E+03  0.21038580064E+03  0.80853577145E+02 0.  0.
        -24    2    1    2    0    0  0.22925751758E+03  0.61740826401E+02  0.20161083390E+04  0.20317234633E+04  0.82682872974E+02 0.  0.
        -11    1    4    4    0    0 -0.81342311083E+02  0.62606499929E+01  0.55742067339E+02  0.98807618036E+02  0.00000000000E+00 0.  1.
         12    1    4    4    0    0 -0.34963021971E+02 -0.49505226786E+02  0.93683031813E+02  0.11157818261E+03  0.00000000000E+00 0. -1.
         13    1    5    5    0    0  0.23394117697E+03  0.50834694777E+02  0.19343161546E+04  0.19490745564E+04  0.00000000000E+00 0. -1.
        -14    1    5    5    0    0 -0.46836593899E+01  0.10906131624E+02  0.81792184435E+02  0.82648906871E+02  0.00000000000E+00 0.  1.
          5    1    3    3  501    0 -0.12614061287E+03 -0.16492142985E+02  0.11755809246E+03  0.17326517971E+03  0.41800000000E+01 0. -1.
         -5    1    3    3    0  501  0.13188428345E+02 -0.20041066221E+01 -0.18434466708E+02  0.23135536483E+02  0.41800000000E+01 0. -1.
</event>
<event>
11    1  0.1704459E-009  0.2030546E+03  0.7561462E-02  0.1052384E+00
         22   -1    0    0    0    0  0.00000000000E+00  0.00000000000E+00  0.48910339242E+03  0.48910339242E+03  0.00000000000E+00 0.  1.
         22   -1    0    0    0    0 -0.00000000000E+00 -0.00000000000E+00 -0.15709046804E+04  0.15709046804E+04  0.00000000000E+00 0.  1.
         25    2    1    2    0    0 -0.53252333072E+01 -0.16053987875E+03 -0.15117570880E+04  0.15254043912E+04  0.12509057862E+03 0.  0.
         24    2    1    2    0    0 -0.80665825024E+02  0.12534552283E+03  0.35209372586E+03  0.38956868004E+03  0.74667859623E+02 0.  0.
        -24    2    1    2    0    0  0.85991058331E+02  0.35194355914E+02  0.77862074149E+02  0.14503500157E+03  0.79621255259E+02 0.  0.
        -11    1    4    4    0    0 -0.38243626858E+02  0.44472797181E+01  0.76113549068E+02  0.85297278056E+02  0.00000000000E+00 0.  1.
         12    1    4    4    0    0 -0.42422198166E+02  0.12089824312E+03  0.27598017679E+03  0.30427140199E+03  0.00000000000E+00 0. -1.
         13    1    5    5    0    0 -0.11313118031E+02 -0.58475714325E+01 -0.16521684714E+01  0.12841744114E+02  0.00000000000E+00 0. -1.
        -14    1    5    5    0    0  0.97304176362E+02  0.41041927346E+02  0.79514242621E+02  0.13219325746E+03  0.00000000000E+00 0.  1.
          5    1    3    3  501    0 -0.61961038940E+02 -0.11319534008E+03 -0.10137358903E+04  0.10219247933E+04  0.41800000000E+01 0. -1.
         -5    1    3    3    0  501  0.56635805632E+02 -0.47344538665E+02 -0.49802119767E+03  0.50347959795E+03  0.41800000000E+01 0. -1.
</event>
<event>
11    1  0.1704459E-009  0.1022495E+04  0.7561462E-02  0.8657908E-01
         22   -1    0    0    0    0  0.00000000000E+00  0.00000000000E+00  0.74263788151E+03  0.74263788151E+03  0.00000000000E+00 0.  1.
         22   -1    0    0    0    0 -0.00000000000E+00 -0.00000000000E+00 -0.12773608824E+04  0.12773608824E+04  0.00000000000E+00 0.  1.
         25    2    1    2    0    0  0.29846314392E+03  0.93336210744E+02 -0.36807576138E+03  0.49891827058E+03  0.12509107917E+03 0.  0.
        -24    2    1    2    0    0  0.58312654538E+03  0.11949314315E+03 -0.39038261622E+02  0.60164440392E+03  0.78337881684E+02 0.  0.
         24    2    1    2    0    0 -0.88158968930E+03 -0.21282935389E+03 -0.12760897784E+03  0.91943608937E+03  0.81129261415E+02 0.  0.
        -11    1    5    5    0    0 -0.21391442672E+03 -0.79642535081E+02 -0.54634796647E+02  0.23470678805E+03  0.00000000000E+00 0.  1.
         12    1    5    5    0    0 -0.66767526258E+03 -0.13318681881E+03 -0.72974181196E+02  0.68472930132E+03  0.00000000000E+00 0. -1.
         11    1    4    4    0    0  0.30701871693E+03  0.23920890230E+02 -0.28650062823E+02  0.30927904493E+03  0.00000000000E+00 0. -1.
        -12    1    4    4    0    0  0.27610782845E+03  0.95572252918E+02 -0.10388198799E+02  0.29236535899E+03  0.00000000000E+00 0.  1.
          5    1    3    3  501    0  0.96419528452E+02 -0.91523122813E+01 -0.17999106532E+03  0.20443763421E+03  0.41800000000E+01 0. -1.
         -5    1    3    3    0  501  0.20204361547E+03  0.10248852303E+03 -0.18808469606E+03  0.29448063636E+03  0.41800000000E+01 0. -1.
</event>
<event>
11    1  0.1704459E-009  0.2739329E+03  0.7561462E-02  0.1011870E+00
         22   -1    0    0    0    0  0.00000000000E+00  0.00000000000E+00  0.23260128751E+04  0.23260128751E+04  0.00000000000E+00 0.  1.
         22   -1    0    0    0    0 -0.00000000000E+00 -0.00000000000E+00 -0.32425000560E+03  0.32425000560E+03  0.00000000000E+00 0. -1.
         25    2    1    2    0    0  0.22622374122E+03  0.12963889942E+03 -0.19748882009E+03  0.35018880778E+03  0.12508773600E+03 0.  0.
        -24    2    1    2    0    0  0.13672347535E+02 -0.17996774382E+03  0.18911265662E+03  0.27351034364E+03  0.80430027258E+02 0.  0.
         24    2    1    2    0    0 -0.23989608876E+03  0.50328844394E+02  0.20101390330E+04  0.20265637293E+04  0.78857409164E+02 0.  0.
        -11    1    5    5    0    0 -0.16896146386E+03  0.65598486370E+02  0.15780527747E+04  0.15884274290E+04  0.00000000000E+00 0.  1.
         12    1    5    5    0    0 -0.70934624897E+02 -0.15269641976E+02  0.43208625835E+03  0.43813630029E+03  0.00000000000E+00 0. -1.
         11    1    4    4    0    0  0.37936998590E+02 -0.50564262240E+02  0.41026468595E+02  0.75360013291E+02  0.00000000000E+00 0. -1.
        -12    1    4    4    0    0 -0.24264651056E+02 -0.12940348158E+03  0.14808618802E+03  0.19815033035E+03  0.00000000000E+00 0.  1.
          5    1    3    3  501    0  0.44086210160E+02  0.50050929689E+02 -0.11892849622E+03  0.13641902031E+03  0.41800000000E+01 0.  1.
         -5    1    3    3    0  501  0.18213753106E+03  0.79587969734E+02 -0.78560323865E+02  0.21376978747E+03  0.41800000000E+01 0.  1.
</event>
<event>
11    1  0.1704459E-009  0.2633594E+03  0.7561462E-02  0.1017014E+00
         22   -1    0    0    0    0  0.00000000000E+00  0.00000000000E+00  0.10085536341E+04  0.10085536341E+04  0.00000000000E+00 0.  1.
         22   -1    0    0    0    0 -0.00000000000E+00 -0.00000000000E+00 -0.28202504580E+03  0.28202504580E+03  0.00000000000E+00 0.  1.
         25    2    1    2    0    0 -0.77395120819E+02 -0.24179362598E+03 -0.17478338663E+02  0.28356068222E+03  0.12508799258E+03 0.  0.
         24    2    1    2    0    0  0.46671723816E+02  0.21001953755E+03 -0.26612828533E+02  0.23155950599E+03  0.81394755452E+02 0.  0.
        -24    2    1    2    0    0  0.30723397003E+02  0.31774088430E+02  0.77061975551E+03  0.77545849170E+03  0.74347460939E+02 0.  0.
        -13    1    4    4    0    0  0.25775371280E+02  0.39429068826E+02 -0.36226305024E+02  0.59425301083E+02  0.00000000000E+00 0.  1.
         14    1    4    4    0    0  0.20896352536E+02  0.17059046872E+03  0.96134764914E+01  0.17213420490E+03  0.00000000000E+00 0. -1.
         11    1    5    5    0    0  0.30362633244E+02  0.50469294020E+02  0.39432528374E+03  0.39869972226E+03  0.00000000000E+00 0. -1.
        -12    1    5    5    0    0  0.36076375969E+00 -0.18695205589E+02  0.37629447178E+03  0.37675876944E+03  0.00000000000E+00 0.  1.
          5    1    3    3  501    0 -0.11359943487E+02 -0.13860572099E+03  0.44667058232E+02  0.14612738517E+03  0.41800000000E+01 0. -1.
         -5    1    3    3    0  501 -0.66035177332E+02 -0.10318790499E+03 -0.62145396895E+02  0.13743329705E+03  0.41800000000E+01 0. -1.
</event>
<event>
11    1  0.1704459E-009  0.1361889E+03  0.7561462E-02  0.1111890E+00
         22   -1    0    0    0    0  0.00000000000E+00  0.00000000000E+00  0.62744612600E+03  0.62744612600E+03  0.00000000000E+00 0.  1.
         22   -1    0    0    0    0 -0.00000000000E+00 -0.00000000000E+00 -0.79147708285E+02  0.79147708285E+02  0.00000000000E+00 0.  1.
         25    2    1    2    0    0  0.12590616817E+02  0.29908578256E+02  0.42053153287E+02  0.13589993902E+03  0.12508908441E+03 0.  0.
        -24    2    1    2    0    0  0.85704069430E+01 -0.11166821369E+03  0.19827935694E+03  0.24154623111E+03  0.80539658245E+02 0.  0.
         24    2    1    2    0    0 -0.21161023760E+02  0.81759635437E+02  0.30796590748E+03  0.32914766415E+03  0.79766896223E+02 0.  0.
        -11    1    5    5    0    0  0.14233006674E+02  0.78977051317E+02  0.22592667540E+03  0.23975574190E+03  0.00000000000E+00 0.  1.
         12    1    5    5    0    0 -0.35394030433E+02  0.27825841204E+01  0.82039232078E+02  0.89391922256E+02  0.00000000000E+00 0. -1.
         13    1    4    4    0    0 -0.19224283992E+02 -0.30047654673E+02  0.14424819340E+02  0.38477396733E+02  0.00000000000E+00 0. -1.
        -14    1    4    4    0    0  0.27794690935E+02 -0.81620559021E+02  0.18385453760E+03  0.20306883438E+03  0.00000000000E+00 0.  1.
          5    1    3    3  501    0 -0.42527426557E+02  0.38077793234E+02 -0.11639141790E+02  0.58407554039E+02  0.41800000000E+01 0. -1.
         -5    1    3    3    0  501  0.55118043374E+02 -0.81692149781E+01  0.53692295077E+02  0.77492384976E+02  0.41800000000E+01 0. -1.
</event>
<event>
11    1  0.1704459E-009  0.1310575E+03  0.7561462E-02  0.1117976E+00
         22   -1    0    0    0    0  0.00000000000E+00  0.00000000000E+00  0.11347421370E+03  0.11347421370E+03  0.00000000000E+00 0.  1.
         22   -1    0    0    0    0 -0.00000000000E+00 -0.00000000000E+00 -0.39716892168E+03  0.39716892168E+03  0.00000000000E+00 0.  1.
         25    2    1    2    0    0  0.15750883583E-01 -0.14373431135E+02 -0.12330346162E+03  0.17623310225E+03  0.12509103449E+03 0.  0.
         24    2    1    2    0    0 -0.76128177625E+02 -0.56633587688E+02 -0.16210319528E+03  0.20526246441E+03  0.82779047414E+02 0.  0.
        -24    2    1    2    0    0  0.76112426742E+02  0.71007018823E+02  0.17119489261E+01  0.12914756871E+03  0.76426863791E+02 0.  0.
        -13    1    4    4    0    0 -0.43253596640E+02 -0.74610862799E+02 -0.12953284173E+03  0.15561623166E+03  0.00000000000E+00 0.  1.
         14    1    4    4    0    0 -0.32874580985E+02  0.17977275111E+02 -0.32570353558E+02  0.49646232750E+02  0.00000000000E+00 0. -1.
         13    1    5    5    0    0  0.44080468134E+02 -0.24193040401E+01  0.17515390854E+02  0.47494521997E+02  0.00000000000E+00 0. -1.
        -14    1    5    5    0    0  0.32031958607E+02  0.73426322863E+02 -0.15803441928E+02  0.81653046717E+02  0.00000000000E+00 0.  1.
          5    1    3    3  501    0  0.52354250702E+02 -0.41223150333E+02 -0.70103779433E+02  0.96810784424E+02  0.41800000000E+01 0.  1.
         -5    1    3    3    0  501 -0.52338499819E+02  0.26849719198E+02 -0.53199682188E+02  0.79422317828E+02  0.41800000000E+01 0.  1.
</event>
<event>
11    1  0.1704459E-009  0.2808504E+03  0.7561462E-02  0.1008638E+00
         22   -1    0    0    0    0  0.00000000000E+00  0.00000000000E+00  0.11240992964E+03  0.11240992964E+03  0.00000000000E+00 0. -1.
         22   -1    0    0    0    0 -0.00000000000E+00 -0.00000000000E+00 -0.32706619031E+04  0.32706619031E+04  0.00000000000E+00 0.  1.
         25    2    1    2    0    0 -0.18558799915E+03  0.12293778588E+03 -0.28201221900E+04  0.28316590025E+04  0.12508770958E+03 0.  0.
        -24    2    1    2    0    0 -0.15839635642E+02  0.30625733933E+02 -0.26107222419E+03  0.27510405769E+03  0.79590870567E+02 0.  0.
         24    2    1    2    0    0  0.20142763479E+03 -0.15356351982E+03 -0.77057559299E+02  0.27630877261E+03  0.79081121001E+02 0.  0.
        -13    1    5    5    0    0  0.44535716780E+02 -0.71735214400E+02 -0.30044384189E+01  0.84489038960E+02  0.00000000000E+00 0.  1.
         14    1    5    5    0    0  0.15689191801E+03 -0.81828305416E+02 -0.74053120880E+02  0.19181973365E+03  0.00000000000E+00 0. -1.
         13    1    4    4    0    0  0.31297721374E+02  0.20388490449E+02 -0.92233671190E+02  0.99510240715E+02  0.00000000000E+00 0. -1.
        -14    1    4    4    0    0 -0.47137357016E+02  0.10237243485E+02 -0.16883855300E+03  0.17559381697E+03  0.00000000000E+00 0.  1.
          5    1    3    3  501    0 -0.20270287084E+03  0.99143355791E+02 -0.25113295860E+04  0.25214503011E+04  0.41800000000E+01 0.  1.
         -5    1    3    3    0  501  0.17114871694E+02  0.23794430092E+02 -0.30879260401E+03  0.31020870141E+03  0.41800000000E+01 0.  1.
</event>
<event>
11    1  0.1704459E-009  0.2959438E+03  0.7561462E-02  0.1001923E+00
         22   -1    0    0    0    0  0.00000000000E+00  0.00000000000E+00  0.11208245455E+03  0.11208245455E+03  0.00000000000E+00 0.  1.
         22   -1    0    0    0    0 -0.00000000000E+00 -0.00000000000E+00 -0.11505710317E+04  0.11505710317E+04  0.00000000000E+00 0.  1.
         25    2    1    2    0    0 -0.95575669231E+02 -0.25403777027E+03 -0.69084427324E+03  0.75271700892E+03  0.12508872201E+03 0.  0.
         24    2    1    2    0    0  0.42354322814E+02  0.26221051805E+03 -0.26843716860E+03  0.38561821159E+03  0.78068221383E+02 0.  0.
        -24    2    1    2    0    0  0.53221346417E+02 -0.81727477742E+01 -0.79207135338E+02  0.12431826576E+03  0.79258787478E+02 0.  0.
        -13    1    4    4    0    0  0.61246838623E+02  0.17819330892E+03 -0.16033995414E+03  0.24741247236E+03  0.00000000000E+00 0.  1.
         14    1    4    4    0    0 -0.18892515809E+02  0.84017209126E+02 -0.10809721446E+03  0.13820573923E+03  0.00000000000E+00 0. -1.
         11    1    5    5    0    0  0.71257458272E+02 -0.20083212189E+02 -0.64342343301E+02  0.98086175952E+02  0.00000000000E+00 0. -1.
        -12    1    5    5    0    0 -0.18036111855E+02  0.11910464415E+02 -0.14864792036E+02  0.26232089808E+02  0.00000000000E+00 0.  1.
          5    1    3    3  501    0 -0.10709849396E+03 -0.23113342713E+03 -0.67684363908E+03  0.72320642469E+03  0.41800000000E+01 0. -1.
         -5    1    3    3    0  501  0.11522824733E+02 -0.22904343147E+02 -0.14000634156E+02  0.29510584230E+02  0.41800000000E+01 0. -1.
</event>
<event>
11    1  0.1704459E-009  0.4361526E+03  0.7561462E-02  0.9548726E-01
         22   -1    0    0    0    0  0.00000000000E+00  0.00000000000E+00  0.25962736735E+04  0.25962736735E+04  0.00000000000E+00 0.  1.
         22   -1    0    0    0    0 -0.00000000000E+00 -0.00000000000E+00 -0.66627879782E+02  0.66627879782E+02  0.00000000000E+00 0.  1.
         25    2    1    2    0    0  0.21774938318E+03  0.52794147620E+02  0.50325362754E+03  0.56490126098E+03  0.12508878899E+03 0.  0.
        -24    2    1    2    0    0 -0.35272373549E+03 -0.10473732553E+03  0.14591081075E+04  0.15069257816E+04  0.80280139601E+02 0.  0.
         24    2    1    2    0    0  0.13497435231E+03  0.51943177910E+02  0.56728405869E+03  0.59107451075E+03  0.81496653321E+02 0.  0.
        -13    1    5    5    0    0  0.13187194061E+03  0.25021998589E+02  0.51475569804E+03  0.53196779770E+03  0.00000000000E+00 0.  1.
         14    1    5    5    0    0  0.31024117075E+01  0.26921179320E+02  0.52528360657E+02  0.59106713051E+02  0.00000000000E+00 0. -1.
         13    1    4    4    0    0 -0.61772441359E+01  0.67647328525E+01  0.82078636049E+02  0.82588270665E+02  0.00000000000E+00 0. -1.
        -14    1    4    4    0    0 -0.34654649136E+03 -0.11150205838E+03  0.13770294715E+04  0.14243375109E+04  0.00000000000E+00 0.  1.
          5    1    3    3  501    0  0.77681682923E+01  0.43215939527E+02  0.11868084314E+03  0.12661191412E+03  0.41800000000E+01 0.  1.
         -5    1    3    3    0  501  0.20998121489E+03  0.95782080935E+01  0.38457278439E+03  0.43828934686E+03  0.41800000000E+01 0.  1.
</event>
<event>
11    1  0.1704459E-009  0.3186877E+03  0.7561462E-02  0.9925783E-01
         22   -1    0    0    0    0  0.00000000000E+00  0.00000000000E+00  0.18593757450E+04  0.18593757450E+04  0.00000000000E+00 0. -1.
         22   -1    0    0    0    0 -0.00000000000E+00 -0.00000000000E+00 -0.66250834082E+03  0.66250834082E+03  0.00000000000E+00 0. -1.
         25    2    1    2    0    0  0.99242966390E+02  0.15909945073E+03 -0.53728598548E+03  0.58265419948E+03  0.12509150401E+03 0.  0.
        -24    2    1    2    0    0  0.48311009740E+02  0.97033985940E+02 -0.38219475022E+02  0.14053711498E+03  0.80872766281E+02 0.  0.
         24    2    1    2    0    0 -0.14755397613E+03 -0.25613343667E+03  0.17723728647E+04  0.17986927714E+04  0.81324049351E+02 0.  0.
        -11    1    5    5    0    0 -0.36720873863E+01 -0.64460558653E+02  0.29276967919E+03  0.29980449112E+03  0.00000000000E+00 0.  1.
         12    1    5    5    0    0 -0.14388188874E+03 -0.19167287802E+03  0.14796031855E+04  0.14988882803E+04  0.00000000000E+00 0. -1.
         13    1    4    4    0    0 -0.11464130501E+01  0.76633691846E+02 -0.41086849214E+02  0.86960716229E+02  0.00000000000E+00 0. -1.
        -14    1    4    4    0    0  0.49457422790E+02  0.20400294094E+02  0.28673741915E+01  0.53576398749E+02  0.00000000000E+00 0.  1.
          5    1    3    3  501    0  0.37227829229E+01 -0.86000650635E+00  0.60266868288E+01  0.82699503030E+01  0.41800000000E+01 0.  1.
         -5    1    3    3    0  501  0.95520183467E+02  0.15995945724E+03 -0.54331267231E+03  0.57438424918E+03  0.41800000000E+01 0.  1.
</event>
<event>
11    1  0.1704459E-009  0.2159776E+03  0.7561462E-02  0.1043767E+00
         22   -1    0    0    0    0  0.00000000000E+00  0.00000000000E+00  0.19728145378E+04  0.19728145378E+04  0.00000000000E+00 0.  1.
         22   -1    0    0    0    0 -0.00000000000E+00 -0.00000000000E+00 -0.45643499468E+02  0.45643499468E+02  0.00000000000E+00 0. -1.
         25    2    1    2    0    0  0.14105307853E+03  0.75430170597E+01  0.36210325238E+03  0.40831228718E+03  0.12508912984E+03 0.  0.
        -24    2    1    2    0    0  0.24945582248E+02 -0.12359022840E+03  0.44864399125E+03  0.47263125508E+03  0.78753068276E+02 0.  0.
         24    2    1    2    0    0 -0.16599866078E+03  0.11604721134E+03  0.11164237947E+04  0.11375144951E+04  0.80713235294E+02 0.  0.
        -11    1    5    5    0    0 -0.10707202050E+03  0.73381208111E+02  0.89703055582E+03  0.90637356391E+03  0.00000000000E+00 0.  1.
         12    1    5    5    0    0 -0.58926640278E+02  0.42666003231E+02  0.21939323892E+03  0.23114093115E+03  0.00000000000E+00 0. -1.
         11    1    4    4    0    0 -0.22182771408E+02 -0.58863473804E+02  0.13511586742E+03  0.14904120747E+03  0.00000000000E+00 0. -1.
        -12    1    4    4    0    0  0.47128353655E+02 -0.64726754598E+02  0.31352812383E+03  0.32359004761E+03  0.00000000000E+00 0.  1.
          5    1    3    3  501    0  0.36021168220E+01 -0.37067605628E+02  0.37721127313E+02  0.53172723067E+02  0.41800000000E+01 0. -1.
         -5    1    3    3    0  501  0.13745096171E+03  0.44610622688E+02  0.32438212507E+03  0.35513956411E+03  0.41800000000E+01 0. -1.
</event>
<event>
11    1  0.1704459E-009  0.1874412E+03  0.7561462E-02  0.1063778E+00
         22   -1    0    0    0    0  0.00000000000E+00  0.00000000000E+00  0.36136969413E+02  0.36136969413E+02  0.00000000000E+00 0.  1.
         22   -1    0    0    0    0 -0.00000000000E+00 -0.00000000000E+00 -0.16141628959E+04  0.16141628959E+04  0.00000000000E+00 0. -1.
         25    2    1    2    0    0  0.51087515954E+02 -0.13687393253E+03 -0.10947018851E+04  0.11114692120E+04  0.12508870562E+03 0.  0.
         24    2    1    2    0    0 -0.50049132638E+02  0.11535692221E+03 -0.31159616012E+03  0.34762937854E+03  0.89117240963E+02 0.  0.
        -24    2    1    2    0    0 -0.10383833152E+01  0.21517010318E+02 -0.17172788125E+03  0.19120127477E+03  0.81261321074E+02 0.  0.
        -13    1    4    4    0    0 -0.72748007034E+02  0.60025426640E+02 -0.19152064553E+03  0.21348414937E+03  0.00000000000E+00 0.  1.
         14    1    4    4    0    0  0.22698874395E+02  0.55331495575E+02 -0.12007551460E+03  0.13414522916E+03  0.00000000000E+00 0. -1.
         11    1    5    5    0    0  0.24871501641E+02 -0.21428061476E+02 -0.83364501886E+02  0.89595723041E+02  0.00000000000E+00 0. -1.
        -12    1    5    5    0    0 -0.25909884957E+02  0.42945071794E+02 -0.88363379364E+02  0.10160555173E+03  0.00000000000E+00 0.  1.
          5    1    3    3  501    0  0.32648305470E+02 -0.15846064961E+03 -0.86810611481E+03  0.88306363774E+03  0.41800000000E+01 0. -1.
         -5    1    3    3    0  501  0.18439210483E+02  0.21586717076E+02 -0.22659577030E+03  0.22840557426E+03  0.41800000000E+01 0. -1.
</event>
<event>
11    1  0.1704459E-009  0.5923013E+03  0.7561462E-02  0.9208053E-01
         22   -1    0    0    0    0  0.00000000000E+00  0.00000000000E+00  0.11128254684E+04  0.11128254684E+04  0.00000000000E+00 0. -1.
         22   -1    0    0    0    0 -0.00000000000E+00 -0.00000000000E+00 -0.94418316393E+03  0.94418316393E+03  0.00000000000E+00 0. -1.
         25    2    1    2    0    0 -0.47341422843E+03  0.38010477479E+03 -0.58412307348E+03  0.85173200593E+03  0.12508786290E+03 0.  0.
         24    2    1    2    0    0  0.44316170959E+03 -0.26523077484E+03  0.95012817529E+02  0.53203837723E+03  0.85426779081E+02 0.  0.
        -24    2    1    2    0    0  0.30252518847E+02 -0.11487399995E+03  0.65775256044E+03  0.67323824920E+03  0.80622941232E+02 0.  0.
        -11    1    4    4    0    0  0.36896123466E+02 -0.41944889025E+02 -0.98988452086E+01  0.56733453788E+02  0.00000000000E+00 0.  1.
         12    1    4    4    0    0  0.40626558612E+03 -0.22328588581E+03  0.10491166274E+03  0.47530492344E+03  0.00000000000E+00 0. -1.
         11    1    5    5    0    0  0.19160443933E+02 -0.12449568379E+03  0.62128746633E+03  0.63392776695E+03  0.00000000000E+00 0. -1.
        -12    1    5    5    0    0  0.11092074913E+02  0.96216838379E+01  0.36465094110E+02  0.39310482243E+02  0.00000000000E+00 0.  1.
          5    1    3    3  501    0 -0.88890313049E+02  0.48243756642E+02 -0.44264832258E+02  0.11047984243E+03  0.41800000000E+01 0.  1.
         -5    1    3    3    0  501 -0.38452391539E+03  0.33186101815E+03 -0.53985824123E+03  0.74125216350E+03  0.41800000000E+01 0.  1.
</event>
<event>
11    1  0.1704459E-009  0.3600087E+03  0.7561462E-02  0.9775731E-01
         22   -1    0    0    0    0  0.00000000000E+00  0.00000000000E+00  0.12586353684E+03  0.12586353684E+03  0.00000000000E+00 0. -1.
         22   -1    0    0    0    0 -0.00000000000E+00 -0.00000000000E+00 -0.19414021450E+04  0.19414021450E+04  0.00000000000E+00 0. -1.
         25    2    1    2    0    0  0.49687333557E+02 -0.33460026198E+03 -0.14569239175E+04  0.15009000384E+04  0.12508979789E+03 0.  0.
         24    2    1    2    0    0 -0.30650927349E+02  0.33374493907E+03 -0.23679138469E+03  0.41800222013E+03  0.79564643305E+02 0.  0.
        -24    2    1    2    0    0 -0.19036406208E+02  0.85532290853E+00 -0.12182330596E+03  0.14836342328E+03  0.82508612608E+02 0.  0.
        -13    1    4    4    0    0 -0.48369879904E+02  0.20651528399E+03 -0.11638782206E+03  0.24193869663E+03  0.00000000000E+00 0.  1.
         14    1    4    4    0    0  0.17718952554E+02  0.12722965508E+03 -0.12040356263E+03  0.17606352350E+03  0.00000000000E+00 0. -1.
         11    1    5    5    0    0 -0.37904144832E+02  0.26881373250E+02 -0.97650279049E+02  0.10814300450E+03  0.00000000000E+00 0. -1.
        -12    1    5    5    0    0  0.18867738624E+02 -0.26026050342E+02 -0.24173026906E+02  0.40220418782E+02  0.00000000000E+00 0.  1.
          5    1    3    3  501    0 -0.97395310417E+01 -0.19583369925E+03 -0.61417935237E+03  0.64473207265E+03  0.41800000000E+01 0.  1.
         -5    1    3    3    0  501  0.59426864599E+02 -0.13876656273E+03 -0.84274456513E+03  0.85616796578E+03  0.41800000000E+01 0.  1.
</event>
<event>
11    1  0.1704459E-009  0.1857582E+03  0.7561462E-02  0.1065078E+00
         22   -1    0    0    0    0  0.00000000000E+00  0.00000000000E+00  0.44973048599E+03  0.44973048599E+03  0.00000000000E+00 0.  1.
         22   -1    0    0    0    0 -0.00000000000E+00 -0.00000000000E+00 -0.25671462634E+03  0.25671462634E+03  0.00000000000E+00 0.  1.
         25    2    1    2    0    0  0.21086970592E+02 -0.14924382611E+03 -0.15624807960E+03  0.25056005799E+03  0.12509396595E+03 0.  0.
        -24    2    1    2    0    0  0.65384838092E+02  0.10638999312E+03  0.82762427178E+02  0.16101337059E+03  0.59005749448E+02 0.  0.
         24    2    1    2    0    0 -0.86471808685E+02  0.42853832995E+02  0.26650151207E+03  0.29487168376E+03  0.81316844794E+02 0.  0.
        -11    1    5    5    0    0 -0.13289560144E+00  0.13932996661E+02  0.13026634203E+03  0.13100941159E+03  0.00000000000E+00 0.  1.
         12    1    5    5    0    0 -0.86338913083E+02  0.28920836335E+02  0.13623517003E+03  0.16386227217E+03  0.00000000000E+00 0. -1.
         11    1    4    4    0    0  0.64768186428E+02  0.75064137815E+02  0.83576276134E+02  0.12967087835E+03  0.00000000000E+00 0. -1.
        -12    1    4    4    0    0  0.61665166448E+00  0.31325855302E+02 -0.81384895618E+00  0.31342492240E+02  0.00000000000E+00 0.  1.
          5    1    3    3  501    0 -0.50884344560E+02 -0.50278962753E+02 -0.74322767942E+02  0.10324019010E+03  0.41800000000E+01 0. -1.
         -5    1    3    3    0  501  0.71971315153E+02 -0.98964863360E+02 -0.81925311657E+02  0.14731986789E+03  0.41800000000E+01 0. -1.
</event>
<event>
11    1  0.1704459E-009  0.4449968E+03  0.7561462E-02  0.9525592E-01
         22   -1    0    0    0    0  0.00000000000E+00  0.00000000000E+00  0.78836881145E+03  0.78836881145E+03  0.00000000000E+00 0.  1.
         22   -1    0    0    0    0 -0.00000000000E+00 -0.00000000000E+00 -0.35008461513E+03  0.35008461513E+03  0.00000000000E+00 0.  1.
         25    2    1    2    0    0  0.20376659378E+03  0.33208892053E+03  0.11327322418E+03  0.42459721613E+03  0.12509235287E+03 0.  0.
         24    2    1    2    0    0 -0.26868314348E+03 -0.38903366459E+03  0.14982637505E+03  0.50252291855E+03  0.80892009723E+02 0.  0.
        -24    2    1    2    0    0  0.64916549701E+02  0.56944744055E+02  0.17518459708E+03  0.21133329190E+03  0.80717128966E+02 0.  0.
        -11    1    4    4    0    0 -0.24740949676E+03 -0.34993538975E+03  0.10919442778E+03  0.44225519685E+03  0.00000000000E+00 0.  1.
         12    1    4    4    0    0 -0.21273646725E+02 -0.39098274840E+02  0.40631947267E+02  0.60267721702E+02  0.00000000000E+00 0. -1.
         13    1    5    5    0    0  0.81552566427E+02  0.39797275640E+02  0.11438997473E+03  0.14601270684E+03  0.00000000000E+00 0. -1.
        -14    1    5    5    0    0 -0.16636016726E+02  0.17147468415E+02  0.60794622353E+02  0.65320585060E+02  0.00000000000E+00 0.  1.
          5    1    3    3  501    0  0.16679501479E+03  0.22278105844E+03  0.13127111123E+03  0.30773617597E+03  0.41800000000E+01 0.  1.
         -5    1    3    3    0  501  0.36971578995E+02  0.10930786209E+03 -0.17997887048E+02  0.11686104016E+03  0.41800000000E+01 0.  1.
</event>
<event>
11    1  0.1704459E-009  0.3221600E+03  0.7561462E-02  0.9912256E-01
         22   -1    0    0    0    0  0.00000000000E+00  0.00000000000E+00  0.84904258613E+03  0.84904258613E+03  0.00000000000E+00 0. -1.
         22   -1    0    0    0    0 -0.00000000000E+00 -0.00000000000E+00 -0.15550233623E+04  0.15550233623E+04  0.00000000000E+00 0.  1.
         25    2    1    2    0    0 -0.44186894647E+03 -0.11139824311E+03 -0.12930636358E+04  0.13767057088E+04  0.12508920065E+03 0.  0.
         24    2    1    2    0    0  0.20073881609E+03 -0.56469674860E+02 -0.12279235133E+03  0.25453444141E+03  0.78898186650E+02 0.  0.
        -24    2    1    2    0    0  0.24113013038E+03  0.16786791797E+03  0.70987521094E+03  0.77282579819E+03  0.83746770531E+02 0.  0.
        -11    1    4    4    0    0  0.19982508806E+03 -0.36898472465E+02 -0.10917591549E+03  0.23067497396E+03  0.00000000000E+00 0.  1.
         12    1    4    4    0    0  0.91372802846E+00 -0.19571202395E+02 -0.13616435849E+02  0.23859467457E+02  0.00000000000E+00 0. -1.
         11    1    5    5    0    0  0.20994361424E+03  0.10780526186E+03  0.51409073326E+03  0.56567444495E+03  0.00000000000E+00 0. -1.
        -12    1    5    5    0    0  0.31186516146E+02  0.60062656107E+02  0.19578447769E+03  0.20715135324E+03  0.00000000000E+00 0.  1.
          5    1    3    3  501    0 -0.28528162100E+03 -0.84989306487E+02 -0.66032348291E+03  0.72432959347E+03  0.41800000000E+01 0.  1.
         -5    1    3    3    0  501 -0.15658732547E+03 -0.26408936622E+02 -0.63274015289E+03  0.65237611537E+03  0.41800000000E+01 0.  1.
</event>
<event>
11    1  0.1704459E-009  0.2067149E+03  0.7561462E-02  0.1049874E+00
         22   -1    0    0    0    0  0.00000000000E+00  0.00000000000E+00  0.12521947773E+03  0.12521947773E+03  0.00000000000E+00 0. -1.
         22   -1    0    0    0    0 -0.00000000000E+00 -0.00000000000E+00 -0.86904949944E+03  0.86904949944E+03  0.00000000000E+00 0. -1.
         25    2    1    2    0    0 -0.15517713564E+03  0.53276830857E+02 -0.52109103723E+03  0.56044927924E+03  0.12509660822E+03 0.  0.
        -24    2    1    2    0    0  0.15858490094E+03 -0.46781454946E+02 -0.28136847691E+03  0.33543690654E+03  0.77537237098E+02 0.  0.
         24    2    1    2    0    0 -0.34077653000E+01 -0.64953759116E+01  0.58629492424E+02  0.98382791396E+02  0.78663546122E+02 0.  0.
        -13    1    5    5    0    0  0.71783267530E+01 -0.18157730339E+02  0.73905526181E+02  0.76441208429E+02  0.00000000000E+00 0.  1.
         14    1    5    5    0    0 -0.10586092053E+02  0.11662354427E+02 -0.15276033757E+02  0.21941582967E+02  0.00000000000E+00 0. -1.
         13    1    4    4    0    0  0.52805613351E+02  0.21043370918E+02 -0.82106999948E+02  0.99863986008E+02  0.00000000000E+00 0. -1.
        -14    1    4    4    0    0  0.10577928758E+03 -0.67824825864E+02 -0.19926147696E+03  0.23557292053E+03  0.00000000000E+00 0.  1.
          5    1    3    3  501    0 -0.31873696673E+02  0.47066162768E+02 -0.58608244425E+02  0.81753011760E+02  0.41800000000E+01 0.  1.
         -5    1    3    3    0  501 -0.12330343896E+03  0.62106680899E+01 -0.46248279280E+03  0.47869626748E+03  0.41800000000E+01 0.  1.
</event>
<event>
11    1  0.1704459E-009  0.1416996E+03  0.7561462E-02  0.1105675E+00
         22   -1    0    0    0    0  0.00000000000E+00  0.00000000000E+00  0.49831985162E+03  0.49831985162E+03  0.00000000000E+00 0. -1.
         22   -1    0    0    0    0 -0.00000000000E+00 -0.00000000000E+00 -0.26823179209E+03  0.26823179209E+03  0.00000000000E+00 0. -1.
         25    2    1    2    0    0  0.35959740208E+01  0.66154778405E+02 -0.20459757802E+03  0.24879073936E+03  0.12508907757E+03 0.  0.
        -24    2    1    2    0    0  0.10452294064E+03 -0.69676508861E+01  0.16010626271E+03  0.20678264683E+03  0.78431208034E+02 0.  0.
         24    2    1    2    0    0 -0.10811891466E+03 -0.59187127519E+02  0.27457937484E+03  0.31097825752E+03  0.78235719400E+02 0.  0.
        -11    1    5    5    0    0  0.11985833170E+02 -0.11062525295E+02  0.37402384296E+02  0.40804142115E+02  0.00000000000E+00 0.  1.
         12    1    5    5    0    0 -0.12010474783E+03 -0.48124602224E+02  0.23717699054E+03  0.27017411540E+03  0.00000000000E+00 0. -1.
         13    1    4    4    0    0  0.52967779661E+02  0.12267830922E+02  0.22978534277E+02  0.59026251747E+02  0.00000000000E+00 0. -1.
        -14    1    4    4    0    0  0.51555160977E+02 -0.19235481808E+02  0.13712772843E+03  0.14775639508E+03  0.00000000000E+00 0.  1.
          5    1    3    3  501    0  0.32111070773E+02  0.62752578741E+02 -0.20791721337E+03  0.21958152705E+03  0.41800000000E+01 0. -1.
         -5    1    3    3    0  501 -0.28515096752E+02  0.34021996635E+01  0.33196353507E+01  0.29209212317E+02  0.41800000000E+01 0. -1.
</event>
<event>
11    1  0.1704459E-009  0.2265809E+03  0.7561462E-02  0.1037172E+00
         22   -1    0    0    0    0  0.00000000000E+00  0.00000000000E+00  0.17366137069E+03  0.17366137069E+03  0.00000000000E+00 0. -1.
         22   -1    0    0    0    0 -0.00000000000E+00 -0.00000000000E+00 -0.73287214070E+03  0.73287214070E+03  0.00000000000E+00 0. -1.
         25    2    1    2    0    0 -0.11146346222E+03  0.25072931882E+02 -0.36197385648E+03  0.39965793819E+03  0.12509452211E+03 0.  0.
         24    2    1    2    0    0 -0.15131029887E+03  0.14954626830E+02 -0.14092654003E+03  0.22331380422E+03  0.83007939750E+02 0.  0.
        -24    2    1    2    0    0  0.26277376109E+03 -0.40027558712E+02 -0.56310373507E+02  0.28356176899E+03  0.81142859780E+02 0.  0.
        -11    1    4    4    0    0 -0.13659512884E+03 -0.17388148982E+02 -0.11198911174E+03  0.17748841680E+03  0.00000000000E+00 0.  1.
         12    1    4    4    0    0 -0.14715170023E+02  0.32342775812E+02 -0.28937428290E+02  0.45825387419E+02  0.00000000000E+00 0. -1.
         11    1    5    5    0    0  0.26555372204E+03 -0.38169428624E+02 -0.45332403884E+02  0.27208585302E+03  0.00000000000E+00 0. -1.
        -12    1    5    5    0    0 -0.27799609494E+01 -0.18581300879E+01 -0.10977969624E+02  0.11475915970E+02  0.00000000000E+00 0.  1.
          5    1    3    3  501    0 -0.13464531404E+02 -0.43427117801E+02 -0.64481174599E+02  0.79009508568E+02  0.41800000000E+01 0.  1.
         -5    1    3    3    0  501 -0.97998930820E+02  0.68500049683E+02 -0.29749268188E+03  0.32064842962E+03  0.41800000000E+01 0.  1.
</event>
<event>
11    1  0.1704459E-009  0.1662338E+03  0.7561462E-02  0.1081356E+00
         22   -1    0    0    0    0  0.00000000000E+00  0.00000000000E+00  0.82250137272E+03  0.82250137272E+03  0.00000000000E+00 0. -1.
         22   -1    0    0    0    0 -0.00000000000E+00 -0.00000000000E+00 -0.36334315421E+03  0.36334315421E+03  0.00000000000E+00 0.  1.
         25    2    1    2    0    0  0.78032830371E+02 -0.76935705624E+02 -0.32577318950E+03  0.36576390603E+03  0.12508732367E+03 0.  0.
        -24    2    1    2    0    0 -0.11079115010E+03  0.39533868818E+02  0.48002129188E+03  0.50099824538E+03  0.82104783604E+02 0.  0.
         24    2    1    2    0    0  0.32758319725E+02  0.37401836807E+02  0.30491011613E+03  0.31908237552E+03  0.79820915410E+02 0.  0.
        -11    1    5    5    0    0  0.16383726796E+02  0.11470530456E+01  0.59212226175E+01  0.17458611391E+02  0.00000000000E+00 0.  1.
         12    1    5    5    0    0  0.16374592929E+02  0.36254783761E+02  0.29898889352E+03  0.30162376413E+03  0.00000000000E+00 0. -1.
         13    1    4    4    0    0 -0.10103595181E+03  0.60948660169E+02  0.42671902949E+03  0.44273257488E+03  0.00000000000E+00 0. -1.
        -14    1    4    4    0    0 -0.97551982810E+01 -0.21414791352E+02  0.53302262393E+02  0.58265670496E+02  0.00000000000E+00 0.  1.
          5    1    3    3  501    0 -0.14381874303E+02 -0.70797261867E+02 -0.16506003006E+03  0.18022590413E+03  0.41800000000E+01 0.  1.
         -5    1    3    3    0  501  0.92414704674E+02 -0.61384437577E+01 -0.16071315944E+03  0.18553800190E+03  0.41800000000E+01 0.  1.
</event>
<event>
11    1  0.1704459E-009  0.1959431E+03  0.7561462E-02  0.1057430E+00
         22   -1    0    0    0    0  0.00000000000E+00  0.00000000000E+00  0.24197917621E+03  0.24197917621E+03  0.00000000000E+00 0.  1.
         22   -1    0    0    0    0 -0.00000000000E+00 -0.00000000000E+00 -0.32456807988E+03  0.32456807988E+03  0.00000000000E+00 0. -1.
         25    2    1    2    0    0  0.44392335230E+02 -0.27483443246E+02 -0.80895198115E+02  0.15785660891E+03  0.12509459149E+03 0.  0.
         24    2    1    2    0    0  0.66733374576E+02 -0.14952299367E+03  0.30984854787E+02  0.18353016655E+03  0.76894680506E+02 0.  0.
        -24    2    1    2    0    0 -0.11112570981E+03  0.17700643692E+03 -0.32678560345E+02  0.22516048063E+03  0.77130743805E+02 0.  0.
        -11    1    4    4    0    0  0.46502978967E+02 -0.25977758311E+02 -0.43618184498E+01  0.53445265832E+02  0.00000000000E+00 0.  1.
         12    1    4    4    0    0  0.20230395609E+02 -0.12354523536E+03  0.35346673237E+02  0.13008490072E+03  0.00000000000E+00 0. -1.
         11    1    5    5    0    0 -0.31706640710E+02  0.46283477015E+02 -0.44698739110E+02  0.71731782271E+02  0.00000000000E+00 0. -1.
        -12    1    5    5    0    0 -0.79419069096E+02  0.13072295990E+03  0.12020178766E+02  0.15342869836E+03  0.00000000000E+00 0.  1.
          5    1    3    3  501    0  0.20660658416E+02 -0.10997171697E+02  0.32778468944E+02  0.40493221876E+02  0.41800000000E+01 0.  1.
         -5    1    3    3    0  501  0.23731676813E+02 -0.16486271549E+02 -0.11367366706E+03  0.11736338704E+03  0.41800000000E+01 0.  1.
</event>
<event>
11    1  0.1704459E-009  0.1539157E+03  0.7561462E-02  0.1092944E+00
         22   -1    0    0    0    0  0.00000000000E+00  0.00000000000E+00  0.46881275297E+03  0.46881275297E+03  0.00000000000E+00 0.  1.
         22   -1    0    0    0    0 -0.00000000000E+00 -0.00000000000E+00 -0.90993854661E+02  0.90993854661E+02  0.00000000000E+00 0. -1.
         25    2    1    2    0    0  0.23813057958E+02  0.52969126720E+02  0.13450856758E+03  0.19264683449E+03  0.12508979962E+03 0.  0.
        -24    2    1    2    0    0 -0.10643463534E+03 -0.60755442644E+02  0.92446473673E+02  0.17799588373E+03  0.90092334409E+02 0.  0.
         24    2    1    2    0    0  0.82621577386E+02  0.77863159240E+01  0.15086385706E+03  0.18916388942E+03  0.78333402370E+02 0.  0.
        -13    1    5    5    0    0  0.93184842782E+01  0.17952466206E+02  0.93134542774E+02  0.95305656966E+02  0.00000000000E+00 0.  1.
         14    1    5    5    0    0  0.73303093108E+02 -0.10166150282E+02  0.57729314285E+02  0.93858232450E+02  0.00000000000E+00 0. -1.
         13    1    4    4    0    0 -0.20854823328E+02 -0.13535764377E+02 -0.17861949636E+02  0.30613556117E+02  0.00000000000E+00 0. -1.
        -14    1    4    4    0    0 -0.85579812017E+02 -0.47219678267E+02  0.11030842331E+03  0.14738232762E+03  0.00000000000E+00 0.  1.
          5    1    3    3  501    0 -0.31408916861E+02 -0.40189069109E+01  0.10183697487E+03  0.10672822270E+03  0.41800000000E+01 0.  1.
         -5    1    3    3    0  501  0.55221974819E+02  0.56988033631E+02  0.32671592711E+02  0.85918611781E+02  0.41800000000E+01 0.  1.
</event>
<event>
11    1  0.1704459E-009  0.1829956E+03  0.7561462E-02  0.1067245E+00
         22   -1    0    0    0    0  0.00000000000E+00  0.00000000000E+00  0.40012788867E+03  0.40012788867E+03  0.00000000000E+00 0.  1.
         22   -1    0    0    0    0 -0.00000000000E+00 -0.00000000000E+00 -0.16427623774E+03  0.16427623774E+03  0.00000000000E+00 0. -1.
         25    2    1    2    0    0 -0.60409660883E+02 -0.11988125676E+03  0.56841133406E+02  0.19209287922E+03  0.12509163422E+03 0.  0.
        -24    2    1    2    0    0 -0.58459778491E+02  0.15066104982E+03  0.11095969816E+03  0.21178328241E+03  0.80148652254E+02 0.  0.
         24    2    1    2    0    0  0.11886943937E+03 -0.30779793058E+02  0.68050819360E+02  0.16052796478E+03  0.77852258682E+02 0.  0.
        -11    1    5    5    0    0  0.13479632708E+02  0.20613013419E+02 -0.63693791927E+00  0.24637420930E+02  0.00000000000E+00 0.  1.
         12    1    5    5    0    0  0.10538980667E+03 -0.51392806478E+02  0.68687757280E+02  0.13589054385E+03  0.00000000000E+00 0. -1.
         13    1    4    4    0    0 -0.72051680472E+02  0.80429309235E+02  0.76814224722E+02  0.13251695575E+03  0.00000000000E+00 0. -1.
        -14    1    4    4    0    0  0.13591901981E+02  0.70231740582E+02  0.34145473437E+02  0.79266326652E+02  0.00000000000E+00 0.  1.
          5    1    3    3  501    0 -0.43085825012E+02 -0.13853944354E+03  0.72153308374E+02  0.16208990728E+03  0.41800000000E+01 0. -1.
         -5    1    3    3    0  501 -0.17323835872E+02  0.18658186780E+02 -0.15312174968E+02  0.30002971944E+02  0.41800000000E+01 0. -1.
</event>
<event>
11    1  0.1704459E-009  0.1457083E+03  0.7561462E-02  0.1101346E+00
         22   -1    0    0    0    0  0.00000000000E+00  0.00000000000E+00  0.74297477133E+03  0.74297477133E+03  0.00000000000E+00 0.  1.
         22   -1    0    0    0    0 -0.00000000000E+00 -0.00000000000E+00 -0.98408865751E+02  0.98408865751E+02  0.00000000000E+00 0. -1.
         25    2    1    2    0    0 -0.47000571900E+02  0.47155852544E+02 -0.10506183366E+02  0.14208565279E+03  0.12508087245E+03 0.  0.
        -24    2    1    2    0    0  0.55161775301E+02 -0.88484623121E+02  0.20571136361E+03  0.24115743001E+03  0.70479720119E+02 0.  0.
         24    2    1    2    0    0 -0.81612034007E+01  0.41328770576E+02  0.44936072534E+03  0.45814055428E+03  0.78695828865E+02 0.  0.
        -13    1    5    5    0    0  0.28506898321E+02  0.35527841888E+02  0.33030441380E+03  0.33343046738E+03  0.00000000000E+00 0.  1.
         14    1    5    5    0    0 -0.36668101722E+02  0.58009286890E+01  0.11905631154E+03  0.12471008690E+03  0.00000000000E+00 0. -1.
         13    1    4    4    0    0 -0.12518982552E+02 -0.85520548048E+01  0.73639874911E+01  0.16854995618E+02  0.00000000000E+00 0. -1.
        -14    1    4    4    0    0  0.67680757853E+02 -0.79932568316E+02  0.19834737612E+03  0.22430243439E+03  0.00000000000E+00 0.  1.
          5    1    3    3  501    0  0.16533781058E+02  0.54208037765E+02 -0.42036664646E+02  0.70685435904E+02  0.41800000000E+01 0.  1.
         -5    1    3    3    0  501 -0.63534352958E+02 -0.70521852208E+01  0.31530481280E+02  0.71400216890E+02  0.41800000000E+01 0.  1.
</event>
<event>
11    1  0.1704459E-009  0.1508962E+03  0.7561462E-02  0.1095967E+00
         22   -1    0    0    0    0  0.00000000000E+00  0.00000000000E+00  0.35502467535E+03  0.35502467535E+03  0.00000000000E+00 0. -1.
         22   -1    0    0    0    0 -0.00000000000E+00 -0.00000000000E+00 -0.31423796158E+03  0.31423796158E+03  0.00000000000E+00 0. -1.
         25    2    1    2    0    0 -0.47500237761E+02 -0.98081129341E+00 -0.17435635839E+03  0.21978406654E+03  0.12509061363E+03 0.  0.
        -24    2    1    2    0    0 -0.38884692961E+02 -0.29610103613E+01 -0.87704906307E+02  0.12437983826E+03  0.79103771378E+02 0.  0.
         24    2    1    2    0    0  0.86384930723E+02  0.39418216547E+01  0.30284797846E+03  0.32509873212E+03  0.80587799057E+02 0.  0.
        -11    1    5    5    0    0  0.11876603903E+02  0.12928400892E+02  0.54565016638E+01  0.18383978903E+02  0.00000000000E+00 0.  1.
         12    1    5    5    0    0  0.74508326820E+02 -0.89865792375E+01  0.29739147680E+03  0.30671475322E+03  0.00000000000E+00 0. -1.
         13    1    4    4    0    0  0.18568530931E+02  0.17653557309E+02 -0.37122019841E+02  0.45105241200E+02  0.00000000000E+00 0. -1.
        -14    1    4    4    0    0 -0.57453223893E+02 -0.20614567670E+02 -0.50582886466E+02  0.79274597061E+02  0.00000000000E+00 0.  1.
          5    1    3    3  501    0  0.17661195250E+02  0.43065678112E+01 -0.14800149091E+03  0.14917230995E+03  0.41800000000E+01 0. -1.
         -5    1    3    3    0  501 -0.65161433011E+02 -0.52873791046E+01 -0.26354867484E+02  0.70611756599E+02  0.41800000000E+01 0. -1.
</event>
<event>
11    1  0.1704459E-009  0.2389323E+03  0.7561462E-02  0.1029966E+00
         22   -1    0    0    0    0  0.00000000000E+00  0.00000000000E+00  0.14868370502E+04  0.14868370502E+04  0.00000000000E+00 0. -1.
         22   -1    0    0    0    0 -0.00000000000E+00 -0.00000000000E+00 -0.16079020079E+03  0.16079020079E+03  0.00000000000E+00 0. -1.
         25    2    1    2    0    0  0.64074636610E+02  0.67676946009E+02 -0.45833831136E+02  0.16258684501E+03  0.12509202219E+03 0.  0.
         24    2    1    2    0    0  0.13548539702E+03  0.76929370858E+02  0.13494646998E+03  0.22117884246E+03  0.80219135408E+02 0.  0.
        -24    2    1    2    0    0 -0.19956003363E+03 -0.14460631687E+03  0.12369342106E+04  0.12638615636E+04  0.81268792253E+02 0.  0.
        -11    1    4    4    0    0  0.74129888994E+02  0.20872068550E+01  0.34820920197E+02  0.81927366356E+02  0.00000000000E+00 0.  1.
         12    1    4    4    0    0  0.61355508029E+02  0.74842164003E+02  0.10012554979E+03  0.13925147611E+03  0.00000000000E+00 0. -1.
         13    1    5    5    0    0 -0.89958604123E+02 -0.10004062742E+03  0.51433097246E+03  0.53163617900E+03  0.00000000000E+00 0. -1.
        -14    1    5    5    0    0 -0.10960142951E+03 -0.44565689451E+02  0.72260323813E+03  0.73222538455E+03  0.00000000000E+00 0.  1.
          5    1    3    3  501    0  0.10192145641E+03  0.43555685419E+02 -0.32253721637E+02  0.11551128070E+03  0.41800000000E+01 0.  1.
         -5    1    3    3    0  501 -0.37846819799E+02  0.24121260591E+02 -0.13580109499E+02  0.47075564313E+02  0.41800000000E+01 0.  1.
</event>
<event>
11    1  0.1704459E-009  0.1933680E+03  0.7561462E-02  0.1059315E+00
         22   -1    0    0    0    0  0.00000000000E+00  0.00000000000E+00  0.41399737666E+03  0.41399737666E+03  0.00000000000E+00 0.  1.
         22   -1    0    0    0    0 -0.00000000000E+00 -0.00000000000E+00 -0.19904146486E+03  0.19904146486E+03  0.00000000000E+00 0.  1.
         25    2    1    2    0    0 -0.13303739865E+03 -0.17859688344E+02 -0.35322758767E+02  0.18685093497E+03  0.12509059399E+03 0.  0.
         24    2    1    2    0    0  0.17900694851E+03 -0.68862344156E+02  0.10673010082E+03  0.23387445947E+03  0.80749231047E+02 0.  0.
        -24    2    1    2    0    0 -0.45969549858E+02  0.86722032500E+02  0.14354856975E+03  0.19231344709E+03  0.82124050181E+02 0.  0.
        -13    1    4    4    0    0  0.17862126305E+03 -0.80180900280E+02  0.10570220337E+03  0.22250278241E+03  0.00000000000E+00 0.  1.
         14    1    4    4    0    0  0.38568546135E+00  0.11318556124E+02  0.10278974472E+01  0.11371677061E+02  0.00000000000E+00 0. -1.
         13    1    5    5    0    0  0.14301760802E+02 -0.14366362351E+01  0.44112674091E+02  0.46395390948E+02  0.00000000000E+00 0. -1.
        -14    1    5    5    0    0 -0.60271310661E+02  0.88158668736E+02  0.99435895658E+02  0.14591805614E+03  0.00000000000E+00 0.  1.
          5    1    3    3  501    0 -0.13548228102E+03  0.25496923277E+02 -0.15044057922E+02  0.13874198228E+03  0.41800000000E+01 0. -1.
         -5    1    3    3    0  501  0.24448823740E+01 -0.43356611621E+02 -0.20278700845E+02  0.48108952691E+02  0.41800000000E+01 0. -1.
</event>
<event>
11    1  0.1704459E-009  0.2300379E+03  0.7561462E-02  0.1035106E+00
         22   -1    0    0    0    0  0.00000000000E+00  0.00000000000E+00  0.12243365040E+04  0.12243365040E+04  0.00000000000E+00 0.  1.
         22   -1    0    0    0    0 -0.00000000000E+00 -0.00000000000E+00 -0.40389497029E+03  0.40389497029E+03  0.00000000000E+00 0. -1.
         25    2    1    2    0    0 -0.28040284908E+02 -0.18888584240E+03 -0.10190063749E+03  0.24998896387E+03  0.12508646249E+03 0.  0.
        -24    2    1    2    0    0 -0.31448631994E+02  0.19578274793E+03 -0.17350178357E+03  0.27771348577E+03  0.87761098643E+02 0.  0.
         24    2    1    2    0    0  0.59488916902E+02 -0.68969055310E+01  0.10958439547E+04  0.11005290246E+04  0.81875896140E+02 0.  0.
        -11    1    5    5    0    0  0.77956479245E+02 -0.89978699528E+01  0.98652738156E+03  0.98964359690E+03  0.00000000000E+00 0.  1.
         12    1    5    5    0    0 -0.18467562342E+02  0.21009644219E+01  0.10931657318E+03  0.11088542772E+03  0.00000000000E+00 0. -1.
         13    1    4    4    0    0 -0.56555364722E+02  0.98668757822E+02 -0.11429170897E+03  0.16123469784E+03  0.00000000000E+00 0. -1.
        -14    1    4    4    0    0  0.25106732728E+02  0.97113990110E+02 -0.59210074602E+02  0.11647878793E+03  0.00000000000E+00 0.  1.
          5    1    3    3  501    0 -0.23968697045E+02 -0.19877904761E+03 -0.11628953812E+03  0.23157792918E+03  0.41800000000E+01 0.  1.
         -5    1    3    3    0  501 -0.40715878626E+01  0.98932052099E+01  0.14388900627E+02  0.18411034689E+02  0.41800000000E+01 0.  1.
</event>
<event>
11    1  0.1704459E-009  0.1960150E+03  0.7561462E-02  0.1057378E+00
         22   -1    0    0    0    0  0.00000000000E+00  0.00000000000E+00  0.85443575313E+02  0.85443575313E+02  0.00000000000E+00 0.  1.
         22   -1    0    0    0    0 -0.00000000000E+00 -0.00000000000E+00 -0.10523934187E+04  0.10523934187E+04  0.00000000000E+00 0. -1.
         25    2    1    2    0    0 -0.91137264179E+02 -0.71267620777E+02 -0.41614470988E+03  0.44967681476E+03  0.12509094084E+03 0.  0.
         24    2    1    2    0    0  0.17424384211E+03  0.86564570360E+02 -0.53532751396E+03  0.57531434339E+03  0.80973484270E+02 0.  0.
        -24    2    1    2    0    0 -0.83106577928E+02 -0.15296949583E+02 -0.15477619553E+02  0.11284583587E+03  0.73170526878E+02 0.  0.
        -11    1    4    4    0    0  0.18156077039E+03  0.86684653836E+02 -0.49494909398E+03  0.53427815620E+03  0.00000000000E+00 0.  1.
         12    1    4    4    0    0 -0.73169282825E+01 -0.12008347637E+00 -0.40378419976E+02  0.41036187192E+02  0.00000000000E+00 0. -1.
         11    1    5    5    0    0 -0.35732226626E+02 -0.25443299132E+02 -0.39265627525E+02  0.58872259981E+02  0.00000000000E+00 0. -1.
        -12    1    5    5    0    0 -0.47374351302E+02  0.10146349548E+02  0.23788007972E+02  0.53973575884E+02  0.00000000000E+00 0.  1.
          5    1    3    3  501    0 -0.59725964279E+02 -0.10615589816E+03 -0.32429958214E+03  0.34644473860E+03  0.41800000000E+01 0. -1.
         -5    1    3    3    0  501 -0.31411299899E+02  0.34888277385E+02 -0.91845127735E+02  0.10323207616E+03  0.41800000000E+01 0. -1.
</event>
<event>
11    1  0.1704459E-009  0.1369203E+03  0.7561462E-02  0.1111047E+00
         22   -1    0    0    0    0  0.00000000000E+00  0.00000000000E+00  0.19489572108E+03  0.19489572108E+03  0.00000000000E+00 0. -1.
         22   -1    0    0    0    0 -0.00000000000E+00 -0.00000000000E+00 -0.46796887445E+03  0.46796887445E+03  0.00000000000E+00 0. -1.
         25    2    1    2    0    0  0.59041362085E+02  0.40592102567E+02 -0.24772679938E+03  0.28661728381E+03  0.12508916428E+03 0.  0.
        -24    2    1    2    0    0 -0.36341228153E+01 -0.45942485944E+02 -0.17406948830E+03  0.19746780011E+03  0.81051998504E+02 0.  0.
         24    2    1    2    0    0 -0.55407239270E+02  0.53503833776E+01  0.14872313431E+03  0.17877951162E+03  0.82127670923E+02 0.  0.
        -13    1    5    5    0    0 -0.64787746296E+01 -0.33455417479E+02  0.33867169151E+02  0.48043986364E+02  0.00000000000E+00 0.  1.
         14    1    5    5    0    0 -0.48928464640E+02  0.38805800857E+02  0.11485596515E+03  0.13073552525E+03  0.00000000000E+00 0. -1.
         13    1    4    4    0    0  0.25436282385E+02 -0.56725278400E+02 -0.11262462484E+03  0.12864318012E+03  0.00000000000E+00 0. -1.
        -14    1    4    4    0    0 -0.29070405200E+02  0.10782792456E+02 -0.61444863454E+02  0.68824619989E+02  0.00000000000E+00 0.  1.
          5    1    3    3  501    0  0.67541395062E+02 -0.81662260013E+01 -0.21872658946E+03  0.22910111442E+03  0.41800000000E+01 0.  1.
         -5    1    3    3    0  501 -0.85000329766E+01  0.48758328568E+02 -0.29000209920E+02  0.57516169385E+02  0.41800000000E+01 0.  1.
</event>
<event>
11    1  0.1704459E-009  0.2363371E+03  0.7561462E-02  0.1031440E+00
         22   -1    0    0    0    0  0.00000000000E+00  0.00000000000E+00  0.37029558031E+03  0.37029558031E+03  0.00000000000E+00 0. -1.
         22   -1    0    0    0    0 -0.00000000000E+00 -0.00000000000E+00 -0.86111333797E+03  0.86111333797E+03  0.00000000000E+00 0. -1.
         25    2    1    2    0    0 -0.45701376398E+02 -0.16479321932E+03 -0.34700515160E+03  0.40658307517E+03  0.12510715743E+03 0.  0.
        -24    2    1    2    0    0  0.22085919276E+03  0.16304378061E+03 -0.40727559187E+03  0.49781561562E+03  0.81147532282E+02 0.  0.
         24    2    1    2    0    0 -0.17515781637E+03  0.17494387133E+01  0.26346298581E+03  0.32701022750E+03  0.82702012224E+02 0.  0.
        -11    1    5    5    0    0 -0.51570303452E+02 -0.14305295360E+02  0.14699217041E+03  0.15643156918E+03  0.00000000000E+00 0.  1.
         12    1    5    5    0    0 -0.12358751291E+03  0.16054734073E+02  0.11647081540E+03  0.17057865832E+03  0.00000000000E+00 0. -1.
         11    1    4    4    0    0  0.21616994053E+03  0.13230665668E+03 -0.37804594080E+03  0.45514088802E+03  0.00000000000E+00 0. -1.
        -12    1    4    4    0    0  0.46892522318E+01  0.30737123926E+02 -0.29229651065E+02  0.42674727593E+02  0.00000000000E+00 0.  1.
          5    1    3    3  501    0 -0.61043218478E+02 -0.73732570885E+02 -0.82661983494E+02  0.12654344095E+03  0.41800000000E+01 0. -1.
         -5    1    3    3    0  501  0.15341842080E+02 -0.91060648439E+02 -0.26434316811E+03  0.28003963422E+03  0.41800000000E+01 0. -1.
</event>
<event>
11    1  0.1704459E-009  0.1409903E+03  0.7561462E-02  0.1106458E+00
         22   -1    0    0    0    0  0.00000000000E+00  0.00000000000E+00  0.40339066114E+03  0.40339066114E+03  0.00000000000E+00 0. -1.
         22   -1    0    0    0    0 -0.00000000000E+00 -0.00000000000E+00 -0.20274294259E+03  0.20274294259E+03  0.00000000000E+00 0.  1.
         25    2    1    2    0    0 -0.14722559829E+01  0.65717006256E+02 -0.60416715816E+02  0.15368335904E+03  0.12508997900E+03 0.  0.
        -24    2    1    2    0    0  0.10493308253E+02 -0.63962418295E+02 -0.54730096921E+02  0.12177534939E+03  0.87364476412E+02 0.  0.
         24    2    1    2    0    0 -0.90210522698E+01 -0.17545879611E+01  0.31579453128E+03  0.33067489529E+03  0.97648565903E+02 0.  0.
        -13    1    5    5    0    0 -0.30673537571E+01  0.26413065704E+02  0.19473848135E+02  0.32958905627E+02  0.00000000000E+00 0.  1.
         14    1    5    5    0    0 -0.59536985127E+01 -0.28167653665E+02  0.29632068315E+03  0.29771598966E+03  0.00000000000E+00 0. -1.
         13    1    4    4    0    0 -0.32789718257E+01 -0.38645397557E+02  0.18578889676E+02  0.43004575921E+02  0.00000000000E+00 0. -1.
        -14    1    4    4    0    0  0.13772280078E+02 -0.25317020738E+02 -0.73308986597E+02  0.78770773473E+02  0.00000000000E+00 0.  1.
          5    1    3    3  501    0  0.12317559261E+02  0.51302165653E+02 -0.97744559272E+02  0.11115352326E+03  0.41800000000E+01 0. -1.
         -5    1    3    3    0  501 -0.13789815243E+02  0.14414840604E+02  0.37327843456E+02  0.42529835776E+02  0.41800000000E+01 0. -1.
</event>
<event>
11    1  0.1704459E-009  0.1613831E+03  0.7561462E-02  0.1085784E+00
         22   -1    0    0    0    0  0.00000000000E+00  0.00000000000E+00  0.59324571579E+03  0.59324571579E+03  0.00000000000E+00 0. -1.
         22   -1    0    0    0    0 -0.00000000000E+00 -0.00000000000E+00 -0.60303801262E+03  0.60303801262E+03  0.00000000000E+00 0.  1.
         25    2    1    2    0    0 -0.87664288410E+02  0.51223265671E+02 -0.56639375131E+03  0.58887237194E+03  0.12513967601E+03 0.  0.
        -24    2    1    2    0    0  0.80025883535E+02 -0.91296691327E+02  0.39306083238E+03  0.41899413437E+03  0.79498671669E+02 0.  0.
         24    2    1    2    0    0  0.76384048752E+01  0.40073425656E+02  0.16354062209E+03  0.18841722210E+03  0.84209796555E+02 0.  0.
        -11    1    5    5    0    0 -0.36973313944E+02  0.29910469942E+02  0.90348088851E+02  0.10210014356E+03  0.00000000000E+00 0.  1.
         12    1    5    5    0    0  0.44611718819E+02  0.10162955713E+02  0.73192533242E+02  0.86317078538E+02  0.00000000000E+00 0. -1.
         13    1    4    4    0    0  0.80463257304E+02 -0.44595859351E+02  0.31369993464E+03  0.32691095950E+03  0.00000000000E+00 0. -1.
        -14    1    4    4    0    0 -0.43737376956E+00 -0.46700831976E+02  0.79360897737E+02  0.92083174862E+02  0.00000000000E+00 0.  1.
          5    1    3    3  501    0 -0.85398521736E+02 -0.15189265559E+02 -0.22772692677E+03  0.24372247923E+03  0.41800000000E+01 0.  1.
         -5    1    3    3    0  501 -0.22657666745E+01  0.66412531231E+02 -0.33866682453E+03  0.34514989272E+03  0.41800000000E+01 0.  1.
</event>
<event>
11    1  0.1704459E-009  0.6203710E+03  0.7561462E-02  0.9158650E-01
         22   -1    0    0    0    0  0.00000000000E+00  0.00000000000E+00  0.55929050288E+03  0.55929050288E+03  0.00000000000E+00 0. -1.
         22   -1    0    0    0    0 -0.00000000000E+00 -0.00000000000E+00 -0.14035295112E+04  0.14035295112E+04  0.00000000000E+00 0.  1.
         25    2    1    2    0    0  0.26047181049E+03  0.58708349060E+03 -0.25077885406E+03  0.70074990827E+03  0.12509121198E+03 0.  0.
         24    2    1    2    0    0 -0.27431623480E+03 -0.52573615463E+03 -0.81938219843E+03  0.10143346979E+04  0.76418526573E+02 0.  0.
        -24    2    1    2    0    0  0.13844424314E+02 -0.61347335962E+02  0.22592204415E+03  0.24773540796E+03  0.79855485794E+02 0.  0.
        -13    1    4    4    0    0 -0.16994743011E+03 -0.39907899209E+03 -0.59866883111E+03  0.73929056552E+03  0.00000000000E+00 0.  1.
         14    1    4    4    0    0 -0.10436880470E+03 -0.12665716255E+03 -0.22071336732E+03  0.27504413234E+03  0.00000000000E+00 0. -1.
         13    1    5    5    0    0  0.67811202894E+01 -0.70866314209E+02  0.22483032663E+03  0.23583191865E+03  0.00000000000E+00 0. -1.
        -14    1    5    5    0    0  0.70633040250E+01  0.95189782472E+01  0.10917175180E+01  0.11903489310E+02  0.00000000000E+00 0.  1.
          5    1    3    3  501    0  0.22833242119E+03  0.56411088604E+03 -0.25684564322E+03  0.66056335288E+03  0.41800000000E+01 0. -1.
         -5    1    3    3    0  501  0.32139389294E+02  0.22972604552E+02  0.60667891603E+01  0.40186555399E+02  0.41800000000E+01 0. -1.
</event>
<event>
11    1  0.1704459E-009  0.5141656E+03  0.7561462E-02  0.9362413E-01
         22   -1    0    0    0    0  0.00000000000E+00  0.00000000000E+00  0.18611515783E+04  0.18611515783E+04  0.00000000000E+00 0.  1.
         22   -1    0    0    0    0 -0.00000000000E+00 -0.00000000000E+00 -0.78457996596E+03  0.78457996596E+03  0.00000000000E+00 0.  1.
         25    2    1    2    0    0 -0.26516326283E+03  0.43250695281E+03 -0.57886682454E+03  0.77981276233E+03  0.12508926231E+03 0.  0.
        -24    2    1    2    0    0 -0.14917201008E+03 -0.24974099301E+03  0.26844394178E+03  0.40435927989E+03  0.82591919536E+02 0.  0.
         24    2    1    2    0    0  0.41433527292E+03 -0.18276595981E+03  0.13869944951E+04  0.14615595020E+04  0.85588165667E+02 0.  0.
        -13    1    5    5    0    0  0.24754378691E+03 -0.70592733703E+02  0.70315467940E+03  0.74879086777E+03  0.00000000000E+00 0.  1.
         14    1    5    5    0    0  0.16679148601E+03 -0.11217322610E+03  0.68383981568E+03  0.71276863425E+03  0.00000000000E+00 0. -1.
         11    1    4    4    0    0 -0.21240442577E+02 -0.11139719249E+02  0.13094217822E+01  0.24020081832E+02  0.00000000000E+00 0. -1.
        -12    1    4    4    0    0 -0.12793156751E+03 -0.23860127376E+03  0.26713452000E+03  0.38033919806E+03  0.00000000000E+00 0.  1.
          5    1    3    3  501    0 -0.82874865798E+02  0.96216835022E+02 -0.76255406766E+02  0.14818327228E+03  0.41800000000E+01 0. -1.
         -5    1    3    3    0  501 -0.18228839704E+03  0.33629011779E+03 -0.50261141778E+03  0.63162949005E+03  0.41800000000E+01 0. -1.
</event>
<event>
11    1  0.1704459E-009  0.1384933E+03  0.7561462E-02  0.1109253E+00
         22   -1    0    0    0    0  0.00000000000E+00  0.00000000000E+00  0.55063154980E+02  0.55063154980E+02  0.00000000000E+00 0. -1.
         22   -1    0    0    0    0 -0.00000000000E+00 -0.00000000000E+00 -0.51268056009E+03  0.51268056009E+03  0.00000000000E+00 0. -1.
         25    2    1    2    0    0 -0.69808457793E+02  0.55207106447E+01 -0.25584220131E+03  0.29326438767E+03  0.12508025456E+03 0.  0.
         24    2    1    2    0    0  0.27331292600E+02  0.28032745902E+02 -0.95148172895E+02  0.13030798372E+03  0.79963500534E+02 0.  0.
        -24    2    1    2    0    0  0.42477165193E+02 -0.33553456547E+02 -0.10662703091E+03  0.14417134368E+03  0.80535138974E+02 0.  0.
        -13    1    4    4    0    0 -0.16911543984E+02  0.34386326540E+02 -0.20912179549E+02  0.43654770945E+02  0.00000000000E+00 0.  1.
         14    1    4    4    0    0  0.44242836584E+02 -0.63535806377E+01 -0.74235993347E+02  0.86653212774E+02  0.00000000000E+00 0. -1.
         11    1    5    5    0    0  0.23978391897E+02 -0.57165361821E+02 -0.91646182392E+02  0.11064296009E+03  0.00000000000E+00 0. -1.
        -12    1    5    5    0    0  0.18498773297E+02  0.23611905274E+02 -0.14980848518E+02  0.33528383595E+02  0.00000000000E+00 0.  1.
          5    1    3    3  501    0 -0.28069116963E+02 -0.50234039337E+02 -0.18517998951E+03  0.19395987974E+03  0.41800000000E+01 0. -1.
         -5    1    3    3    0  501 -0.41739340831E+02  0.55754749982E+02 -0.70662211797E+02  0.99304507927E+02  0.41800000000E+01 0. -1.
</event>
<event>
11    1  0.1704459E-009  0.1425631E+04  0.7561462E-02  0.8354548E-01
         22   -1    0    0    0    0  0.00000000000E+00  0.00000000000E+00  0.88609339670E+03  0.88609339670E+03  0.00000000000E+00 0.  1.
         22   -1    0    0    0    0 -0.00000000000E+00 -0.00000000000E+00 -0.57342270985E+03  0.57342270985E+03  0.00000000000E+00 0.  1.
         25    2    1    2    0    0  0.26577465163E+03 -0.23907631918E+03 -0.45553948429E+03  0.59241564247E+03  0.12508565007E+03 0.  0.
         24    2    1    2    0    0 -0.21408577853E+03  0.17001370395E+03  0.55370714722E+03  0.62261395440E+03  0.79493089218E+02 0.  0.
        -24    2    1    2    0    0 -0.51688873100E+02  0.69062615231E+02  0.21450302393E+03  0.24448650968E+03  0.79502966708E+02 0.  0.
        -13    1    4    4    0    0 -0.29565965471E+02  0.66806252140E+02  0.15324379087E+03  0.16976713781E+03  0.00000000000E+00 0.  1.
         14    1    4    4    0    0 -0.18451981306E+03  0.10320745181E+03  0.40046335635E+03  0.45284681660E+03  0.00000000000E+00 0. -1.
         11    1    5    5    0    0 -0.69235623225E+02  0.58389876407E+02  0.13642123900E+03  0.16374890424E+03  0.00000000000E+00 0. -1.
        -12    1    5    5    0    0  0.17546750125E+02  0.10672738825E+02  0.78081784930E+02  0.80737605438E+02  0.00000000000E+00 0.  1.
          5    1    3    3  501    0  0.24764847429E+03 -0.24526990677E+03 -0.38568958172E+03  0.51986634805E+03  0.41800000000E+01 0.  1.
         -5    1    3    3    0  501  0.18126177334E+02  0.61935875877E+01 -0.69849902567E+02  0.72549294418E+02  0.41800000000E+01 0.  1.
</event>
<event>
11    1  0.1704459E-009  0.1888423E+03  0.7561462E-02  0.1062707E+00
         22   -1    0    0    0    0  0.00000000000E+00  0.00000000000E+00  0.14283963631E+04  0.14283963631E+04  0.00000000000E+00 0. -1.
         22   -1    0    0    0    0 -0.00000000000E+00 -0.00000000000E+00 -0.11128174269E+04  0.11128174269E+04  0.00000000000E+00 0. -1.
         25    2    1    2    0    0 -0.43414249068E+02 -0.71647316981E+02 -0.92575049057E+03  0.93791238271E+03  0.12509009473E+03 0.  0.
         24    2    1    2    0    0 -0.80298129133E+02  0.23133689508E+01 -0.15801588863E+03  0.19454212467E+03  0.80152828971E+02 0.  0.
        -24    2    1    2    0    0  0.12371237820E+03  0.69333948031E+02  0.13993453153E+04  0.14087592826E+04  0.79520160566E+02 0.  0.
        -13    1    4    4    0    0 -0.94735292296E+02  0.12385507644E+02 -0.13853687669E+03  0.16828738102E+03  0.00000000000E+00 0.  1.
         14    1    4    4    0    0  0.14437163163E+02 -0.10072138694E+02 -0.19479011944E+02  0.26254743655E+02  0.00000000000E+00 0. -1.
         13    1    5    5    0    0  0.13270180397E+03  0.65267724488E+02  0.13660926021E+04  0.13740737397E+04  0.00000000000E+00 0. -1.
        -14    1    5    5    0    0 -0.89894257645E+01  0.40662235425E+01  0.33252713223E+02  0.34685542899E+02  0.00000000000E+00 0.  1.
          5    1    3    3  501    0 -0.24165668380E+02 -0.74113874597E+02 -0.90779519693E+03  0.91114567326E+03  0.41800000000E+01 0. -1.
         -5    1    3    3    0  501 -0.19248580688E+02  0.24665576155E+01 -0.17955293638E+02  0.26766709447E+02  0.41800000000E+01 0. -1.
</event>
<event>
11    1  0.1704459E-009  0.4523467E+03  0.7561462E-02  0.9506800E-01
         22   -1    0    0    0    0  0.00000000000E+00  0.00000000000E+00  0.14758884591E+04  0.14758884591E+04  0.00000000000E+00 0.  1.
         22   -1    0    0    0    0 -0.00000000000E+00 -0.00000000000E+00 -0.38791287597E+03  0.38791287597E+03  0.00000000000E+00 0.  1.
         25    2    1    2    0    0  0.39153761984E+03  0.22321161935E+03 -0.39895991618E+02  0.46943015687E+03  0.12509135572E+03 0.  0.
         24    2    1    2    0    0 -0.46443882618E+03  0.96814948977E+02  0.62293517139E+03  0.78718114722E+03  0.80804536866E+02 0.  0.
        -24    2    1    2    0    0  0.72901206338E+02 -0.32002656832E+03  0.50493640340E+03  0.60719003101E+03  0.77378110365E+02 0.  0.
        -11    1    4    4    0    0 -0.33467268811E+03  0.75826550623E+02  0.38804602572E+03  0.51801080300E+03  0.00000000000E+00 0.  1.
         12    1    4    4    0    0 -0.12976613806E+03  0.20988398353E+02  0.23488914567E+03  0.26917034422E+03  0.00000000000E+00 0. -1.
         11    1    5    5    0    0  0.15039961752E+02 -0.21579163351E+03  0.29572994832E+03  0.36639927930E+03  0.00000000000E+00 0. -1.
        -12    1    5    5    0    0  0.57861244586E+02 -0.10423493482E+03  0.20920645508E+03  0.24079075171E+03  0.00000000000E+00 0.  1.
          5    1    3    3  501    0  0.27352690969E+03  0.12423533859E+03 -0.78611251594E+02  0.31056173453E+03  0.41800000000E+01 0. -1.
         -5    1    3    3    0  501  0.11801071015E+03  0.98976280755E+02  0.38715259976E+02  0.15886842234E+03  0.41800000000E+01 0. -1.
</event>
<event>
11    1  0.2616871E-009  0.7839583E+03  0.7561462E-02  0.8916974E-01
         22   -1    0    0    0    0  0.00000000000E+00  0.00000000000E+00  0.47228457607E+03  0.47228457607E+03  0.00000000000E+00 0.  1.
         22   -1    0    0    0    0 -0.00000000000E+00 -0.00000000000E+00 -0.24157777424E+04  0.24157777424E+04  0.00000000000E+00 0.  1.
         25    2    1    2    0    0 -0.72109150848E+03  0.28326428779E+03 -0.18318617133E+04  0.19928815419E+04  0.12509149746E+03 0.  0.
        -24    2    1    2    0    0  0.70004451984E+03 -0.32372277459E+03 -0.41807876608E+02  0.77652175066E+03  0.79870934349E+02 0.  0.
         24    2    1    2    0    0  0.21046988639E+02  0.40458486799E+02 -0.69823576430E+02  0.11865902601E+03  0.84408339296E+02 0.  0.
        -11    1    5    5    0    0 -0.32362392812E+02  0.10639229357E+02 -0.18236889604E+02  0.38640675618E+02  0.00000000000E+00 0.  1.
         12    1    5    5    0    0  0.53409381451E+02  0.29819257442E+02 -0.51586686825E+02  0.80018350389E+02  0.00000000000E+00 0. -1.
         11    1    4    4    0    0  0.44213510859E+02 -0.44074620605E+02 -0.38960103457E+01  0.62550664430E+02  0.00000000000E+00 0. -1.
        -12    1    4    4    0    0  0.65583100898E+03 -0.27964815399E+03 -0.37911866262E+02  0.71397108623E+03  0.00000000000E+00 0.  1.
          5    1    3    3  501    0 -0.52582224766E+03  0.14593649637E+03 -0.12490106803E+04  0.13630229819E+04  0.41800000000E+01 0.  1.
         -5    1    3    3    0  501 -0.19526926081E+03  0.13732779143E+03 -0.58285103298E+03  0.62985855997E+03  0.41800000000E+01 0.  1.
</event>
<event>
11    1  0.1704459E-009  0.5701786E+03  0.7561462E-02  0.9249075E-01
         22   -1    0    0    0    0  0.00000000000E+00  0.00000000000E+00  0.40271497801E+04  0.40271497801E+04  0.00000000000E+00 0.  1.
         22   -1    0    0    0    0 -0.00000000000E+00 -0.00000000000E+00 -0.35727850039E+03  0.35727850039E+03  0.00000000000E+00 0.  1.
         25    2    1    2    0    0 -0.52793574224E+03 -0.92394022002E+02  0.16469226978E+02  0.55060980159E+03  0.12508842842E+03 0.  0.
         24    2    1    2    0    0  0.66305431491E+03  0.42684632527E+03  0.24340676585E+04  0.25598740513E+04  0.80193407035E+02 0.  0.
        -24    2    1    2    0    0 -0.13511857266E+03 -0.33445230327E+03  0.12193343942E+04  0.12739444276E+04  0.77734598484E+02 0.  0.
        -11    1    4    4    0    0  0.39881856260E+03  0.22878070591E+03  0.13125588875E+04  0.13907579554E+04  0.00000000000E+00 0.  1.
         12    1    4    4    0    0  0.26423575230E+03  0.19806561936E+03  0.11215087710E+04  0.11691160959E+04  0.00000000000E+00 0. -1.
         11    1    5    5    0    0 -0.93827520332E+02 -0.17007808244E+03  0.54294312982E+03  0.57664321718E+03  0.00000000000E+00 0. -1.
        -12    1    5    5    0    0 -0.41291052330E+02 -0.16437422083E+03  0.67639126442E+03  0.69730121042E+03  0.00000000000E+00 0.  1.
          5    1    3    3  501    0 -0.14777414144E+03 -0.75617686485E+01  0.57753552436E+02  0.15889406043E+03  0.41800000000E+01 0.  1.
         -5    1    3    3    0  501 -0.38016160081E+03 -0.84832253354E+02 -0.41284325459E+02  0.39171574115E+03  0.41800000000E+01 0.  1.
</event>
<event>
11    1  0.1704459E-009  0.3949710E+03  0.7561462E-02  0.9664714E-01
         22   -1    0    0    0    0  0.00000000000E+00  0.00000000000E+00  0.12856530689E+04  0.12856530689E+04  0.00000000000E+00 0. -1.
         22   -1    0    0    0    0 -0.00000000000E+00 -0.00000000000E+00 -0.31894590004E+03  0.31894590004E+03  0.00000000000E+00 0. -1.
         25    2    1    2    0    0 -0.24941931407E+03 -0.32104142935E+03 -0.85631142650E+02  0.43388550546E+03  0.12508535353E+03 0.  0.
        -24    2    1    2    0    0  0.19543866296E+03  0.21816567919E+03  0.39758478657E+03  0.50079506251E+03  0.83243603774E+02 0.  0.
         24    2    1    2    0    0  0.53980651113E+02  0.10287575016E+03  0.65475352490E+03  0.66991840092E+03  0.81185927777E+02 0.  0.
        -11    1    5    5    0    0  0.49654651056E+02  0.71296672091E+02  0.26534115267E+03  0.27920373766E+03  0.00000000000E+00 0.  1.
         12    1    5    5    0    0  0.43260000571E+01  0.31579078067E+02  0.38941237223E+03  0.39071466326E+03  0.00000000000E+00 0. -1.
         13    1    4    4    0    0  0.17903309539E+03  0.15790849203E+03  0.28249336078E+03  0.36985191629E+03  0.00000000000E+00 0. -1.
        -14    1    4    4    0    0  0.16405567570E+02  0.60257187160E+02  0.11509142579E+03  0.13094314622E+03  0.00000000000E+00 0.  1.
          5    1    3    3  501    0 -0.16194197692E+03 -0.12545144258E+03 -0.78654140574E+02  0.21947030452E+03  0.41800000000E+01 0. -1.
         -5    1    3    3    0  501 -0.87477337153E+02 -0.19558998676E+03 -0.69770020755E+01  0.21441520094E+03  0.41800000000E+01 0. -1.
</event>
<event>
11    1  0.1704459E-009  0.3988793E+03  0.7561462E-02  0.9653070E-01
         22   -1    0    0    0    0  0.00000000000E+00  0.00000000000E+00  0.59397864931E+03  0.59397864931E+03  0.00000000000E+00 0.  1.
         22   -1    0    0    0    0 -0.00000000000E+00 -0.00000000000E+00 -0.61650030549E+03  0.61650030549E+03  0.00000000000E+00 0.  1.
         25    2    1    2    0    0 -0.34078172746E+02  0.23815485797E+03 -0.32291028913E+03  0.42166071408E+03  0.12509054616E+03 0.  0.
        -24    2    1    2    0    0 -0.21362093528E+03  0.11006358517E+03 -0.10474636899E+02  0.25362537036E+03  0.80425205632E+02 0.  0.
         24    2    1    2    0    0  0.24769910803E+03 -0.34821844314E+03  0.31086326986E+03  0.53519287036E+03  0.84761451611E+02 0.  0.
        -13    1    5    5    0    0  0.12646449996E+03 -0.11235263580E+03  0.14136029959E+03  0.22045207829E+03  0.00000000000E+00 0.  1.
         14    1    5    5    0    0  0.12123460807E+03 -0.23586580734E+03  0.16950297026E+03  0.31474079207E+03  0.00000000000E+00 0. -1.
         13    1    4    4    0    0 -0.20477057911E+02  0.36631377369E+02 -0.20591128863E+02  0.46745719553E+02  0.00000000000E+00 0. -1.
        -14    1    4    4    0    0 -0.19314387737E+03  0.73432207797E+02  0.10116491964E+02  0.20687965081E+03  0.00000000000E+00 0.  1.
          5    1    3    3  501    0  0.29519777051E+02  0.18719170977E+03 -0.22641911519E+03  0.29528840405E+03  0.41800000000E+01 0.  1.
         -5    1    3    3    0  501 -0.63597949796E+02  0.50963148197E+02 -0.96491173945E+02  0.12637231003E+03  0.41800000000E+01 0.  1.
</event>
<event>
11    1  0.1704459E-009  0.2850235E+03  0.7561462E-02  0.1006737E+00
         22   -1    0    0    0    0  0.00000000000E+00  0.00000000000E+00  0.24997840818E+03  0.24997840818E+03  0.00000000000E+00 0.  1.
         22   -1    0    0    0    0 -0.00000000000E+00 -0.00000000000E+00 -0.27762396525E+04  0.27762396525E+04  0.00000000000E+00 0.  1.
         25    2    1    2    0    0  0.36835571457E+03  0.20399393755E+02 -0.23051188803E+04  0.23378028521E+04  0.12508818876E+03 0.  0.
         24    2    1    2    0    0 -0.15683521038E+03  0.11963045958E+03 -0.33650413002E+03  0.39836933666E+03  0.80959056312E+02 0.  0.
        -24    2    1    2    0    0 -0.21152050419E+03 -0.14002985333E+03  0.11536176608E+03  0.29004587190E+03  0.80430014416E+02 0.  0.
        -11    1    4    4    0    0 -0.70682708331E+02  0.66231433397E+01 -0.10570072683E+03  0.12732853151E+03  0.00000000000E+00 0.  1.
         12    1    4    4    0    0 -0.86152502053E+02  0.11300731624E+03 -0.23080340319E+03  0.27104080515E+03  0.00000000000E+00 0. -1.
         13    1    5    5    0    0 -0.85397544716E+02 -0.11770192100E+02  0.35335676025E+02  0.93165916867E+02  0.00000000000E+00 0. -1.
        -14    1    5    5    0    0 -0.12612295947E+03 -0.12825966123E+03  0.80026090052E+02  0.19687995504E+03  0.00000000000E+00 0.  1.
          5    1    3    3  501    0  0.16881287430E+03  0.65373283510E+02 -0.91937752128E+03  0.93703999475E+03  0.41800000000E+01 0. -1.
         -5    1    3    3    0  501  0.19954284027E+03 -0.44973889755E+02 -0.13857413590E+04  0.14007628573E+04  0.41800000000E+01 0. -1.
</event>
<event>
11    1  0.1704459E-009  0.2985982E+03  0.7561462E-02  0.1000786E+00
         22   -1    0    0    0    0  0.00000000000E+00  0.00000000000E+00  0.83111036506E+03  0.83111036506E+03  0.00000000000E+00 0. -1.
         22   -1    0    0    0    0 -0.00000000000E+00 -0.00000000000E+00 -0.70227797287E+03  0.70227797287E+03  0.00000000000E+00 0.  1.
         25    2    1    2    0    0  0.19686958972E+03  0.20187384188E+03 -0.58972236135E+03  0.66552946558E+03  0.12508526169E+03 0.  0.
         24    2    1    2    0    0 -0.16027081119E+03 -0.14603336257E+03  0.12098503563E+03  0.26109976294E+03  0.80766524327E+02 0.  0.
        -24    2    1    2    0    0 -0.36598778527E+02 -0.55840479309E+02  0.59756971790E+03  0.60675910941E+03  0.81298335639E+02 0.  0.
        -11    1    4    4    0    0 -0.13261383702E+03 -0.14736521310E+03  0.85021306173E+02  0.21571174819E+03  0.00000000000E+00 0.  1.
         12    1    4    4    0    0 -0.27656974169E+02  0.13318505256E+01  0.35963729462E+02  0.45388014749E+02  0.00000000000E+00 0. -1.
         11    1    5    5    0    0 -0.14983377262E+02 -0.43871663135E+02  0.55922533474E+03  0.56114365312E+03  0.00000000000E+00 0. -1.
        -12    1    5    5    0    0 -0.21615401266E+02 -0.11968816174E+02  0.38344383164E+02  0.45615456292E+02  0.00000000000E+00 0.  1.
          5    1    3    3  501    0  0.14623837003E+03  0.20090283649E+03 -0.53995707817E+03  0.59440619886E+03  0.41800000000E+01 0.  1.
         -5    1    3    3    0  501  0.50631219695E+02  0.97100538942E+00 -0.49765283179E+02  0.71123266722E+02  0.41800000000E+01 0.  1.
</event>
<event>
11    1  0.1704459E-009  0.3728463E+03  0.7561462E-02  0.9733458E-01
         22   -1    0    0    0    0  0.00000000000E+00  0.00000000000E+00  0.13442349480E+04  0.13442349480E+04  0.00000000000E+00 0.  1.
         22   -1    0    0    0    0 -0.00000000000E+00 -0.00000000000E+00 -0.31890270833E+03  0.31890270833E+03  0.00000000000E+00 0.  1.
         25    2    1    2    0    0  0.12730443752E+03 -0.33311000668E+03 -0.99441514924E+02  0.39077538778E+03  0.12509233566E+03 0.  0.
         24    2    1    2    0    0  0.61355875900E+02  0.35656313442E+03  0.86571798796E+03  0.94173580364E+03  0.80603206181E+02 0.  0.
        -24    2    1    2    0    0 -0.18866031342E+03 -0.23453127738E+02  0.25905576662E+03  0.33062646490E+03  0.77853747602E+02 0.  0.
        -13    1    4    4    0    0  0.47843481914E+02  0.32383139769E+03  0.70684798716E+03  0.77896716866E+03  0.00000000000E+00 0.  1.
         14    1    4    4    0    0  0.13512393986E+02  0.32731736727E+02  0.15887000080E+03  0.16276863498E+03  0.00000000000E+00 0. -1.
         13    1    5    5    0    0 -0.67885836487E+02 -0.46531406449E+02  0.11058549751E+03  0.13785068314E+03  0.00000000000E+00 0. -1.
        -14    1    5    5    0    0 -0.12077447693E+03  0.23078278711E+02  0.14847026911E+03  0.19277578176E+03  0.00000000000E+00 0.  1.
          5    1    3    3  501    0  0.10041795801E+03 -0.33306387599E+03 -0.10416884419E+03  0.36315827442E+03  0.41800000000E+01 0. -1.
         -5    1    3    3    0  501  0.26886479502E+02 -0.46130692335E-01  0.47273292707E+01  0.27617113355E+02  0.41800000000E+01 0. -1.
</event>
<event>
11    1  0.1704459E-009  0.2249463E+03  0.7561462E-02  0.1038162E+00
         22   -1    0    0    0    0  0.00000000000E+00  0.00000000000E+00  0.14420752687E+04  0.14420752687E+04  0.00000000000E+00 0.  1.
         22   -1    0    0    0    0 -0.00000000000E+00 -0.00000000000E+00 -0.61250614653E+02  0.61250614653E+02  0.00000000000E+00 0.  1.
         25    2    1    2    0    0  0.41758574120E+01 -0.23452265813E+02  0.22323383072E+03  0.25699834379E+03  0.12508940393E+03 0.  0.
        -24    2    1    2    0    0 -0.20493918752E+03 -0.42472117426E+02  0.43443967061E+03  0.48882873600E+03  0.80073431281E+02 0.  0.
         24    2    1    2    0    0  0.20076333011E+03  0.65924383239E+02  0.72315115276E+03  0.75749880361E+03  0.78771242889E+02 0.  0.
        -11    1    5    5    0    0  0.15960943759E+03  0.20195486208E+02  0.46239663671E+03  0.48958521206E+03  0.00000000000E+00 0.  1.
         12    1    5    5    0    0  0.41153892520E+02  0.45728897032E+02  0.26075451606E+03  0.26791359155E+03  0.00000000000E+00 0. -1.
         11    1    4    4    0    0  0.27292759915E+01  0.51023142801E+01  0.10177405327E+01  0.58752322714E+01  0.00000000000E+00 0. -1.
        -12    1    4    4    0    0 -0.20766846351E+03 -0.47574431706E+02  0.43342193008E+03  0.48295350372E+03  0.00000000000E+00 0.  1.
          5    1    3    3  501    0  0.48078801193E+02 -0.50119033979E+02  0.16593745451E+03  0.17993387647E+03  0.41800000000E+01 0. -1.
         -5    1    3    3    0  501 -0.43902943781E+02  0.26666768166E+02  0.57296376206E+02  0.77064467321E+02  0.41800000000E+01 0. -1.
</event>
<event>
11    1  0.1704459E-009  0.2384980E+03  0.7561462E-02  0.1030211E+00
         22   -1    0    0    0    0  0.00000000000E+00  0.00000000000E+00  0.34426912713E+03  0.34426912713E+03  0.00000000000E+00 0. -1.
         22   -1    0    0    0    0 -0.00000000000E+00 -0.00000000000E+00 -0.13879528283E+04  0.13879528283E+04  0.00000000000E+00 0. -1.
         25    2    1    2    0    0 -0.70554810683E+01 -0.17562413257E+03 -0.10782078930E+04  0.10995789164E+04  0.12509163503E+03 0.  0.
        -24    2    1    2    0    0 -0.34917797059E+02 -0.24076508938E+02 -0.25433235827E+03  0.27010206686E+03  0.80444062724E+02 0.  0.
         24    2    1    2    0    0  0.41973278128E+02  0.19970064151E+03  0.28885655009E+03  0.36254097215E+03  0.79722943123E+02 0.  0.
        -13    1    5    5    0    0 -0.24211823427E+01  0.61392610631E+02  0.14780998623E+03  0.16007094300E+03  0.00000000000E+00 0.  1.
         14    1    5    5    0    0  0.44394460470E+02  0.13830803088E+03  0.14104656386E+03  0.20247002915E+03  0.00000000000E+00 0. -1.
         13    1    4    4    0    0  0.19991938924E+02  0.13712250004E+02 -0.71495986589E+02  0.75494235014E+02  0.00000000000E+00 0. -1.
        -14    1    4    4    0    0 -0.54909735983E+02 -0.37788758942E+02 -0.18283637168E+03  0.19460783185E+03  0.00000000000E+00 0.  1.
          5    1    3    3  501    0  0.58682007116E+02 -0.87323746840E+02 -0.55492649085E+03  0.56482731641E+03  0.41800000000E+01 0.  1.
         -5    1    3    3    0  501 -0.65737488184E+02 -0.88300385733E+02 -0.52328140215E+03  0.53475160001E+03  0.41800000000E+01 0.  1.
</event>
<event>
11    1  0.1704459E-009  0.1714480E+03  0.7561462E-02  0.1076778E+00
         22   -1    0    0    0    0  0.00000000000E+00  0.00000000000E+00  0.17333084417E+03  0.17333084417E+03  0.00000000000E+00 0.  1.
         22   -1    0    0    0    0 -0.00000000000E+00 -0.00000000000E+00 -0.40398019036E+03  0.40398019036E+03  0.00000000000E+00 0. -1.
         25    2    1    2    0    0  0.13883815094E+02 -0.38042267220E+02 -0.23090734501E+03  0.26571738076E+03  0.12509016764E+03 0.  0.
        -24    2    1    2    0    0  0.80127597175E+02 -0.58193198111E+02 -0.61712686563E+02  0.14247315684E+03  0.81751236088E+02 0.  0.
         24    2    1    2    0    0 -0.94011412270E+02  0.96235465331E+02  0.61970685385E+02  0.16912049692E+03  0.81620868708E+02 0.  0.
        -13    1    5    5    0    0 -0.10168020906E+03  0.63744721471E+02  0.63359573174E+02  0.13570810566E+03  0.00000000000E+00 0.  1.
         14    1    5    5    0    0  0.76687967865E+01  0.32490743860E+02 -0.13888877885E+01  0.33412391265E+02  0.00000000000E+00 0. -1.
         13    1    4    4    0    0 -0.60188075748E+01  0.13744334535E+02 -0.13992806086E+02  0.20516612747E+02  0.00000000000E+00 0. -1.
        -14    1    4    4    0    0  0.86146404750E+02 -0.71937532646E+02 -0.47719880476E+02  0.12195654409E+03  0.00000000000E+00 0.  1.
          5    1    3    3  501    0  0.40520756416E+02  0.20630413154E+02 -0.29868625609E+02  0.54563292085E+02  0.41800000000E+01 0.  1.
         -5    1    3    3    0  501 -0.26636941322E+02 -0.58672680375E+02 -0.20103871940E+03  0.21115408867E+03  0.41800000000E+01 0.  1.
</event>
<event>
11    1  0.1704459E-009  0.1923269E+03  0.7561462E-02  0.1060086E+00
         22   -1    0    0    0    0  0.00000000000E+00  0.00000000000E+00  0.24205711736E+04  0.24205711736E+04  0.00000000000E+00 0. -1.
         22   -1    0    0    0    0 -0.00000000000E+00 -0.00000000000E+00 -0.25407706718E+03  0.25407706718E+03  0.00000000000E+00 0. -1.
         25    2    1    2    0    0  0.63075660503E+02 -0.10674874978E+03 -0.89870913970E+02  0.19773315022E+03  0.12509109876E+03 0.  0.
        -24    2    1    2    0    0 -0.92432880033E+01  0.19879994194E+03 -0.97137006903E+01  0.20696094870E+03  0.55960906148E+02 0.  0.
         24    2    1    2    0    0 -0.53832372499E+02 -0.92051192153E+02  0.22660787211E+04  0.22699541419E+04  0.78788893325E+02 0.  0.
        -11    1    5    5    0    0  0.54415528342E+01  0.11800384247E+02  0.21222988695E+03  0.21262733710E+03  0.00000000000E+00 0.  1.
         12    1    5    5    0    0 -0.59273925333E+02 -0.10385157640E+03  0.20538488342E+04  0.20573268048E+04  0.00000000000E+00 0. -1.
         13    1    4    4    0    0  0.11625665425E+02  0.63793296309E+02 -0.25004179285E+02  0.69497839767E+02  0.00000000000E+00 0. -1.
        -14    1    4    4    0    0 -0.20868953429E+02  0.13500664563E+03  0.15290478594E+02  0.13746310893E+03  0.00000000000E+00 0.  1.
          5    1    3    3  501    0  0.15253853735E+02 -0.77173676079E+02  0.13556255129E+02  0.79935603997E+02  0.41800000000E+01 0.  1.
         -5    1    3    3    0  501  0.47821806768E+02 -0.29575073706E+02 -0.10342716910E+03  0.11779754622E+03  0.41800000000E+01 0.  1.
</event>
<event>
11    1  0.1704459E-009  0.2068320E+03  0.7561462E-02  0.1049795E+00
         22   -1    0    0    0    0  0.00000000000E+00  0.00000000000E+00  0.13799135109E+03  0.13799135109E+03  0.00000000000E+00 0.  1.
         22   -1    0    0    0    0 -0.00000000000E+00 -0.00000000000E+00 -0.43186595704E+03  0.43186595704E+03  0.00000000000E+00 0.  1.
         25    2    1    2    0    0  0.82549614480E+02 -0.13827109651E+03 -0.18619977414E+03  0.27613697822E+03  0.12509172581E+03 0.  0.
        -24    2    1    2    0    0 -0.85330818495E+02  0.14632223360E+03 -0.97368098066E+02  0.21141970197E+03  0.80784894805E+02 0.  0.
         24    2    1    2    0    0  0.27812040153E+01 -0.80511370894E+01 -0.10306733745E+02  0.82300627950E+02  0.81207196087E+02 0.  0.
        -13    1    5    5    0    0  0.10095686239E+02  0.31308153148E+02 -0.23187194275E+02  0.40246357755E+02  0.00000000000E+00 0.  1.
         14    1    5    5    0    0 -0.73144822235E+01 -0.39359290238E+02  0.12880460530E+02  0.42054270196E+02  0.00000000000E+00 0. -1.
         13    1    4    4    0    0 -0.39756182507E+02  0.10517431069E+03 -0.99268892262E+02  0.14998834171E+03  0.00000000000E+00 0. -1.
        -14    1    4    4    0    0 -0.45574635988E+02  0.41147922912E+02  0.19007941953E+01  0.61431360265E+02  0.00000000000E+00 0.  1.
          5    1    3    3  501    0  0.11609355626E+02 -0.12730232381E+03 -0.91625128056E+02  0.15733179995E+03  0.41800000000E+01 0. -1.
         -5    1    3    3    0  501  0.70940258854E+02 -0.10968772707E+02 -0.94574646082E+02  0.11880517827E+03  0.41800000000E+01 0. -1.
</event>
<event>
11    1  0.1704459E-009  0.7893378E+03  0.7561462E-02  0.8910107E-01
         22   -1    0    0    0    0  0.00000000000E+00  0.00000000000E+00  0.24759963883E+04  0.24759963883E+04  0.00000000000E+00 0. -1.
         22   -1    0    0    0    0 -0.00000000000E+00 -0.00000000000E+00 -0.62909441218E+02  0.62909441218E+02  0.00000000000E+00 0. -1.
         25    2    1    2    0    0  0.67484493351E+02 -0.25456556816E+03  0.36322153631E+03  0.46576278964E+03  0.12508919395E+03 0.  0.
        -24    2    1    2    0    0 -0.35894858645E+02  0.12394410394E+03  0.11458065396E+04  0.11557753757E+04  0.79331652111E+02 0.  0.
         24    2    1    2    0    0 -0.31589634707E+02  0.13062146422E+03  0.90405887121E+03  0.91736766424E+03  0.78620079183E+02 0.  0.
        -11    1    5    5    0    0  0.44065008483E+01  0.12117950984E+02  0.32295808181E+03  0.32321538421E+03  0.00000000000E+00 0.  1.
         12    1    5    5    0    0 -0.35996135555E+02  0.11850351324E+03  0.58110078940E+03  0.59415228003E+03  0.00000000000E+00 0. -1.
         13    1    4    4    0    0  0.19150440486E+02  0.12583164451E+02  0.98646373424E+02  0.10127281169E+03  0.00000000000E+00 0. -1.
        -14    1    4    4    0    0 -0.55045299131E+02  0.11136093949E+03  0.10471601662E+04  0.10545025640E+04  0.00000000000E+00 0.  1.
          5    1    3    3  501    0  0.56535644376E+02 -0.24795885306E+03  0.26759419815E+03  0.36919371498E+03  0.41800000000E+01 0. -1.
         -5    1    3    3    0  501  0.10948848976E+02 -0.66067151014E+01  0.95627338160E+02  0.96569074666E+02  0.41800000000E+01 0. -1.
</event>
<event>
11    1  0.1704459E-009  0.3470575E+03  0.7561462E-02  0.9820336E-01
         22   -1    0    0    0    0  0.00000000000E+00  0.00000000000E+00  0.87935142265E+03  0.87935142265E+03  0.00000000000E+00 0.  1.
         22   -1    0    0    0    0 -0.00000000000E+00 -0.00000000000E+00 -0.59719779722E+03  0.59719779722E+03  0.00000000000E+00 0.  1.
         25    2    1    2    0    0  0.22849847116E+03 -0.27895090177E+03 -0.41226706911E+03  0.56181555197E+03  0.12508965279E+03 0.  0.
        -24    2    1    2    0    0  0.23808575138E+02  0.79599534265E+02 -0.28440987790E+02  0.11924767286E+03  0.80673313987E+02 0.  0.
         24    2    1    2    0    0 -0.25230704630E+03  0.19935136751E+03  0.72286168234E+03  0.79548599505E+03  0.82880294397E+02 0.  0.
        -13    1    5    5    0    0 -0.11039753231E+03  0.87810697575E+02  0.22130167904E+03  0.26243621490E+03  0.00000000000E+00 0.  1.
         14    1    5    5    0    0 -0.14190951399E+03  0.11154066993E+03  0.50156000330E+03  0.53304978015E+03  0.00000000000E+00 0. -1.
         11    1    4    4    0    0 -0.11464062452E+02  0.73785443412E+02 -0.18496238386E+01  0.74693624198E+02  0.00000000000E+00 0. -1.
        -12    1    4    4    0    0  0.35272637590E+02  0.58140908529E+01 -0.26591363952E+02  0.44554048658E+02  0.00000000000E+00 0.  1.
          5    1    3    3  501    0  0.28046567182E+02 -0.13328180343E+02 -0.10242878196E+03  0.10711385576E+03  0.41800000000E+01 0.  1.
         -5    1    3    3    0  501  0.20045190398E+03 -0.26562272143E+03 -0.30983828716E+03  0.45470169621E+03  0.41800000000E+01 0.  1.
</event>
<event>
11    1  0.1704459E-009  0.1509979E+03  0.7561462E-02  0.1095863E+00
         22   -1    0    0    0    0  0.00000000000E+00  0.00000000000E+00  0.50396593725E+02  0.50396593725E+02  0.00000000000E+00 0.  1.
         22   -1    0    0    0    0 -0.00000000000E+00 -0.00000000000E+00 -0.12125406435E+04  0.12125406435E+04  0.00000000000E+00 0.  1.
         25    2    1    2    0    0  0.53559139243E+02  0.87239215654E+02 -0.87561387357E+03  0.89040810042E+03  0.12509063739E+03 0.  0.
         24    2    1    2    0    0 -0.22788693125E+02 -0.10338714318E+02 -0.22845049340E+03  0.24365669211E+03  0.80949009418E+02 0.  0.
        -24    2    1    2    0    0 -0.30770446119E+02 -0.76900501336E+02 -0.58079682814E+02  0.12887244471E+03  0.79839526479E+02 0.  0.
        -11    1    4    4    0    0 -0.33200857146E+02 -0.40608389880E+02 -0.15104386409E+03  0.15989242359E+03  0.00000000000E+00 0.  1.
         12    1    4    4    0    0  0.10412164022E+02  0.30269675562E+02 -0.77406629317E+02  0.83764268518E+02  0.00000000000E+00 0. -1.
         11    1    5    5    0    0 -0.15443128272E+01  0.12096777242E+02 -0.27914382567E+02  0.30461938150E+02  0.00000000000E+00 0. -1.
        -12    1    5    5    0    0 -0.29226133292E+02 -0.88997278578E+02 -0.30165300248E+02  0.98410506556E+02  0.00000000000E+00 0.  1.
          5    1    3    3  501    0  0.14254017793E+02  0.54908456841E+02 -0.11717355474E+03  0.13025064294E+03  0.41800000000E+01 0. -1.
         -5    1    3    3    0  501  0.39305121451E+02  0.32330758813E+02 -0.75844031883E+03  0.76015745748E+03  0.41800000000E+01 0. -1.
</event>
<event>
11    1  0.1704459E-009  0.1546353E+03  0.7561462E-02  0.1092234E+00
         22   -1    0    0    0    0  0.00000000000E+00  0.00000000000E+00  0.86835582119E+03  0.86835582119E+03  0.00000000000E+00 0.  1.
         22   -1    0    0    0    0 -0.00000000000E+00 -0.00000000000E+00 -0.97231344104E+02  0.97231344104E+02  0.00000000000E+00 0.  1.
         25    2    1    2    0    0 -0.55605424649E+02 -0.70722568837E+02  0.95000852182E+02  0.18101494399E+03  0.12509037948E+03 0.  0.
         24    2    1    2    0    0  0.36600242458E+02  0.84952593485E+02  0.23958153269E+02  0.12654837698E+03  0.82969739788E+02 0.  0.
        -24    2    1    2    0    0  0.19005182191E+02 -0.14230024648E+02  0.65216547163E+03  0.65802384432E+03  0.84332003157E+02 0.  0.
        -13    1    4    4    0    0  0.61395117190E+02  0.76302929514E+02  0.17235404600E+02  0.99441222031E+02  0.00000000000E+00 0.  1.
         14    1    4    4    0    0 -0.24794874732E+02  0.86496639701E+01  0.67227486692E+01  0.27107154949E+02  0.00000000000E+00 0. -1.
         11    1    5    5    0    0 -0.32097152444E+02 -0.13235194483E+02  0.20149682425E+03  0.20446605525E+03  0.00000000000E+00 0. -1.
        -12    1    5    5    0    0  0.51102334635E+02 -0.99483016491E+00  0.45066864738E+03  0.45355778907E+03  0.00000000000E+00 0.  1.
          5    1    3    3  501    0 -0.86911012717E+02 -0.33773309367E+02  0.26509264636E+02  0.97027697431E+02  0.41800000000E+01 0. -1.
         -5    1    3    3    0  501  0.31305588069E+02 -0.36949259470E+02  0.68491587546E+02  0.83987246557E+02  0.41800000000E+01 0. -1.
</event>
<event>
11    1  0.1704459E-009  0.1437769E+03  0.7561462E-02  0.1103413E+00
         22   -1    0    0    0    0  0.00000000000E+00  0.00000000000E+00  0.34162552253E+03  0.34162552253E+03  0.00000000000E+00 0. -1.
         22   -1    0    0    0    0 -0.00000000000E+00 -0.00000000000E+00 -0.15811993555E+03  0.15811993555E+03  0.00000000000E+00 0. -1.
         25    2    1    2    0    0 -0.59387462812E+02 -0.54206856292E+02 -0.61788840372E+02  0.16103130461E+03  0.12509183131E+03 0.  0.
         24    2    1    2    0    0  0.34068413350E+02  0.49157592291E+02  0.22186049178E+02  0.10302079975E+03  0.80894614994E+02 0.  0.
        -24    2    1    2    0    0  0.25319049463E+02  0.50492640012E+01  0.22310837818E+03  0.23569335372E+03  0.71466490360E+02 0.  0.
        -13    1    4    4    0    0 -0.25276446458E+02  0.44201053723E+01  0.10778221898E+02  0.27831747059E+02  0.00000000000E+00 0.  1.
         14    1    4    4    0    0  0.59344859808E+02  0.44737486919E+02  0.11407827280E+02  0.75189052692E+02  0.00000000000E+00 0. -1.
         13    1    5    5    0    0  0.44518505564E+02 -0.16104665447E+02  0.13393620959E+03  0.14205691052E+03  0.00000000000E+00 0. -1.
        -14    1    5    5    0    0 -0.19199456101E+02  0.21153929448E+02  0.89172168584E+02  0.93636443202E+02  0.00000000000E+00 0.  1.
          5    1    3    3  501    0 -0.48272569068E+02 -0.35826053795E+02 -0.10014196604E+03  0.11687443184E+03  0.41800000000E+01 0. -1.
         -5    1    3    3    0  501 -0.11114893745E+02 -0.18380802497E+02  0.38353125673E+02  0.44156872764E+02  0.41800000000E+01 0. -1.
</event>
<event>
11    1  0.1704459E-009  0.6749795E+03  0.7561462E-02  0.9070011E-01
         22   -1    0    0    0    0  0.00000000000E+00  0.00000000000E+00  0.93283999773E+02  0.93283999773E+02  0.00000000000E+00 0. -1.
         22   -1    0    0    0    0 -0.00000000000E+00 -0.00000000000E+00 -0.12209953473E+04  0.12209953473E+04  0.00000000000E+00 0. -1.
         25    2    1    2    0    0  0.21355886496E+03  0.17542318331E+03 -0.74706239086E+03  0.80630669186E+03  0.12509030119E+03 0.  0.
         24    2    1    2    0    0 -0.14442147353E+03 -0.85180091076E+02 -0.18610567909E+03  0.26130743121E+03  0.74384406191E+02 0.  0.
        -24    2    1    2    0    0 -0.69137391428E+02 -0.90243092237E+02 -0.19454327758E+03  0.24666522401E+03  0.10036359546E+03 0.  0.
        -11    1    4    4    0    0 -0.29535729910E+02  0.81575480063E-01 -0.73590892472E+02  0.79296818667E+02  0.00000000000E+00 0.  1.
         12    1    4    4    0    0 -0.11488574362E+03 -0.85261666556E+02 -0.11251478662E+03  0.18201061254E+03  0.00000000000E+00 0. -1.
         11    1    5    5    0    0 -0.18830072190E+02 -0.83804739581E+02 -0.65517891300E+02  0.10802962592E+03  0.00000000000E+00 0. -1.
        -12    1    5    5    0    0 -0.50307319238E+02 -0.64383526563E+01 -0.12902538628E+03  0.13863559809E+03  0.00000000000E+00 0.  1.
          5    1    3    3  501    0  0.58567120141E+02  0.77606373099E+02 -0.12875651294E+03  0.16139568994E+03  0.41800000000E+01 0.  1.
         -5    1    3    3    0  501  0.15499174481E+03  0.97816810214E+02 -0.61830587793E+03  0.64491100192E+03  0.41800000000E+01 0.  1.
</event>
<event>
11    1  0.1704459E-009  0.3640416E+03  0.7561462E-02  0.9762250E-01
         22   -1    0    0    0    0  0.00000000000E+00  0.00000000000E+00  0.14922285043E+04  0.14922285043E+04  0.00000000000E+00 0.  1.
         22   -1    0    0    0    0 -0.00000000000E+00 -0.00000000000E+00 -0.17546689282E+03  0.17546689282E+03  0.00000000000E+00 0.  1.
         25    2    1    2    0    0 -0.18364456168E+03  0.25674437137E+03  0.21998843442E+03  0.40457890732E+03  0.12508470610E+03 0.  0.
        -24    2    1    2    0    0  0.28438801703E+03 -0.26627439358E+03  0.44009908014E+03  0.59315581103E+03  0.79799867863E+02 0.  0.
         24    2    1    2    0    0 -0.10074345535E+03  0.95300222030E+01  0.65667409695E+03  0.66996067881E+03  0.85944030777E+02 0.  0.
        -13    1    5    5    0    0  0.64084522182E+01 -0.20283298823E+02  0.12206682582E+03  0.12390637770E+03  0.00000000000E+00 0.  1.
         14    1    5    5    0    0 -0.10715190757E+03  0.29813321026E+02  0.53460727113E+03  0.54605430110E+03  0.00000000000E+00 0. -1.
         13    1    4    4    0    0  0.14067948571E+03 -0.95424652447E+02  0.23467164232E+03  0.28977122304E+03  0.00000000000E+00 0. -1.
        -14    1    4    4    0    0  0.14370853131E+03 -0.17084974113E+03  0.20542743783E+03  0.30338458799E+03  0.00000000000E+00 0.  1.
          5    1    3    3  501    0 -0.35595482423E+02  0.74047315841E+02 -0.40091522508E+00  0.82265888953E+02  0.41800000000E+01 0.  1.
         -5    1    3    3    0  501 -0.14804907926E+03  0.18269705553E+03  0.22038934964E+03  0.32231301836E+03  0.41800000000E+01 0.  1.
</event>
<event>
11    1  0.1820269E-009  0.2017336E+03  0.7561462E-02  0.1053304E+00
         22   -1    0    0    0    0  0.00000000000E+00  0.00000000000E+00  0.53082562686E+03  0.53082562686E+03  0.00000000000E+00 0. -1.
         22   -1    0    0    0    0 -0.00000000000E+00 -0.00000000000E+00 -0.80862787979E+03  0.80862787979E+03  0.00000000000E+00 0.  1.
         25    2    1    2    0    0 -0.16986357697E+03 -0.46999077061E+02 -0.68886858904E+03  0.72197747634E+03  0.12509594458E+03 0.  0.
         24    2    1    2    0    0  0.12372297619E+02  0.35219129130E+02 -0.64493000643E+02  0.11002437575E+03  0.80947855572E+02 0.  0.
        -24    2    1    2    0    0  0.15749127935E+03  0.11779947930E+02  0.47555933675E+03  0.50745165456E+03  0.80051412855E+02 0.  0.
        -13    1    4    4    0    0  0.29504416768E+02  0.54926403121E+02 -0.51443868124E+02  0.80832493072E+02  0.00000000000E+00 0.  1.
         14    1    4    4    0    0 -0.17132119150E+02 -0.19707273990E+02 -0.13049132519E+02  0.29191882676E+02  0.00000000000E+00 0. -1.
         11    1    5    5    0    0  0.30522058481E+02 -0.43015875624E+01  0.21455218068E+03  0.21675501827E+03  0.00000000000E+00 0. -1.
        -12    1    5    5    0    0  0.12696922087E+03  0.16081535493E+02  0.26100715607E+03  0.29069663629E+03  0.00000000000E+00 0.  1.
          5    1    3    3  501    0 -0.14564708470E+03 -0.57961324804E+02 -0.67236889215E+03  0.69041291123E+03  0.41800000000E+01 0.  1.
         -5    1    3    3    0  501 -0.24216492264E+02  0.10962247743E+02 -0.16499696885E+02  0.31564565108E+02  0.41800000000E+01 0.  1.
</event>
<event>
11    1  0.1704459E-009  0.2195314E+03  0.7561462E-02  0.1041511E+00
         22   -1    0    0    0    0  0.00000000000E+00  0.00000000000E+00  0.19091473384E+03  0.19091473384E+03  0.00000000000E+00 0.  1.
         22   -1    0    0    0    0 -0.00000000000E+00 -0.00000000000E+00 -0.56366143725E+03  0.56366143725E+03  0.00000000000E+00 0.  1.
         25    2    1    2    0    0 -0.18874081129E+03 -0.71941183949E+01 -0.41462796976E+03  0.47248187350E+03  0.12509163957E+03 0.  0.
        -24    2    1    2    0    0  0.14793000338E+03  0.56917829864E+02  0.17770165816E+02  0.17859477821E+03  0.80357891693E+02 0.  0.
         24    2    1    2    0    0  0.40810807917E+02 -0.49723711469E+02  0.24111100539E+02  0.10349951937E+03  0.77413408502E+02 0.  0.
        -11    1    5    5    0    0  0.28703116127E+02 -0.42769057915E+02  0.51449440856E+02  0.72801827963E+02  0.00000000000E+00 0.  1.
         12    1    5    5    0    0  0.12107691790E+02 -0.69546535540E+01 -0.27338340317E+02  0.30697691409E+02  0.00000000000E+00 0. -1.
         13    1    4    4    0    0  0.31506200089E+02  0.29789469781E+02  0.37632748016E+02  0.57413211695E+02  0.00000000000E+00 0. -1.
        -14    1    4    4    0    0  0.11642380329E+03  0.27128360083E+02 -0.19862582201E+02  0.12118156652E+03  0.00000000000E+00 0.  1.
          5    1    3    3  501    0 -0.18672470443E+02 -0.13494704864E+02 -0.18583162773E+03  0.18730091958E+03  0.41800000000E+01 0. -1.
         -5    1    3    3    0  501 -0.17006834085E+03  0.63005864693E+01 -0.22879634203E+03  0.28518095392E+03  0.41800000000E+01 0. -1.
</event>
<event>
11    1  0.1704459E-009  0.2738996E+03  0.7561462E-02  0.1011885E+00
         22   -1    0    0    0    0  0.00000000000E+00  0.00000000000E+00  0.26025119483E+04  0.26025119483E+04  0.00000000000E+00 0. -1.
         22   -1    0    0    0    0 -0.00000000000E+00 -0.00000000000E+00 -0.11681950148E+03  0.11681950148E+03  0.00000000000E+00 0. -1.
         25    2    1    2    0    0 -0.19223000199E+03 -0.20185741899E+02  0.62159320982E+02  0.23850368431E+03  0.12514147356E+03 0.  0.
         24    2    1    2    0    0 -0.14033162297E+02 -0.12121802278E+03  0.23951264830E+03  0.28109290213E+03  0.82195938102E+02 0.  0.
        -24    2    1    2    0    0  0.20626316429E+03  0.14140376468E+03  0.21840204776E+04  0.21997348634E+04  0.79677506870E+02 0.  0.
        -11    1    4    4    0    0 -0.25385023017E+02 -0.92746028878E+01  0.90010797580E+02  0.93980643397E+02  0.00000000000E+00 0.  1.
         12    1    4    4    0    0  0.11351860720E+02 -0.11194341989E+03  0.14950185072E+03  0.18711225873E+03  0.00000000000E+00 0. -1.
         11    1    5    5    0    0  0.80001506113E+02  0.97224627470E+02  0.12195107902E+04  0.12259932450E+04  0.00000000000E+00 0. -1.
        -12    1    5    5    0    0  0.12626165818E+03  0.44179137205E+02  0.96450968734E+03  0.97374161843E+03  0.00000000000E+00 0.  1.
          5    1    3    3  501    0  0.10821094198E+02  0.18780284490E+02 -0.15104332912E+01  0.22125753634E+02  0.41800000000E+01 0. -1.
         -5    1    3    3    0  501 -0.20305109619E+03 -0.38966026388E+02  0.63669754273E+02  0.21637793068E+03  0.41800000000E+01 0. -1.
</event>
<event>
11    1  0.1704459E-009  0.1431554E+03  0.7561462E-02  0.1104085E+00
         22   -1    0    0    0    0  0.00000000000E+00  0.00000000000E+00  0.83569914937E+03  0.83569914937E+03  0.00000000000E+00 0. -1.
         22   -1    0    0    0    0 -0.00000000000E+00 -0.00000000000E+00 -0.17215278978E+03  0.17215278978E+03  0.00000000000E+00 0.  1.
         25    2    1    2    0    0  0.64136186437E+01 -0.22212136807E+02 -0.76456578866E+02  0.14841570485E+03  0.12508836664E+03 0.  0.
         24    2    1    2    0    0  0.47392218312E+02 -0.24352126589E+02 -0.16683849139E+02  0.95846140920E+02  0.77904322610E+02 0.  0.
        -24    2    1    2    0    0 -0.53805836956E+02  0.46564263395E+02  0.75668678759E+03  0.76359009338E+03  0.73699643691E+02 0.  0.
        -11    1    4    4    0    0  0.58757366237E+02 -0.18427008676E+02 -0.36988923594E+02  0.71834275972E+02  0.00000000000E+00 0.  1.
         12    1    4    4    0    0 -0.11365147925E+02 -0.59251179127E+01  0.20305074456E+02  0.24011864948E+02  0.00000000000E+00 0. -1.
         13    1    5    5    0    0 -0.97631032692E+01  0.34382397865E+02  0.57964925471E+03  0.58075014072E+03  0.00000000000E+00 0. -1.
        -14    1    5    5    0    0 -0.44042733686E+02  0.12181865531E+02  0.17703753289E+03  0.18283995266E+03  0.00000000000E+00 0.  1.
          5    1    3    3  501    0  0.30589701389E+01 -0.23078707653E+02 -0.11097768047E+03  0.11347026927E+03  0.41800000000E+01 0. -1.
         -5    1    3    3    0  501  0.33546485048E+01  0.86657084631E+00  0.34521101606E+02  0.34945435578E+02  0.41800000000E+01 0. -1.
</event>
<event>
11    1  0.1704459E-009  0.1315085E+03  0.7561462E-02  0.1117429E+00
         22   -1    0    0    0    0  0.00000000000E+00  0.00000000000E+00  0.26291167721E+03  0.26291167721E+03  0.00000000000E+00 0. -1.
         22   -1    0    0    0    0 -0.00000000000E+00 -0.00000000000E+00 -0.11477720612E+04  0.11477720612E+04  0.00000000000E+00 0.  1.
         25    2    1    2    0    0  0.35209176812E+02 -0.23857382137E+02 -0.66766192960E+03  0.68060875952E+03  0.12508785104E+03 0.  0.
        -24    2    1    2    0    0 -0.41612766045E+02  0.25668007695E+01 -0.46100811808E+03  0.47118144607E+03  0.88007155546E+02 0.  0.
         24    2    1    2    0    0  0.64035892333E+01  0.21290581368E+02  0.24380966367E+03  0.25889353285E+03  0.84192722041E+02 0.  0.
        -11    1    5    5    0    0  0.10088369912E+01 -0.12750873609E+02  0.13297199867E+00  0.12791411627E+02  0.00000000000E+00 0.  1.
         12    1    5    5    0    0  0.53947522422E+01  0.34041454976E+02  0.24367669167E+03  0.24610212122E+03  0.00000000000E+00 0. -1.
         11    1    4    4    0    0  0.72937943597E+01  0.21877562608E+02 -0.34834768828E+02  0.41776647797E+02  0.00000000000E+00 0. -1.
        -12    1    4    4    0    0 -0.48906560405E+02 -0.19310761838E+02 -0.42617334925E+03  0.42940479828E+03  0.00000000000E+00 0.  1.
          5    1    3    3  501    0 -0.33604294171E+02  0.25947715817E+02 -0.14772390233E+03  0.15376071105E+03  0.41800000000E+01 0.  1.
         -5    1    3    3    0  501  0.68813470983E+02 -0.49805097954E+02 -0.51993802727E+03  0.52684804847E+03  0.41800000000E+01 0.  1.
</event>
<event>
11    1  0.1704459E-009  0.5821036E+03  0.7561462E-02  0.9226723E-01
         22   -1    0    0    0    0  0.00000000000E+00  0.00000000000E+00  0.12522746868E+04  0.12522746868E+04  0.00000000000E+00 0. -1.
         22   -1    0    0    0    0 -0.00000000000E+00 -0.00000000000E+00 -0.56704307009E+03  0.56704307009E+03  0.00000000000E+00 0. -1.
         25    2    1    2    0    0  0.34264373743E+03  0.43908392734E+03 -0.55214414345E+02  0.57349006876E+03  0.12507118522E+03 0.  0.
         24    2    1    2    0    0 -0.29114946052E+03 -0.51063449854E+03  0.10793728840E+03  0.60240421589E+03  0.75662286724E+02 0.  0.
        -24    2    1    2    0    0 -0.51494276911E+02  0.71550571202E+02  0.63250874263E+03  0.64342347221E+03  0.78455785605E+02 0.  0.
        -11    1    4    4    0    0 -0.14868134660E+03 -0.20888451755E+03  0.74728133475E+02  0.26706399689E+03  0.00000000000E+00 0.  1.
         12    1    4    4    0    0 -0.14246811392E+03 -0.30174998099E+03  0.33209154925E+02  0.33534021900E+03  0.00000000000E+00 0. -1.
         13    1    5    5    0    0 -0.54139496194E+02  0.58640962075E+02  0.29347986919E+03  0.30413858865E+03  0.00000000000E+00 0. -1.
        -14    1    5    5    0    0  0.26452192827E+01  0.12909609127E+02  0.33902887343E+03  0.33928488356E+03  0.00000000000E+00 0.  1.
          5    1    3    3  501    0  0.11705172391E+03  0.14574234526E+03 -0.78264853835E+02  0.20269385047E+03  0.41800000000E+01 0. -1.
         -5    1    3    3    0  501  0.22559201352E+03  0.29334158208E+03  0.23050439490E+02  0.37079621830E+03  0.41800000000E+01 0. -1.
</event>
<event>
11    1  0.1704459E-009  0.1385990E+03  0.7561462E-02  0.1109133E+00
         22   -1    0    0    0    0  0.00000000000E+00  0.00000000000E+00  0.32790841339E+03  0.32790841339E+03  0.00000000000E+00 0.  1.
         22   -1    0    0    0    0 -0.00000000000E+00 -0.00000000000E+00 -0.14735862870E+03  0.14735862870E+03  0.00000000000E+00 0.  1.
         25    2    1    2    0    0  0.56986453198E+01  0.52550947116E+02 -0.56551488210E+02  0.14710922501E+03  0.12509586989E+03 0.  0.
        -24    2    1    2    0    0  0.60497796091E+02  0.15782719285E+02  0.11575493167E+03  0.15427526028E+03  0.80576511263E+02 0.  0.
         24    2    1    2    0    0 -0.66196441411E+02 -0.68333666402E+02  0.12134634123E+03  0.17388255681E+03  0.80366350011E+02 0.  0.
        -11    1    5    5    0    0 -0.79410039258E+02 -0.71584642685E+02  0.90149902422E+02  0.13984748947E+03  0.00000000000E+00 0.  1.
         12    1    5    5    0    0  0.13213597847E+02  0.32509762834E+01  0.31196438809E+02  0.34035067346E+02  0.00000000000E+00 0. -1.
         13    1    4    4    0    0  0.21791817843E+02 -0.25983655070E+02  0.12094898922E+02  0.36004447443E+02  0.00000000000E+00 0. -1.
        -14    1    4    4    0    0  0.38705978247E+02  0.41766374355E+02  0.10366003275E+03  0.11827081283E+03  0.00000000000E+00 0.  1.
          5    1    3    3  501    0  0.30303021398E+01 -0.23747014880E+02  0.25314508277E+02  0.35091311974E+02  0.41800000000E+01 0. -1.
         -5    1    3    3    0  501  0.26683431800E+01  0.76297961996E+02 -0.81865996487E+02  0.11201791304E+03  0.41800000000E+01 0. -1.
</event>
<event>
11    1  0.1704459E-009  0.1473536E+03  0.7561462E-02  0.1099614E+00
         22   -1    0    0    0    0  0.00000000000E+00  0.00000000000E+00  0.81758480294E+03  0.81758480294E+03  0.00000000000E+00 0. -1.
         22   -1    0    0    0    0 -0.00000000000E+00 -0.00000000000E+00 -0.46237241654E+03  0.46237241654E+03  0.00000000000E+00 0. -1.
         25    2    1    2    0    0  0.88175205598E+02 -0.24447352344E+02 -0.20914309703E+03  0.26030927381E+03  0.12509013980E+03 0.  0.
         24    2    1    2    0    0 -0.70223883942E+02  0.11919821873E+02 -0.21263790116E+03  0.23817970262E+03  0.80257197178E+02 0.  0.
        -24    2    1    2    0    0 -0.17951321656E+02  0.12527530472E+02  0.77699338459E+03  0.78146824306E+03  0.80589740322E+02 0.  0.
        -13    1    4    4    0    0 -0.41989753164E+02  0.16831292530E+01 -0.26602973918E+02  0.49736209306E+02  0.00000000000E+00 0.  1.
         14    1    4    4    0    0 -0.28234130778E+02  0.10236692620E+02 -0.18603492724E+03  0.18844349331E+03  0.00000000000E+00 0. -1.
         11    1    5    5    0    0 -0.26197442570E+02  0.34269147205E+02  0.69224745110E+03  0.69359009077E+03  0.00000000000E+00 0. -1.
        -12    1    5    5    0    0  0.82461209146E+01 -0.21741616733E+02  0.84745933485E+02  0.87878152294E+02  0.00000000000E+00 0.  1.
          5    1    3    3  501    0 -0.21295455620E+02 -0.10453189764E+02 -0.10766300275E+03  0.11032479398E+03  0.41800000000E+01 0.  1.
         -5    1    3    3    0  501  0.10947066122E+03 -0.13994162581E+02 -0.10148009428E+03  0.14998447983E+03  0.41800000000E+01 0.  1.
</event>
<event>
11    1  0.1704459E-009  0.2286163E+03  0.7561462E-02  0.1035950E+00
         22   -1    0    0    0    0  0.00000000000E+00  0.00000000000E+00  0.16226490719E+03  0.16226490719E+03  0.00000000000E+00 0.  1.
         22   -1    0    0    0    0 -0.00000000000E+00 -0.00000000000E+00 -0.78995292871E+03  0.78995292871E+03  0.00000000000E+00 0. -1.
         25    2    1    2    0    0  0.75408514379E+02  0.84299440497E+02 -0.45341669878E+03  0.48376291469E+03  0.12508802976E+03 0.  0.
        -24    2    1    2    0    0  0.11801305690E+03 -0.10926005799E+01 -0.19558431877E+03  0.24198941763E+03  0.79858481838E+02 0.  0.
         24    2    1    2    0    0 -0.19342157128E+03 -0.83206839917E+02  0.21312996034E+02  0.22646550357E+03  0.80604578413E+02 0.  0.
        -13    1    5    5    0    0 -0.17715637395E+03 -0.81343227229E+02  0.42671354943E+02  0.19955436848E+03  0.00000000000E+00 0.  1.
         14    1    5    5    0    0 -0.16265197334E+02 -0.18636126883E+01 -0.21358358910E+02  0.26911135091E+02  0.00000000000E+00 0. -1.
         11    1    4    4    0    0  0.12675711586E+03  0.10112259419E+02 -0.16544008070E+03  0.20866251344E+03  0.00000000000E+00 0. -1.
        -12    1    4    4    0    0 -0.87440589542E+01 -0.11204859998E+02 -0.30144238066E+02  0.33326904194E+02  0.00000000000E+00 0.  1.
          5    1    3    3  501    0 -0.55770085792E+00 -0.10910542258E+02  0.23944962876E+01  0.11939722571E+02  0.41800000000E+01 0. -1.
         -5    1    3    3    0  501  0.75966215237E+02  0.95209982755E+02 -0.45581119507E+03  0.47182319212E+03  0.41800000000E+01 0. -1.
</event>
<event>
11    1  0.1704459E-009  0.1585727E+03  0.7561462E-02  0.1088427E+00
         22   -1    0    0    0    0  0.00000000000E+00  0.00000000000E+00  0.10307213900E+04  0.10307213900E+04  0.00000000000E+00 0. -1.
         22   -1    0    0    0    0 -0.00000000000E+00 -0.00000000000E+00 -0.10819144330E+03  0.10819144330E+03  0.00000000000E+00 0. -1.
         25    2    1    2    0    0 -0.13234780678E+03 -0.21262878675E+02  0.48057183238E+02  0.18953912413E+03  0.12509010650E+03 0.  0.
        -24    2    1    2    0    0  0.71156641946E+02  0.75754575288E+01  0.50018940875E+02  0.11852980821E+03  0.80167111323E+02 0.  0.
         24    2    1    2    0    0  0.61191164834E+02  0.13687421146E+02  0.82445382263E+03  0.83084390101E+03  0.81521641546E+02 0.  0.
        -11    1    5    5    0    0  0.15359349999E+02  0.85462982649E+01  0.28025560498E+02  0.33081428138E+02  0.00000000000E+00 0.  1.
         12    1    5    5    0    0  0.45831814835E+02  0.51411228813E+01  0.79642826213E+03  0.79776247287E+03  0.00000000000E+00 0. -1.
         11    1    4    4    0    0  0.98094775347E+01 -0.29489206417E+02  0.32036319362E+02  0.44633674540E+02  0.00000000000E+00 0. -1.
        -12    1    4    4    0    0  0.61347164411E+02  0.37064663946E+02  0.17982621513E+02  0.73896133668E+02  0.00000000000E+00 0.  1.
          5    1    3    3  501    0 -0.83348826969E+02 -0.13841510482E+02 -0.35948707011E+02  0.91915158191E+02  0.41800000000E+01 0. -1.
         -5    1    3    3    0  501 -0.48998979811E+02 -0.74213681929E+01  0.84005890249E+02  0.97623965935E+02  0.41800000000E+01 0. -1.
</event>
<event>
11    1  0.1704459E-009  0.2984898E+03  0.7561462E-02  0.1000832E+00
         22   -1    0    0    0    0  0.00000000000E+00  0.00000000000E+00  0.57565305258E+03  0.57565305258E+03  0.00000000000E+00 0. -1.
         22   -1    0    0    0    0 -0.00000000000E+00 -0.00000000000E+00 -0.73599981542E+03  0.73599981542E+03  0.00000000000E+00 0.  1.
         25    2    1    2    0    0 -0.12447084563E+03 -0.20545648861E+03 -0.33191933872E+03  0.42839648785E+03  0.12509093997E+03 0.  0.
         24    2    1    2    0    0  0.17517540127E+03  0.26944440148E+03 -0.26969712574E+03  0.42722106842E+03  0.80589049947E+02 0.  0.
        -24    2    1    2    0    0 -0.50704555644E+02 -0.63987912867E+02  0.44126970162E+03  0.45603531172E+03  0.81140933059E+02 0.  0.
        -13    1    4    4    0    0  0.16320564638E+03  0.19119855260E+03 -0.21740351954E+03  0.33235110928E+03  0.00000000000E+00 0.  1.
         14    1    4    4    0    0  0.11969754887E+02  0.78245848878E+02 -0.52293606192E+02  0.94869959140E+02  0.00000000000E+00 0. -1.
         11    1    5    5    0    0 -0.43320884106E+02 -0.19918485021E+02  0.36126619462E+03  0.36439910595E+03  0.00000000000E+00 0. -1.
        -12    1    5    5    0    0 -0.73836715379E+01 -0.44069427846E+02  0.80003506999E+02  0.91636205772E+02  0.00000000000E+00 0.  1.
          5    1    3    3  501    0 -0.58022541710E+01  0.16418234680E+02 -0.12903865925E+02  0.22072760119E+02  0.41800000000E+01 0. -1.
         -5    1    3    3    0  501 -0.11866859146E+03 -0.22187472329E+03 -0.31901547280E+03  0.40632372773E+03  0.41800000000E+01 0. -1.
</event>
<event>
11    1  0.1704459E-009  0.5057452E+03  0.7561462E-02  0.9380774E-01
         22   -1    0    0    0    0  0.00000000000E+00  0.00000000000E+00  0.19184557160E+04  0.19184557160E+04  0.00000000000E+00 0.  1.
         22   -1    0    0    0    0 -0.00000000000E+00 -0.00000000000E+00 -0.11410355553E+04  0.11410355553E+04  0.00000000000E+00 0.  1.
         25    2    1    2    0    0  0.25570418153E+01  0.48410901505E+03 -0.91108745281E+03  0.10392765417E+04  0.12508919437E+03 0.  0.
        -24    2    1    2    0    0 -0.18407722237E+03  0.16116511320E+03  0.70762437031E+02  0.26727627417E+03  0.81059649225E+02 0.  0.
         24    2    1    2    0    0  0.18152018055E+03 -0.64527412825E+03  0.16177451765E+04  0.17529384555E+04  0.79784059691E+02 0.  0.
        -13    1    5    5    0    0  0.14968311416E+03 -0.47444113368E+03  0.11132752864E+04  0.12193774179E+04  0.00000000000E+00 0.  1.
         14    1    5    5    0    0  0.31837066393E+02 -0.17083299456E+03  0.50446989010E+03  0.53356103760E+03  0.00000000000E+00 0. -1.
         13    1    4    4    0    0 -0.17283636912E+03  0.14855286637E+03  0.86903007513E+02  0.24391083886E+03  0.00000000000E+00 0. -1.
        -14    1    4    4    0    0 -0.11240853242E+02  0.12612246834E+02 -0.16140570482E+02  0.23365435312E+02  0.00000000000E+00 0.  1.
          5    1    3    3  501    0  0.39529252845E+02  0.49071724007E+02 -0.10477422401E+03  0.12233440377E+03  0.41800000000E+01 0.  1.
         -5    1    3    3    0  501 -0.36972211030E+02  0.43503729104E+03 -0.80631322879E+03  0.91694213793E+03  0.41800000000E+01 0.  1.
</event>
<event>
11    1  0.1704459E-009  0.9958968E+03  0.7561462E-02  0.8682927E-01
         22   -1    0    0    0    0  0.00000000000E+00  0.00000000000E+00  0.15156907235E+04  0.15156907235E+04  0.00000000000E+00 0. -1.
         22   -1    0    0    0    0 -0.00000000000E+00 -0.00000000000E+00 -0.16359049682E+03  0.16359049682E+03  0.00000000000E+00 0. -1.
         25    2    1    2    0    0  0.51046866704E+02 -0.34091869244E+03  0.12082690668E+03  0.38610641023E+03  0.12509069187E+03 0.  0.
        -24    2    1    2    0    0 -0.61933346117E+02  0.21794992741E+03  0.65000613854E+03  0.69307931570E+03  0.80703454040E+02 0.  0.
         24    2    1    2    0    0  0.10886479413E+02  0.12296876503E+03  0.58126718143E+03  0.60009549435E+03  0.83685324465E+02 0.  0.
        -13    1    5    5    0    0 -0.13426551747E+02  0.77805055865E+01  0.14525263845E+02  0.21255395756E+02  0.00000000000E+00 0.  1.
         14    1    5    5    0    0  0.24313031160E+02  0.11518825944E+03  0.56674191759E+03  0.57884009860E+03  0.00000000000E+00 0. -1.
         13    1    4    4    0    0 -0.74950285537E+02  0.13675894000E+03  0.37771042909E+03  0.40863886406E+03  0.00000000000E+00 0. -1.
        -14    1    4    4    0    0  0.13016939419E+02  0.81190987407E+02  0.27229570945E+03  0.28444045164E+03  0.00000000000E+00 0.  1.
          5    1    3    3  501    0  0.73826028889E+02 -0.16242473349E+03  0.19426416665E+02  0.17951861925E+03  0.41800000000E+01 0. -1.
         -5    1    3    3    0  501 -0.22779162185E+02 -0.17849395895E+03  0.10140049001E+03  0.20658779099E+03  0.41800000000E+01 0. -1.
</event>
<event>
11    1  0.1704459E-009  0.2261451E+03  0.7561462E-02  0.1037435E+00
         22   -1    0    0    0    0  0.00000000000E+00  0.00000000000E+00  0.11218700590E+04  0.11218700590E+04  0.00000000000E+00 0.  1.
         22   -1    0    0    0    0 -0.00000000000E+00 -0.00000000000E+00 -0.84678004901E+02  0.84678004901E+02  0.00000000000E+00 0.  1.
         25    2    1    2    0    0 -0.69317792328E+02  0.16466788848E+03  0.17145570259E+03  0.27742531003E+03  0.12508906773E+03 0.  0.
        -24    2    1    2    0    0  0.31778185824E+01 -0.19421044001E+03  0.69717802709E+03  0.72818442295E+03  0.80421134195E+02 0.  0.
         24    2    1    2    0    0  0.66139973745E+02  0.29542551531E+02  0.16855832442E+03  0.20093833091E+03  0.81957584292E+02 0.  0.
        -13    1    5    5    0    0  0.75116620534E+02  0.39133222714E+01  0.87156450734E+02  0.11512631183E+03  0.00000000000E+00 0.  1.
         14    1    5    5    0    0 -0.89766467890E+01  0.25629229260E+02  0.81401873681E+02  0.85812019081E+02  0.00000000000E+00 0. -1.
         13    1    4    4    0    0  0.28339964281E+02 -0.30446189933E+02  0.96679752415E+02  0.10524779610E+03  0.00000000000E+00 0. -1.
        -14    1    4    4    0    0 -0.25162145698E+02 -0.16376425008E+03  0.60049827468E+03  0.62293662685E+03  0.00000000000E+00 0.  1.
          5    1    3    3  501    0 -0.42824953817E+02  0.17563938527E+03  0.11595969288E+03  0.21481921027E+03  0.41800000000E+01 0.  1.
         -5    1    3    3    0  501 -0.26492838510E+02 -0.10971496786E+02  0.55496009714E+02  0.62606099769E+02  0.41800000000E+01 0.  1.
</event>
<event>
11    1  0.1704459E-009  0.1527031E+03  0.7561462E-02  0.1094148E+00
         22   -1    0    0    0    0  0.00000000000E+00  0.00000000000E+00  0.22268682810E+03  0.22268682810E+03  0.00000000000E+00 0. -1.
         22   -1    0    0    0    0 -0.00000000000E+00 -0.00000000000E+00 -0.59117784657E+03  0.59117784657E+03  0.00000000000E+00 0. -1.
         25    2    1    2    0    0 -0.72225060853E+02  0.12571092235E+02 -0.29029097096E+03  0.32448501788E+03  0.12508871744E+03 0.  0.
         24    2    1    2    0    0  0.76497347402E+02 -0.79637815730E+02 -0.25251755611E+03  0.28639559229E+03  0.77867151498E+02 0.  0.
        -24    2    1    2    0    0 -0.42722865492E+01  0.67066723495E+02  0.17431750860E+03  0.20298406451E+03  0.79370893950E+02 0.  0.
        -13    1    4    4    0    0  0.33470692970E+01 -0.53011050690E+02 -0.13851506108E+03  0.14835024945E+03  0.00000000000E+00 0.  1.
         14    1    4    4    0    0  0.73150278105E+02 -0.26626765040E+02 -0.11400249504E+03  0.13804534283E+03  0.00000000000E+00 0. -1.
         13    1    5    5    0    0  0.31182269947E+02  0.11213604056E+02  0.32114506372E+02  0.46145643288E+02  0.00000000000E+00 0. -1.
        -14    1    5    5    0    0 -0.35454556497E+02  0.55853119439E+02  0.14220300223E+03  0.15683842122E+03  0.00000000000E+00 0.  1.
          5    1    3    3  501    0 -0.22325778018E+02  0.66857301204E+02 -0.12812793863E+03  0.14629620687E+03  0.41800000000E+01 0. -1.
         -5    1    3    3    0  501 -0.49899282835E+02 -0.54286208969E+02 -0.16216303234E+03  0.17818881101E+03  0.41800000000E+01 0. -1.
</event>
<event>
11    1  0.1704459E-009  0.1915636E+03  0.7561462E-02  0.1060655E+00
         22   -1    0    0    0    0  0.00000000000E+00  0.00000000000E+00  0.23623539792E+03  0.23623539792E+03  0.00000000000E+00 0.  1.
         22   -1    0    0    0    0 -0.00000000000E+00 -0.00000000000E+00 -0.58675763575E+03  0.58675763575E+03  0.00000000000E+00 0.  1.
         25    2    1    2    0    0  0.46266596073E+02  0.15008963362E+03 -0.48774150098E+03  0.52745517423E+03  0.12509873306E+03 0.  0.
         24    2    1    2    0    0  0.49247138555E+01 -0.10529908736E+03  0.15742475073E+02  0.13330286532E+03  0.80060463252E+02 0.  0.
        -24    2    1    2    0    0 -0.51191309928E+02 -0.44790546260E+02  0.12147678808E+03  0.16223499411E+03  0.83287694321E+02 0.  0.
        -13    1    4    4    0    0 -0.27615164451E+02 -0.16771050808E+02  0.21499489081E+02  0.38808420267E+02  0.00000000000E+00 0.  1.
         14    1    4    4    0    0  0.32539878306E+02 -0.88528036549E+02 -0.57570140082E+01  0.94494445052E+02  0.00000000000E+00 0. -1.
         13    1    5    5    0    0 -0.28984212653E+02  0.49987108682E+01  0.36027613044E+00  0.29414307613E+02  0.00000000000E+00 0. -1.
        -14    1    5    5    0    0 -0.22207097275E+02 -0.49789257128E+02  0.12111651195E+03  0.13282068650E+03  0.00000000000E+00 0.  1.
          5    1    3    3  501    0  0.76408095175E+02  0.14432549753E+03 -0.44938866635E+03  0.47815864740E+03  0.41800000000E+01 0.  1.
         -5    1    3    3    0  501 -0.30141499102E+02  0.57641360825E+01 -0.38352834636E+02  0.49296526830E+02  0.41800000000E+01 0.  1.
</event>
<event>
11    1  0.1704459E-009  0.4954512E+03  0.7561462E-02  0.9403744E-01
         22   -1    0    0    0    0  0.00000000000E+00  0.00000000000E+00  0.36624159462E+04  0.36624159462E+04  0.00000000000E+00 0. -1.
         22   -1    0    0    0    0 -0.00000000000E+00 -0.00000000000E+00 -0.38234037741E+03  0.38234037741E+03  0.00000000000E+00 0. -1.
         25    2    1    2    0    0 -0.46003980057E+03  0.12358903895E+03 -0.18109359517E+03  0.52473856635E+03  0.12507919151E+03 0.  0.
         24    2    1    2    0    0  0.51587713848E+03 -0.13608891915E+03  0.30236629361E+04  0.30714009558E+04  0.79478702372E+02 0.  0.
        -24    2    1    2    0    0 -0.55837337907E+02  0.12499880196E+02  0.43750622786E+03  0.44861680148E+03  0.81063430976E+02 0.  0.
        -11    1    4    4    0    0  0.57296412642E+02 -0.36068719465E+02  0.29546567994E+03  0.30312340630E+03  0.00000000000E+00 0.  1.
         12    1    4    4    0    0  0.45858072584E+03 -0.10002019968E+03  0.27281972561E+04  0.27682775495E+04  0.00000000000E+00 0. -1.
         13    1    5    5    0    0 -0.37470521882E+02 -0.11178469080E+02  0.39313118316E+03  0.39507103836E+03  0.00000000000E+00 0. -1.
        -14    1    5    5    0    0 -0.18366816026E+02  0.23678349276E+02  0.44375044706E+02  0.53545763119E+02  0.00000000000E+00 0.  1.
          5    1    3    3  501    0 -0.16605790780E+03  0.10490082575E+03 -0.52952540909E+02  0.20347200293E+03  0.41800000000E+01 0. -1.
         -5    1    3    3    0  501 -0.29398189277E+03  0.18688213202E+02 -0.12814105426E+03  0.32126656343E+03  0.41800000000E+01 0. -1.
</event>
<event>
11    1  0.1704459E-009  0.1682775E+03  0.7561462E-02  0.1079540E+00
         22   -1    0    0    0    0  0.00000000000E+00  0.00000000000E+00  0.13568103001E+04  0.13568103001E+04  0.00000000000E+00 0. -1.
         22   -1    0    0    0    0 -0.00000000000E+00 -0.00000000000E+00 -0.13054160150E+03  0.13054160150E+03  0.00000000000E+00 0. -1.
         25    2    1    2    0    0  0.97995504443E+02  0.27753747998E+02 -0.81043389910E+01  0.16151437831E+03  0.12509126537E+03 0.  0.
         24    2    1    2    0    0 -0.19241324159E+02 -0.15881468933E+03  0.16106795967E+03  0.23962162007E+03  0.76702666622E+02 0.  0.
        -24    2    1    2    0    0 -0.78754180284E+02  0.13106094134E+03  0.10733050779E+04  0.10862159032E+04  0.67096996067E+02 0.  0.
        -13    1    4    4    0    0 -0.46373558059E+02 -0.11183009948E+03  0.93500569487E+02  0.15296677590E+03  0.00000000000E+00 0.  1.
         14    1    4    4    0    0  0.27132233900E+02 -0.46984589857E+02  0.67567390185E+02  0.86654844163E+02  0.00000000000E+00 0. -1.
         11    1    5    5    0    0 -0.82380630254E+02  0.10162655774E+03  0.72978423739E+03  0.74141726350E+03  0.00000000000E+00 0. -1.
        -12    1    5    5    0    0  0.36264499703E+01  0.29434383591E+02  0.34352084052E+03  0.34479863971E+03  0.00000000000E+00 0.  1.
          5    1    3    3  501    0  0.12545283646E+03  0.66167685612E+01 -0.12588389981E+02  0.12632551509E+03  0.41800000000E+01 0. -1.
         -5    1    3    3    0  501 -0.27457332016E+02  0.21136979437E+02  0.44840509895E+01  0.35188863216E+02  0.41800000000E+01 0. -1.
</event>
<event>
11    1  0.1704459E-009  0.2643681E+03  0.7561462E-02  0.1016512E+00
         22   -1    0    0    0    0  0.00000000000E+00  0.00000000000E+00  0.96261658870E+03  0.96261658870E+03  0.00000000000E+00 0. -1.
         22   -1    0    0    0    0 -0.00000000000E+00 -0.00000000000E+00 -0.18400047052E+04  0.18400047052E+04  0.00000000000E+00 0.  1.
         25    2    1    2    0    0 -0.12441552498E+03 -0.16836277358E+03 -0.13792362775E+04  0.14006298584E+04  0.12508415103E+03 0.  0.
        -24    2    1    2    0    0 -0.89010411090E+02  0.73654633830E+02 -0.42262092422E+03  0.44505237300E+03  0.78200452379E+02 0.  0.
         24    2    1    2    0    0  0.21342593607E+03  0.94708139754E+02  0.92446908522E+03  0.95693906245E+03  0.81049477354E+02 0.  0.
        -11    1    5    5    0    0  0.46083979751E+02  0.58012245081E+02  0.22935603078E+03  0.24102560575E+03  0.00000000000E+00 0.  1.
         12    1    5    5    0    0  0.16734195632E+03  0.36695894672E+02  0.69511305444E+03  0.71591345670E+03  0.00000000000E+00 0. -1.
         13    1    4    4    0    0 -0.85137693089E+01 -0.92767656572E+01 -0.12731006712E+03  0.12793121526E+03  0.00000000000E+00 0. -1.
        -14    1    4    4    0    0 -0.80496641781E+02  0.82931399487E+02 -0.29531085710E+03  0.31712115773E+03  0.00000000000E+00 0.  1.
          5    1    3    3  501    0 -0.16786133572E+02  0.14880334321E+02 -0.28686616408E+03  0.28777224870E+03  0.41800000000E+01 0.  1.
         -5    1    3    3    0  501 -0.10762939141E+03 -0.18324310790E+03 -0.10923701134E+04  0.11128576097E+04  0.41800000000E+01 0.  1.
</event>
<event>
11    1  0.2902359E-009  0.2476153E+04  0.7561462E-02  0.7895688E-01
         22   -1    0    0    0    0  0.00000000000E+00  0.00000000000E+00  0.10761501910E+04  0.10761501910E+04  0.00000000000E+00 0.  1.
         22   -1    0    0    0    0 -0.00000000000E+00 -0.00000000000E+00 -0.14243679001E+04  0.14243679001E+04  0.00000000000E+00 0.  1.
         25    2    1    2    0    0  0.13107680976E+03 -0.56011185179E+03 -0.12661624008E+04  0.13963242604E+04  0.12509116112E+03 0.  0.
        -24    2    1    2    0    0 -0.12818052533E+03  0.43826339092E+03  0.65479878151E+03  0.80216315387E+03  0.78735216202E+02 0.  0.
         24    2    1    2    0    0 -0.28962844271E+01  0.12184846087E+03  0.26314591016E+03  0.30203067672E+03  0.84387936149E+02 0.  0.
        -11    1    5    5    0    0 -0.31352731777E+02  0.15536558858E+02  0.93301266201E+02  0.99646900231E+02  0.00000000000E+00 0.  1.
         12    1    5    5    0    0  0.28456447350E+02  0.10631190201E+03  0.16984464396E+03  0.20238377649E+03  0.00000000000E+00 0. -1.
         11    1    4    4    0    0 -0.12529970038E+03  0.32148539752E+03  0.45999532851E+03  0.57502050224E+03  0.00000000000E+00 0. -1.
        -12    1    4    4    0    0 -0.28808249506E+01  0.11677799340E+03  0.19480345299E+03  0.22714265164E+03  0.00000000000E+00 0.  1.
          5    1    3    3  501    0 -0.17611424906E+02 -0.88468117609E+02 -0.25909865493E+03  0.27438359191E+03  0.41800000000E+01 0. -1.
         -5    1    3    3    0  501  0.14868823466E+03 -0.47164373418E+03 -0.10070637458E+04  0.11219406685E+04  0.41800000000E+01 0. -1.
</event>
<event>
11    1  0.1704459E-009  0.1725203E+03  0.7561462E-02  0.1075859E+00
         22   -1    0    0    0    0  0.00000000000E+00  0.00000000000E+00  0.31493461204E+03  0.31493461204E+03  0.00000000000E+00 0.  1.
         22   -1    0    0    0    0 -0.00000000000E+00 -0.00000000000E+00 -0.31600218013E+03  0.31600218013E+03  0.00000000000E+00 0.  1.
         25    2    1    2    0    0  0.12265974473E+03  0.12826552447E+02 -0.14688755781E+03  0.22897902180E+03  0.12508199054E+03 0.  0.
        -24    2    1    2    0    0 -0.10471613807E+03  0.88298966788E+02 -0.49829853202E+02  0.16707595060E+03  0.81665059171E+02 0.  0.
         24    2    1    2    0    0 -0.17943606662E+02 -0.10112551924E+03  0.19564984293E+03  0.23488181978E+03  0.79638336022E+02 0.  0.
        -11    1    5    5    0    0 -0.46382704401E+02 -0.78377716481E+02  0.11749743517E+03  0.14866091947E+03  0.00000000000E+00 0.  1.
         12    1    5    5    0    0  0.28439097739E+02 -0.22747802755E+02  0.78152407761E+02  0.86220900304E+02  0.00000000000E+00 0. -1.
         11    1    4    4    0    0 -0.67876679550E+01  0.42061668734E+02 -0.39823180603E+02  0.58319311778E+02  0.00000000000E+00 0. -1.
        -12    1    4    4    0    0 -0.97928470117E+02  0.46237298055E+02 -0.10006672599E+02  0.10875663882E+03  0.00000000000E+00 0.  1.
          5    1    3    3  501    0  0.11875026788E+03  0.38242285123E+01 -0.16771572544E+03  0.20557793609E+03  0.41800000000E+01 0. -1.
         -5    1    3    3    0  501  0.39094768526E+01  0.90023239347E+01  0.20828167632E+02  0.23401085710E+02  0.41800000000E+01 0. -1.
</event>
<event>
11    1  0.1704459E-009  0.2911319E+03  0.7561462E-02  0.1004016E+00
         22   -1    0    0    0    0  0.00000000000E+00  0.00000000000E+00  0.17235617818E+04  0.17235617818E+04  0.00000000000E+00 0. -1.
         22   -1    0    0    0    0 -0.00000000000E+00 -0.00000000000E+00 -0.21318012763E+04  0.21318012763E+04  0.00000000000E+00 0. -1.
         25    2    1    2    0    0 -0.88187110854E+02  0.34647996811E+03 -0.19652993232E+04  0.20014680279E+04  0.12508997718E+03 0.  0.
        -24    2    1    2    0    0  0.34086682365E+02 -0.89762380283E+02 -0.10878374856E+03  0.16567628284E+03  0.79972119614E+02 0.  0.
         24    2    1    2    0    0  0.54100428489E+02 -0.25671758783E+03  0.16658435772E+04  0.16882187474E+04  0.78847567863E+02 0.  0.
        -11    1    5    5    0    0  0.38990909884E+02 -0.37806337243E+02  0.35737285213E+03  0.36147609275E+03  0.00000000000E+00 0.  1.
         12    1    5    5    0    0  0.15109518605E+02 -0.21891125059E+03  0.13084707251E+04  0.13267426546E+04  0.00000000000E+00 0. -1.
         13    1    4    4    0    0 -0.75633489245E+01 -0.82153804526E+02 -0.68443158625E+02  0.10719569864E+03  0.00000000000E+00 0. -1.
        -14    1    4    4    0    0  0.41650031289E+02 -0.76085757571E+01 -0.40340589935E+02  0.58480584195E+02  0.00000000000E+00 0.  1.
          5    1    3    3  501    0 -0.10457578793E+03  0.33852265941E+03 -0.17596214381E+04  0.17949425517E+04  0.41800000000E+01 0.  1.
         -5    1    3    3    0  501  0.16388677076E+02  0.79573087056E+01 -0.20567788509E+03  0.20652547618E+03  0.41800000000E+01 0.  1.
</event>
<event>
11    1  0.1704459E-009  0.1357026E+03  0.7561462E-02  0.1112454E+00
         22   -1    0    0    0    0  0.00000000000E+00  0.00000000000E+00  0.67837099263E+03  0.67837099263E+03  0.00000000000E+00 0. -1.
         22   -1    0    0    0    0 -0.00000000000E+00 -0.00000000000E+00 -0.46395163938E+02  0.46395163938E+02  0.00000000000E+00 0.  1.
         25    2    1    2    0    0  0.41493183653E+02 -0.19421487880E+02  0.12824937581E+03  0.18491309215E+03  0.12508425469E+03 0.  0.
        -24    2    1    2    0    0 -0.68301977530E+02 -0.59143822322E+01  0.24338354678E+03  0.26534596270E+03  0.80453645216E+02 0.  0.
         24    2    1    2    0    0  0.26808793877E+02  0.25335870112E+02  0.26034290611E+03  0.27450710172E+03  0.78835920681E+02 0.  0.
        -13    1    5    5    0    0  0.41577549756E+02  0.35945397318E+00  0.65966762449E+02  0.77977147927E+02  0.00000000000E+00 0.  1.
         14    1    5    5    0    0 -0.14768755879E+02  0.24976416139E+02  0.19437614366E+03  0.19652995379E+03  0.00000000000E+00 0. -1.
         13    1    4    4    0    0 -0.82910536930E+02 -0.19968992939E+02  0.19087806511E+03  0.20906303727E+03  0.00000000000E+00 0. -1.
        -14    1    4    4    0    0  0.14608559400E+02  0.14054610707E+02  0.52505481664E+02  0.56282925427E+02  0.00000000000E+00 0.  1.
          5    1    3    3  501    0  0.50101944379E+02  0.36685695872E+02  0.10771883476E+03  0.12440604838E+03  0.41800000000E+01 0. -1.
         -5    1    3    3    0  501 -0.86087607260E+01 -0.56107183752E+02  0.20530541049E+02  0.60507043768E+02  0.41800000000E+01 0. -1.
</event>
<event>
11    1  0.1704459E-009  0.1278797E+03  0.7561462E-02  0.1121902E+00
         22   -1    0    0    0    0  0.00000000000E+00  0.00000000000E+00  0.40804709912E+03  0.40804709912E+03  0.00000000000E+00 0.  1.
         22   -1    0    0    0    0 -0.00000000000E+00 -0.00000000000E+00 -0.78875061095E+03  0.78875061095E+03  0.00000000000E+00 0. -1.
         25    2    1    2    0    0  0.15257345426E+02  0.13047876349E+02 -0.34419641985E+03  0.36677388223E+03  0.12509544988E+03 0.  0.
        -24    2    1    2    0    0 -0.41997894542E+02 -0.18696563837E+02 -0.42225676442E+03  0.43153264053E+03  0.76198819527E+02 0.  0.
         24    2    1    2    0    0  0.26740549116E+02  0.56486874887E+01  0.38574967244E+03  0.39849118730E+03  0.96153273123E+02 0.  0.
        -13    1    5    5    0    0  0.32123465001E+01 -0.34976165600E+02  0.28710009588E+03  0.28924058565E+03  0.00000000000E+00 0.  1.
         14    1    5    5    0    0  0.23528202616E+02  0.40624853089E+02  0.98649576559E+02  0.10925060166E+03  0.00000000000E+00 0. -1.
         13    1    4    4    0    0  0.66060142139E+01  0.65591021353E+00 -0.27805848331E+03  0.27813771730E+03  0.00000000000E+00 0. -1.
        -14    1    4    4    0    0 -0.48603908756E+02 -0.19352474051E+02 -0.14419828111E+03  0.15339492323E+03  0.00000000000E+00 0.  1.
          5    1    3    3  501    0  0.54742823312E+01  0.41677193558E+02 -0.33069259321E+03  0.33337969319E+03  0.41800000000E+01 0. -1.
         -5    1    3    3    0  501  0.97830630945E+01 -0.28629317209E+02 -0.13503826641E+02  0.33394189035E+02  0.41800000000E+01 0. -1.
</event>
<event>
11    1  0.1704459E-009  0.1831676E+03  0.7561462E-02  0.1067109E+00
         22   -1    0    0    0    0  0.00000000000E+00  0.00000000000E+00  0.25604458270E+03  0.25604458270E+03  0.00000000000E+00 0.  1.
         22   -1    0    0    0    0 -0.00000000000E+00 -0.00000000000E+00 -0.27614490203E+03  0.27614490203E+03  0.00000000000E+00 0. -1.
         25    2    1    2    0    0  0.12011780934E+03  0.72653586248E+02 -0.14373027738E+03  0.23666993108E+03  0.12508969551E+03 0.  0.
        -24    2    1    2    0    0 -0.93033929504E+02 -0.95434697972E+02  0.13518915843E+03  0.20625113274E+03  0.80624609041E+02 0.  0.
         24    2    1    2    0    0 -0.27083879840E+02  0.22781111724E+02 -0.11559200385E+02  0.89268420917E+02  0.81133964903E+02 0.  0.
        -11    1    5    5    0    0 -0.46304827357E+02  0.34723783920E+02 -0.24891787317E+02  0.63003803711E+02  0.00000000000E+00 0.  1.
         12    1    5    5    0    0  0.19220947517E+02 -0.11942672196E+02  0.13332586932E+02  0.26264617205E+02  0.00000000000E+00 0. -1.
         13    1    4    4    0    0 -0.62387141034E+02 -0.77975628812E+01  0.57244586252E+02  0.85028818693E+02  0.00000000000E+00 0. -1.
        -14    1    4    4    0    0 -0.30646788470E+02 -0.87637135091E+02  0.77944572183E+02  0.12122231405E+03  0.00000000000E+00 0.  1.
          5    1    3    3  501    0  0.68215054704E+01 -0.20913924911E+02 -0.67427478584E+02  0.71048310749E+02  0.41800000000E+01 0.  1.
         -5    1    3    3    0  501  0.11329630387E+03  0.93567511159E+02 -0.76302798798E+02  0.16562162033E+03  0.41800000000E+01 0.  1.
</event>
<event>
11    1  0.1704459E-009  0.5971321E+03  0.7561462E-02  0.9199347E-01
         22   -1    0    0    0    0  0.00000000000E+00  0.00000000000E+00  0.18516966965E+03  0.18516966965E+03  0.00000000000E+00 0.  1.
         22   -1    0    0    0    0 -0.00000000000E+00 -0.00000000000E+00 -0.28333997950E+04  0.28333997950E+04  0.00000000000E+00 0.  1.
         25    2    1    2    0    0 -0.15446047130E+03 -0.51585447647E+03 -0.14158532787E+04  0.15199518617E+04  0.12509707100E+03 0.  0.
        -24    2    1    2    0    0  0.22736815631E+03  0.62378925710E+03 -0.11357645104E+04  0.13177942128E+04  0.76231545364E+02 0.  0.
         24    2    1    2    0    0 -0.72907685016E+02 -0.10793478063E+03 -0.96612336266E+02  0.18082339007E+03  0.79985670437E+02 0.  0.
        -13    1    5    5    0    0 -0.66031061505E+02 -0.10840569071E+03 -0.10856368689E+03  0.16702685105E+03  0.00000000000E+00 0.  1.
         14    1    5    5    0    0 -0.68766235112E+01  0.47091007965E+00  0.11951350624E+02  0.13796539021E+02  0.00000000000E+00 0. -1.
         11    1    4    4    0    0  0.70955101201E+02  0.11071505515E+03 -0.24239802251E+03  0.27577028691E+03  0.00000000000E+00 0. -1.
        -12    1    4    4    0    0  0.15641305511E+03  0.51307420195E+03 -0.89336648788E+03  0.10420239259E+04  0.00000000000E+00 0.  1.
          5    1    3    3  501    0 -0.66632046409E+02 -0.14606958364E+03 -0.57829601005E+03  0.60018322245E+03  0.41800000000E+01 0.  1.
         -5    1    3    3    0  501 -0.87828424890E+02 -0.36978489283E+03 -0.83755726862E+03  0.91976863928E+03  0.41800000000E+01 0.  1.
</event>
<event>
11    1  0.1704459E-009  0.1595780E+03  0.7561462E-02  0.1087475E+00
         22   -1    0    0    0    0  0.00000000000E+00  0.00000000000E+00  0.43806016658E+03  0.43806016658E+03  0.00000000000E+00 0.  1.
         22   -1    0    0    0    0 -0.00000000000E+00 -0.00000000000E+00 -0.29835108361E+03  0.29835108361E+03  0.00000000000E+00 0.  1.
         25    2    1    2    0    0  0.13224829962E+03 -0.85193104150E+01 -0.20041460763E+03  0.27090064916E+03  0.12513574774E+03 0.  0.
        -24    2    1    2    0    0 -0.34794268682E+02  0.95864702699E+01 -0.13581120028E+02  0.89531836269E+02  0.80801988460E+02 0.  0.
         24    2    1    2    0    0 -0.97454030934E+02 -0.10671598550E+01  0.35370481063E+03  0.37597876475E+03  0.82185835201E+02 0.  0.
        -11    1    5    5    0    0 -0.10710868606E+03 -0.12705759788E+02  0.26696314474E+03  0.28792885859E+03  0.00000000000E+00 0.  1.
         12    1    5    5    0    0  0.96546551210E+01  0.11638599933E+02  0.86741665886E+02  0.88049906159E+02  0.00000000000E+00 0. -1.
         11    1    4    4    0    0 -0.83798233320E+01 -0.22651147654E+02 -0.35116173917E+02  0.42619732516E+02  0.00000000000E+00 0. -1.
        -12    1    4    4    0    0 -0.26414445350E+02  0.32237617924E+02  0.21535053889E+02  0.46912103753E+02  0.00000000000E+00 0.  1.
          5    1    3    3  501    0  0.13895127637E+03  0.24674106965E+02 -0.18682455771E+03  0.23417334717E+03  0.41800000000E+01 0. -1.
         -5    1    3    3    0  501 -0.67029767558E+01 -0.33193417380E+02 -0.13590049918E+02  0.36727301991E+02  0.41800000000E+01 0. -1.
</event>
<event>
11    1  0.1704459E-009  0.5203347E+03  0.7561462E-02  0.9349197E-01
         22   -1    0    0    0    0  0.00000000000E+00  0.00000000000E+00  0.90953379447E+02  0.90953379447E+02  0.00000000000E+00 0.  1.
         22   -1    0    0    0    0 -0.00000000000E+00 -0.00000000000E+00 -0.74419485807E+03  0.74419485807E+03  0.00000000000E+00 0. -1.
         25    2    1    2    0    0  0.96567137169E+02 -0.13434312182E+03 -0.50332516122E+03  0.54438806551E+03  0.12509540996E+03 0.  0.
        -24    2    1    2    0    0 -0.93767596993E+02  0.10873821245E+03 -0.85772175696E+02  0.18454340973E+03  0.77993864245E+02 0.  0.
         24    2    1    2    0    0 -0.27995401759E+01  0.25604909372E+02 -0.64144141708E+02  0.10621676227E+03  0.80647881952E+02 0.  0.
        -13    1    5    5    0    0  0.36209743148E+02  0.27696106121E+02 -0.33793494443E+02  0.56746982825E+02  0.00000000000E+00 0.  1.
         14    1    5    5    0    0 -0.39009283324E+02 -0.20911967491E+01 -0.30350647266E+02  0.49469779449E+02  0.00000000000E+00 0. -1.
         13    1    4    4    0    0 -0.91113118973E+02  0.49624886399E+02 -0.47782319007E+02  0.11422512775E+03  0.00000000000E+00 0. -1.
        -14    1    4    4    0    0 -0.26544780202E+01  0.59113326050E+02 -0.37989856689E+02  0.70318281987E+02  0.00000000000E+00 0.  1.
          5    1    3    3  501    0  0.11197258659E+03 -0.14662491716E+03 -0.47537884866E+03  0.50994043636E+03  0.41800000000E+01 0. -1.
         -5    1    3    3    0  501 -0.15405449420E+02  0.12281795339E+02 -0.27946312562E+02  0.34447629155E+02  0.41800000000E+01 0. -1.
</event>
<event>
11    1  0.1704459E-009  0.2435631E+03  0.7561462E-02  0.1027385E+00
         22   -1    0    0    0    0  0.00000000000E+00  0.00000000000E+00  0.65960228361E+03  0.65960228361E+03  0.00000000000E+00 0.  1.
         22   -1    0    0    0    0 -0.00000000000E+00 -0.00000000000E+00 -0.13607200766E+03  0.13607200766E+03  0.00000000000E+00 0.  1.
         25    2    1    2    0    0 -0.97232813812E+02 -0.21042365862E+03  0.12644978112E+03  0.29218349188E+03  0.12509720060E+03 0.  0.
         24    2    1    2    0    0  0.43287555383E+02  0.17850808006E+03  0.21093674768E+03  0.29175071845E+03  0.82977244450E+02 0.  0.
        -24    2    1    2    0    0  0.53945258428E+02  0.31915578559E+02  0.18614374715E+03  0.21174008093E+03  0.79092807559E+02 0.  0.
        -13    1    4    4    0    0  0.14747027218E+02  0.15812260718E+03  0.19922011660E+03  0.25477222880E+03  0.00000000000E+00 0.  1.
         14    1    4    4    0    0  0.28540528165E+02  0.20385472878E+02  0.11716631082E+02  0.36978489643E+02  0.00000000000E+00 0. -1.
         11    1    5    5    0    0 -0.19064310856E+02 -0.98879470325E-01  0.21010440566E+02  0.28370695062E+02  0.00000000000E+00 0. -1.
        -12    1    5    5    0    0  0.73009569284E+02  0.32014458029E+02  0.16513330659E+03  0.18336938587E+03  0.00000000000E+00 0.  1.
          5    1    3    3  501    0 -0.10883351071E+03 -0.88358373236E+02  0.76134445293E+02  0.15958026612E+03  0.41800000000E+01 0.  1.
         -5    1    3    3    0  501  0.11600696901E+02 -0.12206528538E+03  0.50315335827E+02  0.13260322576E+03  0.41800000000E+01 0.  1.
</event>
<event>
11    1  0.1704459E-009  0.3602986E+03  0.7561462E-02  0.9774756E-01
         22   -1    0    0    0    0  0.00000000000E+00  0.00000000000E+00  0.21444969705E+04  0.21444969705E+04  0.00000000000E+00 0.  1.
         22   -1    0    0    0    0 -0.00000000000E+00 -0.00000000000E+00 -0.10603141923E+03  0.10603141923E+03  0.00000000000E+00 0.  1.
         25    2    1    2    0    0 -0.18965714727E+03  0.30925708225E+03  0.41269641723E+03  0.56353985901E+03  0.12509621683E+03 0.  0.
        -24    2    1    2    0    0  0.17656803461E+03 -0.23564540568E+03  0.84175302376E+03  0.89538294978E+03  0.80358233438E+02 0.  0.
         24    2    1    2    0    0  0.13089112662E+02 -0.73611676563E+02  0.78401611032E+03  0.79160558098E+03  0.79800568944E+02 0.  0.
        -13    1    5    5    0    0 -0.17870433955E+02  0.86711068792E+01  0.20398057897E+03  0.20494540029E+03  0.00000000000E+00 0.  1.
         14    1    5    5    0    0  0.30959546617E+02 -0.82282783442E+02  0.58003553134E+03  0.58666018068E+03  0.00000000000E+00 0. -1.
         13    1    4    4    0    0  0.21708266464E+02 -0.87872646894E+02  0.22401571709E+03  0.24161103536E+03  0.00000000000E+00 0. -1.
        -14    1    4    4    0    0  0.15485976814E+03 -0.14777275879E+03  0.61773730667E+03  0.65377191442E+03  0.00000000000E+00 0.  1.
          5    1    3    3  501    0 -0.15701130820E+03  0.29282860032E+03  0.40839768248E+03  0.52650477635E+03  0.41800000000E+01 0.  1.
         -5    1    3    3    0  501 -0.32645839071E+02  0.16428481925E+02  0.42987347558E+01  0.37035082658E+02  0.41800000000E+01 0.  1.
</event>
<event>
11    1  0.1704459E-009  0.1778213E+03  0.7561462E-02  0.1071419E+00
         22   -1    0    0    0    0  0.00000000000E+00  0.00000000000E+00  0.10391595490E+03  0.10391595490E+03  0.00000000000E+00 0. -1.
         22   -1    0    0    0    0 -0.00000000000E+00 -0.00000000000E+00 -0.65192538446E+03  0.65192538446E+03  0.00000000000E+00 0. -1.
         25    2    1    2    0    0  0.76219695913E+02  0.27001007479E+02 -0.16630737009E+03  0.22325594851E+03  0.12508629321E+03 0.  0.
        -24    2    1    2    0    0 -0.13403304739E+02 -0.17165890576E+03 -0.24049813867E+03  0.30641060984E+03  0.80010490635E+02 0.  0.
         24    2    1    2    0    0 -0.62816391173E+02  0.14465789828E+03 -0.14120392079E+03  0.22617478102E+03  0.79653485704E+02 0.  0.
        -13    1    5    5    0    0 -0.41872023958E+02  0.38258378049E+02 -0.89691552856E+02  0.10612042468E+03  0.00000000000E+00 0.  1.
         14    1    5    5    0    0 -0.20944367215E+02  0.10639952023E+03 -0.51512367938E+02  0.12005435633E+03  0.00000000000E+00 0. -1.
         11    1    4    4    0    0 -0.26774661532E+01 -0.15719215433E+03 -0.24173225579E+03  0.28835919561E+03  0.00000000000E+00 0. -1.
        -12    1    4    4    0    0 -0.10725838586E+02 -0.14466751434E+02  0.12341171160E+01  0.18051414224E+02  0.00000000000E+00 0.  1.
          5    1    3    3  501    0 -0.12152646619E+01 -0.50655754947E+01 -0.13268781285E+03  0.13285580530E+03  0.41800000000E+01 0. -1.
         -5    1    3    3    0  501  0.77434960575E+02  0.32066582973E+02 -0.33619557238E+02  0.90400143206E+02  0.41800000000E+01 0. -1.
</event>
<event>
11    1  0.1704459E-009  0.1781203E+03  0.7561462E-02  0.1071173E+00
         22   -1    0    0    0    0  0.00000000000E+00  0.00000000000E+00  0.50516515989E+02  0.50516515989E+02  0.00000000000E+00 0. -1.
         22   -1    0    0    0    0 -0.00000000000E+00 -0.00000000000E+00 -0.15837943037E+04  0.15837943037E+04  0.00000000000E+00 0.  1.
         25    2    1    2    0    0 -0.70671730846E+02 -0.19605106253E+01 -0.53821081212E+03  0.55706195802E+03  0.12509520231E+03 0.  0.
        -24    2    1    2    0    0 -0.19549388680E+02 -0.14029765260E+03 -0.75939554129E+03  0.77666360064E+03  0.80368840409E+02 0.  0.
         24    2    1    2    0    0  0.90221119526E+02  0.14225816322E+03 -0.23567143425E+03  0.30058526098E+03  0.80207473378E+02 0.  0.
        -11    1    5    5    0    0  0.56975274763E+02  0.12100126037E+03 -0.22132682253E+03  0.25859823920E+03  0.00000000000E+00 0.  1.
         12    1    5    5    0    0  0.33245844763E+02  0.21256902851E+02 -0.14344611722E+02  0.41987021784E+02  0.00000000000E+00 0. -1.
         11    1    4    4    0    0 -0.44412154914E+01  0.13487735227E+01 -0.67971115749E+00  0.46910118646E+01  0.00000000000E+00 0. -1.
        -12    1    4    4    0    0 -0.15108173189E+02 -0.14164642612E+03 -0.75871583013E+03  0.77197258878E+03  0.00000000000E+00 0.  1.
          5    1    3    3  501    0  0.91669133649E+01  0.31623293863E+02 -0.43013727885E+02  0.54329717484E+02  0.41800000000E+01 0. -1.
         -5    1    3    3    0  501 -0.79838644211E+02 -0.33583804489E+02 -0.49519708424E+03  0.50273224053E+03  0.41800000000E+01 0. -1.
</event>
<event>
11    1  0.1704459E-009  0.4008165E+03  0.7561462E-02  0.9647352E-01
         22   -1    0    0    0    0  0.00000000000E+00  0.00000000000E+00  0.92424134962E+03  0.92424134962E+03  0.00000000000E+00 0. -1.
         22   -1    0    0    0    0 -0.00000000000E+00 -0.00000000000E+00 -0.46373216121E+03  0.46373216121E+03  0.00000000000E+00 0. -1.
         25    2    1    2    0    0 -0.18838701582E+03  0.58219275756E+02 -0.13827139738E+03  0.27137419930E+03  0.12508327192E+03 0.  0.
         24    2    1    2    0    0 -0.73289086781E+02 -0.37267090676E+03  0.15132069818E+01  0.38826954754E+03  0.80598118856E+02 0.  0.
        -24    2    1    2    0    0  0.26167610260E+03  0.31445163101E+03  0.59726737881E+03  0.72832976399E+03  0.79885620780E+02 0.  0.
        -11    1    4    4    0    0  0.84626696722E+01 -0.15209628422E+03 -0.10771183711E+02  0.15271186873E+03  0.00000000000E+00 0.  1.
         12    1    4    4    0    0 -0.81751756453E+02 -0.22057462254E+03  0.12284390693E+02  0.23555767881E+03  0.00000000000E+00 0. -1.
         13    1    5    5    0    0  0.17293944792E+03  0.16722249580E+03  0.29556402075E+03  0.38108989242E+03  0.00000000000E+00 0. -1.
        -14    1    5    5    0    0  0.88736654681E+02  0.14722913521E+03  0.30170335806E+03  0.34723987157E+03  0.00000000000E+00 0.  1.
          5    1    3    3  501    0 -0.99584809209E+02  0.84860214085E+02 -0.11830886262E+03  0.17644503261E+03  0.41800000000E+01 0.  1.
         -5    1    3    3    0  501 -0.88802206610E+02 -0.26640938330E+02 -0.19962534765E+02  0.94929166688E+02  0.41800000000E+01 0.  1.
</event>
<event>
11    1  0.1704459E-009  0.2755067E+03  0.7561462E-02  0.1011125E+00
         22   -1    0    0    0    0  0.00000000000E+00  0.00000000000E+00  0.87620556208E+03  0.87620556208E+03  0.00000000000E+00 0. -1.
         22   -1    0    0    0    0 -0.00000000000E+00 -0.00000000000E+00 -0.18401811763E+03  0.18401811763E+03  0.00000000000E+00 0.  1.
         25    2    1    2    0    0  0.82980201810E+02  0.63414184106E+02  0.45087986472E+02  0.16908376598E+03  0.12509724520E+03 0.  0.
         24    2    1    2    0    0 -0.17746526242E+03  0.19050564039E+03  0.12891138170E+03  0.30135461072E+03  0.80063341724E+02 0.  0.
        -24    2    1    2    0    0  0.94485060612E+02 -0.25391982449E+03  0.51818807628E+03  0.58978530300E+03  0.76974783423E+02 0.  0.
        -11    1    4    4    0    0 -0.15303080141E+03  0.11102827945E+03  0.84508857227E+02  0.20709285832E+03  0.00000000000E+00 0.  1.
         12    1    4    4    0    0 -0.24434461007E+02  0.79477360935E+02  0.44402524472E+02  0.94261752399E+02  0.00000000000E+00 0. -1.
         11    1    5    5    0    0  0.10213650941E+03 -0.23851122963E+03  0.44981666371E+03  0.51928268233E+03  0.00000000000E+00 0. -1.
        -12    1    5    5    0    0 -0.76514488025E+01 -0.15408594865E+02  0.68371412566E+02  0.70502620666E+02  0.00000000000E+00 0.  1.
          5    1    3    3  501    0 -0.98024174675E+01 -0.69472921192E+01 -0.28542887366E+02  0.31249337196E+02  0.41800000000E+01 0.  1.
         -5    1    3    3    0  501  0.92782619277E+02  0.70361476226E+02  0.73630873838E+02  0.13783442879E+03  0.41800000000E+01 0.  1.
</event>
<event>
11    1  0.1704459E-009  0.3787633E+03  0.7561462E-02  0.9714583E-01
         22   -1    0    0    0    0  0.00000000000E+00  0.00000000000E+00  0.61037822371E+03  0.61037822371E+03  0.00000000000E+00 0. -1.
         22   -1    0    0    0    0 -0.00000000000E+00 -0.00000000000E+00 -0.55426340545E+03  0.55426340545E+03  0.00000000000E+00 0.  1.
         25    2    1    2    0    0  0.60765867585E+02 -0.36398478151E+03 -0.37360457408E+03  0.53981978396E+03  0.12509040548E+03 0.  0.
        -24    2    1    2    0    0 -0.34743272508E+02  0.29139084748E+03  0.41452050843E+03  0.51445406033E+03  0.81975650691E+02 0.  0.
         24    2    1    2    0    0 -0.26022595077E+02  0.72593934028E+02  0.15198883917E+02  0.11036778487E+03  0.77478946515E+02 0.  0.
        -11    1    5    5    0    0 -0.34904871515E+01 -0.16783008844E+02  0.22378596911E+01  0.17287593887E+02  0.00000000000E+00 0.  1.
         12    1    5    5    0    0 -0.22532107925E+02  0.89376942872E+02  0.12961024226E+02  0.93080190985E+02  0.00000000000E+00 0. -1.
         13    1    4    4    0    0 -0.38215563844E+01  0.96932500591E+02  0.20578240992E+03  0.22750145976E+03  0.00000000000E+00 0. -1.
        -14    1    4    4    0    0 -0.30921716124E+02  0.19445834689E+03  0.20873809851E+03  0.28695260057E+03  0.00000000000E+00 0.  1.
          5    1    3    3  501    0 -0.26624325390E+02 -0.21053101450E+03 -0.18710657897E+03  0.28294612042E+03  0.41800000000E+01 0.  1.
         -5    1    3    3    0  501  0.87390192974E+02 -0.15345376701E+03 -0.18649799511E+03  0.25687366354E+03  0.41800000000E+01 0.  1.
</event>
<event>
11    1  0.1704459E-009  0.1819951E+03  0.7561462E-02  0.1068040E+00
         22   -1    0    0    0    0  0.00000000000E+00  0.00000000000E+00  0.22970079479E+03  0.22970079479E+03  0.00000000000E+00 0.  1.
         22   -1    0    0    0    0 -0.00000000000E+00 -0.00000000000E+00 -0.26029504999E+03  0.26029504999E+03  0.00000000000E+00 0. -1.
         25    2    1    2    0    0 -0.11291758170E+03  0.10106614920E+02 -0.88361639628E+02  0.19054747149E+03  0.12509210851E+03 0.  0.
         24    2    1    2    0    0  0.17260156498E+03 -0.27883925579E+02  0.34653956139E+02  0.19548858756E+03  0.80287468832E+02 0.  0.
        -24    2    1    2    0    0 -0.59683983273E+02  0.17777310659E+02  0.23113428287E+02  0.10395978574E+03  0.79969968425E+02 0.  0.
        -13    1    4    4    0    0 -0.21231294644E+01 -0.88218363045E+01  0.16450509562E+02  0.18787009856E+02  0.00000000000E+00 0.  1.
         14    1    4    4    0    0  0.17472469444E+03 -0.19062089274E+02  0.18203446577E+02  0.17670157770E+03  0.00000000000E+00 0. -1.
         13    1    5    5    0    0 -0.43556687096E+02  0.20849108586E+02 -0.24103019036E+02  0.53970601685E+02  0.00000000000E+00 0. -1.
        -14    1    5    5    0    0 -0.16127296178E+02 -0.30717979267E+01  0.47216447323E+02  0.49989184053E+02  0.00000000000E+00 0.  1.
          5    1    3    3  501    0 -0.99064284385E+02 -0.11590644559E+02 -0.14827485760E+01  0.99838601880E+02  0.41800000000E+01 0.  1.
         -5    1    3    3    0  501 -0.13853297318E+02  0.21697259478E+02 -0.86878891052E+02  0.90708869610E+02  0.41800000000E+01 0.  1.
</event>
<event>
11    1  0.1704459E-009  0.1538474E+03  0.7561462E-02  0.1093011E+00
         22   -1    0    0    0    0  0.00000000000E+00  0.00000000000E+00  0.21327143044E+03  0.21327143044E+03  0.00000000000E+00 0. -1.
         22   -1    0    0    0    0 -0.00000000000E+00 -0.00000000000E+00 -0.11777375879E+04  0.11777375879E+04  0.00000000000E+00 0. -1.
         25    2    1    2    0    0 -0.37563365735E+02 -0.91430062852E+02 -0.70504367637E+03  0.72284253308E+03  0.12507709308E+03 0.  0.
         24    2    1    2    0    0  0.10624500504E+03  0.15952519696E+02 -0.43314292901E+03  0.45225399952E+03  0.73337569843E+02 0.  0.
        -24    2    1    2    0    0 -0.68681639308E+02  0.75477543155E+02  0.17372044790E+03  0.21591248576E+03  0.77623323768E+02 0.  0.
        -11    1    4    4    0    0  0.87124400601E+01  0.29431827485E+02 -0.81556919252E+02  0.87141667180E+02  0.00000000000E+00 0.  1.
         12    1    4    4    0    0  0.97532564983E+02 -0.13479307789E+02 -0.35158600975E+03  0.36511233234E+03  0.00000000000E+00 0. -1.
         13    1    5    5    0    0 -0.98497479440E+01  0.67192135871E+02  0.10527213653E+03  0.12527578931E+03  0.00000000000E+00 0. -1.
        -14    1    5    5    0    0 -0.58831891364E+02  0.82854072843E+01  0.68448311362E+02  0.90636696451E+02  0.00000000000E+00 0.  1.
          5    1    3    3  501    0  0.95662570752E+01 -0.18737889955E+02 -0.49673992934E+03  0.49720282742E+03  0.41800000000E+01 0.  1.
         -5    1    3    3    0  501 -0.47129622810E+02 -0.72692172897E+02 -0.20830374702E+03  0.22563970566E+03  0.41800000000E+01 0.  1.
</event>
<event>
11    1  0.1704459E-009  0.1772244E+03  0.7561462E-02  0.1071910E+00
         22   -1    0    0    0    0  0.00000000000E+00  0.00000000000E+00  0.93193244337E+03  0.93193244337E+03  0.00000000000E+00 0.  1.
         22   -1    0    0    0    0 -0.00000000000E+00 -0.00000000000E+00 -0.34771787205E+03  0.34771787205E+03  0.00000000000E+00 0.  1.
         25    2    1    2    0    0  0.14892828862E+02 -0.12552442868E+03 -0.30997133912E+03  0.35736622537E+03  0.12510079702E+03 0.  0.
         24    2    1    2    0    0 -0.42814459631E+02  0.10313378515E+03  0.47655263470E+03  0.49545113648E+03  0.76809891343E+02 0.  0.
        -24    2    1    2    0    0  0.27921630769E+02  0.22390643534E+02  0.41763327574E+03  0.42683295357E+03  0.80547246179E+02 0.  0.
        -11    1    4    4    0    0  0.98388632328E+01  0.74462837573E+02  0.28532453040E+03  0.29504508987E+03  0.00000000000E+00 0.  1.
         12    1    4    4    0    0 -0.52653322864E+02  0.28670947574E+02  0.19122810430E+03  0.20040604661E+03  0.00000000000E+00 0. -1.
         13    1    5    5    0    0  0.30078041780E+02  0.34873187484E+02  0.11420828346E+03  0.12314365519E+03  0.00000000000E+00 0. -1.
        -14    1    5    5    0    0 -0.21564110108E+01 -0.12482543950E+02  0.30342499228E+03  0.30368929838E+03  0.00000000000E+00 0.  1.
          5    1    3    3  501    0 -0.28714371454E+02 -0.21704709859E+01 -0.13913239795E+03  0.14214261371E+03  0.41800000000E+01 0.  1.
         -5    1    3    3    0  501  0.43607200316E+02 -0.12335395769E+03 -0.17083894117E+03  0.21522361166E+03  0.41800000000E+01 0.  1.
</event>
<event>
11    1  0.1704459E-009  0.1907141E+03  0.7561462E-02  0.1061292E+00
         22   -1    0    0    0    0  0.00000000000E+00  0.00000000000E+00  0.11791895411E+04  0.11791895411E+04  0.00000000000E+00 0. -1.
         22   -1    0    0    0    0 -0.00000000000E+00 -0.00000000000E+00 -0.80688562678E+03  0.80688562678E+03  0.00000000000E+00 0.  1.
         25    2    1    2    0    0  0.98941194520E+02 -0.10370146604E+03 -0.74823393648E+03  0.77204003052E+03  0.12509368883E+03 0.  0.
         24    2    1    2    0    0  0.13969013642E+02 -0.66478429387E+02  0.46020861693E+02  0.11749869115E+03  0.84104148503E+02 0.  0.
        -24    2    1    2    0    0 -0.11291020816E+03  0.17017989543E+03  0.10745169892E+04  0.10965364463E+04  0.78073722011E+02 0.  0.
        -11    1    4    4    0    0  0.18277940808E+02  0.10244924614E+02 -0.91868024071E+01  0.22878787970E+02  0.00000000000E+00 0.  1.
         12    1    4    4    0    0 -0.43089271658E+01 -0.76723354001E+02  0.55207664100E+02  0.94619903181E+02  0.00000000000E+00 0. -1.
         11    1    5    5    0    0 -0.79453679914E+02  0.57013553564E+02  0.40047458135E+03  0.41224182569E+03  0.00000000000E+00 0. -1.
        -12    1    5    5    0    0 -0.33456528248E+02  0.11316634187E+03  0.67404240781E+03  0.68429462057E+03  0.00000000000E+00 0.  1.
          5    1    3    3  501    0  0.73988100369E+02  0.69002425306E+01 -0.35758583797E+03  0.36524917010E+03  0.41800000000E+01 0. -1.
         -5    1    3    3    0  501  0.24953094151E+02 -0.11060170857E+03 -0.39064809851E+03  0.40679086042E+03  0.41800000000E+01 0. -1.
</event>
<event>
11    1  0.2411900E-009  0.1336447E+04  0.7561462E-02  0.8411807E-01
         22   -1    0    0    0    0  0.00000000000E+00  0.00000000000E+00  0.10584963833E+04  0.10584963833E+04  0.00000000000E+00 0. -1.
         22   -1    0    0    0    0 -0.00000000000E+00 -0.00000000000E+00 -0.42184599890E+03  0.42184599890E+03  0.00000000000E+00 0. -1.
         25    2    1    2    0    0 -0.44713614969E+03 -0.12451425997E+03 -0.19006115207E+03  0.51691932700E+03  0.12509121394E+03 0.  0.
         24    2    1    2    0    0  0.29782139465E+03  0.67183682381E+02  0.52180089285E+03  0.60976478118E+03  0.79534183175E+02 0.  0.
        -24    2    1    2    0    0  0.14931475504E+03  0.57330577589E+02  0.30491064363E+03  0.35365827403E+03  0.80758795124E+02 0.  0.
        -13    1    4    4    0    0  0.16070322908E+03  0.35105276968E+01  0.31444604785E+03  0.35314893267E+03  0.00000000000E+00 0.  1.
         14    1    4    4    0    0  0.13711816556E+03  0.63673154684E+02  0.20735484501E+03  0.25661584850E+03  0.00000000000E+00 0. -1.
         11    1    5    5    0    0  0.16001317922E+02  0.10226767949E+02  0.11680895228E+03  0.11834255486E+03  0.00000000000E+00 0. -1.
        -12    1    5    5    0    0  0.13331343712E+03  0.47103809641E+02  0.18810169135E+03  0.23531571917E+03  0.00000000000E+00 0.  1.
          5    1    3    3  501    0 -0.27025418550E+03 -0.14560719843E+02 -0.12896511593E+03  0.29983130736E+03  0.41800000000E+01 0. -1.
         -5    1    3    3    0  501 -0.17688196419E+03 -0.10995354013E+03 -0.61096036142E+02  0.21708801965E+03  0.41800000000E+01 0. -1.
</event>
<event>
11    1  0.1704459E-009  0.1342592E+03  0.7561462E-02  0.1114144E+00
         22   -1    0    0    0    0  0.00000000000E+00  0.00000000000E+00  0.25868325005E+03  0.25868325005E+03  0.00000000000E+00 0. -1.
         22   -1    0    0    0    0 -0.00000000000E+00 -0.00000000000E+00 -0.37288059479E+03  0.37288059479E+03  0.00000000000E+00 0. -1.
         25    2    1    2    0    0 -0.16048381524E+02  0.35575665496E+02 -0.25293674247E+03  0.28486423926E+03  0.12508981011E+03 0.  0.
        -24    2    1    2    0    0 -0.13349463520E+02  0.38460822815E+01 -0.76257598560E+02  0.11090585478E+03  0.79321414259E+02 0.  0.
         24    2    1    2    0    0  0.29397845044E+02 -0.39421747777E+02  0.21499699630E+03  0.23579375081E+03  0.83406696443E+02 0.  0.
        -11    1    5    5    0    0 -0.48915099514E+01  0.81677615796E+01 -0.30484675914E+01  0.99966171018E+01  0.00000000000E+00 0.  1.
         12    1    5    5    0    0  0.34289354995E+02 -0.47589509357E+02  0.21804546389E+03  0.22579713370E+03  0.00000000000E+00 0. -1.
         11    1    4    4    0    0 -0.32644447256E+02 -0.13690501676E+02 -0.77079435165E+02  0.84819391050E+02  0.00000000000E+00 0. -1.
        -12    1    4    4    0    0  0.19294983736E+02  0.17536583957E+02  0.82183660487E+00  0.26086463725E+02  0.00000000000E+00 0.  1.
          5    1    3    3  501    0  0.46199056562E+00 -0.32254305565E+02 -0.18332821752E+03  0.18619146436E+03  0.41800000000E+01 0. -1.
         -5    1    3    3    0  501 -0.16510372089E+02  0.67829971061E+02 -0.69608524954E+02  0.98672774903E+02  0.41800000000E+01 0. -1.
</event>
<event>
11    1  0.1704459E-009  0.1321923E+03  0.7561462E-02  0.1116604E+00
         22   -1    0    0    0    0  0.00000000000E+00  0.00000000000E+00  0.26644732882E+03  0.26644732882E+03  0.00000000000E+00 0. -1.
         22   -1    0    0    0    0 -0.00000000000E+00 -0.00000000000E+00 -0.10073706924E+03  0.10073706924E+03  0.00000000000E+00 0. -1.
         25    2    1    2    0    0 -0.61390480673E+02  0.73327934937E+01  0.41734374829E+02  0.14564357850E+03  0.12509089870E+03 0.  0.
         24    2    1    2    0    0  0.25410875679E+02 -0.17299748728E+02  0.25336060564E+02  0.87961545311E+02  0.78423998749E+02 0.  0.
        -24    2    1    2    0    0  0.35979604993E+02  0.99669552340E+01  0.98639824187E+02  0.13357927425E+03  0.81973992344E+02 0.  0.
        -13    1    4    4    0    0  0.41076477543E+02 -0.35106230520E+02  0.10911242337E+01  0.54045489921E+02  0.00000000000E+00 0.  1.
         14    1    4    4    0    0 -0.15665601863E+02  0.17806481793E+02  0.24244936331E+02  0.33916055390E+02  0.00000000000E+00 0. -1.
         11    1    5    5    0    0  0.18272440714E+02  0.27210402991E+02  0.92745174888E+00  0.32789453904E+02  0.00000000000E+00 0. -1.
        -12    1    5    5    0    0  0.17707164279E+02 -0.17243447757E+02  0.97712372438E+02  0.10078982034E+03  0.00000000000E+00 0.  1.
          5    1    3    3  501    0  0.20971974612E+02 -0.29601384131E+02 -0.14412796782E+02  0.39258970602E+02  0.41800000000E+01 0. -1.
         -5    1    3    3    0  501 -0.82362455285E+02  0.36934177625E+02  0.56147171611E+02  0.10638460790E+03  0.41800000000E+01 0. -1.
</event>
<event>
11    1  0.1704459E-009  0.1888857E+03  0.7561462E-02  0.1062674E+00
         22   -1    0    0    0    0  0.00000000000E+00  0.00000000000E+00  0.10224577376E+04  0.10224577376E+04  0.00000000000E+00 0.  1.
         22   -1    0    0    0    0 -0.00000000000E+00 -0.00000000000E+00 -0.52755321193E+02  0.52755321193E+02  0.00000000000E+00 0.  1.
         25    2    1    2    0    0 -0.14630799885E+03 -0.42836003530E+02  0.28509629342E+03  0.34665231141E+03  0.12508786816E+03 0.  0.
        -24    2    1    2    0    0  0.12548393142E+03  0.33854554720E+02  0.31758350368E+03  0.35214655412E+03  0.79092135184E+02 0.  0.
         24    2    1    2    0    0  0.20824067428E+02  0.89814488100E+01  0.36702261928E+03  0.37641419324E+03  0.80422220807E+02 0.  0.
        -11    1    5    5    0    0  0.12809096323E+02  0.44300360816E+02  0.17302589421E+03  0.17906578396E+03  0.00000000000E+00 0.  1.
         12    1    5    5    0    0  0.80149711043E+01 -0.35318912006E+02  0.19399672507E+03  0.19734840928E+03  0.00000000000E+00 0. -1.
         13    1    4    4    0    0 -0.10600003590E+02  0.90213348769E+00  0.38013791681E+02  0.39474324300E+02  0.00000000000E+00 0. -1.
        -14    1    4    4    0    0  0.13608393501E+03  0.32952421232E+02  0.27956971200E+03  0.31267222982E+03  0.00000000000E+00 0.  1.
          5    1    3    3  501    0 -0.10633529797E+03  0.10784988422E+02  0.88109400468E+02  0.13857940114E+03  0.41800000000E+01 0. -1.
         -5    1    3    3    0  501 -0.39972700878E+02 -0.53620991951E+02  0.19698689295E+03  0.20807291027E+03  0.41800000000E+01 0. -1.
</event>
<event>
11    1  0.1704459E-009  0.2485392E+03  0.7561462E-02  0.1024680E+00
         22   -1    0    0    0    0  0.00000000000E+00  0.00000000000E+00  0.13572264075E+03  0.13572264075E+03  0.00000000000E+00 0.  1.
         22   -1    0    0    0    0 -0.00000000000E+00 -0.00000000000E+00 -0.59199427672E+03  0.59199427672E+03  0.00000000000E+00 0.  1.
         25    2    1    2    0    0  0.59848479427E+02 -0.20343691874E+03 -0.20104850457E+03  0.31787741085E+03  0.12512844098E+03 0.  0.
        -24    2    1    2    0    0 -0.88054726938E+02  0.19938196867E+03 -0.21093362214E+03  0.31403612809E+03  0.81356575797E+02 0.  0.
         24    2    1    2    0    0  0.28206247511E+02  0.40549500656E+01 -0.44289509268E+02  0.95803378535E+02  0.80029317683E+02 0.  0.
        -11    1    5    5    0    0  0.25130715179E+02 -0.33779675958E+02 -0.71651248902E+01  0.42707825605E+02  0.00000000000E+00 0.  1.
         12    1    5    5    0    0  0.30755323321E+01  0.37834626024E+02 -0.37124384377E+02  0.53095552930E+02  0.00000000000E+00 0. -1.
         13    1    4    4    0    0 -0.25622017511E+02  0.34516429907E+01 -0.34306561836E+02  0.42957441796E+02  0.00000000000E+00 0. -1.
        -14    1    4    4    0    0 -0.62432709428E+02  0.19593032568E+03 -0.17662706030E+03  0.27107868629E+03  0.00000000000E+00 0.  1.
          5    1    3    3  501    0 -0.25158975660E+02 -0.83677286827E+02 -0.12464016383E+03  0.15227444049E+03  0.41800000000E+01 0.  1.
         -5    1    3    3    0  501  0.85007455087E+02 -0.11975963191E+03 -0.76408340737E+02  0.16560297035E+03  0.41800000000E+01 0.  1.
</event>
<event>
11    1  0.1704459E-009  0.1943461E+03  0.7561462E-02  0.1058595E+00
         22   -1    0    0    0    0  0.00000000000E+00  0.00000000000E+00  0.37711992485E+03  0.37711992485E+03  0.00000000000E+00 0. -1.
         22   -1    0    0    0    0 -0.00000000000E+00 -0.00000000000E+00 -0.38593040965E+03  0.38593040965E+03  0.00000000000E+00 0. -1.
         25    2    1    2    0    0  0.77748140822E+02  0.12897779678E+03 -0.28365221259E+03  0.34465380283E+03  0.12509044983E+03 0.  0.
        -24    2    1    2    0    0 -0.92968219938E+02 -0.10954086607E+03  0.42517733027E+02  0.17145260887E+03  0.83342355431E+02 0.  0.
         24    2    1    2    0    0  0.15220079116E+02 -0.19436930713E+02  0.23232399477E+03  0.24694392280E+03  0.79983856979E+02 0.  0.
        -11    1    5    5    0    0  0.35933270034E+02  0.98885847124E+01  0.57861094083E+02  0.68825069644E+02  0.00000000000E+00 0.  1.
         12    1    5    5    0    0 -0.20713190919E+02 -0.29325515425E+02  0.17446290068E+03  0.17811885315E+03  0.00000000000E+00 0. -1.
         11    1    4    4    0    0 -0.10385955023E+03 -0.10769363576E+03  0.50406391363E+02  0.15787821144E+03  0.00000000000E+00 0. -1.
        -12    1    4    4    0    0  0.10891330291E+02 -0.18472303122E+01 -0.78886583358E+01  0.13574397433E+02  0.00000000000E+00 0.  1.
          5    1    3    3  501    0  0.11117161808E+03  0.84405254462E+02 -0.19440598970E+03  0.23936277254E+03  0.41800000000E+01 0.  1.
         -5    1    3    3    0  501 -0.33423477255E+02  0.44572542320E+02 -0.89246222886E+02  0.10529103029E+03  0.41800000000E+01 0.  1.
</event>
<event>
11    1  0.1704459E-009  0.4068341E+03  0.7561462E-02  0.9629806E-01
         22   -1    0    0    0    0  0.00000000000E+00  0.00000000000E+00  0.95587159247E+03  0.95587159247E+03  0.00000000000E+00 0.  1.
         22   -1    0    0    0    0 -0.00000000000E+00 -0.00000000000E+00 -0.27319367676E+03  0.27319367676E+03  0.00000000000E+00 0.  1.
         25    2    1    2    0    0  0.41439534702E+01 -0.13396854280E+02  0.11769082350E+03  0.17232649368E+03  0.12509453398E+03 0.  0.
         24    2    1    2    0    0  0.37911869545E+03 -0.11691731336E+03  0.66564248453E+02  0.40998041591E+03  0.79072744053E+02 0.  0.
        -24    2    1    2    0    0 -0.38326264892E+03  0.13031416764E+03  0.49842284376E+03  0.64675835964E+03  0.77453239075E+02 0.  0.
        -11    1    4    4    0    0  0.32127505705E+03 -0.12650740348E+03  0.48808839206E+02  0.34871777730E+03  0.00000000000E+00 0.  1.
         12    1    4    4    0    0  0.57843638400E+02  0.95900901227E+01  0.17755409247E+02  0.61262638610E+02  0.00000000000E+00 0. -1.
         11    1    5    5    0    0 -0.48804749959E+02  0.41846285167E+02  0.57011572639E+02  0.85926332492E+02  0.00000000000E+00 0. -1.
        -12    1    5    5    0    0 -0.33445789896E+03  0.88467882472E+02  0.44141127112E+03  0.56083202715E+03  0.00000000000E+00 0.  1.
          5    1    3    3  501    0  0.38438162005E+02  0.38400567865E+02  0.23334966286E+02  0.59279751705E+02  0.41800000000E+01 0. -1.
         -5    1    3    3    0  501 -0.34294208535E+02 -0.51797422146E+02  0.94355857218E+02  0.11304674198E+03  0.41800000000E+01 0. -1.
</event>
<event>
11    1  0.1704459E-009  0.1417003E+03  0.7561462E-02  0.1105674E+00
         22   -1    0    0    0    0  0.00000000000E+00  0.00000000000E+00  0.43197979689E+02  0.43197979689E+02  0.00000000000E+00 0.  1.
         22   -1    0    0    0    0 -0.00000000000E+00 -0.00000000000E+00 -0.13855320809E+04  0.13855320809E+04  0.00000000000E+00 0.  1.
         25    2    1    2    0    0  0.29594602403E+02  0.52324491550E+02 -0.65903411062E+03  0.67349850597E+03  0.12514226172E+03 0.  0.
        -24    2    1    2    0    0 -0.21289324314E+02 -0.67529085009E+02 -0.66075673552E+03  0.66943009215E+03  0.80769871157E+02 0.  0.
         24    2    1    2    0    0 -0.83052780888E+01  0.15204593459E+02 -0.22543255045E+02  0.85801462449E+02  0.80953908516E+02 0.  0.
        -13    1    5    5    0    0 -0.17020026612E+02 -0.30439258787E+02 -0.18209962257E+01  0.34921996058E+02  0.00000000000E+00 0.  1.
         14    1    5    5    0    0  0.87147485236E+01  0.45643852246E+02 -0.20722258819E+02  0.50879466391E+02  0.00000000000E+00 0. -1.
         13    1    4    4    0    0 -0.15244447488E+02 -0.30440289138E+02 -0.73824633212E+02  0.81296253610E+02  0.00000000000E+00 0. -1.
        -14    1    4    4    0    0 -0.60448768259E+01 -0.37088795871E+02 -0.58693210231E+03  0.58813383854E+03  0.00000000000E+00 0.  1.
          5    1    3    3  501    0  0.66775024481E+02 -0.79508522773E+00 -0.43907118137E+03  0.44414019270E+03  0.41800000000E+01 0. -1.
         -5    1    3    3    0  501 -0.37180422078E+02  0.53119576778E+02 -0.21996292925E+03  0.22935831327E+03  0.41800000000E+01 0. -1.
</event>
<event>
11    1  0.1704459E-009  0.5649471E+03  0.7561462E-02  0.9259065E-01
         22   -1    0    0    0    0  0.00000000000E+00  0.00000000000E+00  0.36426087041E+03  0.36426087041E+03  0.00000000000E+00 0. -1.
         22   -1    0    0    0    0 -0.00000000000E+00 -0.00000000000E+00 -0.10727174477E+04  0.10727174477E+04  0.00000000000E+00 0. -1.
         25    2    1    2    0    0  0.19868769038E+03  0.50749341388E+03 -0.43159402910E+03  0.70636214151E+03  0.12509078931E+03 0.  0.
         24    2    1    2    0    0 -0.26495739546E+03 -0.49440669258E+03 -0.26401104325E+03  0.62514335653E+03  0.80386480058E+02 0.  0.
        -24    2    1    2    0    0  0.66269705080E+02 -0.13086721296E+02 -0.12851504943E+02  0.10547282007E+03  0.79977612540E+02 0.  0.
        -13    1    4    4    0    0 -0.15128977514E+03 -0.35457806729E+03 -0.16286298784E+03  0.41849558501E+03  0.00000000000E+00 0.  1.
         14    1    4    4    0    0 -0.11366762032E+03 -0.13982862529E+03 -0.10114805541E+03  0.20664777152E+03  0.00000000000E+00 0. -1.
         13    1    5    5    0    0  0.65663106632E+02  0.19793345182E+02  0.36514155327E+01  0.68678620556E+02  0.00000000000E+00 0. -1.
        -14    1    5    5    0    0  0.60659844853E+00 -0.32880066479E+02 -0.16502920476E+02  0.36794199510E+02  0.00000000000E+00 0.  1.
          5    1    3    3  501    0  0.88774631197E+02  0.26561856410E+03 -0.14446833854E+03  0.31515508877E+03  0.41800000000E+01 0. -1.
         -5    1    3    3    0  501  0.10991305919E+03  0.24187484978E+03 -0.28712569056E+03  0.39120705274E+03  0.41800000000E+01 0. -1.
</event>
<event>
11    1  0.1704459E-009  0.2414916E+03  0.7561462E-02  0.1028532E+00
         22   -1    0    0    0    0  0.00000000000E+00  0.00000000000E+00  0.21199236835E+03  0.21199236835E+03  0.00000000000E+00 0.  1.
         22   -1    0    0    0    0 -0.00000000000E+00 -0.00000000000E+00 -0.54595915459E+03  0.54595915459E+03  0.00000000000E+00 0. -1.
         25    2    1    2    0    0  0.27035344360E+02 -0.13914701572E+03 -0.26901969863E+03  0.32880413663E+03  0.12509100762E+03 0.  0.
         24    2    1    2    0    0 -0.14678058295E+03  0.18401641693E+03  0.30177853359E+02  0.25072591835E+03  0.80908603170E+02 0.  0.
        -24    2    1    2    0    0  0.11974523859E+03 -0.44869401214E+02 -0.95124940973E+02  0.17842146797E+03  0.80207733461E+02 0.  0.
        -11    1    4    4    0    0 -0.69985506548E+02  0.12427651259E+03  0.50550487339E+02  0.15132076684E+03  0.00000000000E+00 0.  1.
         12    1    4    4    0    0 -0.76795076401E+02  0.59739904343E+02 -0.20372633980E+02  0.99405151505E+02  0.00000000000E+00 0. -1.
         13    1    5    5    0    0  0.10511351448E+03 -0.11796296475E+02 -0.95125487126E+02  0.14225632442E+03  0.00000000000E+00 0. -1.
        -14    1    5    5    0    0  0.14631724106E+02 -0.33073104738E+02  0.54615322308E-03  0.36165143545E+02  0.00000000000E+00 0.  1.
          5    1    3    3  501    0 -0.37960246698E+02 -0.51651195271E+02 -0.16906474561E+03  0.18085681328E+03  0.41800000000E+01 0.  1.
         -5    1    3    3    0  501  0.64995591058E+02 -0.87495820445E+02 -0.99954953014E+02  0.14794732334E+03  0.41800000000E+01 0.  1.
</event>
<event>
11    1  0.1704459E-009  0.4104459E+03  0.7561462E-02  0.9619430E-01
         22   -1    0    0    0    0  0.00000000000E+00  0.00000000000E+00  0.19684148759E+03  0.19684148759E+03  0.00000000000E+00 0.  1.
         22   -1    0    0    0    0 -0.00000000000E+00 -0.00000000000E+00 -0.24871227654E+04  0.24871227654E+04  0.00000000000E+00 0.  1.
         25    2    1    2    0    0 -0.27722207007E+03  0.26183333838E+03 -0.19383063517E+04  0.19794159727E+04  0.12508919487E+03 0.  0.
        -24    2    1    2    0    0  0.33418330293E+03 -0.32244245581E+03 -0.19528461418E+03  0.50991739730E+03  0.78943361156E+02 0.  0.
         24    2    1    2    0    0 -0.56961232867E+02  0.60609117423E+02 -0.15669031194E+03  0.19463088302E+03  0.80070466489E+02 0.  0.
        -11    1    5    5    0    0 -0.74067976515E+02  0.63663417918E+02 -0.12677020909E+03  0.16003056532E+03  0.00000000000E+00 0.  1.
         12    1    5    5    0    0  0.17106743648E+02 -0.30543004952E+01 -0.29920102850E+02  0.34600317691E+02  0.00000000000E+00 0. -1.
         13    1    4    4    0    0  0.36801174334E+02 -0.76167014070E+02 -0.27844553095E+02  0.89056496685E+02  0.00000000000E+00 0. -1.
        -14    1    4    4    0    0  0.29738212860E+03 -0.24627544174E+03 -0.16744006109E+03  0.42086090062E+03  0.00000000000E+00 0.  1.
          5    1    3    3  501    0 -0.28212718235E+03  0.26582188181E+03 -0.19282107124E+04  0.19667920692E+04  0.41800000000E+01 0.  1.
         -5    1    3    3    0  501  0.49051122778E+01 -0.39885434213E+01 -0.10095639304E+02  0.12623903439E+02  0.41800000000E+01 0.  1.
</event>
<event>
11    1  0.1704459E-009  0.3822189E+03  0.7561462E-02  0.9703729E-01
         22   -1    0    0    0    0  0.00000000000E+00  0.00000000000E+00  0.25655006074E+04  0.25655006074E+04  0.00000000000E+00 0.  1.
         22   -1    0    0    0    0 -0.00000000000E+00 -0.00000000000E+00 -0.72009393036E+02  0.72009393036E+02  0.00000000000E+00 0. -1.
         25    2    1    2    0    0  0.87129457879E+02  0.34131915427E+03  0.10628107132E+04  0.11266339663E+04  0.12508866553E+03 0.  0.
         24    2    1    2    0    0 -0.35342856100E+02 -0.37051016592E+03  0.10556151064E+04  0.11223176540E+04  0.82138681665E+02 0.  0.
        -24    2    1    2    0    0 -0.51786601779E+02  0.29191011651E+02  0.37506539466E+03  0.38855838015E+03  0.82277562112E+02 0.  0.
        -13    1    4    4    0    0  0.18213011014E+02 -0.21576487618E+03  0.63814851761E+03  0.67388405982E+03  0.00000000000E+00 0.  1.
         14    1    4    4    0    0 -0.53555867114E+02 -0.15474528974E+03  0.41746658884E+03  0.44843359419E+03  0.00000000000E+00 0. -1.
         13    1    5    5    0    0  0.11811216965E+01 -0.31387383227E+01 -0.35545260525E+01  0.48868581091E+01  0.00000000000E+00 0. -1.
        -14    1    5    5    0    0 -0.52967723475E+02  0.32329749974E+02  0.37861992072E+03  0.38367152204E+03  0.00000000000E+00 0.  1.
          5    1    3    3  501    0  0.12039512147E+02  0.78967858407E+02  0.43158229127E+03  0.43893236273E+03  0.41800000000E+01 0. -1.
         -5    1    3    3    0  501  0.75089945731E+02  0.26235129586E+03  0.63122842197E+03  0.68770160352E+03  0.41800000000E+01 0. -1.
</event>
<event>
11    1  0.1704459E-009  0.1502656E+03  0.7561462E-02  0.1096608E+00
         22   -1    0    0    0    0  0.00000000000E+00  0.00000000000E+00  0.53421613593E+03  0.53421613593E+03  0.00000000000E+00 0.  1.
         22   -1    0    0    0    0 -0.00000000000E+00 -0.00000000000E+00 -0.10829758565E+03  0.10829758565E+03  0.00000000000E+00 0.  1.
         25    2    1    2    0    0  0.38448709176E+02  0.36355063754E+02  0.52811046325E+02  0.14572968223E+03  0.12509252484E+03 0.  0.
        -24    2    1    2    0    0 -0.73112564603E+02  0.54653435758E+02  0.21435220648E+02  0.12331389641E+03  0.80089969532E+02 0.  0.
         24    2    1    2    0    0  0.34663855427E+02 -0.91008499512E+02  0.35167228331E+03  0.37347014294E+03  0.79513665277E+02 0.  0.
        -13    1    5    5    0    0 -0.13664096208E+02 -0.49814941371E+02  0.86057567846E+02  0.10037001989E+03  0.00000000000E+00 0.  1.
         14    1    5    5    0    0  0.48327951635E+02 -0.41193558141E+02  0.26561471546E+03  0.27310012306E+03  0.00000000000E+00 0. -1.
         11    1    4    4    0    0  0.24206694155E+01  0.27269638616E+01  0.30947198311E+02  0.31161274935E+02  0.00000000000E+00 0. -1.
        -12    1    4    4    0    0 -0.75533234019E+02  0.51926471896E+02 -0.95119776625E+01  0.92152621471E+02  0.00000000000E+00 0.  1.
          5    1    3    3  501    0 -0.30976500836E+02  0.53792776610E+02  0.12453864759E+02  0.63449015492E+02  0.41800000000E+01 0.  1.
         -5    1    3    3    0  501  0.69425210012E+02 -0.17437712856E+02  0.40357181567E+02  0.82280666738E+02  0.41800000000E+01 0.  1.
</event>
<event>
11    1  0.1704459E-009  0.2069171E+03  0.7561462E-02  0.1049737E+00
         22   -1    0    0    0    0  0.00000000000E+00  0.00000000000E+00  0.64323972409E+03  0.64323972409E+03  0.00000000000E+00 0.  1.
         22   -1    0    0    0    0 -0.00000000000E+00 -0.00000000000E+00 -0.25190194248E+03  0.25190194248E+03  0.00000000000E+00 0.  1.
         25    2    1    2    0    0  0.14506213549E+03  0.76777611466E+02 -0.54351254981E+02  0.21340084897E+03  0.12509212064E+03 0.  0.
        -24    2    1    2    0    0 -0.15861647698E+03 -0.51367901298E+02 -0.36695920274E+02  0.19128257576E+03  0.86282009552E+02 0.  0.
         24    2    1    2    0    0  0.13554341482E+02 -0.25409710168E+02  0.48238495687E+03  0.49045824185E+03  0.83813285587E+02 0.  0.
        -11    1    5    5    0    0  0.41791692138E+02 -0.22757366432E+02  0.40940100338E+03  0.41215728166E+03  0.00000000000E+00 0.  1.
         12    1    5    5    0    0 -0.28237350656E+02 -0.26523437363E+01  0.72983953485E+02  0.78300960183E+02  0.00000000000E+00 0. -1.
         11    1    4    4    0    0 -0.39169503102E+02 -0.39487009526E+02  0.19240425595E+02  0.58852934266E+02  0.00000000000E+00 0. -1.
        -12    1    4    4    0    0 -0.11944697387E+03 -0.11880891772E+02 -0.55936345869E+02  0.13242964149E+03  0.00000000000E+00 0.  1.
          5    1    3    3  501    0  0.16464117810E+03  0.56177148984E+02 -0.31830092847E+02  0.17689888865E+03  0.41800000000E+01 0.  1.
         -5    1    3    3    0  501 -0.19579042604E+02  0.20600462482E+02 -0.22521162134E+02  0.36501960326E+02  0.41800000000E+01 0.  1.
</event>
<event>
11    1  0.1704459E-009  0.1631509E+03  0.7561462E-02  0.1084151E+00
         22   -1    0    0    0    0  0.00000000000E+00  0.00000000000E+00  0.16521020041E+03  0.16521020041E+03  0.00000000000E+00 0. -1.
         22   -1    0    0    0    0 -0.00000000000E+00 -0.00000000000E+00 -0.79413845322E+03  0.79413845322E+03  0.00000000000E+00 0.  1.
         25    2    1    2    0    0 -0.59449965940E+02  0.45979025807E+02 -0.17876040101E+03  0.23076102948E+03  0.12508797901E+03 0.  0.
         24    2    1    2    0    0  0.79577763567E+02 -0.82554544803E+02 -0.56521936795E+03  0.58227789017E+03  0.80166914332E+02 0.  0.
        -24    2    1    2    0    0 -0.20127797627E+02  0.36575518996E+02  0.11505151616E+03  0.14630973398E+03  0.80167263022E+02 0.  0.
        -13    1    4    4    0    0  0.60818182003E+02 -0.86068386755E+02 -0.33307378860E+03  0.34934906199E+03  0.00000000000E+00 0.  1.
         14    1    4    4    0    0  0.18759581564E+02  0.35138419519E+01 -0.23214557936E+03  0.23292882819E+03  0.00000000000E+00 0. -1.
         11    1    5    5    0    0  0.18580190656E+02  0.99810925029E+01  0.91256419932E+02  0.93662051394E+02  0.00000000000E+00 0. -1.
        -12    1    5    5    0    0 -0.38707988283E+02  0.26594426493E+02  0.23795096223E+02  0.52647682586E+02  0.00000000000E+00 0.  1.
          5    1    3    3  501    0 -0.67738418196E+02 -0.98167788373E+01 -0.36530980750E+02  0.77697151820E+02  0.41800000000E+01 0. -1.
         -5    1    3    3    0  501  0.82884522558E+01  0.55795804644E+02 -0.14222942026E+03  0.15306387766E+03  0.41800000000E+01 0. -1.
</event>
<event>
11    1  0.1704459E-009  0.3376412E+03  0.7561462E-02  0.9854097E-01
         22   -1    0    0    0    0  0.00000000000E+00  0.00000000000E+00  0.17554622711E+04  0.17554622711E+04  0.00000000000E+00 0.  1.
         22   -1    0    0    0    0 -0.00000000000E+00 -0.00000000000E+00 -0.33391921846E+03  0.33391921846E+03  0.00000000000E+00 0.  1.
         25    2    1    2    0    0  0.25518324319E+03  0.20016114341E+03 -0.15963672566E+03  0.38251429340E+03  0.12510127713E+03 0.  0.
        -24    2    1    2    0    0 -0.14309072393E+03 -0.25652859877E+03  0.33901314006E+03  0.45583954937E+03  0.81104305544E+02 0.  0.
         24    2    1    2    0    0 -0.11209251927E+03  0.56367455355E+02  0.12421666383E+04  0.12510276468E+04  0.79688098139E+02 0.  0.
        -11    1    5    5    0    0 -0.49402345773E+02  0.66539417922E+02  0.59325722065E+03  0.59901770905E+03  0.00000000000E+00 0.  1.
         12    1    5    5    0    0 -0.62690173493E+02 -0.10171962566E+02  0.64890941762E+03  0.65200993777E+03  0.00000000000E+00 0. -1.
         11    1    4    4    0    0 -0.43188864716E+02 -0.60403090943E+02  0.39376018616E+02  0.84049284785E+02  0.00000000000E+00 0. -1.
        -12    1    4    4    0    0 -0.99901859212E+02 -0.19612550783E+03  0.29963712145E+03  0.37179026459E+03  0.00000000000E+00 0.  1.
          5    1    3    3  501    0  0.14130632389E+03  0.17584987006E+03 -0.72406569138E+02  0.23696167965E+03  0.41800000000E+01 0.  1.
         -5    1    3    3    0  501  0.11387691930E+03  0.24311273358E+02 -0.87230156521E+02  0.14555261375E+03  0.41800000000E+01 0.  1.
</event>
<event>
11    1  0.1704459E-009  0.2088467E+03  0.7561462E-02  0.1048438E+00
         22   -1    0    0    0    0  0.00000000000E+00  0.00000000000E+00  0.12372329788E+03  0.12372329788E+03  0.00000000000E+00 0. -1.
         22   -1    0    0    0    0 -0.00000000000E+00 -0.00000000000E+00 -0.10579969539E+04  0.10579969539E+04  0.00000000000E+00 0. -1.
         25    2    1    2    0    0  0.18034141164E+03 -0.12946553095E+03 -0.53079618833E+03  0.58879205555E+03  0.12508853936E+03 0.  0.
        -24    2    1    2    0    0 -0.12412965884E+03  0.66189169648E+02 -0.44147893687E+03  0.47019271667E+03  0.79927221442E+02 0.  0.
         24    2    1    2    0    0 -0.56211752796E+02  0.63276361297E+02  0.38001469150E+02  0.12273547958E+03  0.80350651765E+02 0.  0.
        -11    1    5    5    0    0 -0.19042538244E+02 -0.70203682489E+00  0.44550220363E+02  0.48454445130E+02  0.00000000000E+00 0.  1.
         12    1    5    5    0    0 -0.37169214552E+02  0.63978398122E+02 -0.65487512129E+01  0.74281034451E+02  0.00000000000E+00 0. -1.
         11    1    4    4    0    0 -0.10771627252E+03  0.76214930107E+02 -0.30437562999E+03  0.33174694432E+03  0.00000000000E+00 0. -1.
        -12    1    4    4    0    0 -0.16413386326E+02 -0.10025760459E+02 -0.13710330688E+03  0.13844577235E+03  0.00000000000E+00 0.  1.
          5    1    3    3  501    0  0.42175900787E+02 -0.61069901498E+02 -0.67171438047E+02  0.10018889143E+03  0.41800000000E+01 0. -1.
         -5    1    3    3    0  501  0.13816551085E+03 -0.68395629447E+02 -0.46362475028E+03  0.48860316412E+03  0.41800000000E+01 0. -1.
</event>
<event>
11    1  0.1704459E-009  0.2569489E+03  0.7561462E-02  0.1020261E+00
         22   -1    0    0    0    0  0.00000000000E+00  0.00000000000E+00  0.34936116041E+03  0.34936116041E+03  0.00000000000E+00 0. -1.
         22   -1    0    0    0    0 -0.00000000000E+00 -0.00000000000E+00 -0.12143843719E+04  0.12143843719E+04  0.00000000000E+00 0.  1.
         25    2    1    2    0    0  0.10893419036E+03  0.27881222426E+01 -0.85759487405E+03  0.87349386209E+03  0.12509247641E+03 0.  0.
         24    2    1    2    0    0  0.11773164440E+03  0.40233036482E+02 -0.28442528496E+03  0.32038475037E+03  0.79178331809E+02 0.  0.
        -24    2    1    2    0    0 -0.22666583476E+03 -0.43021158724E+02  0.27699694751E+03  0.36986691986E+03  0.82740611128E+02 0.  0.
        -11    1    4    4    0    0  0.11140111486E+03  0.59214106520E+02 -0.25843040862E+03  0.28758093627E+03  0.00000000000E+00 0.  1.
         12    1    4    4    0    0  0.63305295439E+01 -0.18981070038E+02 -0.25994876336E+02  0.32803814104E+02  0.00000000000E+00 0. -1.
         11    1    5    5    0    0 -0.12569010393E+03  0.89715350160E+01  0.10640607356E+03  0.16492647804E+03  0.00000000000E+00 0. -1.
        -12    1    5    5    0    0 -0.10097573083E+03 -0.51992693740E+02  0.17059087395E+03  0.20494044182E+03  0.00000000000E+00 0.  1.
          5    1    3    3  501    0  0.62295992606E+02 -0.66671130334E+01 -0.13038668517E+03  0.14471835116E+03  0.41800000000E+01 0.  1.
         -5    1    3    3    0  501  0.46638197750E+02  0.94552352760E+01 -0.72720818888E+03  0.72877551093E+03  0.41800000000E+01 0.  1.
</event>
<event>
11    1  0.1704459E-009  0.1439580E+03  0.7561462E-02  0.1103217E+00
         22   -1    0    0    0    0  0.00000000000E+00  0.00000000000E+00  0.53522557137E+03  0.53522557137E+03  0.00000000000E+00 0. -1.
         22   -1    0    0    0    0 -0.00000000000E+00 -0.00000000000E+00 -0.71115827184E+02  0.71115827184E+02  0.00000000000E+00 0. -1.
         25    2    1    2    0    0  0.10872965447E+02  0.38824572200E+02  0.90418717216E+02  0.15953100652E+03  0.12509607842E+03 0.  0.
         24    2    1    2    0    0 -0.83641658690E+02 -0.27406387447E+02  0.27121769911E+03  0.29603532348E+03  0.79566546320E+02 0.  0.
        -24    2    1    2    0    0  0.72768693243E+02 -0.11418184753E+02  0.10247332786E+03  0.15077506856E+03  0.82502610356E+02 0.  0.
        -13    1    4    4    0    0 -0.26606066216E+02  0.14489715281E+02  0.16909816192E+03  0.17179063703E+03  0.00000000000E+00 0.  1.
         14    1    4    4    0    0 -0.57035592474E+02 -0.41896102728E+02  0.10211953719E+03  0.12424468644E+03  0.00000000000E+00 0. -1.
         11    1    5    5    0    0  0.69040689765E+02 -0.39432178207E+02  0.89388285537E+02  0.11963184824E+03  0.00000000000E+00 0. -1.
        -12    1    5    5    0    0  0.37280034776E+01  0.28013993454E+02  0.13085042324E+02  0.31143220318E+02  0.00000000000E+00 0.  1.
          5    1    3    3  501    0 -0.31415587047E+02  0.65776184974E+02  0.79687360792E+02  0.10807864493E+03  0.41800000000E+01 0.  1.
         -5    1    3    3    0  501  0.42288552494E+02 -0.26951612774E+02  0.10731356424E+02  0.51452361597E+02  0.41800000000E+01 0.  1.
</event>
<event>
11    1  0.1704459E-009  0.3678164E+03  0.7561462E-02  0.9749801E-01
         22   -1    0    0    0    0  0.00000000000E+00  0.00000000000E+00  0.46680866829E+03  0.46680866829E+03  0.00000000000E+00 0.  1.
         22   -1    0    0    0    0 -0.00000000000E+00 -0.00000000000E+00 -0.10736082916E+04  0.10736082916E+04  0.00000000000E+00 0. -1.
         25    2    1    2    0    0  0.32654528619E+03 -0.15350249805E+03 -0.81609246302E+03  0.90102665916E+03  0.12508913418E+03 0.  0.
         24    2    1    2    0    0 -0.25849990346E+03  0.16194624917E+03 -0.84791021539E+02  0.32682469719E+03  0.81093018476E+02 0.  0.
        -24    2    1    2    0    0 -0.68045382728E+02 -0.84437511216E+01  0.29408386123E+03  0.31256560356E+03  0.80687471456E+02 0.  0.
        -11    1    4    4    0    0 -0.13622825089E+03  0.13007244135E+03 -0.62942525616E+02  0.19859188773E+03  0.00000000000E+00 0.  1.
         12    1    4    4    0    0 -0.12227165257E+03  0.31873807822E+02 -0.21848495922E+02  0.12823280946E+03  0.00000000000E+00 0. -1.
         13    1    5    5    0    0  0.14816129159E+02  0.43879496955E+01  0.16551613589E+02  0.22643491299E+02  0.00000000000E+00 0. -1.
        -14    1    5    5    0    0 -0.82861511887E+02 -0.12831700817E+02  0.27753224764E+03  0.28992211226E+03  0.00000000000E+00 0.  1.
          5    1    3    3  501    0  0.22823185539E+03 -0.15500643049E+03 -0.67291016505E+03  0.72728421950E+03  0.41800000000E+01 0. -1.
         -5    1    3    3    0  501  0.98313430805E+02  0.15039324354E+01 -0.14318229796E+03  0.17374243966E+03  0.41800000000E+01 0. -1.
</event>
<event>
11    1  0.1704459E-009  0.5214357E+03  0.7561462E-02  0.9346858E-01
         22   -1    0    0    0    0  0.00000000000E+00  0.00000000000E+00  0.10117953985E+04  0.10117953985E+04  0.00000000000E+00 0.  1.
         22   -1    0    0    0    0 -0.00000000000E+00 -0.00000000000E+00 -0.13228687154E+04  0.13228687154E+04  0.00000000000E+00 0. -1.
         25    2    1    2    0    0  0.27099750928E+03 -0.42672824342E+03 -0.11393025557E+04  0.12526716683E+04  0.12505739292E+03 0.  0.
         24    2    1    2    0    0 -0.26941714891E+03  0.43676787615E+03  0.42981015363E+03  0.67396843411E+03  0.78389439625E+02 0.  0.
        -24    2    1    2    0    0 -0.15803603694E+01 -0.10039632734E+02  0.39841908511E+03  0.40802401151E+03  0.87421592465E+02 0.  0.
        -13    1    4    4    0    0 -0.20523017015E+03  0.28590769563E+03  0.25719286163E+03  0.43590228404E+03  0.00000000000E+00 0.  1.
         14    1    4    4    0    0 -0.64186978757E+02  0.15086018053E+03  0.17261729199E+03  0.23806615006E+03  0.00000000000E+00 0. -1.
         11    1    5    5    0    0  0.35297106479E+02 -0.28794756438E+02  0.17665061754E+03  0.18242934085E+03  0.00000000000E+00 0. -1.
        -12    1    5    5    0    0 -0.36877466849E+02  0.18755123704E+02  0.22176846756E+03  0.22559467066E+03  0.00000000000E+00 0.  1.
          5    1    3    3  501    0  0.14963466676E+03 -0.12927463220E+03 -0.48369950677E+03  0.52257549624E+03  0.41800000000E+01 0.  1.
         -5    1    3    3    0  501  0.12136284252E+03 -0.29745361122E+03 -0.65560304889E+03  0.73009617208E+03  0.41800000000E+01 0.  1.
</event>
<event>
11    1  0.1704459E-009  0.2615698E+03  0.7561462E-02  0.1017910E+00
         22   -1    0    0    0    0  0.00000000000E+00  0.00000000000E+00  0.55688491122E+03  0.55688491122E+03  0.00000000000E+00 0.  1.
         22   -1    0    0    0    0 -0.00000000000E+00 -0.00000000000E+00 -0.44258282371E+03  0.44258282371E+03  0.00000000000E+00 0. -1.
         25    2    1    2    0    0 -0.11887814181E+03 -0.13145116992E+03 -0.75404574532E+02  0.22967123849E+03  0.12510637577E+03 0.  0.
         24    2    1    2    0    0  0.19786229253E+03  0.20162474387E+03 -0.20202822803E+03  0.35691910723E+03  0.82303220082E+02 0.  0.
        -24    2    1    2    0    0 -0.78984150727E+02 -0.70173573950E+02  0.39173489008E+03  0.41287738921E+03  0.76476714518E+02 0.  0.
        -13    1    4    4    0    0  0.27662033816E+02  0.40541135091E+02 -0.76996661442E+02  0.91308584605E+02  0.00000000000E+00 0.  1.
         14    1    4    4    0    0  0.17020025872E+03  0.16108360878E+03 -0.12503156659E+03  0.26561052262E+03  0.00000000000E+00 0. -1.
         13    1    5    5    0    0 -0.58957389621E+02 -0.10035744294E+02  0.12300215835E+03  0.13677068734E+03  0.00000000000E+00 0. -1.
        -14    1    5    5    0    0 -0.20026761106E+02 -0.60137829656E+02  0.26873273173E+03  0.27610670187E+03  0.00000000000E+00 0.  1.
          5    1    3    3  501    0 -0.10046551819E+03 -0.28708590558E+02 -0.68440451202E+02  0.12497628286E+03  0.41800000000E+01 0.  1.
         -5    1    3    3    0  501 -0.18412623621E+02 -0.10274257936E+03 -0.69641233301E+01  0.10469495564E+03  0.41800000000E+01 0.  1.
</event>
<event>
11    1  0.1704459E-009  0.2801781E+03  0.7561462E-02  0.1008948E+00
         22   -1    0    0    0    0  0.00000000000E+00  0.00000000000E+00  0.54698233638E+03  0.54698233638E+03  0.00000000000E+00 0. -1.
         22   -1    0    0    0    0 -0.00000000000E+00 -0.00000000000E+00 -0.42772570774E+03  0.42772570774E+03  0.00000000000E+00 0. -1.
         25    2    1    2    0    0  0.25723805493E+03  0.76909031455E+02  0.23955909061E+02  0.29716503356E+03  0.12508699201E+03 0.  0.
         24    2    1    2    0    0 -0.70539901324E+02 -0.29764358594E+03 -0.84843697281E+02  0.32809713922E+03  0.82955999574E+02 0.  0.
        -24    2    1    2    0    0 -0.18669815360E+03  0.22073455448E+03  0.18014441686E+03  0.34944587134E+03  0.77977317036E+02 0.  0.
        -11    1    4    4    0    0 -0.11169975138E+02 -0.62071125149E+02 -0.54343354668E+02  0.83251385084E+02  0.00000000000E+00 0.  1.
         12    1    4    4    0    0 -0.59369926187E+02 -0.23557246079E+03 -0.30500342613E+02  0.24484575413E+03  0.00000000000E+00 0. -1.
         13    1    5    5    0    0 -0.74715792187E+02  0.11606621177E+03  0.12596023501E+03  0.18686839197E+03  0.00000000000E+00 0. -1.
        -14    1    5    5    0    0 -0.11198236142E+03  0.10466834272E+03  0.54184181853E+02  0.16257747937E+03  0.00000000000E+00 0.  1.
          5    1    3    3  501    0  0.24091589327E+03  0.99238572772E+02  0.41894202174E+02  0.26393438301E+03  0.41800000000E+01 0. -1.
         -5    1    3    3    0  501  0.16322161657E+02 -0.22329541317E+02 -0.17938293112E+02  0.33230650556E+02  0.41800000000E+01 0. -1.
</event>
<event>
11    1  0.1704459E-009  0.2416899E+03  0.7561462E-02  0.1028422E+00
         22   -1    0    0    0    0  0.00000000000E+00  0.00000000000E+00  0.74311513599E+03  0.74311513599E+03  0.00000000000E+00 0. -1.
         22   -1    0    0    0    0 -0.00000000000E+00 -0.00000000000E+00 -0.58225914138E+03  0.58225914138E+03  0.00000000000E+00 0.  1.
         25    2    1    2    0    0  0.12276016252E+03  0.19486564646E+03 -0.35999094562E+03  0.44527797540E+03  0.12504525890E+03 0.  0.
        -24    2    1    2    0    0 -0.21612370102E+03 -0.25951967858E+02 -0.78853296523E+02  0.24516233421E+03  0.80645948210E+02 0.  0.
         24    2    1    2    0    0  0.93363538507E+02 -0.16891367860E+03  0.59970023675E+03  0.63493396777E+03  0.79070780444E+02 0.  0.
        -11    1    5    5    0    0  0.50406234163E+00 -0.53155385642E+02  0.94918760004E+02  0.10879025739E+03  0.00000000000E+00 0.  1.
         12    1    5    5    0    0  0.92859476165E+02 -0.11575829296E+03  0.50478147675E+03  0.52614371038E+03  0.00000000000E+00 0. -1.
         13    1    4    4    0    0 -0.18252527025E+03 -0.22919986648E+02 -0.30906502602E+02  0.18653689171E+03  0.00000000000E+00 0. -1.
        -14    1    4    4    0    0 -0.33598430777E+02 -0.30319812100E+01 -0.47946793921E+02  0.58625442497E+02  0.00000000000E+00 0.  1.
          5    1    3    3  501    0  0.41443451511E+02 -0.10954940335E+01 -0.24585149987E+02  0.48380386317E+02  0.41800000000E+01 0. -1.
         -5    1    3    3    0  501  0.81316711005E+02  0.19596114050E+03 -0.33540579563E+03  0.39689758908E+03  0.41800000000E+01 0. -1.
</event>
<event>
11    1  0.1704459E-009  0.1792956E+03  0.7561462E-02  0.1070214E+00
         22   -1    0    0    0    0  0.00000000000E+00  0.00000000000E+00  0.65981597491E+03  0.65981597491E+03  0.00000000000E+00 0.  1.
         22   -1    0    0    0    0 -0.00000000000E+00 -0.00000000000E+00 -0.43514463241E+03  0.43514463241E+03  0.00000000000E+00 0.  1.
         25    2    1    2    0    0  0.48500080231E+02  0.11839140438E+03 -0.35325575162E+03  0.39598715812E+03  0.12508965156E+03 0.  0.
         24    2    1    2    0    0  0.86637982582E+02 -0.17435107898E+03  0.22186785617E+03  0.30574236108E+03  0.79678146265E+02 0.  0.
        -24    2    1    2    0    0 -0.13513806281E+03  0.55959674592E+02  0.35605923795E+03  0.39323108813E+03  0.80366202727E+02 0.  0.
        -11    1    4    4    0    0  0.50862412809E+02 -0.43222157731E+02  0.11448138083E+03  0.13251840066E+03  0.00000000000E+00 0.  1.
         12    1    4    4    0    0  0.35775569773E+02 -0.13112892125E+03  0.10738647534E+03  0.17322396043E+03  0.00000000000E+00 0. -1.
         11    1    5    5    0    0 -0.25021057447E+02 -0.20505808731E+02  0.81629388581E+02  0.87806028196E+02  0.00000000000E+00 0. -1.
        -12    1    5    5    0    0 -0.11011700537E+03  0.76465483324E+02  0.27442984936E+03  0.30542505993E+03  0.00000000000E+00 0.  1.
          5    1    3    3  501    0 -0.12451999738E+02 -0.29643917780E+01 -0.15534648067E+03  0.15592896259E+03  0.41800000000E+01 0.  1.
         -5    1    3    3    0  501  0.60952079969E+02  0.12135579616E+03 -0.19790927095E+03  0.24005819553E+03  0.41800000000E+01 0.  1.
</event>
<event>
11    1  0.1704459E-009  0.7110340E+03  0.7561462E-02  0.9016201E-01
         22   -1    0    0    0    0  0.00000000000E+00  0.00000000000E+00  0.15173539569E+04  0.15173539569E+04  0.00000000000E+00 0.  1.
         22   -1    0    0    0    0 -0.00000000000E+00 -0.00000000000E+00 -0.19994604278E+04  0.19994604278E+04  0.00000000000E+00 0. -1.
         25    2    1    2    0    0 -0.52109657840E+03  0.47110836760E+03 -0.18297344246E+04  0.19639398944E+04  0.12508839292E+03 0.  0.
        -24    2    1    2    0    0  0.52405332977E+03 -0.39554256141E+03  0.11200319367E+04  0.13006079295E+04  0.77612091380E+02 0.  0.
         24    2    1    2    0    0 -0.29567513742E+01 -0.75565806188E+02  0.22759601708E+03  0.25226656087E+03  0.78227471525E+02 0.  0.
        -11    1    5    5    0    0 -0.35873035865E+02 -0.14601696067E+02  0.96647469069E+02  0.10411924658E+03  0.00000000000E+00 0.  1.
         12    1    5    5    0    0  0.32916284491E+02 -0.60964110121E+02  0.13094854801E+03  0.14814731429E+03  0.00000000000E+00 0. -1.
         11    1    4    4    0    0  0.21661612220E+03 -0.17301884477E+03  0.40002772609E+03  0.48670344840E+03  0.00000000000E+00 0. -1.
        -12    1    4    4    0    0  0.30743720757E+03 -0.22252371664E+03  0.72000421060E+03  0.81390448110E+03  0.00000000000E+00 0.  1.
          5    1    3    3  501    0 -0.29229294953E+03  0.26244789985E+03 -0.11903963539E+04  0.12535449814E+04  0.41800000000E+01 0.  1.
         -5    1    3    3    0  501 -0.22880362886E+03  0.20866046775E+03 -0.63933807067E+03  0.71039491298E+03  0.41800000000E+01 0.  1.
</event>
<event>
11    1  0.1704459E-009  0.1827165E+03  0.7561462E-02  0.1067466E+00
         22   -1    0    0    0    0  0.00000000000E+00  0.00000000000E+00  0.85702722170E+03  0.85702722170E+03  0.00000000000E+00 0.  1.
         22   -1    0    0    0    0 -0.00000000000E+00 -0.00000000000E+00 -0.35963135735E+03  0.35963135735E+03  0.00000000000E+00 0. -1.
         25    2    1    2    0    0  0.13197931190E+03  0.11371915261E+03 -0.11429160497E+03  0.24302462138E+03  0.12509121147E+03 0.  0.
        -24    2    1    2    0    0 -0.30177236074E+00 -0.97944545696E+02 -0.15019220635E+03  0.19612308548E+03  0.79456533466E+02 0.  0.
         24    2    1    2    0    0 -0.13167753954E+03 -0.15774606910E+02  0.76187967566E+03  0.77751087220E+03  0.80465542648E+02 0.  0.
        -13    1    5    5    0    0 -0.99416321668E+02  0.25049234577E+02  0.47313585330E+03  0.48411631334E+03  0.00000000000E+00 0.  1.
         14    1    5    5    0    0 -0.32261217874E+02 -0.40823841487E+02  0.28874382237E+03  0.29339455886E+03  0.00000000000E+00 0. -1.
         11    1    4    4    0    0 -0.13842414582E+02 -0.87630545872E+02 -0.66912231533E+02  0.11112142791E+03  0.00000000000E+00 0. -1.
        -12    1    4    4    0    0  0.13540642221E+02 -0.10313999823E+02 -0.83279974816E+02  0.85001657569E+02  0.00000000000E+00 0.  1.
          5    1    3    3  501    0  0.76433038045E+02  0.13368720101E+03 -0.70543940434E+02  0.16943493427E+03  0.41800000000E+01 0.  1.
         -5    1    3    3    0  501  0.55546273858E+02 -0.19968048400E+02 -0.43747664540E+02  0.73589687111E+02  0.41800000000E+01 0.  1.
</event>
<event>
11    1  0.1704459E-009  0.2880675E+03  0.7561462E-02  0.1005372E+00
         22   -1    0    0    0    0  0.00000000000E+00  0.00000000000E+00  0.82290677028E+02  0.82290677028E+02  0.00000000000E+00 0.  1.
         22   -1    0    0    0    0 -0.00000000000E+00 -0.00000000000E+00 -0.20633880800E+04  0.20633880800E+04  0.00000000000E+00 0.  1.
         25    2    1    2    0    0 -0.21756084183E+03 -0.14310420303E+03 -0.15609978544E+04  0.15875050698E+04  0.12508601994E+03 0.  0.
         24    2    1    2    0    0  0.23260474831E+03  0.11046125030E+03 -0.25537050716E+03  0.37148302609E+03  0.80491527453E+02 0.  0.
        -24    2    1    2    0    0 -0.15043906485E+02  0.32642952733E+02 -0.16472904136E+03  0.18669066109E+03  0.80161489403E+02 0.  0.
        -13    1    4    4    0    0  0.19145357662E+03  0.77343416083E+02 -0.15544908122E+03  0.25845868695E+03  0.00000000000E+00 0.  1.
         14    1    4    4    0    0  0.41151171695E+02  0.33117834213E+02 -0.99921425941E+02  0.11302433913E+03  0.00000000000E+00 0. -1.
         11    1    5    5    0    0  0.10979513418E+02 -0.21340122441E+02 -0.25011194301E+02  0.34662809769E+02  0.00000000000E+00 0. -1.
        -12    1    5    5    0    0 -0.26023419903E+02  0.53983075175E+02 -0.13971784706E+03  0.15202785132E+03  0.00000000000E+00 0.  1.
          5    1    3    3  501    0 -0.90991664565E+02 -0.12078069902E+03 -0.64365955239E+03  0.66119781614E+03  0.41800000000E+01 0. -1.
         -5    1    3    3    0  501 -0.12656917726E+03 -0.22323504008E+02 -0.91733830204E+03  0.92630725370E+03  0.41800000000E+01 0. -1.
</event>
<event>
11    1  0.1704459E-009  0.3222396E+03  0.7561462E-02  0.9911948E-01
         22   -1    0    0    0    0  0.00000000000E+00  0.00000000000E+00  0.30579377966E+03  0.30579377966E+03  0.00000000000E+00 0.  1.
         22   -1    0    0    0    0 -0.00000000000E+00 -0.00000000000E+00 -0.61281802442E+03  0.61281802442E+03  0.00000000000E+00 0. -1.
         25    2    1    2    0    0 -0.89256629687E+02  0.22868694279E+03 -0.12425355634E+03  0.30223911174E+03  0.12508025685E+03 0.  0.
         24    2    1    2    0    0  0.27993215481E+03 -0.24232773199E+03 -0.72228131311E+02  0.38550170651E+03  0.79435016074E+02 0.  0.
        -24    2    1    2    0    0 -0.19067552513E+03  0.13640789192E+02 -0.11054255710E+03  0.23087098583E+03  0.67368599189E+02 0.  0.
        -13    1    4    4    0    0  0.21575540724E+03 -0.14450925122E+03 -0.31307275827E+02  0.26155967763E+03  0.00000000000E+00 0.  1.
         14    1    4    4    0    0  0.64176747569E+02 -0.97818480767E+02 -0.40920855485E+02  0.12394202888E+03  0.00000000000E+00 0. -1.
         13    1    5    5    0    0 -0.16581637013E+03  0.20089105296E+02 -0.11755446113E+03  0.20424909323E+03  0.00000000000E+00 0. -1.
        -14    1    5    5    0    0 -0.24859154993E+02 -0.64483161041E+01  0.70119040239E+01  0.26621892599E+02  0.00000000000E+00 0.  1.
          5    1    3    3  501    0 -0.21066239939E+02 -0.34179322806E+01 -0.40919452009E+02  0.46339428988E+02  0.41800000000E+01 0. -1.
         -5    1    3    3    0  501 -0.68190389748E+02  0.23210487507E+03 -0.83334104329E+02  0.25589968275E+03  0.41800000000E+01 0. -1.
</event>
<event>
11    1  0.1704459E-009  0.4471061E+03  0.7561462E-02  0.9520160E-01
         22   -1    0    0    0    0  0.00000000000E+00  0.00000000000E+00  0.63162688112E+03  0.63162688112E+03  0.00000000000E+00 0.  1.
         22   -1    0    0    0    0 -0.00000000000E+00 -0.00000000000E+00 -0.50721457004E+03  0.50721457004E+03  0.00000000000E+00 0.  1.
         25    2    1    2    0    0 -0.32823655248E+03 -0.29090752105E+03 -0.16555007448E+03  0.48520100400E+03  0.12508703745E+03 0.  0.
         24    2    1    2    0    0  0.22847386691E+03  0.35462666349E+03  0.15436154530E+03  0.45643684351E+03  0.80911847894E+02 0.  0.
        -24    2    1    2    0    0  0.99762685571E+02 -0.63719142442E+02  0.13560084025E+03  0.19720360365E+03  0.80554024544E+02 0.  0.
        -11    1    4    4    0    0  0.12659830885E+03  0.21662502721E+03  0.13183469671E+03  0.28343239312E+03  0.00000000000E+00 0.  1.
         12    1    4    4    0    0  0.10187555806E+03  0.13800163628E+03  0.22526848592E+02  0.17300445039E+03  0.00000000000E+00 0. -1.
         13    1    5    5    0    0  0.17431736779E+02 -0.52759557567E+02  0.30964751125E+02  0.63610157790E+02  0.00000000000E+00 0. -1.
        -14    1    5    5    0    0  0.82330948791E+02 -0.10959584876E+02  0.10463608913E+03  0.13359344586E+03  0.00000000000E+00 0.  1.
          5    1    3    3  501    0 -0.22000467199E+03 -0.25876916972E+03 -0.14936614186E+03  0.37106772378E+03  0.41800000000E+01 0.  1.
         -5    1    3    3    0  501 -0.10823188048E+03 -0.32138351331E+02 -0.16183932613E+02  0.11413328022E+03  0.41800000000E+01 0.  1.
</event>
<event>
11    1  0.1704459E-009  0.1588618E+03  0.7561462E-02  0.1088153E+00
         22   -1    0    0    0    0  0.00000000000E+00  0.00000000000E+00  0.15343930497E+03  0.15343930497E+03  0.00000000000E+00 0.  1.
         22   -1    0    0    0    0 -0.00000000000E+00 -0.00000000000E+00 -0.59962369100E+03  0.59962369100E+03  0.00000000000E+00 0.  1.
         25    2    1    2    0    0  0.32908912748E+02  0.73191885672E+02 -0.29937752206E+03  0.33423660878E+03  0.12508861367E+03 0.  0.
        -24    2    1    2    0    0  0.65505423544E+02 -0.14833776545E+03 -0.19356185827E+03  0.26460694365E+03  0.79092278239E+02 0.  0.
         24    2    1    2    0    0 -0.98414336292E+02  0.75145879778E+02  0.46754994304E+02  0.15421944354E+03  0.79153789792E+02 0.  0.
        -13    1    5    5    0    0  0.82212781096E+01  0.16866073408E+02  0.24199752519E+02  0.30621591532E+02  0.00000000000E+00 0.  1.
         14    1    5    5    0    0 -0.10663561440E+03  0.58279806370E+02  0.22555241785E+02  0.12359785201E+03  0.00000000000E+00 0. -1.
         11    1    4    4    0    0  0.59455890348E+01 -0.58658180911E+01 -0.59585372600E+02  0.60167885776E+02  0.00000000000E+00 0. -1.
        -12    1    4    4    0    0  0.59559834510E+02 -0.14247194736E+03 -0.13397648567E+03  0.20443905787E+03  0.00000000000E+00 0.  1.
          5    1    3    3  501    0  0.73643695581E+02  0.78020862860E+02 -0.21850014175E+03  0.24345519769E+03  0.41800000000E+01 0. -1.
         -5    1    3    3    0  501 -0.40734782834E+02 -0.48289771878E+01 -0.80877380309E+02  0.90781411087E+02  0.41800000000E+01 0. -1.
</event>
<event>
11    1  0.1704459E-009  0.1472080E+03  0.7561462E-02  0.1099766E+00
         22   -1    0    0    0    0  0.00000000000E+00  0.00000000000E+00  0.11569625922E+04  0.11569625922E+04  0.00000000000E+00 0. -1.
         22   -1    0    0    0    0 -0.00000000000E+00 -0.00000000000E+00 -0.56099585252E+02  0.56099585252E+02  0.00000000000E+00 0. -1.
         25    2    1    2    0    0 -0.54634626580E+02  0.18378109517E+02  0.10700553225E+03  0.17441973185E+03  0.12509740843E+03 0.  0.
        -24    2    1    2    0    0  0.99229185766E+02  0.89127175974E+02  0.47620077631E+03  0.50142518462E+03  0.82885171210E+02 0.  0.
         24    2    1    2    0    0 -0.44594559186E+02 -0.10750528549E+03  0.51765669840E+03  0.53721726100E+03  0.84189470801E+02 0.  0.
        -13    1    5    5    0    0 -0.21562578954E+02 -0.99746258526E+01  0.25480356270E+03  0.25590876018E+03  0.00000000000E+00 0.  1.
         14    1    5    5    0    0 -0.23031980231E+02 -0.97530659638E+02  0.26285313570E+03  0.28130850081E+03  0.00000000000E+00 0. -1.
         13    1    4    4    0    0  0.11106285818E+03  0.88628840696E+02  0.45937553790E+03  0.48084916001E+03  0.00000000000E+00 0. -1.
        -14    1    4    4    0    0 -0.11833672412E+02  0.49833527752E+00  0.16825238414E+02  0.20576024604E+02  0.00000000000E+00 0.  1.
          5    1    3    3  501    0 -0.10528346314E+02 -0.27170103355E+02  0.10689953350E+03  0.11087850673E+03  0.41800000000E+01 0.  1.
         -5    1    3    3    0  501 -0.44106280266E+02  0.45548212872E+02  0.10599875414E+00  0.63541225125E+02  0.41800000000E+01 0.  1.
</event>
<event>
11    1  0.1704459E-009  0.3347994E+03  0.7561462E-02  0.9864520E-01
         22   -1    0    0    0    0  0.00000000000E+00  0.00000000000E+00  0.90793531166E+03  0.90793531166E+03  0.00000000000E+00 0. -1.
         22   -1    0    0    0    0 -0.00000000000E+00 -0.00000000000E+00 -0.23911288280E+04  0.23911288280E+04  0.00000000000E+00 0. -1.
         25    2    1    2    0    0  0.90817317701E+02 -0.14101682588E+03 -0.22186363976E+04  0.22284808981E+04  0.12508444289E+03 0.  0.
        -24    2    1    2    0    0  0.94749762530E+02 -0.17731185931E+03 -0.28230028457E+02  0.21904027617E+03  0.82247766702E+02 0.  0.
         24    2    1    2    0    0 -0.18556708023E+03  0.31832868519E+03  0.76367290977E+03  0.85154296539E+03  0.78490863818E+02 0.  0.
        -11    1    5    5    0    0 -0.74213484940E+01  0.72328464987E+02  0.16120948464E+03  0.17684733868E+03  0.00000000000E+00 0.  1.
         12    1    5    5    0    0 -0.17814573174E+03  0.24600022021E+03  0.60246342513E+03  0.67469562671E+03  0.00000000000E+00 0. -1.
         13    1    4    4    0    0 -0.14094361249E+02 -0.31923659085E+02 -0.11089029733E+02  0.36616084018E+02  0.00000000000E+00 0. -1.
        -14    1    4    4    0    0  0.10884412378E+03 -0.14538820023E+03 -0.17140998724E+02  0.18242419216E+03  0.00000000000E+00 0.  1.
          5    1    3    3  501    0 -0.30164415250E+02 -0.19005676567E+02 -0.29341370855E+03  0.29560139454E+03  0.41800000000E+01 0. -1.
         -5    1    3    3    0  501  0.12098173295E+03 -0.12201114931E+03 -0.19252226891E+04  0.19328795036E+04  0.41800000000E+01 0. -1.
</event>
<event>
11    1  0.1704459E-009  0.2725780E+03  0.7561462E-02  0.1012515E+00
         22   -1    0    0    0    0  0.00000000000E+00  0.00000000000E+00  0.22953380455E+03  0.22953380455E+03  0.00000000000E+00 0.  1.
         22   -1    0    0    0    0 -0.00000000000E+00 -0.00000000000E+00 -0.84016537506E+03  0.84016537506E+03  0.00000000000E+00 0.  1.
         25    2    1    2    0    0  0.88667261765E+02 -0.24706125621E+03 -0.33688891773E+03  0.44502136703E+03  0.12509487036E+03 0.  0.
        -24    2    1    2    0    0  0.12723035129E+03  0.12043386578E+03 -0.30453864953E+03  0.36041233647E+03  0.80382740119E+02 0.  0.
         24    2    1    2    0    0 -0.21589761305E+03  0.12662739043E+03  0.30795996747E+02  0.26426547611E+03  0.79003627264E+02 0.  0.
        -11    1    5    5    0    0 -0.16222677086E+03  0.55140845299E+02  0.57798514797E+01  0.17143933238E+03  0.00000000000E+00 0.  1.
         12    1    5    5    0    0 -0.53670842193E+02  0.71486545128E+02  0.25016145268E+02  0.92826143732E+02  0.00000000000E+00 0. -1.
         11    1    4    4    0    0  0.66448811878E+02  0.12164998376E+02 -0.12561834692E+03  0.14263029436E+03  0.00000000000E+00 0. -1.
        -12    1    4    4    0    0  0.60781539411E+02  0.10826886741E+03 -0.17892030261E+03  0.21778204212E+03  0.00000000000E+00 0.  1.
          5    1    3    3  501    0  0.71341556564E+02 -0.25443104296E+03 -0.33337279171E+03  0.42541704711E+03  0.41800000000E+01 0.  1.
         -5    1    3    3    0  501  0.17325705200E+02  0.73697867479E+01 -0.35161260194E+01  0.19604319921E+02  0.41800000000E+01 0.  1.
</event>
<event>
11    1  0.1704459E-009  0.1240342E+04  0.7561462E-02  0.8478954E-01
         22   -1    0    0    0    0  0.00000000000E+00  0.00000000000E+00  0.93579310775E+03  0.93579310775E+03  0.00000000000E+00 0. -1.
         22   -1    0    0    0    0 -0.00000000000E+00 -0.00000000000E+00 -0.41100137973E+03  0.41100137973E+03  0.00000000000E+00 0. -1.
         25    2    1    2    0    0 -0.42724198577E+03  0.39738028366E+03  0.20243218981E+03  0.63013752907E+03  0.12509080632E+03 0.  0.
         24    2    1    2    0    0  0.33662661286E+03 -0.33481803991E+03  0.16654310896E+03  0.50945244655E+03  0.79903640795E+02 0.  0.
        -24    2    1    2    0    0  0.90615372909E+02 -0.62562243750E+02  0.15581642925E+03  0.20720451187E+03  0.80806992042E+02 0.  0.
        -13    1    4    4    0    0  0.66420433568E+02 -0.11317066871E+03  0.32866976396E+02  0.13527569031E+03  0.00000000000E+00 0.  1.
         14    1    4    4    0    0  0.27020617929E+03 -0.22164737120E+03  0.13367613256E+03  0.37417675623E+03  0.00000000000E+00 0. -1.
         11    1    5    5    0    0  0.39610531718E+02  0.12260322421E+02  0.26056529818E+02  0.48971956006E+02  0.00000000000E+00 0. -1.
        -12    1    5    5    0    0  0.51004841191E+02 -0.74822566171E+02  0.12975989943E+03  0.15823255586E+03  0.00000000000E+00 0.  1.
          5    1    3    3  501    0 -0.13761962226E+03  0.12232502445E+03  0.42244016266E+01  0.18422239279E+03  0.41800000000E+01 0. -1.
         -5    1    3    3    0  501 -0.28962236351E+03  0.27505525921E+03  0.19820778818E+03  0.44591513628E+03  0.41800000000E+01 0. -1.
</event>
<event>
11    1  0.1704459E-009  0.4530869E+03  0.7561462E-02  0.9504928E-01
         22   -1    0    0    0    0  0.00000000000E+00  0.00000000000E+00  0.51641925631E+03  0.51641925631E+03  0.00000000000E+00 0. -1.
         22   -1    0    0    0    0 -0.00000000000E+00 -0.00000000000E+00 -0.69896147539E+03  0.69896147539E+03  0.00000000000E+00 0. -1.
         25    2    1    2    0    0  0.42242372353E+03 -0.93513752252E+02 -0.16415038802E+03  0.47935274113E+03  0.12508827478E+03 0.  0.
         24    2    1    2    0    0 -0.41740951415E+03  0.13556950196E+03 -0.22632694356E+03  0.50049962081E+03  0.81646755518E+02 0.  0.
        -24    2    1    2    0    0 -0.50142093797E+01 -0.42055749712E+02  0.20793511250E+03  0.23552836975E+03  0.10218988977E+03 0.  0.
        -13    1    4    4    0    0 -0.32250488146E+03  0.71441862493E+02 -0.18586322295E+03  0.37902305462E+03  0.00000000000E+00 0.  1.
         14    1    4    4    0    0 -0.94904632686E+02  0.64127639471E+02 -0.40463720608E+02  0.12147656620E+03  0.00000000000E+00 0. -1.
         11    1    5    5    0    0 -0.10196632747E+02 -0.38701819629E+02  0.15382513329E+02  0.42876845480E+02  0.00000000000E+00 0. -1.
        -12    1    5    5    0    0  0.51824233673E+01 -0.33539300832E+01  0.19255259917E+03  0.19265152428E+03  0.00000000000E+00 0.  1.
          5    1    3    3  501    0  0.39472985353E+03 -0.58909608971E+02 -0.17117921892E+03  0.43428308359E+03  0.41800000000E+01 0. -1.
         -5    1    3    3    0  501  0.27693869995E+02 -0.34604143281E+02  0.70288309078E+01  0.45069657547E+02  0.41800000000E+01 0. -1.
</event>
<event>
11    1  0.1704459E-009  0.2227742E+03  0.7561462E-02  0.1039493E+00
         22   -1    0    0    0    0  0.00000000000E+00  0.00000000000E+00  0.11534437071E+03  0.11534437071E+03  0.00000000000E+00 0. -1.
         22   -1    0    0    0    0 -0.00000000000E+00 -0.00000000000E+00 -0.15310909444E+04  0.15310909444E+04  0.00000000000E+00 0. -1.
         25    2    1    2    0    0  0.73872769937E+02 -0.21037067828E+02 -0.38948627108E+03  0.41622935476E+03  0.12509027157E+03 0.  0.
        -24    2    1    2    0    0 -0.18617438857E+03 -0.14916436709E+03 -0.97155363703E+03  0.10035924826E+04  0.79815349703E+02 0.  0.
         24    2    1    2    0    0  0.11230161864E+03  0.17020143492E+03 -0.54706665589E+02  0.22661347781E+03  0.82344805964E+02 0.  0.
        -11    1    5    5    0    0 -0.12854256320E+02  0.10950141017E+02 -0.30554716006E+00  0.16888778904E+02  0.00000000000E+00 0.  1.
         12    1    5    5    0    0  0.12515587496E+03  0.15925129390E+03 -0.54401118429E+02  0.20972469891E+03  0.00000000000E+00 0. -1.
         11    1    4    4    0    0 -0.11066925116E+03 -0.73624274582E+02 -0.68509451247E+03  0.69787012257E+03  0.00000000000E+00 0. -1.
        -12    1    4    4    0    0 -0.75505137416E+02 -0.75540092506E+02 -0.28645912456E+03  0.30572235999E+03  0.00000000000E+00 0.  1.
          5    1    3    3  501    0  0.25649881262E+02  0.39519121837E+02 -0.53476923907E+02  0.71392795085E+02  0.41800000000E+01 0.  1.
         -5    1    3    3    0  501  0.48222888676E+02 -0.60556189665E+02 -0.33600934717E+03  0.34483655967E+03  0.41800000000E+01 0.  1.
</event>
<event>
11    1  0.1704459E-009  0.2408733E+03  0.7561462E-02  0.1028877E+00
         22   -1    0    0    0    0  0.00000000000E+00  0.00000000000E+00  0.21123947513E+03  0.21123947513E+03  0.00000000000E+00 0.  1.
         22   -1    0    0    0    0 -0.00000000000E+00 -0.00000000000E+00 -0.65028954040E+03  0.65028954040E+03  0.00000000000E+00 0.  1.
         25    2    1    2    0    0 -0.10269302961E+03 -0.55473556203E+02 -0.11128272573E+03  0.20409510865E+03  0.12509114502E+03 0.  0.
        -24    2    1    2    0    0  0.10407076086E+03  0.26396058672E+03 -0.31338231277E+03  0.43013813881E+03  0.79400440110E+02 0.  0.
         24    2    1    2    0    0 -0.13777312515E+01 -0.20848703052E+03 -0.14385026771E+02  0.22729576806E+03  0.89373917597E+02 0.  0.
        -11    1    5    5    0    0  0.18018853775E+01 -0.20470342843E+03 -0.33604341538E+02  0.20745118022E+03  0.00000000000E+00 0.  1.
         12    1    5    5    0    0 -0.31796166291E+01 -0.37836020846E+01  0.19219314768E+02  0.19844587846E+02  0.00000000000E+00 0. -1.
         11    1    4    4    0    0  0.34193591585E+02  0.70380316402E+02 -0.39797487725E+02  0.87786278379E+02  0.00000000000E+00 0. -1.
        -12    1    4    4    0    0  0.69877169272E+02  0.19358027032E+03 -0.27358482505E+03  0.34235186043E+03  0.00000000000E+00 0.  1.
          5    1    3    3  501    0 -0.13098139910E+03 -0.49153351084E+02 -0.10262802671E+03  0.17355737697E+03  0.41800000000E+01 0. -1.
         -5    1    3    3    0  501  0.28288369495E+02 -0.63202051198E+01 -0.86546990208E+01  0.30537731687E+02  0.41800000000E+01 0. -1.
</event>
<event>
11    1  0.1704459E-009  0.1618713E+03  0.7561462E-02  0.1085330E+00
         22   -1    0    0    0    0  0.00000000000E+00  0.00000000000E+00  0.14712325495E+03  0.14712325495E+03  0.00000000000E+00 0. -1.
         22   -1    0    0    0    0 -0.00000000000E+00 -0.00000000000E+00 -0.54393505531E+03  0.54393505531E+03  0.00000000000E+00 0.  1.
         25    2    1    2    0    0  0.45916487382E+01 -0.80253752662E+02 -0.25566205662E+03  0.29575807724E+03  0.12509198616E+03 0.  0.
        -24    2    1    2    0    0  0.38978897105E+02  0.19711619561E+03 -0.54699559075E+02  0.22368085230E+03  0.81651288615E+02 0.  0.
         24    2    1    2    0    0 -0.43570545843E+02 -0.11686244295E+03 -0.86450184662E+02  0.17161938072E+03  0.80152070312E+02 0.  0.
        -13    1    5    5    0    0 -0.53369734501E+02 -0.81060150372E+02 -0.92427501370E+02  0.13402208605E+03  0.00000000000E+00 0.  1.
         14    1    5    5    0    0  0.97991886582E+01 -0.35802292575E+02  0.59773167072E+01  0.37597294677E+02  0.00000000000E+00 0. -1.
         11    1    4    4    0    0 -0.11640890429E+01  0.13040516838E+03 -0.64002488964E+02  0.14526934169E+03  0.00000000000E+00 0. -1.
        -12    1    4    4    0    0  0.40142986148E+02  0.66711027232E+02  0.93029298889E+01  0.78411510607E+02  0.00000000000E+00 0.  1.
          5    1    3    3  501    0 -0.46763678584E+02 -0.37940895450E+02 -0.19998038846E+03  0.20889227212E+03  0.41800000000E+01 0.  1.
         -5    1    3    3    0  501  0.51355327323E+02 -0.42312857212E+02 -0.55681668155E+02  0.86865805116E+02  0.41800000000E+01 0.  1.
</event>
<event>
11    1  0.1704459E-009  0.3862165E+03  0.7561462E-02  0.9691326E-01
         22   -1    0    0    0    0  0.00000000000E+00  0.00000000000E+00  0.56234315036E+03  0.56234315036E+03  0.00000000000E+00 0.  1.
         22   -1    0    0    0    0 -0.00000000000E+00 -0.00000000000E+00 -0.13416525696E+04  0.13416525696E+04  0.00000000000E+00 0. -1.
         25    2    1    2    0    0  0.16152622566E+03  0.29727288584E+03 -0.88871338453E+03  0.95912518147E+03  0.12509094151E+03 0.  0.
         24    2    1    2    0    0 -0.16172858998E+03 -0.59100783183E+03 -0.96482101381E+01  0.61792999370E+03  0.79359908413E+02 0.  0.
        -24    2    1    2    0    0  0.20236432739E+00  0.29373494599E+03  0.11905217546E+03  0.32694054476E+03  0.80227425996E+02 0.  0.
        -11    1    4    4    0    0 -0.25916640715E+02 -0.20840964905E+03  0.19370055219E+02  0.21090626620E+03  0.00000000000E+00 0.  1.
         12    1    4    4    0    0 -0.13581194927E+03 -0.38259818278E+03 -0.29018265358E+02  0.40702372751E+03  0.00000000000E+00 0. -1.
         13    1    5    5    0    0 -0.79616535277E+01  0.85671954078E+02 -0.20428236964E+01  0.86065351746E+02  0.00000000000E+00 0. -1.
        -14    1    5    5    0    0  0.81640178551E+01  0.20806299191E+03  0.12109499916E+03  0.24087519301E+03  0.00000000000E+00 0.  1.
          5    1    3    3  501    0  0.95945198048E+02  0.27475494173E+03 -0.70502197197E+03  0.76273797099E+03  0.41800000000E+01 0. -1.
         -5    1    3    3    0  501  0.65581027609E+02  0.22517944114E+02 -0.18369141256E+03  0.19638721047E+03  0.41800000000E+01 0. -1.
</event>
<event>
11    1  0.1704459E-009  0.1347284E+03  0.7561462E-02  0.1113592E+00
         22   -1    0    0    0    0  0.00000000000E+00  0.00000000000E+00  0.10639859558E+04  0.10639859558E+04  0.00000000000E+00 0. -1.
         22   -1    0    0    0    0 -0.00000000000E+00 -0.00000000000E+00 -0.99600715077E+03  0.99600715077E+03  0.00000000000E+00 0.  1.
         25    2    1    2    0    0  0.15353452285E+02 -0.11872621160E+01 -0.48009153760E+03  0.49635884277E+03  0.12508828177E+03 0.  0.
         24    2    1    2    0    0 -0.71941796129E+02 -0.28834533033E+02 -0.49904075176E+03  0.51143593447E+03  0.80734074705E+02 0.  0.
        -24    2    1    2    0    0  0.56588343844E+02  0.30021795149E+02  0.10471110943E+04  0.10521983293E+04  0.81093350008E+02 0.  0.
        -11    1    4    4    0    0 -0.52152083028E+02  0.66091791235E+01 -0.41262733975E+03  0.41596254943E+03  0.00000000000E+00 0.  1.
         12    1    4    4    0    0 -0.19789713102E+02 -0.35443712157E+02 -0.86413412009E+02  0.95473385041E+02  0.00000000000E+00 0. -1.
         13    1    5    5    0    0  0.72252927416E+02  0.23128110889E+02  0.60243133629E+03  0.60718935266E+03  0.00000000000E+00 0. -1.
        -14    1    5    5    0    0 -0.15664583572E+02  0.68936842607E+01  0.44467975805E+03  0.44500897663E+03  0.00000000000E+00 0.  1.
          5    1    3    3  501    0 -0.70081938245E+01 -0.47335656628E+02 -0.38721845411E+03  0.39018634365E+03  0.41800000000E+01 0.  1.
         -5    1    3    3    0  501  0.22361646110E+02  0.46148394512E+02 -0.92873083496E+02  0.10617249913E+03  0.41800000000E+01 0.  1.
</event>
<event>
11    1  0.1704459E-009  0.6103927E+03  0.7561462E-02  0.9175890E-01
         22   -1    0    0    0    0  0.00000000000E+00  0.00000000000E+00  0.10376179339E+04  0.10376179339E+04  0.00000000000E+00 0.  1.
         22   -1    0    0    0    0 -0.00000000000E+00 -0.00000000000E+00 -0.45624606867E+03  0.45624606867E+03  0.00000000000E+00 0.  1.
         25    2    1    2    0    0  0.30027661035E+03  0.53475958525E+03  0.48478689585E+03  0.79170665646E+03  0.12508892341E+03 0.  0.
        -24    2    1    2    0    0 -0.25335519725E+03 -0.53281137979E+03  0.40617528575E+02  0.59688102837E+03  0.80872467484E+02 0.  0.
         24    2    1    2    0    0 -0.46921413104E+02 -0.19482054590E+01  0.55967440768E+02  0.10527631769E+03  0.75797982354E+02 0.  0.
        -13    1    5    5    0    0 -0.51415265044E+00 -0.69445088128E+01 -0.17161952918E+02  0.18520885064E+02  0.00000000000E+00 0.  1.
         14    1    5    5    0    0 -0.46407260454E+02  0.49963033538E+01  0.73129393686E+02  0.86755432631E+02  0.00000000000E+00 0. -1.
         13    1    4    4    0    0 -0.63862705033E+02 -0.11000248062E+03 -0.22822552578E+02  0.12922793716E+03  0.00000000000E+00 0. -1.
        -14    1    4    4    0    0 -0.18949249222E+03 -0.42280889916E+03  0.63440081153E+02  0.46765309121E+03  0.00000000000E+00 0.  1.
          5    1    3    3  501    0  0.10742063341E+02 -0.18459568271E+01  0.26430203037E+02  0.28893381837E+02  0.41800000000E+01 0.  1.
         -5    1    3    3    0  501  0.28953454701E+03  0.53660554207E+03  0.45835669281E+03  0.76281327463E+03  0.41800000000E+01 0.  1.
</event>
<event>
11    1  0.1704459E-009  0.6284833E+03  0.7561462E-02  0.9144886E-01
         22   -1    0    0    0    0  0.00000000000E+00  0.00000000000E+00  0.33658567959E+03  0.33658567959E+03  0.00000000000E+00 0. -1.
         22   -1    0    0    0    0 -0.00000000000E+00 -0.00000000000E+00 -0.19637574611E+04  0.19637574611E+04  0.00000000000E+00 0.  1.
         25    2    1    2    0    0 -0.22520350944E+03 -0.56317804437E+03 -0.79818463360E+03  0.10102634053E+04  0.12508920190E+03 0.  0.
        -24    2    1    2    0    0  0.21365169748E+03  0.58669501496E+03 -0.95160196439E+03  0.11402300161E+04  0.68703002391E+02 0.  0.
         24    2    1    2    0    0  0.11551811965E+02 -0.23516970593E+02  0.12261481646E+03  0.14984971934E+03  0.82061275305E+02 0.  0.
        -11    1    5    5    0    0 -0.22562991593E+02 -0.16871522566E+02  0.68695043621E+01  0.28998740550E+02  0.00000000000E+00 0.  1.
         12    1    5    5    0    0  0.34114803559E+02 -0.66454480269E+01  0.11574531210E+03  0.12085097879E+03  0.00000000000E+00 0. -1.
         13    1    4    4    0    0  0.11354471972E+03  0.37084493463E+03 -0.63708927639E+03  0.74585596130E+03  0.00000000000E+00 0. -1.
        -14    1    4    4    0    0  0.10010697776E+03  0.21585008033E+03 -0.31451268800E+03  0.39437405478E+03  0.00000000000E+00 0.  1.
          5    1    3    3  501    0 -0.19135108761E+03 -0.47177735946E+03 -0.58310149713E+03  0.77408910598E+03  0.41800000000E+01 0.  1.
         -5    1    3    3    0  501 -0.33852421833E+02 -0.91400684905E+02 -0.21508313647E+03  0.23617429931E+03  0.41800000000E+01 0.  1.
</event>
<event>
11    1  0.1704459E-009  0.1341623E+03  0.7561462E-02  0.1114258E+00
         22   -1    0    0    0    0  0.00000000000E+00  0.00000000000E+00  0.29112859776E+03  0.29112859776E+03  0.00000000000E+00 0. -1.
         22   -1    0    0    0    0 -0.00000000000E+00 -0.00000000000E+00 -0.15106718244E+04  0.15106718244E+04  0.00000000000E+00 0. -1.
         25    2    1    2    0    0  0.33610467947E+02  0.23692670902E+01 -0.85172174001E+03  0.86151773516E+03  0.12509040179E+03 0.  0.
         24    2    1    2    0    0 -0.61022954011E+02  0.14482354485E+01 -0.64324204904E+03  0.65148619741E+03  0.83354864686E+02 0.  0.
        -24    2    1    2    0    0  0.27412486064E+02 -0.38175025387E+01  0.27542056243E+03  0.28879648956E+03  0.82346271680E+02 0.  0.
        -11    1    4    4    0    0  0.12296155610E+02 -0.18387025320E+02 -0.75110201745E+02  0.78299556506E+02  0.00000000000E+00 0.  1.
         12    1    4    4    0    0 -0.73319109621E+02  0.19835260768E+02 -0.56813184729E+03  0.57318664091E+03  0.00000000000E+00 0. -1.
         13    1    5    5    0    0  0.23453705868E+02 -0.10901153747E+02  0.27880656333E+03  0.28000359145E+03  0.00000000000E+00 0. -1.
        -14    1    5    5    0    0  0.39587801955E+01  0.70836512082E+01 -0.33860009020E+01  0.87928981106E+01  0.00000000000E+00 0.  1.
          5    1    3    3  501    0  0.77309350949E+02  0.38242187522E+01 -0.38449949570E+03  0.39223550960E+03  0.41800000000E+01 0. -1.
         -5    1    3    3    0  501 -0.43698883002E+02 -0.14549516620E+01 -0.46722224431E+03  0.46928222557E+03  0.41800000000E+01 0. -1.
</event>
<event>
11    1  0.1704459E-009  0.1965093E+03  0.7561462E-02  0.1057020E+00
         22   -1    0    0    0    0  0.00000000000E+00  0.00000000000E+00  0.58195342305E+03  0.58195342305E+03  0.00000000000E+00 0.  1.
         22   -1    0    0    0    0 -0.00000000000E+00 -0.00000000000E+00 -0.14061385006E+03  0.14061385006E+03  0.00000000000E+00 0.  1.
         25    2    1    2    0    0  0.69674515279E+02 -0.16337354575E+02  0.62325713020E+01  0.14424811416E+03  0.12508887344E+03 0.  0.
        -24    2    1    2    0    0  0.10002361224E+03 -0.39789032277E+02  0.44595476205E+02  0.14104878077E+03  0.79486552102E+02 0.  0.
         24    2    1    2    0    0 -0.16969812752E+03  0.56126386852E+02  0.39051152549E+03  0.43727037818E+03  0.82210135055E+02 0.  0.
        -11    1    5    5    0    0 -0.17820061026E+03  0.58323389946E+02  0.36600754853E+03  0.41124032013E+03  0.00000000000E+00 0.  1.
         12    1    5    5    0    0  0.85024827462E+01 -0.21970030945E+01  0.24503976957E+02  0.26030058052E+02  0.00000000000E+00 0. -1.
         11    1    4    4    0    0  0.35685671735E+02 -0.45971745700E+02 -0.66346843950E+01  0.58573779176E+02  0.00000000000E+00 0. -1.
        -12    1    4    4    0    0  0.64337940503E+02  0.61827134229E+01  0.51230160600E+02  0.82475001598E+02  0.00000000000E+00 0.  1.
          5    1    3    3  501    0  0.14255578371E+02 -0.37612055517E+02 -0.48672099964E+02  0.63279806809E+02  0.41800000000E+01 0. -1.
         -5    1    3    3    0  501  0.55418936909E+02  0.21274700942E+02  0.54904671266E+02  0.80968307350E+02  0.41800000000E+01 0. -1.
</event>
